POPC bilayer and 5FIBZ with EP hydrated t= 10010.00000 step= 5000
34138
    1PA    C116    1   1.781   5.570   3.639
    1PA    H16R    2   1.872   5.510   3.652
    1PA    H16S    3   1.756   5.640   3.719
    1PA    H16T    4   1.803   5.646   3.564
    1PA    C115    5   1.672   5.467   3.608
    1PA    H15R    6   1.711   5.426   3.515
    1PA    H15S    7   1.664   5.394   3.689
    1PA    C114    8   1.532   5.521   3.578
    1PA    H14R    9   1.528   5.594   3.496
    1PA    H14S   10   1.476   5.438   3.534
    1PA    C113   11   1.462   5.574   3.704
    1PA    H13R   12   1.534   5.630   3.765
    1PA    H13S   13   1.375   5.633   3.676
    1PA    C112   14   1.406   5.452   3.779
    1PA    H12R   15   1.377   5.377   3.705
    1PA    H12S   16   1.489   5.410   3.835
    1PA    C111   17   1.300   5.503   3.877
    1PA    H11R   18   1.335   5.597   3.922
    1PA    H11S   19   1.207   5.520   3.823
    1PA    C110   20   1.258   5.394   3.976
    1PA    H10R   21   1.221   5.313   3.912
    1PA    H10S   22   1.334   5.351   4.041
    1PA     C19   23   1.129   5.443   4.043
    1PA     H9R   24   1.057   5.484   3.972
    1PA     H9S   25   1.077   5.356   4.083
    1PA     C18   26   1.144   5.542   4.160
    1PA     H8R   27   1.202   5.632   4.135
    1PA     H8S   28   1.040   5.569   4.180
    1PA     C17   29   1.209   5.477   4.282
    1PA     H7R   30   1.157   5.389   4.319
    1PA     H7S   31   1.312   5.448   4.260
    1PA     C16   32   1.210   5.580   4.396
    1PA     H6R   33   1.277   5.665   4.377
    1PA     H6S   34   1.110   5.622   4.410
    1PA     C15   35   1.251   5.514   4.528
    1PA     H5R   36   1.181   5.437   4.562
    1PA     H5S   37   1.349   5.472   4.507
    1PA     C14   38   1.270   5.623   4.634
    1PA     H4R   39   1.356   5.687   4.615
    1PA     H4S   40   1.186   5.692   4.644
    1PA     C13   41   1.287   5.552   4.769
    1PA     H3R   42   1.201   5.486   4.785
    1PA     H3S   43   1.385   5.506   4.769
    1PA     C12   44   1.282   5.658   4.881
    1PA     H2R   45   1.360   5.733   4.871
    1PA     H2S   46   1.184   5.706   4.870
    2PC     C11   47   1.293   5.601   5.020
    2PC     O12   48   1.287   5.661   5.125
    2PC     O11   49   1.304   5.467   5.013
    2PC      C1   50   1.298   5.378   5.126
    2PC      HR   51   1.351   5.290   5.090
    2PC      HS   52   1.365   5.419   5.203
    2PC      C2   53   1.156   5.352   5.179
    2PC      HX   54   1.112   5.444   5.218
    2PC      C3   55   1.149   5.246   5.290
    2PC      HA   56   1.073   5.169   5.275
    2PC      HB   57   1.244   5.194   5.284
    2PC     O31   58   1.125   5.298   5.422
    2PC     P31   59   1.107   5.188   5.537
    2PC     O32   60   1.021   5.274   5.641
    2PC     C31   61   0.982   5.196   5.756
    2PC     H1A   62   0.928   5.104   5.730
    2PC     H1B   63   1.060   5.165   5.825
    2PC     C32   64   0.898   5.297   5.835
    2PC     H2A   65   0.930   5.400   5.817
    2PC     H2B   66   0.799   5.293   5.790
    2PC     N31   67   0.884   5.277   5.983
    2PC     C33   68   1.006   5.332   6.051
    2PC     H3A   69   1.016   5.437   6.025
    2PC     H3B   70   0.995   5.320   6.159
    2PC     H3C   71   1.096   5.281   6.016
    2PC     C34   72   0.768   5.364   6.020
    2PC     H4A   73   0.760   5.353   6.128
    2PC     H4B   74   0.783   5.471   6.001
    2PC     H4C   75   0.678   5.330   5.969
    2PC     C35   76   0.856   5.137   6.029
    2PC     H5A   77   0.941   5.075   5.998
    2PC     H5B   78   0.766   5.100   5.980
    2PC     H5C   79   0.847   5.124   6.137
    2PC     O33   80   1.022   5.070   5.509
    2PC     O34   81   1.237   5.138   5.586
    2PC     O21   82   1.096   5.279   5.071
    2PC     C21   83   1.037   5.341   4.967
    2PC     O22   84   1.023   5.462   4.967
    3OL     C12   85   0.998   5.256   4.850
    3OL     H2R   86   0.923   5.186   4.887
    3OL     H2S   87   1.080   5.195   4.811
    3OL     C13   88   0.931   5.334   4.735
    3OL     H3R   89   1.006   5.400   4.693
    3OL     H3S   90   0.847   5.394   4.770
    3OL     C14   91   0.893   5.231   4.628
    3OL     H4R   92   0.798   5.188   4.661
    3OL     H4S   93   0.967   5.150   4.630
    3OL     C15   94   0.876   5.295   4.489
    3OL     H5R   95   0.971   5.347   4.471
    3OL     H5S   96   0.793   5.365   4.489
    3OL     C16   97   0.853   5.183   4.387
    3OL     H6R   98   0.756   5.133   4.398
    3OL     H6S   99   0.917   5.096   4.401
    3OL     C17  100   0.864   5.239   4.245
    3OL     H7R  101   0.847   5.153   4.179
    3OL     H7S  102   0.962   5.285   4.240
    3OL     C18  103   0.760   5.348   4.215
    3OL     H8R  104   0.786   5.403   4.125
    3OL     H8S  105   0.759   5.426   4.292
    3OL     C19  106   0.623   5.289   4.190
    3OL     H9R  107   0.632   5.215   4.110
    3OL    C110  108   0.508   5.304   4.253
    3OL    H10R  109   0.417   5.251   4.228
    3OL    C111  110   0.496   5.399   4.370
    3OL    H11R  111   0.497   5.503   4.338
    3OL    H11S  112   0.579   5.385   4.439
    3OL    C112  113   0.371   5.366   4.453
    3OL    H12R  114   0.390   5.275   4.511
    3OL    H12S  115   0.287   5.353   4.385
    3OL    C113  116   0.334   5.485   4.543
    3OL    H13R  117   0.238   5.458   4.586
    3OL    H13S  118   0.311   5.574   4.483
    3OL    C114  119   0.443   5.523   4.644
    3OL    H14R  120   0.535   5.545   4.590
    3OL    H14S  121   0.465   5.430   4.698
    3OL    C115  122   0.406   5.633   4.744
    3OL    H15R  123   0.381   5.723   4.688
    3OL    H15S  124   0.490   5.646   4.813
    3OL    C116  125   0.292   5.582   4.834
    3OL    H16R  126   0.217   5.527   4.777
    3OL    H16S  127   0.229   5.662   4.872
    3OL    C117  128   0.341   5.488   4.945
    3OL    H17R  129   0.393   5.543   5.023
    3OL    H17S  130   0.411   5.413   4.906
    3OL    C118  131   0.222   5.414   5.006
    3OL    H18R  132   0.246   5.360   5.098
    3OL    H18S  133   0.182   5.350   4.926
    3OL    H18T  134   0.140   5.484   5.025
    1PA    C116  135   0.912   3.914   3.769
    1PA    H16R  136   0.910   3.809   3.736
    1PA    H16S  137   1.011   3.948   3.738
    1PA    H16T  138   0.834   3.968   3.715
    1PA    C115  139   0.901   3.924   3.922
    1PA    H15R  140   0.998   3.893   3.961
    1PA    H15S  141   0.906   4.026   3.960
    1PA    C114  142   0.788   3.844   3.987
    1PA    H14R  143   0.692   3.890   3.966
    1PA    H14S  144   0.787   3.742   3.948
    1PA    C113  145   0.811   3.840   4.139
    1PA    H13R  146   0.712   3.816   4.179
    1PA    H13S  147   0.886   3.765   4.163
    1PA    C112  148   0.846   3.975   4.204
    1PA    H12R  149   0.945   3.999   4.165
    1PA    H12S  150   0.778   4.054   4.170
    1PA    C111  151   0.843   3.969   4.357
    1PA    H11R  152   0.736   3.962   4.380
    1PA    H11S  153   0.896   3.885   4.403
    1PA    C110  154   0.903   4.094   4.424
    1PA    H10R  155   1.008   4.100   4.397
    1PA    H10S  156   0.848   4.180   4.385
    1PA     C19  157   0.881   4.098   4.576
    1PA     H9R  158   0.911   4.001   4.616
    1PA     H9S  159   0.946   4.178   4.611
    1PA     C18  160   0.734   4.119   4.615
    1PA     H8R  161   0.692   4.187   4.541
    1PA     H8S  162   0.670   4.031   4.611
    1PA     C17  163   0.709   4.175   4.756
    1PA     H7R  164   0.753   4.274   4.768
    1PA     H7S  165   0.600   4.175   4.770
    1PA     C16  166   0.776   4.092   4.867
    1PA     H6R  167   0.745   3.987   4.873
    1PA     H6S  168   0.882   4.084   4.844
    1PA     C15  169   0.756   4.162   5.002
    1PA     H5R  170   0.812   4.255   5.003
    1PA     H5S  171   0.650   4.179   5.024
    1PA     C14  172   0.824   4.083   5.115
    1PA     H4R  173   0.792   3.979   5.120
    1PA     H4S  174   0.930   4.080   5.090
    1PA     C13  175   0.801   4.142   5.255
    1PA     H3R  176   0.881   4.104   5.318
    1PA     H3S  177   0.808   4.251   5.254
    1PA     C12  178   0.674   4.099   5.330
    1PA     H2R  179   0.579   4.123   5.281
    1PA     H2S  180   0.676   3.992   5.351
    2PC     C11  181   0.665   4.168   5.464
    2PC     O12  182   0.558   4.192   5.516
    2PC     O11  183   0.788   4.186   5.514
    2PC      C1  184   0.812   4.242   5.644
    2PC      HR  185   0.766   4.341   5.638
    2PC      HS  186   0.768   4.175   5.719
    2PC      C2  187   0.963   4.262   5.663
    2PC      HX  188   1.007   4.163   5.649
    2PC      C3  189   1.001   4.311   5.803
    2PC      HA  190   0.991   4.225   5.869
    2PC      HB  191   1.108   4.336   5.806
    2PC     O31  192   0.925   4.423   5.851
    2PC     P31  193   0.952   4.465   6.003
    2PC     O32  194   0.888   4.337   6.076
    2PC     C31  195   0.747   4.314   6.092
    2PC     H1A  196   0.707   4.363   6.181
    2PC     H1B  197   0.687   4.357   6.012
    2PC     C32  198   0.721   4.163   6.105
    2PC     H2A  199   0.726   4.126   6.003
    2PC     H2B  200   0.800   4.119   6.166
    2PC     N31  201   0.593   4.121   6.171
    2PC     C33  202   0.586   3.971   6.160
    2PC     H3A  203   0.681   3.929   6.192
    2PC     H3B  204   0.497   3.932   6.208
    2PC     H3C  205   0.588   3.946   6.053
    2PC     C34  206   0.586   4.165   6.314
    2PC     H4A  207   0.506   4.103   6.355
    2PC     H4B  208   0.682   4.164   6.365
    2PC     H4C  209   0.551   4.269   6.314
    2PC     C35  210   0.479   4.178   6.093
    2PC     H5A  211   0.513   4.279   6.069
    2PC     H5B  212   0.386   4.168   6.150
    2PC     H5C  213   0.477   4.125   5.998
    2PC     O33  214   1.093   4.498   6.036
    2PC     O34  215   0.870   4.583   6.040
    2PC     O21  216   1.004   4.353   5.560
    2PC     C21  217   1.132   4.383   5.534
    2PC     O22  218   1.227   4.335   5.593
    3OL     C12  219   1.146   4.474   5.415
    3OL     H2R  220   1.251   4.502   5.404
    3OL     H2S  221   1.084   4.562   5.435
    3OL     C13  222   1.103   4.411   5.281
    3OL     H3R  223   0.994   4.407   5.281
    3OL     H3S  224   1.142   4.309   5.279
    3OL     C14  225   1.148   4.496   5.162
    3OL     H4R  226   1.256   4.496   5.149
    3OL     H4S  227   1.119   4.601   5.174
    3OL     C15  228   1.091   4.434   5.034
    3OL     H5R  229   0.985   4.460   5.037
    3OL     H5S  230   1.089   4.327   5.055
    3OL     C16  231   1.163   4.465   4.902
    3OL     H6R  232   1.271   4.453   4.904
    3OL     H6S  233   1.139   4.571   4.885
    3OL     C17  234   1.112   4.376   4.788
    3OL     H7R  235   1.003   4.370   4.783
    3OL     H7S  236   1.155   4.276   4.796
    3OL     C18  237   1.158   4.424   4.649
    3OL     H8R  238   1.134   4.529   4.633
    3OL     H8S  239   1.102   4.368   4.574
    3OL     C19  240   1.305   4.391   4.642
    3OL     H9R  241   1.336   4.287   4.631
    3OL    C110  242   1.406   4.476   4.641
    3OL    H10R  243   1.506   4.438   4.623
    3OL    C111  244   1.397   4.627   4.640
    3OL    H11R  245   1.451   4.659   4.729
    3OL    H11S  246   1.296   4.668   4.649
    3OL    C112  247   1.469   4.687   4.519
    3OL    H12R  248   1.575   4.668   4.538
    3OL    H12S  249   1.440   4.792   4.524
    3OL    C113  250   1.427   4.637   4.380
    3OL    H13R  251   1.321   4.642   4.353
    3OL    H13S  252   1.447   4.530   4.364
    3OL    C114  253   1.511   4.708   4.273
    3OL    H14R  254   1.616   4.722   4.297
    3OL    H14S  255   1.472   4.809   4.256
    3OL    C115  256   1.529   4.631   4.142
    3OL    H15R  257   1.551   4.529   4.174
    3OL    H15S  258   1.616   4.681   4.099
    3OL    C116  259   1.399   4.646   4.061
    3OL    H16R  260   1.377   4.748   4.029
    3OL    H16S  261   1.326   4.601   4.128
    3OL    C117  262   1.415   4.561   3.934
    3OL    H17R  263   1.453   4.462   3.961
    3OL    H17S  264   1.489   4.611   3.872
    3OL    C118  265   1.281   4.548   3.860
    3OL    H18R  266   1.251   4.639   3.809
    3OL    H18S  267   1.204   4.502   3.922
    3OL    H18T  268   1.307   4.480   3.779
    1PA    C116  269   6.424   4.278   3.969
    1PA    H16R  270   6.401   4.172   3.965
    1PA    H16S  271   6.517   4.293   4.025
    1PA    H16T  272   6.439   4.314   3.867
    1PA    C115  273   6.311   4.347   4.047
    1PA    H15R  274   6.345   4.446   4.078
    1PA    H15S  275   6.241   4.368   3.966
    1PA    C114  276   6.250   4.261   4.159
    1PA    H14R  277   6.157   4.302   4.200
    1PA    H14S  278   6.235   4.160   4.121
    1PA    C113  279   6.348   4.233   4.273
    1PA    H13R  280   6.322   4.144   4.330
    1PA    H13S  281   6.448   4.227   4.228
    1PA    C112  282   6.342   4.338   4.384
    1PA    H12R  283   6.353   4.434   4.334
    1PA    H12S  284   6.249   4.336   4.440
    1PA    C111  285   6.462   4.319   4.479
    1PA    H11R  286   6.473   4.220   4.524
    1PA    H11S  287   6.552   4.323   4.418
    1PA    C110  288   6.470   4.427   4.588
    1PA    H10R  289   6.451   4.523   4.540
    1PA    H10S  290   6.389   4.408   4.658
    1PA     C19  291   6.603   4.425   4.665
    1PA     H9R  292   6.628   4.323   4.697
    1PA     H9S  293   6.690   4.438   4.601
    1PA     C18  294   6.601   4.522   4.784
    1PA     H8R  295   6.588   4.624   4.747
    1PA     H8S  296   6.513   4.499   4.845
    1PA     C17  297   6.729   4.528   4.868
    1PA     H7R  298   6.821   4.538   4.811
    1PA     H7S  299   6.718   4.623   4.921
    1PA     C16  300   6.749   4.405   4.957
    1PA     H6R  301   6.688   4.421   5.046
    1PA     H6S  302   6.712   4.312   4.911
    1PA     C15  303   6.895   4.381   4.995
    1PA     H5R  304   6.908   4.289   5.054
    1PA     H5S  305   6.958   4.365   4.907
    1PA     C14  306   6.963   4.499   5.065
    1PA     H4R  307   7.070   4.481   5.076
    1PA     H4S  308   6.948   4.590   5.006
    1PA     C13  309   6.909   4.527   5.206
    1PA     H3R  310   6.971   4.610   5.242
    1PA     H3S  311   6.804   4.558   5.203
    1PA     C12  312   6.929   4.411   5.305
    1PA     H2R  313   6.853   4.334   5.293
    1PA     H2S  314   7.024   4.360   5.298
    2PC     C11  315   6.914   4.468   5.444
    2PC     O12  316   7.008   4.514   5.505
    2PC     O11  317   6.784   4.482   5.474
    2PC      C1  318   6.749   4.570   5.583
    2PC      HR  319   6.651   4.544   5.622
    2PC      HS  320   6.827   4.558   5.659
    2PC      C2  321   6.753   4.716   5.536
    2PC      HX  322   6.848   4.731   5.485
    2PC      C3  323   6.732   4.811   5.654
    2PC      HA  324   6.809   4.811   5.731
    2PC      HB  325   6.705   4.913   5.623
    2PC     O31  326   6.619   4.760   5.728
    2PC     P31  327   6.558   4.841   5.852
    2PC     O32  328   6.426   4.756   5.884
    2PC     C31  329   6.339   4.714   5.778
    2PC     H1A  330   6.314   4.798   5.713
    2PC     H1B  331   6.381   4.636   5.713
    2PC     C32  332   6.217   4.650   5.844
    2PC     H2A  333   6.145   4.642   5.762
    2PC     H2B  334   6.237   4.558   5.899
    2PC     N31  335   6.140   4.737   5.939
    2PC     C33  336   6.007   4.670   5.952
    2PC     H3A  337   5.942   4.680   5.865
    2PC     H3B  338   6.024   4.565   5.976
    2PC     H3C  339   5.960   4.725   6.034
    2PC     C34  340   6.209   4.743   6.072
    2PC     H4A  341   6.140   4.792   6.141
    2PC     H4B  342   6.224   4.643   6.111
    2PC     H4C  343   6.302   4.796   6.051
    2PC     C35  344   6.124   4.876   5.884
    2PC     H5A  345   6.101   4.937   5.972
    2PC     H5B  346   6.043   4.872   5.811
    2PC     H5C  347   6.213   4.916   5.835
    2PC     O33  348   6.660   4.837   5.959
    2PC     O34  349   6.523   4.981   5.819
    2PC     O21  350   6.654   4.731   5.432
    2PC     C21  351   6.676   4.824   5.337
    2PC     O22  352   6.758   4.913   5.337
    3OL     C12  353   6.585   4.816   5.217
    3OL     H2R  354   6.491   4.765   5.239
    3OL     H2S  355   6.627   4.753   5.138
    3OL     C13  356   6.561   4.956   5.158
    3OL     H3R  357   6.658   5.003   5.141
    3OL     H3S  358   6.511   5.020   5.231
    3OL     C14  359   6.485   4.962   5.025
    3OL     H4R  360   6.469   5.063   4.985
    3OL     H4S  361   6.395   4.902   5.033
    3OL     C15  362   6.573   4.893   4.920
    3OL     H5R  363   6.610   4.794   4.947
    3OL     H5S  364   6.669   4.943   4.902
    3OL     C16  365   6.500   4.902   4.785
    3OL     H6R  366   6.568   4.852   4.715
    3OL     H6S  367   6.493   5.009   4.763
    3OL     C17  368   6.367   4.825   4.791
    3OL     H7R  369   6.297   4.884   4.850
    3OL     H7S  370   6.381   4.730   4.842
    3OL     C18  371   6.313   4.802   4.649
    3OL     H8R  372   6.385   4.747   4.588
    3OL     H8S  373   6.287   4.900   4.608
    3OL     C19  374   6.192   4.716   4.673
    3OL     H9R  375   6.210   4.611   4.692
    3OL    C110  376   6.064   4.752   4.665
    3OL    H10R  377   5.992   4.671   4.671
    3OL    C111  378   6.014   4.891   4.633
    3OL    H11R  379   5.953   4.882   4.543
    3OL    H11S  380   6.090   4.958   4.595
    3OL    C112  381   5.947   4.968   4.747
    3OL    H12R  382   6.010   4.963   4.836
    3OL    H12S  383   5.849   4.927   4.770
    3OL    C113  384   5.935   5.118   4.717
    3OL    H13R  385   5.883   5.137   4.622
    3OL    H13S  386   6.031   5.167   4.700
    3OL    C114  387   5.855   5.193   4.824
    3OL    H14R  388   5.879   5.299   4.816
    3OL    H14S  389   5.874   5.153   4.924
    3OL    C115  390   5.707   5.176   4.789
    3OL    H15R  391   5.678   5.072   4.773
    3OL    H15S  392   5.682   5.225   4.694
    3OL    C116  393   5.617   5.253   4.887
    3OL    H16R  394   5.524   5.274   4.833
    3OL    H16S  395   5.660   5.350   4.914
    3OL    C117  396   5.571   5.180   5.014
    3OL    H17R  397   5.511   5.248   5.075
    3OL    H17S  398   5.661   5.175   5.075
    3OL    C118  399   5.502   5.044   4.989
    3OL    H18R  400   5.411   5.054   4.930
    3OL    H18S  401   5.477   4.998   5.085
    3OL    H18T  402   5.562   4.972   4.933
    1PA    C116  403   0.233   4.515   4.253
    1PA    H16R  404   0.195   4.597   4.314
    1PA    H16S  405   0.303   4.462   4.318
    1PA    H16T  406   0.152   4.445   4.230
    1PA    C115  407   0.290   4.563   4.119
    1PA    H15R  408   0.218   4.543   4.040
    1PA    H15S  409   0.305   4.671   4.121
    1PA    C114  410   0.417   4.487   4.079
    1PA    H14R  411   0.390   4.381   4.069
    1PA    H14S  412   0.444   4.522   3.979
    1PA    C113  413   0.520   4.490   4.193
    1PA    H13R  414   0.534   4.591   4.233
    1PA    H13S  415   0.498   4.428   4.280
    1PA    C112  416   0.657   4.453   4.135
    1PA    H12R  417   0.653   4.348   4.108
    1PA    H12S  418   0.692   4.509   4.048
    1PA    C111  419   0.757   4.469   4.250
    1PA    H11R  420   0.725   4.453   4.353
    1PA    H11S  421   0.832   4.393   4.226
    1PA    C110  422   0.841   4.596   4.240
    1PA    H10R  423   0.912   4.591   4.157
    1PA    H10S  424   0.776   4.680   4.216
    1PA     C19  425   0.916   4.627   4.370
    1PA     H9R  426   0.939   4.536   4.425
    1PA     H9S  427   1.003   4.681   4.331
    1PA     C18  428   0.843   4.729   4.459
    1PA     H8R  429   0.813   4.819   4.406
    1PA     H8S  430   0.751   4.684   4.495
    1PA     C17  431   0.924   4.759   4.587
    1PA     H7R  432   0.961   4.662   4.622
    1PA     H7S  433   1.017   4.814   4.575
    1PA     C16  434   0.835   4.831   4.689
    1PA     H6R  435   0.809   4.934   4.665
    1PA     H6S  436   0.744   4.774   4.708
    1PA     C15  437   0.892   4.834   4.832
    1PA     H5R  438   0.818   4.883   4.896
    1PA     H5S  439   0.891   4.729   4.863
    1PA     C14  440   1.033   4.893   4.842
    1PA     H4R  441   1.106   4.844   4.777
    1PA     H4S  442   1.027   4.992   4.796
    1PA     C13  443   1.079   4.893   4.988
    1PA     H3R  444   1.002   4.941   5.049
    1PA     H3S  445   1.086   4.788   5.018
    1PA     C12  446   1.216   4.958   5.007
    1PA     H2R  447   1.286   4.902   4.945
    1PA     H2S  448   1.217   5.055   4.957
    2PC     C11  449   1.261   4.961   5.151
    2PC     O12  450   1.194   4.925   5.246
    2PC     O11  451   1.384   5.011   5.172
    2PC      C1  452   1.451   5.006   5.299
    2PC      HR  453   1.542   5.066   5.296
    2PC      HS  454   1.375   5.052   5.364
    2PC      C2  455   1.508   4.875   5.354
    2PC      HX  456   1.433   4.796   5.343
    2PC      C3  457   1.536   4.891   5.504
    2PC      HA  458   1.439   4.905   5.552
    2PC      HB  459   1.579   4.797   5.538
    2PC     O31  460   1.626   5.001   5.528
    2PC     P31  461   1.649   5.028   5.684
    2PC     O32  462   1.704   4.884   5.728
    2PC     C31  463   1.827   4.869   5.802
    2PC     H1A  464   1.915   4.901   5.746
    2PC     H1B  465   1.813   4.931   5.891
    2PC     C32  466   1.832   4.719   5.836
    2PC     H2A  467   1.827   4.650   5.751
    2PC     H2B  468   1.931   4.694   5.876
    2PC     N31  469   1.743   4.666   5.944
    2PC     C33  470   1.786   4.527   5.981
    2PC     H3A  471   1.768   4.469   5.891
    2PC     H3B  472   1.888   4.534   6.019
    2PC     H3C  473   1.716   4.487   6.054
    2PC     C34  474   1.739   4.756   6.064
    2PC     H4A  475   1.679   4.703   6.138
    2PC     H4B  476   1.839   4.773   6.104
    2PC     H4C  477   1.683   4.848   6.048
    2PC     C35  478   1.601   4.657   5.896
    2PC     H5A  479   1.590   4.606   5.800
    2PC     H5B  480   1.553   4.754   5.887
    2PC     H5C  481   1.550   4.599   5.973
    2PC     O33  482   1.733   5.143   5.725
    2PC     O34  483   1.539   5.064   5.776
    2PC     O21  484   1.630   4.847   5.284
    2PC     C21  485   1.615   4.783   5.166
    2PC     O22  486   1.511   4.734   5.128
    3OL     C12  487   1.739   4.792   5.081
    3OL     H2R  488   1.815   4.749   5.146
    3OL     H2S  489   1.761   4.897   5.062
    3OL     C13  490   1.739   4.708   4.952
    3OL     H3R  491   1.661   4.747   4.887
    3OL     H3S  492   1.714   4.605   4.980
    3OL     C14  493   1.872   4.710   4.875
    3OL     H4R  494   1.954   4.664   4.930
    3OL     H4S  495   1.896   4.814   4.852
    3OL     C15  496   1.847   4.642   4.740
    3OL     H5R  497   1.786   4.707   4.677
    3OL     H5S  498   1.792   4.548   4.744
    3OL     C16  499   1.980   4.615   4.668
    3OL     H6R  500   2.032   4.536   4.722
    3OL     H6S  501   2.044   4.704   4.664
    3OL     C17  502   1.970   4.564   4.523
    3OL     H7R  503   1.903   4.479   4.514
    3OL     H7S  504   2.071   4.540   4.489
    3OL     C18  505   1.905   4.660   4.422
    3OL     H8R  506   1.960   4.755   4.422
    3OL     H8S  507   1.814   4.699   4.468
    3OL     C19  508   1.874   4.594   4.291
    3OL     H9R  509   1.783   4.534   4.292
    3OL    C110  510   1.929   4.617   4.173
    3OL    H10R  511   1.876   4.570   4.091
    3OL    C111  512   2.060   4.687   4.141
    3OL    H11R  513   2.111   4.719   4.232
    3OL    H11S  514   2.027   4.774   4.084
    3OL    C112  515   2.156   4.589   4.073
    3OL    H12R  516   2.183   4.514   4.148
    3OL    H12S  517   2.256   4.630   4.058
    3OL    C113  518   2.091   4.529   3.948
    3OL    H13R  519   2.066   4.606   3.875
    3OL    H13S  520   1.994   4.483   3.970
    3OL    C114  521   2.188   4.431   3.880
    3OL    H14R  522   2.197   4.340   3.940
    3OL    H14S  523   2.286   4.478   3.875
    3OL    C115  524   2.143   4.397   3.737
    3OL    H15R  525   2.044   4.353   3.723
    3OL    H15S  526   2.219   4.331   3.695
    3OL    C116  527   2.160   4.519   3.646
    3OL    H16R  528   2.265   4.548   3.657
    3OL    H16S  529   2.099   4.607   3.669
    3OL    C117  530   2.122   4.483   3.502
    3OL    H17R  531   2.017   4.455   3.509
    3OL    H17S  532   2.185   4.407   3.455
    3OL    C118  533   2.131   4.611   3.418
    3OL    H18R  534   2.108   4.594   3.312
    3OL    H18S  535   2.231   4.654   3.433
    3OL    H18T  536   2.061   4.684   3.459
    1PA    C116  537   1.228   3.867   4.103
    1PA    H16R  538   1.331   3.834   4.086
    1PA    H16S  539   1.229   3.973   4.077
    1PA    H16T  540   1.164   3.799   4.045
    1PA    C115  541   1.200   3.858   4.253
    1PA    H15R  542   1.287   3.891   4.310
    1PA    H15S  543   1.113   3.922   4.268
    1PA    C114  544   1.159   3.714   4.291
    1PA    H14R  545   1.067   3.705   4.234
    1PA    H14S  546   1.232   3.643   4.251
    1PA    C113  547   1.142   3.708   4.443
    1PA    H13R  548   1.236   3.724   4.496
    1PA    H13S  549   1.074   3.787   4.476
    1PA    C112  550   1.100   3.566   4.484
    1PA    H12R  551   1.015   3.542   4.420
    1PA    H12S  552   1.187   3.506   4.458
    1PA    C111  553   1.069   3.544   4.633
    1PA    H11R  554   1.086   3.440   4.659
    1PA    H11S  555   1.125   3.610   4.699
    1PA    C110  556   0.924   3.587   4.660
    1PA    H10R  557   0.898   3.680   4.609
    1PA    H10S  558   0.848   3.518   4.625
    1PA     C19  559   0.892   3.595   4.810
    1PA     H9R  560   0.784   3.604   4.824
    1PA     H9S  561   0.924   3.503   4.861
    1PA     C18  562   0.947   3.725   4.871
    1PA     H8R  563   1.054   3.739   4.855
    1PA     H8S  564   0.897   3.812   4.828
    1PA     C17  565   0.918   3.734   5.021
    1PA     H7R  566   0.921   3.840   5.048
    1PA     H7S  567   0.817   3.698   5.043
    1PA     C16  568   1.008   3.648   5.111
    1PA     H6R  569   0.958   3.551   5.106
    1PA     H6S  570   1.111   3.638   5.073
    1PA     C15  571   1.006   3.680   5.261
    1PA     H5R  572   1.067   3.604   5.311
    1PA     H5S  573   1.056   3.777   5.261
    1PA     C14  574   0.866   3.690   5.321
    1PA     H4R  575   0.889   3.739   5.416
    1PA     H4S  576   0.802   3.770   5.282
    1PA     C13  577   0.787   3.559   5.326
    1PA     H3R  578   0.683   3.584   5.347
    1PA     H3S  579   0.786   3.504   5.231
    1PA     C12  580   0.854   3.458   5.419
    1PA     H2R  581   0.932   3.403   5.366
    1PA     H2S  582   0.895   3.513   5.504
    2PC     C11  583   0.755   3.361   5.478
    2PC     O12  584   0.683   3.297   5.403
    2PC     O11  585   0.748   3.352   5.612
    2PC      C1  586   0.692   3.231   5.664
    2PC      HR  587   0.583   3.241   5.662
    2PC      HS  588   0.720   3.146   5.602
    2PC      C2  589   0.741   3.208   5.808
    2PC      HX  590   0.711   3.111   5.850
    2PC      C3  591   0.713   3.324   5.904
    2PC      HA  592   0.809   3.375   5.921
    2PC      HB  593   0.647   3.403   5.868
    2PC     O31  594   0.668   3.275   6.031
    2PC     P31  595   0.512   3.268   6.068
    2PC     O32  596   0.490   3.390   6.170
    2PC     C31  597   0.545   3.371   6.302
    2PC     H1A  598   0.515   3.449   6.372
    2PC     H1B  599   0.495   3.286   6.348
    2PC     C32  600   0.698   3.365   6.302
    2PC     H2A  601   0.728   3.276   6.247
    2PC     H2B  602   0.751   3.444   6.250
    2PC     N31  603   0.765   3.342   6.434
    2PC     C33  604   0.727   3.213   6.502
    2PC     H3A  605   0.619   3.201   6.503
    2PC     H3B  606   0.769   3.128   6.449
    2PC     H3C  607   0.767   3.223   6.603
    2PC     C34  608   0.912   3.334   6.405
    2PC     H4A  609   0.957   3.423   6.360
    2PC     H4B  610   0.974   3.330   6.495
    2PC     H4C  611   0.943   3.253   6.339
    2PC     C35  612   0.749   3.457   6.529
    2PC     H5A  613   0.771   3.541   6.462
    2PC     H5B  614   0.826   3.455   6.606
    2PC     H5C  615   0.644   3.458   6.558
    2PC     O33  616   0.423   3.275   5.949
    2PC     O34  617   0.480   3.139   6.131
    2PC     O21  618   0.884   3.198   5.799
    2PC     C21  619   0.928   3.086   5.739
    2PC     O22  620   0.861   2.998   5.690
    3OL     C12  621   1.077   3.089   5.721
    3OL     H2R  622   1.110   2.991   5.685
    3OL     H2S  623   1.121   3.103   5.820
    3OL     C13  624   1.129   3.194   5.622
    3OL     H3R  625   1.237   3.200   5.634
    3OL     H3S  626   1.085   3.292   5.643
    3OL     C14  627   1.097   3.161   5.475
    3OL     H4R  628   0.990   3.160   5.456
    3OL     H4S  629   1.131   3.060   5.450
    3OL     C15  630   1.174   3.263   5.390
    3OL     H5R  631   1.281   3.244   5.379
    3OL     H5S  632   1.145   3.363   5.422
    3OL     C16  633   1.131   3.245   5.243
    3OL     H6R  634   1.022   3.245   5.242
    3OL     H6S  635   1.167   3.149   5.205
    3OL     C17  636   1.194   3.358   5.161
    3OL     H7R  637   1.302   3.350   5.169
    3OL     H7S  638   1.158   3.457   5.193
    3OL     C18  639   1.169   3.337   5.011
    3OL     H8R  640   1.222   3.414   4.956
    3OL     H8S  641   1.061   3.347   4.996
    3OL     C19  642   1.234   3.207   4.971
    3OL     H9R  643   1.312   3.174   5.039
    3OL    C110  644   1.205   3.138   4.862
    3OL    H10R  645   1.253   3.043   4.839
    3OL    C111  646   1.101   3.184   4.763
    3OL    H11R  647   1.156   3.259   4.706
    3OL    H11S  648   1.010   3.218   4.812
    3OL    C112  649   1.069   3.068   4.667
    3OL    H12R  650   1.014   2.986   4.716
    3OL    H12S  651   1.159   3.027   4.621
    3OL    C113  652   0.988   3.112   4.545
    3OL    H13R  653   0.995   3.044   4.459
    3OL    H13S  654   1.018   3.212   4.513
    3OL    C114  655   0.837   3.128   4.569
    3OL    H14R  656   0.820   3.204   4.645
    3OL    H14S  657   0.798   3.033   4.607
    3OL    C115  658   0.751   3.166   4.447
    3OL    H15R  659   0.644   3.149   4.463
    3OL    H15S  660   0.780   3.099   4.366
    3OL    C116  661   0.770   3.311   4.403
    3OL    H16R  662   0.875   3.340   4.412
    3OL    H16S  663   0.705   3.371   4.467
    3OL    C117  664   0.706   3.328   4.265
    3OL    H17R  665   0.602   3.295   4.267
    3OL    H17S  666   0.769   3.262   4.205
    3OL    C118  667   0.720   3.465   4.198
    3OL    H18R  668   0.746   3.535   4.278
    3OL    H18S  669   0.631   3.506   4.150
    3OL    H18T  670   0.805   3.467   4.129
    1PA    C116  671  -0.570   4.551   4.385
    1PA    H16R  672  -0.661   4.596   4.425
    1PA    H16S  673  -0.500   4.531   4.467
    1PA    H16T  674  -0.588   4.455   4.336
    1PA    C115  675  -0.492   4.637   4.285
    1PA    H15R  676  -0.543   4.630   4.188
    1PA    H15S  677  -0.511   4.739   4.319
    1PA    C114  678  -0.347   4.591   4.260
    1PA    H14R  679  -0.292   4.564   4.350
    1PA    H14S  680  -0.354   4.498   4.203
    1PA    C113  681  -0.258   4.688   4.181
    1PA    H13R  682  -0.158   4.648   4.165
    1PA    H13S  683  -0.292   4.694   4.077
    1PA    C112  684  -0.257   4.828   4.244
    1PA    H12R  685  -0.343   4.885   4.208
    1PA    H12S  686  -0.268   4.814   4.352
    1PA    C111  687  -0.136   4.909   4.198
    1PA    H11R  688  -0.128   4.915   4.089
    1PA    H11S  689  -0.147   5.010   4.238
    1PA    C110  690  -0.003   4.861   4.258
    1PA    H10R  691  -0.010   4.862   4.367
    1PA    H10S  692   0.010   4.761   4.216
    1PA     C19  693   0.112   4.953   4.214
    1PA     H9R  694   0.127   4.954   4.106
    1PA     H9S  695   0.096   5.059   4.234
    1PA     C18  696   0.241   4.918   4.289
    1PA     H8R  697   0.254   4.810   4.299
    1PA     H8S  698   0.324   4.959   4.230
    1PA     C17  699   0.250   4.996   4.421
    1PA     H7R  700   0.243   5.103   4.403
    1PA     H7S  701   0.155   4.977   4.471
    1PA     C16  702   0.383   4.962   4.491
    1PA     H6R  703   0.413   4.857   4.483
    1PA     H6S  704   0.448   5.031   4.437
    1PA     C15  705   0.392   5.000   4.639
    1PA     H5R  706   0.330   5.084   4.670
    1PA     H5S  707   0.360   4.911   4.693
    1PA     C14  708   0.530   5.034   4.698
    1PA     H4R  709   0.593   4.946   4.689
    1PA     H4S  710   0.572   5.119   4.644
    1PA     C13  711   0.507   5.083   4.842
    1PA     H3R  712   0.445   5.173   4.839
    1PA     H3S  713   0.458   5.003   4.899
    1PA     C12  714   0.636   5.110   4.921
    1PA     H2R  715   0.704   5.029   4.893
    1PA     H2S  716   0.673   5.210   4.897
    2PC     C11  717   0.621   5.109   5.071
    2PC     O12  718   0.687   5.040   5.145
    2PC     O11  719   0.539   5.208   5.112
    2PC      C1  720   0.524   5.239   5.251
    2PC      HR  721   0.444   5.313   5.262
    2PC      HS  722   0.488   5.148   5.298
    2PC      C2  723   0.657   5.281   5.315
    2PC      HX  724   0.738   5.214   5.289
    2PC      C3  725   0.651   5.304   5.467
    2PC      HA  726   0.751   5.325   5.507
    2PC      HB  727   0.584   5.389   5.486
    2PC     O31  728   0.588   5.185   5.516
    2PC     P31  729   0.564   5.171   5.673
    2PC     O32  730   0.686   5.073   5.704
    2PC     C31  731   0.667   4.933   5.678
    2PC     H1A  732   0.600   4.883   5.749
    2PC     H1B  733   0.625   4.919   5.578
    2PC     C32  734   0.808   4.874   5.685
    2PC     H2A  735   0.865   4.920   5.604
    2PC     H2B  736   0.862   4.907   5.774
    2PC     N31  737   0.836   4.727   5.676
    2PC     C33  738   0.822   4.689   5.531
    2PC     H3A  739   0.725   4.730   5.504
    2PC     H3B  740   0.906   4.729   5.474
    2PC     H3C  741   0.819   4.581   5.519
    2PC     C34  742   0.975   4.701   5.726
    2PC     H4A  743   1.006   4.597   5.714
    2PC     H4B  744   1.039   4.770   5.671
    2PC     H4C  745   0.976   4.725   5.832
    2PC     C35  746   0.742   4.642   5.756
    2PC     H5A  747   0.639   4.665   5.728
    2PC     H5B  748   0.755   4.671   5.860
    2PC     H5C  749   0.773   4.539   5.740
    2PC     O33  750   0.578   5.294   5.755
    2PC     O34  751   0.430   5.112   5.698
    2PC     O21  752   0.688   5.416   5.275
    2PC     C21  753   0.739   5.443   5.153
    2PC     O22  754   0.756   5.364   5.063
    3OL     C12  755   0.765   5.591   5.135
    3OL     H2R  756   0.873   5.599   5.147
    3OL     H2S  757   0.709   5.649   5.209
    3OL     C13  758   0.718   5.638   4.997
    3OL     H3R  759   0.610   5.652   4.996
    3OL     H3S  760   0.737   5.570   4.914
    3OL     C14  761   0.780   5.774   4.963
    3OL     H4R  762   0.889   5.774   4.966
    3OL     H4S  763   0.743   5.852   5.030
    3OL     C15  764   0.743   5.827   4.823
    3OL     H5R  765   0.784   5.927   4.808
    3OL     H5S  766   0.636   5.838   4.808
    3OL     C16  767   0.801   5.746   4.707
    3OL     H6R  768   0.751   5.649   4.719
    3OL     H6S  769   0.908   5.741   4.730
    3OL     C17  770   0.762   5.802   4.569
    3OL     H7R  771   0.794   5.906   4.557
    3OL     H7S  772   0.655   5.793   4.554
    3OL     C18  773   0.827   5.707   4.467
    3OL     H8R  774   0.818   5.600   4.487
    3OL     H8S  775   0.931   5.735   4.484
    3OL     C19  776   0.779   5.738   4.328
    3OL     H9R  777   0.680   5.695   4.312
    3OL    C110  778   0.842   5.799   4.229
    3OL    H10R  779   0.782   5.809   4.139
    3OL    C111  780   0.981   5.858   4.232
    3OL    H11R  781   1.052   5.800   4.292
    3OL    H11S  782   0.966   5.954   4.280
    3OL    C112  783   1.040   5.877   4.092
    3OL    H12R  784   0.957   5.925   4.039
    3OL    H12S  785   1.064   5.779   4.052
    3OL    C113  786   1.165   5.965   4.080
    3OL    H13R  787   1.248   5.915   4.130
    3OL    H13S  788   1.148   6.064   4.123
    3OL    C114  789   1.206   5.972   3.932
    3OL    H14R  790   1.160   6.065   3.896
    3OL    H14S  791   1.161   5.887   3.881
    3OL    C115  792   1.359   5.979   3.916
    3OL    H15R  793   1.404   5.882   3.938
    3OL    H15S  794   1.406   6.058   3.975
    3OL    C116  795   1.398   5.998   3.769
    3OL    H16R  796   1.359   6.093   3.731
    3OL    H16S  797   1.357   5.913   3.713
    3OL    C117  798   1.548   5.981   3.744
    3OL    H17R  799   1.589   5.897   3.801
    3OL    H17S  800   1.604   6.067   3.781
    3OL    C118  801   1.581   5.977   3.594
    3OL    H18R  802   1.686   5.951   3.582
    3OL    H18S  803   1.539   6.067   3.549
    3OL    H18T  804   1.527   5.897   3.542
    1PA    C116  805   4.851   2.833   3.652
    1PA    H16R  806   4.932   2.896   3.616
    1PA    H16S  807   4.765   2.854   3.589
    1PA    H16T  808   4.879   2.729   3.635
    1PA    C115  809   4.812   2.860   3.798
    1PA    H15R  810   4.711   2.824   3.814
    1PA    H15S  811   4.889   2.818   3.864
    1PA    C114  812   4.819   3.013   3.810
    1PA    H14R  813   4.901   3.060   3.756
    1PA    H14S  814   4.727   3.050   3.765
    1PA    C113  815   4.822   3.063   3.955
    1PA    H13R  816   4.779   3.163   3.948
    1PA    H13S  817   4.753   3.000   4.012
    1PA    C112  818   4.959   3.057   4.024
    1PA    H12R  819   4.994   2.954   4.019
    1PA    H12S  820   5.028   3.126   3.975
    1PA    C111  821   4.953   3.092   4.173
    1PA    H11R  822   4.936   3.197   4.196
    1PA    H11S  823   4.870   3.038   4.218
    1PA    C110  824   5.080   3.043   4.245
    1PA    H10R  825   5.080   2.934   4.239
    1PA    H10S  826   5.166   3.074   4.187
    1PA     C19  827   5.095   3.094   4.389
    1PA     H9R  828   5.082   3.203   4.395
    1PA     H9S  829   5.034   3.041   4.462
    1PA     C18  830   5.235   3.057   4.440
    1PA     H8R  831   5.250   2.950   4.425
    1PA     H8S  832   5.312   3.107   4.380
    1PA     C17  833   5.243   3.106   4.585
    1PA     H7R  834   5.226   3.213   4.574
    1PA     H7S  835   5.164   3.056   4.641
    1PA     C16  836   5.381   3.080   4.647
    1PA     H6R  837   5.403   2.974   4.633
    1PA     H6S  838   5.465   3.139   4.607
    1PA     C15  839   5.374   3.118   4.795
    1PA     H5R  840   5.353   3.225   4.804
    1PA     H5S  841   5.291   3.062   4.839
    1PA     C14  842   5.504   3.094   4.872
    1PA     H4R  843   5.528   2.988   4.864
    1PA     H4S  844   5.589   3.145   4.824
    1PA     C13  845   5.522   3.150   5.014
    1PA     H3R  846   5.623   3.131   5.050
    1PA     H3S  847   5.518   3.258   5.027
    1PA     C12  848   5.417   3.096   5.112
    1PA     H2R  849   5.324   3.152   5.102
    1PA     H2S  850   5.399   2.989   5.101
    2PC     C11  851   5.458   3.096   5.257
    2PC     O12  852   5.554   3.155   5.303
    2PC     O11  853   5.359   3.051   5.336
    2PC      C1  854   5.372   3.044   5.479
    2PC      HR  855   5.427   3.131   5.514
    2PC      HS  856   5.266   3.042   5.507
    2PC      C2  857   5.435   2.911   5.525
    2PC      HX  858   5.395   2.830   5.463
    2PC      C3  859   5.396   2.865   5.666
    2PC      HA  860   5.289   2.846   5.680
    2PC      HB  861   5.455   2.776   5.689
    2PC     O31  862   5.431   2.975   5.752
    2PC     P31  863   5.433   2.958   5.911
    2PC     O32  864   5.560   3.050   5.942
    2PC     C31  865   5.688   3.021   5.881
    2PC     H1A  866   5.757   2.962   5.941
    2PC     H1B  867   5.673   2.977   5.782
    2PC     C32  868   5.757   3.156   5.860
    2PC     H2A  869   5.772   3.203   5.957
    2PC     H2B  870   5.855   3.142   5.815
    2PC     N31  871   5.698   3.255   5.764
    2PC     C33  872   5.683   3.202   5.625
    2PC     H3A  873   5.777   3.153   5.601
    2PC     H3B  874   5.602   3.129   5.618
    2PC     H3C  875   5.662   3.290   5.564
    2PC     C34  876   5.570   3.317   5.814
    2PC     H4A  877   5.570   3.334   5.922
    2PC     H4B  878   5.558   3.410   5.759
    2PC     H4C  879   5.490   3.249   5.785
    2PC     C35  880   5.810   3.355   5.754
    2PC     H5A  881   5.844   3.375   5.855
    2PC     H5B  882   5.770   3.445   5.708
    2PC     H5C  883   5.882   3.309   5.686
    2PC     O33  884   5.310   3.013   5.974
    2PC     O34  885   5.445   2.815   5.947
    2PC     O21  886   5.578   2.921   5.513
    2PC     C21  887   5.662   2.818   5.495
    2PC     O22  888   5.620   2.704   5.504
    3OL     C12  889   5.807   2.855   5.478
    3OL     H2R  890   5.860   2.761   5.498
    3OL     H2S  891   5.830   2.922   5.561
    3OL     C13  892   5.837   2.921   5.342
    3OL     H3R  893   5.946   2.933   5.346
    3OL     H3S  894   5.775   3.009   5.326
    3OL     C14  895   5.798   2.828   5.226
    3OL     H4R  896   5.689   2.821   5.222
    3OL     H4S  897   5.835   2.726   5.237
    3OL     C15  898   5.841   2.880   5.088
    3OL     H5R  899   5.950   2.875   5.092
    3OL     H5S  900   5.808   2.983   5.074
    3OL     C16  901   5.788   2.798   4.970
    3OL     H6R  902   5.681   2.804   4.992
    3OL     H6S  903   5.822   2.695   4.980
    3OL     C17  904   5.811   2.862   4.832
    3OL     H7R  905   5.772   2.963   4.844
    3OL     H7S  906   5.750   2.808   4.760
    3OL     C18  907   5.957   2.855   4.785
    3OL     H8R  908   5.986   2.750   4.779
    3OL     H8S  909   6.030   2.891   4.858
    3OL     C19  910   5.976   2.919   4.650
    3OL     H9R  911   5.896   2.973   4.600
    3OL    C110  912   6.097   2.946   4.602
    3OL    H10R  913   6.118   3.004   4.513
    3OL    C111  914   6.225   2.900   4.668
    3OL    H11R  915   6.199   2.813   4.729
    3OL    H11S  916   6.276   2.981   4.721
    3OL    C112  917   6.325   2.876   4.554
    3OL    H12R  918   6.342   2.968   4.498
    3OL    H12S  919   6.280   2.801   4.489
    3OL    C113  920   6.460   2.829   4.609
    3OL    H13R  921   6.446   2.747   4.679
    3OL    H13S  922   6.505   2.909   4.669
    3OL    C114  923   6.541   2.778   4.490
    3OL    H14R  924   6.559   2.855   4.415
    3OL    H14S  925   6.493   2.696   4.437
    3OL    C115  926   6.668   2.714   4.550
    3OL    H15R  927   6.650   2.622   4.606
    3OL    H15S  928   6.706   2.786   4.622
    3OL    C116  929   6.779   2.698   4.446
    3OL    H16R  930   6.813   2.793   4.405
    3OL    H16S  931   6.730   2.639   4.368
    3OL    C117  932   6.894   2.617   4.508
    3OL    H17R  933   6.852   2.521   4.539
    3OL    H17S  934   6.911   2.670   4.602
    3OL    C118  935   7.022   2.607   4.424
    3OL    H18R  936   7.078   2.534   4.482
    3OL    H18S  937   7.077   2.702   4.427
    3OL    H18T  938   7.009   2.572   4.321
    1PA    C116  939   1.077   5.018   3.733
    1PA    H16R  940   1.034   5.108   3.688
    1PA    H16S  941   1.067   4.937   3.661
    1PA    H16T  942   1.181   5.044   3.757
    1PA    C115  943   0.989   4.970   3.849
    1PA    H15R  944   0.976   5.042   3.930
    1PA    H15S  945   0.889   4.941   3.818
    1PA    C114  946   1.053   4.844   3.910
    1PA    H14R  947   0.991   4.760   3.879
    1PA    H14S  948   1.151   4.846   3.861
    1PA    C113  949   1.073   4.837   4.062
    1PA    H13R  950   0.985   4.841   4.126
    1PA    H13S  951   1.121   4.741   4.082
    1PA    C112  952   1.174   4.941   4.113
    1PA    H12R  953   1.274   4.935   4.070
    1PA    H12S  954   1.147   5.037   4.067
    1PA    C111  955   1.184   4.950   4.266
    1PA    H11R  956   1.088   4.967   4.316
    1PA    H11S  957   1.222   4.855   4.303
    1PA    C110  958   1.267   5.072   4.309
    1PA    H10R  959   1.362   5.050   4.260
    1PA    H10S  960   1.233   5.165   4.263
    1PA     C19  961   1.277   5.084   4.461
    1PA     H9R  962   1.207   5.156   4.504
    1PA     H9S  963   1.266   4.984   4.505
    1PA     C18  964   1.420   5.133   4.490
    1PA     H8R  965   1.484   5.065   4.433
    1PA     H8S  966   1.437   5.232   4.448
    1PA     C17  967   1.447   5.148   4.640
    1PA     H7R  968   1.394   5.232   4.685
    1PA     H7S  969   1.416   5.060   4.698
    1PA     C16  970   1.598   5.162   4.663
    1PA     H6R  971   1.647   5.092   4.595
    1PA     H6S  972   1.631   5.265   4.647
    1PA     C15  973   1.648   5.113   4.799
    1PA     H5R  974   1.601   5.023   4.837
    1PA     H5S  975   1.747   5.071   4.777
    1PA     C14  976   1.665   5.231   4.896
    1PA     H4R  977   1.716   5.310   4.841
    1PA     H4S  978   1.565   5.267   4.922
    1PA     C13  979   1.758   5.189   5.010
    1PA     H3R  980   1.709   5.112   5.070
    1PA     H3S  981   1.845   5.132   4.976
    1PA     C12  982   1.815   5.300   5.099
    1PA     H2R  983   1.889   5.367   5.055
    1PA     H2S  984   1.733   5.372   5.107
    2PC     C11  985   1.842   5.248   5.238
    2PC     O12  986   1.826   5.133   5.275
    2PC     O11  987   1.902   5.339   5.315
    2PC      C1  988   1.949   5.324   5.450
    2PC      HR  989   1.994   5.416   5.490
    2PC      HS  990   1.858   5.304   5.507
    2PC      C2  991   2.061   5.220   5.458
    2PC      HX  992   2.039   5.128   5.403
    2PC      C3  993   2.074   5.185   5.607
    2PC      HA  994   1.974   5.177   5.651
    2PC      HB  995   2.134   5.096   5.622
    2PC     O31  996   2.146   5.292   5.671
    2PC     P31  997   2.149   5.305   5.831
    2PC     O32  998   2.260   5.420   5.825
    2PC     C31  999   2.389   5.382   5.773
    2PC     H1A 1000   2.412   5.283   5.814
    2PC     H1B 1001   2.383   5.378   5.664
    2PC     C32 1002   2.512   5.456   5.826
    2PC     H2A 1003   2.606   5.423   5.780
    2PC     H2B 1004   2.491   5.562   5.812
    2PC     N31 1005   2.549   5.459   5.971
    2PC     C33 1006   2.655   5.563   5.991
    2PC     H3A 1007   2.737   5.547   5.921
    2PC     H3B 1008   2.611   5.653   5.947
    2PC     H3C 1009   2.693   5.581   6.092
    2PC     C34 1010   2.425   5.485   6.050
    2PC     H4A 1011   2.442   5.511   6.155
    2PC     H4B 1012   2.372   5.565   5.998
    2PC     H4C 1013   2.360   5.398   6.040
    2PC     C35 1014   2.609   5.328   6.014
    2PC     H5A 1015   2.549   5.246   5.974
    2PC     H5B 1016   2.600   5.326   6.123
    2PC     H5C 1017   2.716   5.331   5.989
    2PC     O33 1018   2.025   5.356   5.893
    2PC     O34 1019   2.196   5.184   5.903
    2PC     O21 1020   2.185   5.273   5.407
    2PC     C21 1021   2.300   5.204   5.405
    2PC     O22 1022   2.306   5.084   5.415
    3OL     C12 1023   2.419   5.290   5.370
    3OL     H2R 1024   2.505   5.267   5.434
    3OL     H2S 1025   2.392   5.394   5.389
    3OL     C13 1026   2.464   5.280   5.224
    3OL     H3R 1027   2.379   5.311   5.162
    3OL     H3S 1028   2.493   5.177   5.204
    3OL     C14 1029   2.580   5.379   5.207
    3OL     H4R 1030   2.638   5.386   5.299
    3OL     H4S 1031   2.535   5.478   5.192
    3OL     C15 1032   2.657   5.353   5.077
    3OL     H5R 1033   2.599   5.299   5.001
    3OL     H5S 1034   2.732   5.276   5.099
    3OL     C16 1035   2.729   5.475   5.019
    3OL     H6R 1036   2.761   5.539   5.101
    3OL     H6S 1037   2.651   5.538   4.978
    3OL     C17 1038   2.839   5.450   4.914
    3OL     H7R 1039   2.929   5.405   4.955
    3OL     H7S 1040   2.865   5.545   4.867
    3OL     C18 1041   2.793   5.358   4.800
    3OL     H8R 1042   2.748   5.271   4.849
    3OL     H8S 1043   2.887   5.323   4.755
    3OL     C19 1044   2.689   5.417   4.709
    3OL     H9R 1045   2.686   5.526   4.701
    3OL    C110 1046   2.620   5.339   4.627
    3OL    H10R 1047   2.559   5.379   4.547
    3OL    C111 1048   2.620   5.188   4.625
    3OL    H11R 1049   2.726   5.164   4.620
    3OL    H11S 1050   2.573   5.162   4.529
    3OL    C112 1051   2.530   5.118   4.728
    3OL    H12R 1052   2.426   5.135   4.699
    3OL    H12S 1053   2.549   5.153   4.830
    3OL    C113 1054   2.546   4.966   4.720
    3OL    H13R 1055   2.538   4.936   4.615
    3OL    H13S 1056   2.462   4.921   4.773
    3OL    C114 1057   2.680   4.936   4.786
    3OL    H14R 1058   2.754   5.014   4.766
    3OL    H14S 1059   2.723   4.845   4.743
    3OL    C115 1060   2.665   4.917   4.938
    3OL    H15R 1061   2.624   4.819   4.961
    3OL    H15S 1062   2.589   4.989   4.968
    3OL    C116 1063   2.789   4.959   5.018
    3OL    H16R 1064   2.878   4.910   4.977
    3OL    H16S 1065   2.809   5.066   5.004
    3OL    C117 1066   2.782   4.928   5.168
    3OL    H17R 1067   2.762   4.824   5.197
    3OL    H17S 1068   2.698   4.991   5.197
    3OL    C118 1069   2.911   4.979   5.233
    3OL    H18R 1070   2.931   5.074   5.183
    3OL    H18S 1071   2.898   4.998   5.340
    3OL    H18T 1072   2.995   4.913   5.208
    1PA    C116 1073   0.358   5.795   4.069
    1PA    H16R 1074   0.413   5.702   4.051
    1PA    H16S 1075   0.385   5.830   4.169
    1PA    H16T 1076   0.400   5.865   3.998
    1PA    C115 1077   0.206   5.779   4.054
    1PA    H15R 1078   0.144   5.866   4.031
    1PA    H15S 1079   0.186   5.703   3.978
    1PA    C114 1080   0.136   5.714   4.175
    1PA    H14R 1081   0.199   5.631   4.208
    1PA    H14S 1082   0.134   5.789   4.254
    1PA    C113 1083  -0.001   5.658   4.136
    1PA    H13R 1084  -0.067   5.743   4.115
    1PA    H13S 1085   0.008   5.592   4.050
    1PA    C112 1086  -0.066   5.586   4.255
    1PA    H12R 1087   0.000   5.508   4.292
    1PA    H12S 1088  -0.084   5.658   4.335
    1PA    C111 1089  -0.206   5.531   4.222
    1PA    H11R 1090  -0.274   5.615   4.212
    1PA    H11S 1091  -0.202   5.480   4.126
    1PA    C110 1092  -0.260   5.456   4.345
    1PA    H10R 1093  -0.236   5.505   4.440
    1PA    H10S 1094  -0.368   5.465   4.331
    1PA     C19 1095  -0.225   5.307   4.360
    1PA     H9R 1096  -0.298   5.256   4.423
    1PA     H9S 1097  -0.230   5.266   4.259
    1PA     C18 1098  -0.080   5.279   4.405
    1PA     H8R 1099  -0.072   5.171   4.413
    1PA     H8S 1100   0.001   5.302   4.336
    1PA     C17 1101  -0.048   5.343   4.541
    1PA     H7R 1102   0.053   5.316   4.572
    1PA     H7S 1103  -0.045   5.452   4.541
    1PA     C16 1104  -0.146   5.296   4.649
    1PA     H6R 1105  -0.244   5.334   4.621
    1PA     H6S 1106  -0.151   5.187   4.644
    1PA     C15 1107  -0.097   5.344   4.787
    1PA     H5R 1108   0.003   5.303   4.798
    1PA     H5S 1109  -0.105   5.452   4.792
    1PA     C14 1110  -0.181   5.274   4.895
    1PA     H4R 1111  -0.286   5.303   4.883
    1PA     H4S 1112  -0.179   5.165   4.883
    1PA     C13 1113  -0.117   5.306   5.031
    1PA     H3R 1114  -0.009   5.298   5.023
    1PA     H3S 1115  -0.135   5.412   5.052
    1PA     C12 1116  -0.172   5.223   5.147
    1PA     H2R 1117  -0.278   5.207   5.129
    1PA     H2S 1118  -0.126   5.124   5.142
    2PC     C11 1119  -0.146   5.270   5.288
    2PC     O12 1120  -0.234   5.286   5.370
    2PC     O11 1121  -0.017   5.304   5.308
    2PC      C1 1122   0.016   5.382   5.424
    2PC      HR 1123  -0.061   5.460   5.419
    2PC      HS 1124   0.014   5.327   5.518
    2PC      C2 1125   0.157   5.443   5.423
    2PC      HX 1126   0.225   5.364   5.388
    2PC      C3 1127   0.207   5.487   5.561
    2PC      HA 1128   0.240   5.393   5.605
    2PC      HB 1129   0.293   5.555   5.558
    2PC     O31 1130   0.100   5.556   5.628
    2PC     P31 1131   0.106   5.637   5.766
    2PC     O32 1132   0.122   5.507   5.859
    2PC     C31 1133   0.113   5.510   6.003
    2PC     H1A 1134   0.159   5.421   6.045
    2PC     H1B 1135   0.170   5.598   6.035
    2PC     C32 1136  -0.032   5.531   6.048
    2PC     H2A 1137  -0.064   5.619   5.993
    2PC     H2B 1138  -0.093   5.448   6.014
    2PC     N31 1139  -0.056   5.549   6.195
    2PC     C33 1140  -0.025   5.422   6.270
    2PC     H3A 1141  -0.074   5.343   6.214
    2PC     H3B 1142   0.082   5.403   6.269
    2PC     H3C 1143  -0.068   5.431   6.370
    2PC     C34 1144   0.016   5.669   6.249
    2PC     H4A 1145  -0.037   5.714   6.333
    2PC     H4B 1146   0.115   5.640   6.285
    2PC     H4C 1147   0.032   5.748   6.176
    2PC     C35 1148  -0.204   5.568   6.205
    2PC     H5A 1149  -0.227   5.581   6.310
    2PC     H5B 1150  -0.248   5.483   6.152
    2PC     H5C 1151  -0.236   5.659   6.153
    2PC     O33 1152   0.212   5.740   5.776
    2PC     O34 1153  -0.022   5.711   5.779
    2PC     O21 1154   0.157   5.553   5.331
    2PC     C21 1155   0.268   5.612   5.284
    2PC     O22 1156   0.379   5.567   5.304
    3OL     C12 1157   0.246   5.733   5.197
    3OL     H2R 1158   0.149   5.778   5.219
    3OL     H2S 1159   0.242   5.699   5.093
    3OL     C13 1160   0.356   5.838   5.217
    3OL     H3R 1161   0.451   5.803   5.175
    3OL     H3S 1162   0.372   5.843   5.325
    3OL     C14 1163   0.310   5.982   5.191
    3OL     H4R 1164   0.249   6.017   5.275
    3OL     H4S 1165   0.246   5.992   5.103
    3OL     C15 1166   0.443   6.058   5.178
    3OL     H5R 1167   0.519   6.018   5.245
    3OL     H5S 1168   0.430   6.164   5.201
    3OL     C16 1169   0.500   6.045   5.036
    3OL     H6R 1170   0.431   6.091   4.965
    3OL     H6S 1171   0.498   5.939   5.013
    3OL     C17 1172   0.639   6.107   5.018
    3OL     H7R 1173   0.666   6.078   4.916
    3OL     H7S 1174   0.711   6.063   5.088
    3OL     C18 1175   0.646   6.260   5.034
    3OL     H8R 1176   0.678   6.284   5.135
    3OL     H8S 1177   0.549   6.302   5.009
    3OL     C19 1178   0.753   6.318   4.945
    3OL     H9R 1179   0.851   6.306   4.990
    3OL    C110 1180   0.745   6.363   4.821
    3OL    H10R 1181   0.842   6.392   4.783
    3OL    C111 1182   0.619   6.387   4.740
    3OL    H11R 1183   0.636   6.472   4.674
    3OL    H11S 1184   0.542   6.408   4.814
    3OL    C112 1185   0.578   6.273   4.645
    3OL    H12R 1186   0.481   6.301   4.606
    3OL    H12S 1187   0.576   6.181   4.704
    3OL    C113 1188   0.678   6.250   4.531
    3OL    H13R 1189   0.771   6.210   4.571
    3OL    H13S 1190   0.715   6.349   4.500
    3OL    C114 1191   0.620   6.159   4.422
    3OL    H14R 1192   0.527   6.206   4.388
    3OL    H14S 1193   0.590   6.063   4.465
    3OL    C115 1194   0.718   6.135   4.306
    3OL    H15R 1195   0.674   6.065   4.235
    3OL    H15S 1196   0.808   6.087   4.345
    3OL    C116 1197   0.746   6.260   4.221
    3OL    H16R 1198   0.765   6.349   4.281
    3OL    H16S 1199   0.657   6.284   4.161
    3OL    C117 1200   0.860   6.225   4.125
    3OL    H17R 1201   0.818   6.149   4.059
    3OL    H17S 1202   0.950   6.185   4.173
    3OL    C118 1203   0.908   6.338   4.033
    3OL    H18R 1204   0.850   6.342   3.941
    3OL    H18S 1205   1.016   6.333   4.016
    3OL    H18T 1206   0.902   6.434   4.083
    1PA    C116 1207   6.399   3.726   3.747
    1PA    H16R 1208   6.316   3.684   3.689
    1PA    H16S 1209   6.471   3.646   3.767
    1PA    H16T 1210   6.444   3.799   3.680
    1PA    C115 1211   6.342   3.792   3.873
    1PA    H15R 1212   6.423   3.812   3.943
    1PA    H15S 1213   6.317   3.895   3.846
    1PA    C114 1214   6.230   3.718   3.947
    1PA    H14R 1215   6.181   3.787   4.015
    1PA    H14S 1216   6.150   3.690   3.877
    1PA    C113 1217   6.297   3.604   4.024
    1PA    H13R 1218   6.220   3.530   4.049
    1PA    H13S 1219   6.375   3.553   3.967
    1PA    C112 1220   6.361   3.642   4.159
    1PA    H12R 1221   6.366   3.551   4.219
    1PA    H12S 1222   6.457   3.690   4.139
    1PA    C111 1223   6.277   3.740   4.241
    1PA    H11R 1224   6.262   3.839   4.198
    1PA    H11S 1225   6.180   3.695   4.264
    1PA    C110 1226   6.345   3.763   4.377
    1PA    H10R 1227   6.275   3.807   4.449
    1PA    H10S 1228   6.401   3.686   4.430
    1PA     C19 1229   6.453   3.872   4.364
    1PA     H9R 1230   6.523   3.838   4.287
    1PA     H9S 1231   6.406   3.961   4.323
    1PA     C18 1232   6.528   3.908   4.492
    1PA     H8R 1233   6.578   3.822   4.537
    1PA     H8S 1234   6.607   3.982   4.477
    1PA     C17 1235   6.432   3.947   4.606
    1PA     H7R 1236   6.351   4.015   4.580
    1PA     H7S 1237   6.379   3.857   4.638
    1PA     C16 1238   6.515   4.010   4.719
    1PA     H6R 1239   6.588   3.933   4.744
    1PA     H6S 1240   6.578   4.088   4.677
    1PA     C15 1241   6.429   4.049   4.840
    1PA     H5R 1242   6.349   3.980   4.864
    1PA     H5S 1243   6.498   4.045   4.924
    1PA     C14 1244   6.376   4.193   4.845
    1PA     H4R 1245   6.457   4.256   4.808
    1PA     H4S 1246   6.291   4.199   4.776
    1PA     C13 1247   6.321   4.236   4.982
    1PA     H3R 1248   6.253   4.156   5.012
    1PA     H3S 1249   6.405   4.229   5.051
    1PA     C12 1250   6.256   4.375   4.993
    1PA     H2R 1251   6.329   4.455   4.980
    1PA     H2S 1252   6.190   4.397   4.909
    2PC     C11 1253   6.186   4.403   5.124
    2PC     O12 1254   6.239   4.473   5.207
    2PC     O11 1255   6.063   4.348   5.131
    2PC      C1 1256   5.986   4.362   5.251
    2PC      HR 1257   5.889   4.312   5.241
    2PC      HS 1258   6.033   4.319   5.340
    2PC      C2 1259   5.955   4.510   5.281
    2PC      HX 1260   6.051   4.562   5.276
    2PC      C3 1261   5.902   4.514   5.425
    2PC      HA 1262   5.984   4.504   5.498
    2PC      HB 1263   5.855   4.610   5.449
    2PC     O31 1264   5.800   4.413   5.436
    2PC     P31 1265   5.712   4.398   5.569
    2PC     O32 1266   5.607   4.291   5.513
    2PC     C31 1267   5.498   4.324   5.425
    2PC     H1A 1268   5.428   4.393   5.473
    2PC     H1B 1269   5.539   4.373   5.337
    2PC     C32 1270   5.434   4.189   5.390
    2PC     H2A 1271   5.440   4.126   5.479
    2PC     H2B 1272   5.328   4.203   5.367
    2PC     N31 1273   5.488   4.110   5.275
    2PC     C33 1274   5.467   4.183   5.145
    2PC     H3A 1275   5.462   4.117   5.059
    2PC     H3B 1276   5.373   4.238   5.144
    2PC     H3C 1277   5.554   4.249   5.140
    2PC     C34 1278   5.632   4.076   5.300
    2PC     H4A 1279   5.673   4.022   5.214
    2PC     H4B 1280   5.684   4.170   5.317
    2PC     H4C 1281   5.643   4.008   5.384
    2PC     C35 1282   5.410   3.982   5.282
    2PC     H5A 1283   5.405   3.955   5.387
    2PC     H5B 1284   5.466   3.911   5.220
    2PC     H5C 1285   5.309   3.999   5.245
    2PC     O33 1286   5.788   4.366   5.692
    2PC     O34 1287   5.644   4.526   5.599
    2PC     O21 1288   5.864   4.567   5.186
    2PC     C21 1289   5.853   4.699   5.168
    2PC     O22 1290   5.937   4.774   5.213
    3OL     C12 1291   5.727   4.732   5.091
    3OL     H2R 1292   5.738   4.831   5.045
    3OL     H2S 1293   5.643   4.731   5.160
    3OL     C13 1294   5.683   4.636   4.980
    3OL     H3R 1295   5.588   4.671   4.937
    3OL     H3S 1296   5.677   4.532   5.010
    3OL     C14 1297   5.785   4.644   4.866
    3OL     H4R 1298   5.885   4.622   4.904
    3OL     H4S 1299   5.782   4.748   4.834
    3OL     C15 1300   5.752   4.555   4.745
    3OL     H5R 1301   5.831   4.581   4.673
    3OL     H5S 1302   5.654   4.576   4.702
    3OL     C16 1303   5.764   4.405   4.773
    3OL     H6R 1304   5.735   4.347   4.685
    3OL     H6S 1305   5.701   4.381   4.859
    3OL     C17 1306   5.911   4.366   4.792
    3OL     H7R 1307   5.944   4.404   4.889
    3OL     H7S 1308   5.969   4.424   4.719
    3OL     C18 1309   5.927   4.213   4.784
    3OL     H8R 1310   6.027   4.173   4.768
    3OL     H8S 1311   5.865   4.174   4.703
    3OL     C19 1312   5.886   4.151   4.916
    3OL     H9R 1313   5.958   4.156   4.997
    3OL    C110 1314   5.772   4.088   4.936
    3OL    H10R 1315   5.762   4.036   5.031
    3OL    C111 1316   5.651   4.080   4.847
    3OL    H11R 1317   5.670   4.133   4.754
    3OL    H11S 1318   5.573   4.128   4.907
    3OL    C112 1319   5.601   3.936   4.827
    3OL    H12R 1320   5.597   3.869   4.913
    3OL    H12S 1321   5.667   3.883   4.757
    3OL    C113 1322   5.458   3.915   4.775
    3OL    H13R 1323   5.405   4.005   4.804
    3OL    H13S 1324   5.414   3.824   4.816
    3OL    C114 1325   5.459   3.898   4.622
    3OL    H14R 1326   5.504   3.800   4.609
    3OL    H14S 1327   5.520   3.974   4.573
    3OL    C115 1328   5.313   3.897   4.573
    3OL    H15R 1329   5.284   4.002   4.568
    3OL    H15S 1330   5.245   3.861   4.650
    3OL    C116 1331   5.291   3.832   4.436
    3OL    H16R 1332   5.182   3.826   4.425
    3OL    H16S 1333   5.338   3.734   4.438
    3OL    C117 1334   5.348   3.913   4.318
    3OL    H17R 1335   5.453   3.938   4.337
    3OL    H17S 1336   5.300   4.011   4.317
    3OL    C118 1337   5.337   3.833   4.188
    3OL    H18R 1338   5.234   3.799   4.172
    3OL    H18S 1339   5.397   3.743   4.184
    3OL    H18T 1340   5.367   3.894   4.102
    1PA    C116 1341   6.148   3.181   4.282
    1PA    H16R 1342   6.111   3.193   4.180
    1PA    H16S 1343   6.067   3.186   4.356
    1PA    H16T 1344   6.193   3.082   4.293
    1PA    C115 1345   6.258   3.283   4.315
    1PA    H15R 1346   6.340   3.267   4.245
    1PA    H15S 1347   6.228   3.384   4.289
    1PA    C114 1348   6.286   3.283   4.466
    1PA    H14R 1349   6.200   3.279   4.534
    1PA    H14S 1350   6.346   3.194   4.485
    1PA    C113 1351   6.379   3.400   4.501
    1PA    H13R 1352   6.477   3.377   4.458
    1PA    H13S 1353   6.346   3.488   4.446
    1PA    C112 1354   6.393   3.423   4.653
    1PA    H12R 1355   6.293   3.441   4.691
    1PA    H12S 1356   6.432   3.337   4.707
    1PA    C111 1357   6.478   3.545   4.690
    1PA    H11R 1358   6.571   3.525   4.638
    1PA    H11S 1359   6.434   3.640   4.662
    1PA    C110 1360   6.513   3.548   4.840
    1PA    H10R 1361   6.554   3.451   4.867
    1PA    H10S 1362   6.583   3.631   4.847
    1PA     C19 1363   6.382   3.581   4.914
    1PA     H9R 1364   6.330   3.670   4.876
    1PA     H9S 1365   6.303   3.509   4.894
    1PA     C18 1366   6.403   3.585   5.066
    1PA     H8R 1367   6.309   3.562   5.117
    1PA     H8S 1368   6.471   3.504   5.092
    1PA     C17 1369   6.454   3.721   5.114
    1PA     H7R 1370   6.543   3.754   5.060
    1PA     H7S 1371   6.381   3.800   5.093
    1PA     C16 1372   6.487   3.730   5.264
    1PA     H6R 1373   6.394   3.736   5.320
    1PA     H6S 1374   6.536   3.634   5.281
    1PA     C15 1375   6.582   3.836   5.322
    1PA     H5R 1376   6.615   3.806   5.421
    1PA     H5S 1377   6.680   3.836   5.273
    1PA     C14 1378   6.515   3.973   5.325
    1PA     H4R 1379   6.459   3.994   5.233
    1PA     H4S 1380   6.447   3.976   5.411
    1PA     C13 1381   6.621   4.083   5.341
    1PA     H3R 1382   6.685   4.059   5.426
    1PA     H3S 1383   6.681   4.079   5.250
    1PA     C12 1384   6.551   4.219   5.357
    1PA     H2R 1385   6.622   4.302   5.349
    1PA     H2S 1386   6.470   4.236   5.286
    2PC     C11 1387   6.495   4.236   5.496
    2PC     O12 1388   6.381   4.264   5.526
    2PC     O11 1389   6.595   4.202   5.579
    2PC      C1 1390   6.558   4.184   5.717
    2PC      HR 1391   6.645   4.204   5.780
    2PC      HS 1392   6.478   4.253   5.743
    2PC      C2 1393   6.520   4.038   5.742
    2PC      HX 1394   6.482   4.034   5.845
    2PC      C3 1395   6.648   3.954   5.727
    2PC      HA 1396   6.661   3.926   5.622
    2PC      HB 1397   6.737   4.003   5.767
    2PC     O31 1398   6.632   3.824   5.786
    2PC     P31 1399   6.684   3.809   5.937
    2PC     O32 1400   6.592   3.688   5.989
    2PC     C31 1401   6.479   3.716   6.074
    2PC     H1A 1402   6.507   3.784   6.155
    2PC     H1B 1403   6.405   3.763   6.010
    2PC     C32 1404   6.435   3.584   6.139
    2PC     H2A 1405   6.327   3.586   6.159
    2PC     H2B 1406   6.450   3.503   6.067
    2PC     N31 1407   6.498   3.542   6.268
    2PC     C33 1408   6.457   3.641   6.373
    2PC     H3A 1409   6.544   3.704   6.387
    2PC     H3B 1410   6.371   3.695   6.334
    2PC     H3C 1411   6.428   3.603   6.471
    2PC     C34 1412   6.436   3.409   6.299
    2PC     H4A 1413   6.477   3.325   6.244
    2PC     H4B 1414   6.459   3.385   6.403
    2PC     H4C 1415   6.330   3.428   6.280
    2PC     C35 1416   6.647   3.536   6.251
    2PC     H5A 1417   6.662   3.469   6.166
    2PC     H5B 1418   6.693   3.495   6.342
    2PC     H5C 1419   6.681   3.637   6.228
    2PC     O33 1420   6.829   3.783   5.945
    2PC     O34 1421   6.671   3.933   6.017
    2PC     O21 1422   6.416   3.998   5.650
    2PC     C21 1423   6.290   4.044   5.654
    2PC     O22 1424   6.245   4.123   5.735
    3OL     C12 1425   6.206   3.974   5.551
    3OL     H2R 1426   6.116   3.933   5.597
    3OL     H2S 1427   6.264   3.890   5.511
    3OL     C13 1428   6.165   4.062   5.432
    3OL     H3R 1429   6.249   4.074   5.365
    3OL     H3S 1430   6.129   4.157   5.472
    3OL     C14 1431   6.054   4.000   5.346
    3OL     H4R 1432   5.983   4.074   5.307
    3OL     H4S 1433   5.993   3.936   5.411
    3OL     C15 1434   6.119   3.927   5.229
    3OL     H5R 1435   6.176   3.845   5.274
    3OL     H5S 1436   6.186   3.992   5.173
    3OL     C16 1437   6.005   3.863   5.148
    3OL     H6R 1438   5.948   3.942   5.100
    3OL     H6S 1439   5.938   3.804   5.211
    3OL     C17 1440   6.074   3.775   5.043
    3OL     H7R 1441   6.135   3.702   5.098
    3OL     H7S 1442   6.140   3.836   4.982
    3OL     C18 1443   5.970   3.709   4.951
    3OL     H8R 1444   5.904   3.782   4.904
    3OL     H8S 1445   5.904   3.642   5.007
    3OL     C19 1446   6.045   3.627   4.849
    3OL     H9R 1447   6.074   3.529   4.885
    3OL    C110 1448   6.067   3.663   4.724
    3OL    H10R 1449   6.125   3.606   4.652
    3OL    C111 1450   6.037   3.800   4.668
    3OL    H11R 1451   6.110   3.847   4.602
    3OL    H11S 1452   6.040   3.870   4.752
    3OL    C112 1453   5.904   3.788   4.592
    3OL    H12R 1454   5.829   3.757   4.666
    3OL    H12S 1455   5.912   3.710   4.516
    3OL    C113 1456   5.848   3.914   4.525
    3OL    H13R 1457   5.820   3.986   4.602
    3OL    H13S 1458   5.759   3.881   4.471
    3OL    C114 1459   5.954   3.983   4.439
    3OL    H14R 1460   6.015   3.917   4.378
    3OL    H14S 1461   6.024   4.031   4.508
    3OL    C115 1462   5.905   4.107   4.363
    3OL    H15R 1463   5.988   4.175   4.344
    3OL    H15S 1464   5.829   4.156   4.423
    3OL    C116 1465   5.853   4.066   4.224
    3OL    H16R 1466   5.785   3.982   4.237
    3OL    H16S 1467   5.938   4.028   4.167
    3OL    C117 1468   5.784   4.181   4.149
    3OL    H17R 1469   5.850   4.258   4.108
    3OL    H17S 1470   5.715   4.231   4.217
    3OL    C118 1471   5.709   4.109   4.036
    3OL    H18R 1472   5.639   4.181   3.993
    3OL    H18S 1473   5.653   4.024   4.077
    3OL    H18T 1474   5.767   4.071   3.952
    1PA    C116 1475   0.818   1.915   4.587
    1PA    H16R 1476   0.845   1.852   4.672
    1PA    H16S 1477   0.877   1.895   4.498
    1PA    H16T 1478   0.713   1.894   4.564
    1PA    C115 1479   0.831   2.064   4.622
    1PA    H15R 1480   0.932   2.089   4.654
    1PA    H15S 1481   0.805   2.122   4.533
    1PA    C114 1482   0.729   2.094   4.733
    1PA    H14R 1483   0.632   2.081   4.686
    1PA    H14S 1484   0.739   2.022   4.815
    1PA    C113 1485   0.738   2.232   4.800
    1PA    H13R 1486   0.666   2.239   4.882
    1PA    H13S 1487   0.825   2.243   4.865
    1PA    C112 1488   0.713   2.342   4.696
    1PA    H12R 1489   0.772   2.325   4.606
    1PA    H12S 1490   0.608   2.342   4.668
    1PA    C111 1491   0.766   2.476   4.750
    1PA    H11R 1492   0.865   2.458   4.791
    1PA    H11S 1493   0.778   2.542   4.664
    1PA    C110 1494   0.666   2.547   4.843
    1PA    H10R 1495   0.569   2.559   4.796
    1PA    H10S 1496   0.662   2.487   4.935
    1PA     C19 1497   0.711   2.691   4.872
    1PA     H9R 1498   0.803   2.686   4.931
    1PA     H9S 1499   0.734   2.753   4.785
    1PA     C18 1500   0.604   2.760   4.957
    1PA     H8R 1501   0.570   2.703   5.043
    1PA     H8S 1502   0.656   2.845   5.002
    1PA     C17 1503   0.483   2.809   4.876
    1PA     H7R 1504   0.507   2.861   4.783
    1PA     H7S 1505   0.422   2.724   4.845
    1PA     C16 1506   0.403   2.901   4.969
    1PA     H6R 1507   0.381   2.851   5.063
    1PA     H6S 1508   0.466   2.990   4.979
    1PA     C15 1509   0.270   2.945   4.906
    1PA     H5R 1510   0.282   2.983   4.804
    1PA     H5S 1511   0.197   2.865   4.888
    1PA     C14 1512   0.202   3.053   4.991
    1PA     H4R 1513   0.200   3.020   5.096
    1PA     H4S 1514   0.255   3.149   4.987
    1PA     C13 1515   0.054   3.067   4.954
    1PA     H3R 1516   0.058   3.094   4.848
    1PA     H3S 1517  -0.001   2.973   4.958
    1PA     C12 1518  -0.015   3.181   5.030
    1PA     H2R 1519   0.050   3.267   5.012
    1PA     H2S 1520  -0.113   3.193   4.985
    2PC     C11 1521  -0.029   3.176   5.180
    2PC     O12 1522  -0.040   3.280   5.242
    2PC     O11 1523  -0.037   3.055   5.239
    2PC      C1 1524  -0.047   3.033   5.381
    2PC      HR 1525  -0.092   3.110   5.443
    2PC      HS 1526  -0.099   2.938   5.400
    2PC      C2 1527   0.097   3.006   5.428
    2PC      HX 1528   0.142   2.923   5.373
    2PC      C3 1529   0.093   2.971   5.578
    2PC      HA 1530   0.055   2.869   5.591
    2PC      HB 1531   0.185   2.977   5.636
    2PC     O31 1532  -0.002   3.062   5.635
    2PC     P31 1533  -0.019   3.083   5.793
    2PC     O32 1534  -0.129   2.969   5.816
    2PC     C31 1535  -0.091   2.830   5.822
    2PC     H1A 1536  -0.168   2.772   5.770
    2PC     H1B 1537   0.008   2.812   5.779
    2PC     C32 1538  -0.090   2.793   5.970
    2PC     H2A 1539  -0.030   2.702   5.971
    2PC     H2B 1540  -0.037   2.870   6.027
    2PC     N31 1541  -0.219   2.764   6.041
    2PC     C33 1542  -0.267   2.632   5.988
    2PC     H3A 1543  -0.214   2.557   6.047
    2PC     H3B 1544  -0.370   2.613   6.015
    2PC     H3C 1545  -0.255   2.631   5.879
    2PC     C34 1546  -0.197   2.740   6.187
    2PC     H4A 1547  -0.152   2.642   6.204
    2PC     H4B 1548  -0.123   2.816   6.212
    2PC     H4C 1549  -0.293   2.749   6.238
    2PC     C35 1550  -0.322   2.872   6.025
    2PC     H5A 1551  -0.397   2.843   6.099
    2PC     H5B 1552  -0.369   2.860   5.927
    2PC     H5C 1553  -0.275   2.968   6.047
    2PC     O33 1554   0.109   3.044   5.858
    2PC     O34 1555  -0.047   3.218   5.849
    2PC     O21 1556   0.184   3.119   5.412
    2PC     C21 1557   0.316   3.109   5.433
    2PC     O22 1558   0.381   3.017   5.479
    3OL     C12 1559   0.389   3.231   5.385
    3OL     H2R 1560   0.490   3.201   5.355
    3OL     H2S 1561   0.405   3.290   5.475
    3OL     C13 1562   0.320   3.323   5.283
    3OL     H3R 1563   0.229   3.366   5.325
    3OL     H3S 1564   0.300   3.259   5.197
    3OL     C14 1565   0.418   3.430   5.234
    3OL     H4R 1566   0.515   3.387   5.206
    3OL     H4S 1567   0.446   3.488   5.322
    3OL     C15 1568   0.359   3.525   5.129
    3OL     H5R 1569   0.276   3.578   5.175
    3OL     H5S 1570   0.336   3.472   5.036
    3OL     C16 1571   0.457   3.638   5.094
    3OL     H6R 1572   0.554   3.593   5.073
    3OL     H6S 1573   0.464   3.693   5.188
    3OL     C17 1574   0.406   3.716   4.972
    3OL     H7R 1575   0.304   3.752   4.989
    3OL     H7S 1576   0.390   3.646   4.890
    3OL     C18 1577   0.496   3.833   4.930
    3OL     H8R 1578   0.597   3.791   4.932
    3OL     H8S 1579   0.488   3.910   5.006
    3OL     C19 1580   0.444   3.897   4.804
    3OL     H9R 1581   0.410   3.999   4.817
    3OL    C110 1582   0.435   3.837   4.686
    3OL    H10R 1583   0.397   3.896   4.603
    3OL    C111 1584   0.483   3.697   4.658
    3OL    H11R 1585   0.399   3.627   4.662
    3OL    H11S 1586   0.549   3.657   4.735
    3OL    C112 1587   0.553   3.683   4.522
    3OL    H12R 1588   0.604   3.587   4.508
    3OL    H12S 1589   0.632   3.758   4.517
    3OL    C113 1590   0.467   3.720   4.401
    3OL    H13R 1591   0.526   3.748   4.314
    3OL    H13S 1592   0.404   3.807   4.423
    3OL    C114 1593   0.387   3.597   4.354
    3OL    H14R 1594   0.304   3.577   4.422
    3OL    H14S 1595   0.460   3.515   4.357
    3OL    C115 1596   0.338   3.620   4.211
    3OL    H15R 1597   0.424   3.652   4.152
    3OL    H15S 1598   0.264   3.701   4.218
    3OL    C116 1599   0.265   3.503   4.144
    3OL    H16R 1600   0.179   3.479   4.206
    3OL    H16S 1601   0.331   3.416   4.143
    3OL    C117 1602   0.224   3.528   3.998
    3OL    H17R 1603   0.172   3.624   3.990
    3OL    H17S 1604   0.150   3.450   3.976
    3OL    C118 1605   0.347   3.525   3.906
    3OL    H18R 1606   0.317   3.528   3.801
    3OL    H18S 1607   0.412   3.440   3.926
    3OL    H18T 1608   0.410   3.612   3.928
    1PA    C116 1609   4.341   0.834   3.507
    1PA    H16R 1610   4.369   0.739   3.461
    1PA    H16S 1611   4.378   0.918   3.448
    1PA    H16T 1612   4.233   0.844   3.495
    1PA    C115 1613   4.396   0.843   3.650
    1PA    H15R 1614   4.503   0.823   3.649
    1PA    H15S 1615   4.372   0.940   3.693
    1PA    C114 1616   4.318   0.746   3.741
    1PA    H14R 1617   4.219   0.789   3.756
    1PA    H14S 1618   4.294   0.654   3.687
    1PA    C113 1619   4.409   0.713   3.860
    1PA    H13R 1620   4.495   0.655   3.826
    1PA    H13S 1621   4.454   0.798   3.912
    1PA    C112 1622   4.335   0.630   3.966
    1PA    H12R 1623   4.258   0.691   4.014
    1PA    H12S 1624   4.277   0.550   3.917
    1PA    C111 1625   4.429   0.564   4.067
    1PA    H11R 1626   4.373   0.489   4.123
    1PA    H11S 1627   4.507   0.509   4.014
    1PA    C110 1628   4.492   0.674   4.154
    1PA    H10R 1629   4.558   0.744   4.102
    1PA    H10S 1630   4.418   0.747   4.188
    1PA     C19 1631   4.584   0.622   4.266
    1PA     H9R 1632   4.623   0.532   4.219
    1PA     H9S 1633   4.668   0.690   4.277
    1PA     C18 1634   4.500   0.608   4.394
    1PA     H8R 1635   4.474   0.709   4.426
    1PA     H8S 1636   4.412   0.551   4.364
    1PA     C17 1637   4.568   0.523   4.502
    1PA     H7R 1638   4.494   0.473   4.564
    1PA     H7S 1639   4.613   0.437   4.451
    1PA     C16 1640   4.675   0.605   4.576
    1PA     H6R 1641   4.742   0.657   4.508
    1PA     H6S 1642   4.627   0.674   4.646
    1PA     C15 1643   4.770   0.509   4.649
    1PA     H5R 1644   4.716   0.443   4.717
    1PA     H5S 1645   4.827   0.448   4.579
    1PA     C14 1646   4.864   0.582   4.746
    1PA     H4R 1647   4.961   0.532   4.739
    1PA     H4S 1648   4.860   0.687   4.716
    1PA     C13 1649   4.807   0.586   4.889
    1PA     H3R 1650   4.701   0.609   4.877
    1PA     H3S 1651   4.808   0.487   4.936
    1PA     C12 1652   4.887   0.681   4.979
    1PA     H2R 1653   4.990   0.647   4.982
    1PA     H2S 1654   4.898   0.781   4.936
    2PC     C11 1655   4.837   0.685   5.121
    2PC     O12 1656   4.891   0.753   5.205
    2PC     O11 1657   4.725   0.613   5.143
    2PC      C1 1658   4.695   0.588   5.281
    2PC      HR 1659   4.724   0.667   5.351
    2PC      HS 1660   4.586   0.592   5.289
    2PC      C2 1661   4.736   0.446   5.323
    2PC      HX 1662   4.657   0.384   5.279
    2PC      C3 1663   4.743   0.441   5.476
    2PC      HA 1664   4.644   0.469   5.511
    2PC      HB 1665   4.753   0.335   5.501
    2PC     O31 1666   4.834   0.536   5.534
    2PC     P31 1667   4.809   0.581   5.686
    2PC     O32 1668   4.941   0.669   5.711
    2PC     C31 1669   5.069   0.622   5.664
    2PC     H1A 1670   5.121   0.564   5.740
    2PC     H1B 1671   5.058   0.576   5.565
    2PC     C32 1672   5.159   0.744   5.639
    2PC     H2A 1673   5.140   0.825   5.710
    2PC     H2B 1674   5.262   0.708   5.641
    2PC     N31 1675   5.128   0.814   5.510
    2PC     C33 1676   5.225   0.929   5.508
    2PC     H3A 1677   5.231   0.977   5.410
    2PC     H3B 1678   5.190   1.003   5.580
    2PC     H3C 1679   5.326   0.894   5.534
    2PC     C34 1680   5.151   0.727   5.391
    2PC     H4A 1681   5.248   0.679   5.401
    2PC     H4B 1682   5.069   0.656   5.375
    2PC     H4C 1683   5.152   0.795   5.306
    2PC     C35 1684   4.986   0.860   5.500
    2PC     H5A 1685   4.959   0.901   5.598
    2PC     H5B 1686   4.926   0.776   5.465
    2PC     H5C 1687   4.988   0.942   5.428
    2PC     O33 1688   4.682   0.655   5.698
    2PC     O34 1689   4.797   0.457   5.766
    2PC     O21 1690   4.861   0.411   5.262
    2PC     C21 1691   4.888   0.281   5.246
    2PC     O22 1692   4.805   0.198   5.275
    3OL     C12 1693   5.021   0.244   5.183
    3OL     H2R 1694   4.989   0.194   5.091
    3OL     H2S 1695   5.076   0.177   5.249
    3OL     C13 1696   5.103   0.371   5.159
    3OL     H3R 1697   5.118   0.431   5.249
    3OL     H3S 1698   5.061   0.434   5.080
    3OL     C14 1699   5.244   0.344   5.104
    3OL     H4R 1700   5.230   0.271   5.025
    3OL     H4S 1701   5.308   0.297   5.179
    3OL     C15 1702   5.312   0.472   5.052
    3OL     H5R 1703   5.320   0.550   5.128
    3OL     H5S 1704   5.249   0.514   4.973
    3OL     C16 1705   5.451   0.453   4.990
    3OL     H6R 1706   5.456   0.543   4.928
    3OL     H6S 1707   5.474   0.364   4.930
    3OL     C17 1708   5.553   0.445   5.103
    3OL     H7R 1709   5.542   0.359   5.170
    3OL     H7S 1710   5.548   0.540   5.157
    3OL     C18 1711   5.696   0.440   5.047
    3OL     H8R 1712   5.766   0.447   5.131
    3OL     H8S 1713   5.712   0.532   4.990
    3OL     C19 1714   5.713   0.308   4.977
    3OL     H9R 1715   5.687   0.223   5.041
    3OL    C110 1716   5.766   0.283   4.859
    3OL    H10R 1717   5.789   0.178   4.844
    3OL    C111 1718   5.821   0.386   4.763
    3OL    H11R 1719   5.919   0.367   4.718
    3OL    H11S 1720   5.834   0.481   4.813
    3OL    C112 1721   5.729   0.411   4.642
    3OL    H12R 1722   5.776   0.482   4.575
    3OL    H12S 1723   5.638   0.449   4.689
    3OL    C113 1724   5.696   0.280   4.570
    3OL    H13R 1725   5.636   0.219   4.638
    3OL    H13S 1726   5.791   0.226   4.562
    3OL    C114 1727   5.620   0.297   4.437
    3OL    H14R 1728   5.678   0.359   4.368
    3OL    H14S 1729   5.530   0.355   4.459
    3OL    C115 1730   5.581   0.161   4.377
    3OL    H15R 1731   5.487   0.174   4.324
    3OL    H15S 1732   5.571   0.078   4.448
    3OL    C116 1733   5.684   0.119   4.271
    3OL    H16R 1734   5.669   0.013   4.252
    3OL    H16S 1735   5.784   0.113   4.315
    3OL    C117 1736   5.694   0.201   4.142
    3OL    H17R 1737   5.684   0.309   4.149
    3OL    H17S 1738   5.606   0.176   4.081
    3OL    C118 1739   5.825   0.173   4.067
    3OL    H18R 1740   5.898   0.199   4.145
    3OL    H18S 1741   5.843   0.230   3.976
    3OL    H18T 1742   5.832   0.067   4.042
    1PA    C116 1743   7.085   0.581   3.992
    1PA    H16R 1744   6.992   0.576   3.935
    1PA    H16S 1745   7.162   0.614   3.923
    1PA    H16T 1746   7.079   0.663   4.064
    1PA    C115 1747   7.111   0.444   4.056
    1PA    H15R 1748   7.088   0.368   3.981
    1PA    H15S 1749   7.216   0.433   4.083
    1PA    C114 1750   7.007   0.418   4.166
    1PA    H14R 1751   7.034   0.471   4.258
    1PA    H14S 1752   6.908   0.449   4.131
    1PA    C113 1753   6.992   0.271   4.206
    1PA    H13R 1754   6.956   0.227   4.114
    1PA    H13S 1755   7.082   0.216   4.233
    1PA    C112 1756   6.880   0.255   4.310
    1PA    H12R 1757   6.790   0.312   4.287
    1PA    H12S 1758   6.845   0.152   4.309
    1PA    C111 1759   6.931   0.292   4.451
    1PA    H11R 1760   7.000   0.222   4.498
    1PA    H11S 1761   6.973   0.392   4.451
    1PA    C110 1762   6.808   0.298   4.543
    1PA    H10R 1763   6.846   0.359   4.624
    1PA    H10S 1764   6.721   0.354   4.509
    1PA     C19 1765   6.773   0.165   4.612
    1PA     H9R 1766   6.748   0.093   4.535
    1PA     H9S 1767   6.860   0.128   4.668
    1PA     C18 1768   6.650   0.187   4.701
    1PA     H8R 1769   6.666   0.258   4.782
    1PA     H8S 1770   6.569   0.237   4.648
    1PA     C17 1771   6.598   0.054   4.758
    1PA     H7R 1772   6.574  -0.011   4.674
    1PA     H7S 1773   6.675  -0.004   4.809
    1PA     C16 1774   6.481   0.093   4.850
    1PA     H6R 1775   6.524   0.138   4.940
    1PA     H6S 1776   6.411   0.153   4.792
    1PA     C15 1777   6.402  -0.030   4.898
    1PA     H5R 1778   6.313   0.015   4.942
    1PA     H5S 1779   6.363  -0.085   4.812
    1PA     C14 1780   6.473  -0.121   5.000
    1PA     H4R 1781   6.414  -0.206   5.035
    1PA     H4S 1782   6.565  -0.154   4.952
    1PA     C13 1783   6.489  -0.048   5.134
    1PA     H3R 1784   6.560   0.035   5.132
    1PA     H3S 1785   6.398   0.003   5.165
    1PA     C12 1786   6.536  -0.136   5.250
    1PA     H2R 1787   6.466  -0.219   5.264
    1PA     H2S 1788   6.639  -0.169   5.237
    2PC     C11 1789   6.520  -0.068   5.383
    2PC     O12 1790   6.549   0.048   5.404
    2PC     O11 1791   6.466  -0.144   5.480
    2PC      C1 1792   6.419  -0.089   5.605
    2PC      HR 1793   6.417  -0.171   5.678
    2PC      HS 1794   6.485  -0.010   5.642
    2PC      C2 1795   6.279  -0.032   5.582
    2PC      HX 1796   6.282   0.042   5.501
    2PC      C3 1797   6.239   0.038   5.713
    2PC      HA 1798   6.321   0.108   5.732
    2PC      HB 1799   6.143   0.088   5.698
    2PC     O31 1800   6.231  -0.070   5.808
    2PC     P31 1801   6.177  -0.035   5.955
    2PC     O32 1802   6.250  -0.159   6.027
    2PC     C31 1803   6.233  -0.187   6.167
    2PC     H1A 1804   6.125  -0.174   6.183
    2PC     H1B 1805   6.246  -0.293   6.191
    2PC     C32 1806   6.316  -0.096   6.257
    2PC     H2A 1807   6.326   0.003   6.212
    2PC     H2B 1808   6.263  -0.089   6.353
    2PC     N31 1809   6.457  -0.143   6.276
    2PC     C33 1810   6.465  -0.285   6.324
    2PC     H3A 1811   6.415  -0.310   6.418
    2PC     H3B 1812   6.422  -0.338   6.239
    2PC     H3C 1813   6.569  -0.308   6.348
    2PC     C34 1814   6.528  -0.141   6.144
    2PC     H4A 1815   6.480  -0.225   6.094
    2PC     H4B 1816   6.509  -0.040   6.107
    2PC     H4C 1817   6.635  -0.161   6.155
    2PC     C35 1818   6.535  -0.054   6.368
    2PC     H5A 1819   6.639  -0.080   6.382
    2PC     H5B 1820   6.480  -0.048   6.462
    2PC     H5C 1821   6.522   0.044   6.321
    2PC     O33 1822   6.228   0.097   5.998
    2PC     O34 1823   6.029  -0.034   5.959
    2PC     O21 1824   6.187  -0.137   5.548
    2PC     C21 1825   6.056  -0.120   5.523
    2PC     O22 1826   5.993  -0.029   5.575
    3OL     C12 1827   5.997  -0.224   5.432
    3OL     H2R 1828   5.889  -0.234   5.447
    3OL     H2S 1829   6.041  -0.320   5.462
    3OL     C13 1830   6.044  -0.203   5.288
    3OL     H3R 1831   6.152  -0.190   5.277
    3OL     H3S 1832   5.996  -0.109   5.260
    3OL     C14 1833   5.993  -0.309   5.190
    3OL     H4R 1834   5.884  -0.299   5.194
    3OL     H4S 1835   6.023  -0.411   5.216
    3OL     C15 1836   6.049  -0.289   5.049
    3OL     H5R 1837   6.023  -0.373   4.984
    3OL     H5S 1838   6.158  -0.282   5.049
    3OL     C16 1839   5.987  -0.173   4.970
    3OL     H6R 1840   6.013  -0.084   5.028
    3OL     H6S 1841   5.880  -0.169   4.991
    3OL     C17 1842   6.014  -0.171   4.819
    3OL     H7R 1843   5.976  -0.264   4.776
    3OL     H7S 1844   6.123  -0.177   4.822
    3OL     C18 1845   5.955  -0.041   4.761
    3OL     H8R 1846   5.857  -0.015   4.800
    3OL     H8S 1847   5.949  -0.055   4.653
    3OL     C19 1848   6.035   0.080   4.802
    3OL     H9R 1849   6.025   0.122   4.902
    3OL    C110 1850   6.119   0.145   4.723
    3OL    H10R 1851   6.167   0.230   4.769
    3OL    C111 1852   6.149   0.133   4.575
    3OL    H11R 1853   6.159   0.228   4.523
    3OL    H11S 1854   6.068   0.079   4.526
    3OL    C112 1855   6.268   0.038   4.551
    3OL    H12R 1856   6.244  -0.064   4.582
    3OL    H12S 1857   6.354   0.072   4.608
    3OL    C113 1858   6.284   0.030   4.398
    3OL    H13R 1859   6.191   0.049   4.346
    3OL    H13S 1860   6.322  -0.070   4.374
    3OL    C114 1861   6.386   0.137   4.355
    3OL    H14R 1862   6.488   0.114   4.387
    3OL    H14S 1863   6.355   0.236   4.387
    3OL    C115 1864   6.390   0.141   4.201
    3OL    H15R 1865   6.283   0.152   4.183
    3OL    H15S 1866   6.415   0.041   4.163
    3OL    C116 1867   6.484   0.247   4.144
    3OL    H16R 1868   6.572   0.254   4.209
    3OL    H16S 1869   6.439   0.346   4.135
    3OL    C117 1870   6.519   0.207   4.000
    3OL    H17R 1871   6.437   0.201   3.928
    3OL    H17S 1872   6.568   0.109   4.003
    3OL    C118 1873   6.618   0.314   3.951
    3OL    H18R 1874   6.575   0.413   3.945
    3OL    H18S 1875   6.649   0.290   3.849
    3OL    H18T 1876   6.708   0.320   4.013
    1PA    C116 1877   2.788   3.490   4.833
    1PA    H16R 1878   2.721   3.516   4.915
    1PA    H16S 1879   2.868   3.564   4.835
    1PA    H16T 1880   2.830   3.391   4.852
    1PA    C115 1881   2.728   3.487   4.692
    1PA    H15R 1882   2.803   3.529   4.625
    1PA    H15S 1883   2.711   3.383   4.663
    1PA    C114 1884   2.595   3.564   4.693
    1PA    H14R 1885   2.520   3.507   4.749
    1PA    H14S 1886   2.617   3.657   4.744
    1PA    C113 1887   2.550   3.600   4.550
    1PA    H13R 1888   2.621   3.662   4.495
    1PA    H13S 1889   2.542   3.505   4.497
    1PA    C112 1890   2.414   3.672   4.555
    1PA    H12R 1891   2.347   3.619   4.624
    1PA    H12S 1892   2.428   3.772   4.596
    1PA    C111 1893   2.350   3.682   4.416
    1PA    H11R 1894   2.421   3.739   4.356
    1PA    H11S 1895   2.343   3.589   4.359
    1PA    C110 1896   2.223   3.768   4.405
    1PA    H10R 1897   2.236   3.864   4.454
    1PA    H10S 1898   2.198   3.780   4.299
    1PA     C19 1899   2.100   3.688   4.451
    1PA     H9R 1900   2.028   3.688   4.369
    1PA     H9S 1901   2.123   3.586   4.481
    1PA     C18 1902   2.025   3.748   4.571
    1PA     H8R 1903   2.016   3.855   4.553
    1PA     H8S 1904   1.924   3.710   4.588
    1PA     C17 1905   2.093   3.724   4.707
    1PA     H7R 1906   2.069   3.622   4.739
    1PA     H7S 1907   2.202   3.733   4.700
    1PA     C16 1908   2.032   3.808   4.820
    1PA     H6R 1909   2.103   3.803   4.903
    1PA     H6S 1910   2.029   3.914   4.792
    1PA     C15 1911   1.891   3.766   4.860
    1PA     H5R 1912   1.838   3.758   4.764
    1PA     H5S 1913   1.883   3.665   4.901
    1PA     C14 1914   1.825   3.863   4.959
    1PA     H4R 1915   1.831   3.971   4.944
    1PA     H4S 1916   1.720   3.834   4.953
    1PA     C13 1917   1.870   3.822   5.100
    1PA     H3R 1918   1.874   3.713   5.113
    1PA     H3S 1919   1.970   3.864   5.112
    1PA     C12 1920   1.792   3.883   5.217
    1PA     H2R 1921   1.807   3.991   5.223
    1PA     H2S 1922   1.686   3.862   5.199
    2PC     C11 1923   1.829   3.817   5.347
    2PC     O12 1924   1.754   3.820   5.442
    2PC     O11 1925   1.949   3.756   5.351
    2PC      C1 1926   1.996   3.679   5.463
    2PC      HR 1927   2.104   3.671   5.450
    2PC      HS 1928   1.969   3.736   5.552
    2PC      C2 1929   1.923   3.544   5.454
    2PC      HX 1930   1.816   3.565   5.456
    2PC      C3 1931   1.945   3.463   5.583
    2PC      HA 1932   1.872   3.487   5.661
    2PC      HB 1933   1.921   3.360   5.557
    2PC     O31 1934   2.080   3.486   5.627
    2PC     P31 1935   2.135   3.387   5.740
    2PC     O32 1936   2.102   3.480   5.866
    2PC     C31 1937   2.215   3.549   5.922
    2PC     H1A 1938   2.272   3.477   5.981
    2PC     H1B 1939   2.280   3.586   5.842
    2PC     C32 1940   2.175   3.659   6.021
    2PC     H2A 1941   2.140   3.613   6.114
    2PC     H2B 1942   2.266   3.714   6.045
    2PC     N31 1943   2.071   3.762   5.990
    2PC     C33 1944   2.089   3.813   5.850
    2PC     H3A 1945   2.081   3.740   5.770
    2PC     H3B 1946   2.012   3.886   5.824
    2PC     H3C 1947   2.185   3.864   5.844
    2PC     C34 1948   1.928   3.722   6.010
    2PC     H4A 1949   1.920   3.691   6.115
    2PC     H4B 1950   1.864   3.809   5.996
    2PC     H4C 1951   1.902   3.636   5.948
    2PC     C35 1952   2.106   3.876   6.080
    2PC     H5A 1953   2.111   3.824   6.175
    2PC     H5B 1954   2.023   3.947   6.086
    2PC     H5C 1955   2.199   3.930   6.057
    2PC     O33 1956   2.062   3.258   5.740
    2PC     O34 1957   2.278   3.353   5.723
    2PC     O21 1958   1.962   3.465   5.341
    2PC     C21 1959   1.888   3.358   5.306
    2PC     O22 1960   1.782   3.329   5.356
    3OL     C12 1961   1.955   3.285   5.191
    3OL     H2R 1962   2.031   3.216   5.227
    3OL     H2S 1963   1.992   3.372   5.136
    3OL     C13 1964   1.850   3.202   5.116
    3OL     H3R 1965   1.753   3.247   5.095
    3OL     H3S 1966   1.828   3.121   5.186
    3OL     C14 1967   1.910   3.144   4.987
    3OL     H4R 1968   2.006   3.098   5.012
    3OL     H4S 1969   1.930   3.227   4.919
    3OL     C15 1970   1.813   3.061   4.901
    3OL     H5R 1971   1.829   3.062   4.793
    3OL     H5S 1972   1.709   3.095   4.903
    3OL     C16 1973   1.807   2.916   4.951
    3OL     H6R 1974   1.796   2.919   5.059
    3OL     H6S 1975   1.903   2.868   4.931
    3OL     C17 1976   1.695   2.833   4.885
    3OL     H7R 1977   1.706   2.838   4.777
    3OL     H7S 1978   1.600   2.875   4.918
    3OL     C18 1979   1.723   2.687   4.925
    3OL     H8R 1980   1.730   2.675   5.033
    3OL     H8S 1981   1.824   2.664   4.891
    3OL     C19 1982   1.613   2.599   4.870
    3OL     H9R 1983   1.526   2.594   4.935
    3OL    C110 1984   1.614   2.517   4.767
    3OL    H10R 1985   1.521   2.463   4.749
    3OL    C111 1986   1.720   2.505   4.660
    3OL    H11R 1987   1.806   2.571   4.671
    3OL    H11S 1988   1.679   2.518   4.560
    3OL    C112 1989   1.780   2.363   4.664
    3OL    H12R 1990   1.829   2.355   4.567
    3OL    H12S 1991   1.698   2.291   4.668
    3OL    C113 1992   1.883   2.346   4.776
    3OL    H13R 1993   1.838   2.345   4.875
    3OL    H13S 1994   1.960   2.423   4.776
    3OL    C114 1995   1.943   2.206   4.760
    3OL    H14R 1996   1.971   2.176   4.659
    3OL    H14S 1997   1.865   2.138   4.794
    3OL    C115 1998   2.068   2.196   4.848
    3OL    H15R 1999   2.033   2.213   4.950
    3OL    H15S 2000   2.144   2.271   4.821
    3OL    C116 2001   2.130   2.058   4.824
    3OL    H16R 2002   2.128   2.031   4.718
    3OL    H16S 2003   2.066   1.981   4.867
    3OL    C117 2004   2.272   2.046   4.883
    3OL    H17R 2005   2.289   1.947   4.925
    3OL    H17S 2006   2.278   2.120   4.962
    3OL    C118 2007   2.379   2.064   4.775
    3OL    H18R 2008   2.373   2.162   4.727
    3OL    H18S 2009   2.359   1.985   4.702
    3OL    H18T 2010   2.477   2.054   4.823
    1PA    C116 2011   3.003   6.416   4.039
    1PA    H16R 2012   3.108   6.411   4.009
    1PA    H16S 2013   2.987   6.511   4.090
    1PA    H16T 2014   2.951   6.416   3.943
    1PA    C115 2015   2.958   6.300   4.128
    1PA    H15R 2016   2.974   6.202   4.082
    1PA    H15S 2017   3.022   6.298   4.217
    1PA    C114 2018   2.812   6.325   4.166
    1PA    H14R 2019   2.806   6.418   4.223
    1PA    H14S 2020   2.737   6.334   4.087
    1PA    C113 2021   2.777   6.212   4.264
    1PA    H13R 2022   2.781   6.119   4.208
    1PA    H13S 2023   2.848   6.217   4.347
    1PA    C112 2024   2.637   6.241   4.320
    1PA    H12R 2025   2.637   6.333   4.378
    1PA    H12S 2026   2.558   6.253   4.247
    1PA    C111 2027   2.591   6.138   4.425
    1PA    H11R 2028   2.591   6.038   4.380
    1PA    H11S 2029   2.661   6.133   4.508
    1PA    C110 2030   2.447   6.157   4.475
    1PA    H10R 2031   2.418   6.262   4.479
    1PA    H10S 2032   2.379   6.123   4.397
    1PA     C19 2033   2.426   6.098   4.615
    1PA     H9R 2034   2.430   5.989   4.611
    1PA     H9S 2035   2.497   6.137   4.688
    1PA     C18 2036   2.288   6.128   4.676
    1PA     H8R 2037   2.294   6.231   4.712
    1PA     H8S 2038   2.212   6.131   4.597
    1PA     C17 2039   2.248   6.042   4.797
    1PA     H7R 2040   2.222   5.941   4.767
    1PA     H7S 2041   2.333   6.041   4.866
    1PA     C16 2042   2.131   6.103   4.874
    1PA     H6R 2043   2.160   6.202   4.909
    1PA     H6S 2044   2.041   6.107   4.812
    1PA     C15 2045   2.095   6.020   4.998
    1PA     H5R 2046   2.080   5.916   4.968
    1PA     H5S 2047   2.176   6.027   5.072
    1PA     C14 2048   1.966   6.057   5.073
    1PA     H4R 2049   1.884   6.087   5.006
    1PA     H4S 2050   1.920   5.973   5.126
    1PA     C13 2051   2.002   6.169   5.171
    1PA     H3R 2052   2.098   6.163   5.221
    1PA     H3S 2053   1.996   6.267   5.124
    1PA     C12 2054   1.895   6.166   5.282
    1PA     H2R 2055   1.909   6.255   5.345
    1PA     H2S 2056   1.793   6.164   5.244
    2PC     C11 2057   1.923   6.050   5.374
    2PC     O12 2058   2.030   6.015   5.420
    2PC     O11 2059   1.818   5.975   5.411
    2PC      C1 2060   1.832   5.863   5.500
    2PC      HR 2061   1.900   5.787   5.461
    2PC      HS 2062   1.875   5.896   5.595
    2PC      C2 2063   1.699   5.787   5.515
    2PC      HX 2064   1.617   5.859   5.523
    2PC      C3 2065   1.701   5.687   5.631
    2PC      HA 2066   1.783   5.619   5.607
    2PC      HB 2067   1.718   5.743   5.723
    2PC     O31 2068   1.574   5.621   5.639
    2PC     P31 2069   1.446   5.690   5.706
    2PC     O32 2070   1.319   5.659   5.614
    2PC     C31 2071   1.296   5.734   5.493
    2PC     H1A 2072   1.289   5.839   5.521
    2PC     H1B 2073   1.390   5.729   5.437
    2PC     C32 2074   1.174   5.676   5.419
    2PC     H2A 2075   1.148   5.749   5.343
    2PC     H2B 2076   1.191   5.582   5.366
    2PC     N31 2077   1.047   5.655   5.495
    2PC     C33 2078   1.064   5.557   5.607
    2PC     H3A 2079   1.126   5.471   5.579
    2PC     H3B 2080   1.117   5.596   5.694
    2PC     H3C 2081   0.962   5.535   5.636
    2PC     C34 2082   0.993   5.782   5.554
    2PC     H4A 2083   0.969   5.856   5.477
    2PC     H4B 2084   0.906   5.747   5.611
    2PC     H4C 2085   1.076   5.825   5.610
    2PC     C35 2086   0.951   5.603   5.393
    2PC     H5A 2087   0.991   5.505   5.365
    2PC     H5B 2088   0.936   5.674   5.311
    2PC     H5C 2089   0.856   5.589   5.443
    2PC     O33 2090   1.421   5.651   5.847
    2PC     O34 2091   1.470   5.835   5.730
    2PC     O21 2092   1.685   5.711   5.394
    2PC     C21 2093   1.623   5.767   5.289
    2PC     O22 2094   1.561   5.870   5.296
    3OL     C12 2095   1.627   5.685   5.162
    3OL     H2R 2096   1.531   5.636   5.150
    3OL     H2S 2097   1.705   5.608   5.165
    3OL     C13 2098   1.653   5.767   5.034
    3OL     H3R 2099   1.736   5.835   5.049
    3OL     H3S 2100   1.562   5.826   5.022
    3OL     C14 2101   1.683   5.672   4.918
    3OL     H4R 2102   1.587   5.624   4.901
    3OL     H4S 2103   1.752   5.591   4.945
    3OL     C15 2104   1.720   5.751   4.791
    3OL     H5R 2105   1.797   5.822   4.822
    3OL     H5S 2106   1.641   5.817   4.755
    3OL     C16 2107   1.779   5.662   4.681
    3OL     H6R 2108   1.842   5.584   4.723
    3OL     H6S 2109   1.842   5.727   4.620
    3OL     C17 2110   1.669   5.598   4.594
    3OL     H7R 2111   1.601   5.674   4.556
    3OL     H7S 2112   1.610   5.516   4.636
    3OL     C18 2113   1.732   5.528   4.473
    3OL     H8R 2114   1.810   5.457   4.502
    3OL     H8S 2115   1.775   5.596   4.400
    3OL     C19 2116   1.628   5.448   4.399
    3OL     H9R 2117   1.568   5.394   4.471
    3OL    C110 2118   1.604   5.442   4.269
    3OL    H10R 2119   1.515   5.384   4.244
    3OL    C111 2120   1.678   5.512   4.157
    3OL    H11R 2121   1.690   5.450   4.068
    3OL    H11S 2122   1.777   5.535   4.196
    3OL    C112 2123   1.606   5.643   4.127
    3OL    H12R 2124   1.601   5.712   4.211
    3OL    H12S 2125   1.506   5.622   4.088
    3OL    C113 2126   1.679   5.724   4.018
    3OL    H13R 2127   1.618   5.811   3.993
    3OL    H13S 2128   1.693   5.658   3.932
    3OL    C114 2129   1.813   5.781   4.066
    3OL    H14R 2130   1.851   5.736   4.158
    3OL    H14S 2131   1.785   5.883   4.092
    3OL    C115 2132   1.924   5.793   3.960
    3OL    H15R 2133   1.910   5.704   3.899
    3OL    H15S 2134   2.013   5.775   4.020
    3OL    C116 2135   1.925   5.931   3.892
    3OL    H16R 2136   1.947   5.996   3.977
    3OL    H16S 2137   1.827   5.951   3.849
    3OL    C117 2138   2.034   5.944   3.784
    3OL    H17R 2139   2.127   5.899   3.820
    3OL    H17S 2140   2.045   6.051   3.772
    3OL    C118 2141   1.983   5.881   3.654
    3OL    H18R 2142   2.067   5.876   3.584
    3OL    H18S 2143   1.902   5.945   3.619
    3OL    H18T 2144   1.950   5.783   3.689
    1PA    C116 2145   3.041   3.717   4.454
    1PA    H16R 2146   3.086   3.792   4.388
    1PA    H16S 2147   2.952   3.671   4.411
    1PA    H16T 2148   3.119   3.640   4.457
    1PA    C115 2149   3.013   3.767   4.596
    1PA    H15R 2150   2.994   3.681   4.661
    1PA    H15S 2151   3.101   3.827   4.618
    1PA    C114 2152   2.890   3.859   4.598
    1PA    H14R 2153   2.889   3.915   4.505
    1PA    H14S 2154   2.801   3.795   4.598
    1PA    C113 2155   2.876   3.957   4.715
    1PA    H13R 2156   2.966   4.016   4.732
    1PA    H13S 2157   2.797   4.027   4.686
    1PA    C112 2158   2.832   3.887   4.845
    1PA    H12R 2159   2.741   3.828   4.830
    1PA    H12S 2160   2.906   3.816   4.881
    1PA    C111 2161   2.811   3.992   4.956
    1PA    H11R 2162   2.765   4.081   4.914
    1PA    H11S 2163   2.744   3.939   5.024
    1PA    C110 2164   2.935   4.036   5.036
    1PA    H10R 2165   2.982   3.951   5.086
    1PA    H10S 2166   2.996   4.076   4.955
    1PA     C19 2167   2.909   4.153   5.132
    1PA     H9R 2168   2.848   4.227   5.080
    1PA     H9S 2169   2.847   4.123   5.217
    1PA     C18 2170   3.042   4.211   5.182
    1PA     H8R 2171   3.118   4.138   5.211
    1PA     H8S 2172   3.082   4.263   5.095
    1PA     C17 2173   3.027   4.320   5.289
    1PA     H7R 2174   3.130   4.355   5.300
    1PA     H7S 2175   2.960   4.397   5.251
    1PA     C16 2176   2.984   4.286   5.432
    1PA     H6R 2177   2.978   4.382   5.485
    1PA     H6S 2178   2.887   4.235   5.430
    1PA     C15 2179   3.094   4.199   5.494
    1PA     H5R 2180   3.096   4.107   5.435
    1PA     H5S 2181   3.192   4.247   5.493
    1PA     C14 2182   3.035   4.166   5.632
    1PA     H4R 2183   3.045   4.260   5.687
    1PA     H4S 2184   2.929   4.140   5.634
    1PA     C13 2185   3.111   4.053   5.703
    1PA     H3R 2186   3.077   4.029   5.804
    1PA     H3S 2187   3.107   3.953   5.659
    1PA     C12 2188   3.253   4.101   5.739
    1PA     H2R 2189   3.307   4.148   5.656
    1PA     H2S 2190   3.259   4.175   5.819
    2PC     C11 2191   3.346   3.992   5.785
    2PC     O12 2192   3.312   3.877   5.770
    2PC     O11 2193   3.463   4.023   5.843
    2PC      C1 2194   3.553   3.921   5.889
    2PC      HR 2195   3.635   3.967   5.945
    2PC      HS 2196   3.501   3.872   5.971
    2PC      C2 2197   3.600   3.815   5.788
    2PC      HX 2198   3.525   3.738   5.772
    2PC      C3 2199   3.721   3.735   5.837
    2PC      HA 2200   3.700   3.660   5.913
    2PC      HB 2201   3.763   3.681   5.752
    2PC     O31 2202   3.827   3.821   5.884
    2PC     P31 2203   3.941   3.763   5.981
    2PC     O32 2204   4.048   3.882   5.966
    2PC     C31 2205   4.039   4.003   6.043
    2PC     H1A 2206   3.938   4.043   6.033
    2PC     H1B 2207   4.050   3.983   6.150
    2PC     C32 2208   4.146   4.095   5.983
    2PC     H2A 2209   4.157   4.066   5.878
    2PC     H2B 2210   4.112   4.193   6.015
    2PC     N31 2211   4.286   4.088   6.036
    2PC     C33 2212   4.346   3.952   6.017
    2PC     H3A 2213   4.339   3.927   5.912
    2PC     H3B 2214   4.448   3.950   6.057
    2PC     H3C 2215   4.281   3.889   6.077
    2PC     C34 2216   4.370   4.194   5.971
    2PC     H4A 2217   4.352   4.183   5.864
    2PC     H4B 2218   4.340   4.293   6.005
    2PC     H4C 2219   4.475   4.172   5.987
    2PC     C35 2220   4.282   4.113   6.184
    2PC     H5A 2221   4.241   4.212   6.207
    2PC     H5B 2222   4.388   4.110   6.207
    2PC     H5C 2223   4.223   4.036   6.233
    2PC     O33 2224   3.907   3.723   6.120
    2PC     O34 2225   3.993   3.640   5.918
    2PC     O21 2226   3.624   3.880   5.661
    2PC     C21 2227   3.625   3.809   5.547
    2PC     O22 2228   3.602   3.690   5.555
    3OL     C12 2229   3.647   3.886   5.419
    3OL     H2R 2230   3.687   3.818   5.343
    3OL     H2S 2231   3.717   3.967   5.441
    3OL     C13 2232   3.510   3.939   5.375
    3OL     H3R 2233   3.482   4.030   5.428
    3OL     H3S 2234   3.427   3.870   5.394
    3OL     C14 2235   3.525   3.933   5.223
    3OL     H4R 2236   3.526   3.829   5.189
    3OL     H4S 2237   3.619   3.976   5.190
    3OL     C15 2238   3.414   4.009   5.148
    3OL     H5R 2239   3.418   4.113   5.181
    3OL     H5S 2240   3.316   3.967   5.170
    3OL     C16 2241   3.435   4.004   4.996
    3OL     H6R 2242   3.426   3.901   4.962
    3OL     H6S 2243   3.541   4.024   4.979
    3OL     C17 2244   3.341   4.093   4.914
    3OL     H7R 2245   3.235   4.068   4.929
    3OL     H7S 2246   3.362   4.071   4.809
    3OL     C18 2247   3.360   4.242   4.946
    3OL     H8R 2248   3.294   4.267   5.029
    3OL     H8S 2249   3.314   4.308   4.872
    3OL     C19 2250   3.503   4.276   4.979
    3OL     H9R 2251   3.535   4.259   5.082
    3OL    C110 2252   3.574   4.359   4.905
    3OL    H10R 2253   3.674   4.379   4.943
    3OL    C111 2254   3.536   4.409   4.768
    3OL    H11R 2255   3.585   4.506   4.754
    3OL    H11S 2256   3.429   4.427   4.754
    3OL    C112 2257   3.583   4.312   4.659
    3OL    H12R 2258   3.529   4.217   4.655
    3OL    H12S 2259   3.685   4.285   4.687
    3OL    C113 2260   3.570   4.370   4.517
    3OL    H13R 2261   3.622   4.466   4.524
    3OL    H13S 2262   3.467   4.398   4.494
    3OL    C114 2263   3.627   4.285   4.402
    3OL    H14R 2264   3.581   4.186   4.411
    3OL    H14S 2265   3.731   4.262   4.425
    3OL    C115 2266   3.610   4.344   4.261
    3OL    H15R 2267   3.654   4.443   4.250
    3OL    H15S 2268   3.505   4.365   4.241
    3OL    C116 2269   3.665   4.248   4.155
    3OL    H16R 2270   3.615   4.152   4.164
    3OL    H16S 2271   3.770   4.227   4.179
    3OL    C117 2272   3.658   4.310   4.015
    3OL    H17R 2273   3.708   4.407   4.010
    3OL    H17S 2274   3.552   4.327   3.993
    3OL    C118 2275   3.707   4.220   3.901
    3OL    H18R 2276   3.636   4.151   3.855
    3OL    H18S 2277   3.789   4.158   3.940
    3OL    H18T 2278   3.757   4.269   3.817
    1PA    C116 2279   4.668   4.161   3.231
    1PA    H16R 2280   4.568   4.119   3.226
    1PA    H16S 2281   4.734   4.093   3.176
    1PA    H16T 2282   4.673   4.261   3.187
    1PA    C115 2283   4.712   4.181   3.377
    1PA    H15R 2284   4.660   4.268   3.418
    1PA    H15S 2285   4.668   4.090   3.420
    1PA    C114 2286   4.859   4.204   3.413
    1PA    H14R 2287   4.924   4.124   3.376
    1PA    H14S 2288   4.890   4.301   3.374
    1PA    C113 2289   4.877   4.194   3.565
    1PA    H13R 2290   4.811   4.261   3.620
    1PA    H13S 2291   4.848   4.092   3.590
    1PA    C112 2292   5.026   4.214   3.598
    1PA    H12R 2293   5.086   4.140   3.545
    1PA    H12S 2294   5.049   4.315   3.563
    1PA    C111 2295   5.065   4.184   3.743
    1PA    H11R 2296   5.000   4.107   3.784
    1PA    H11S 2297   5.166   4.141   3.747
    1PA    C110 2298   5.057   4.305   3.838
    1PA    H10R 2299   5.121   4.386   3.804
    1PA    H10S 2300   4.954   4.340   3.826
    1PA     C19 2301   5.078   4.274   3.987
    1PA     H9R 2302   5.009   4.198   4.024
    1PA     H9S 2303   5.179   4.237   4.005
    1PA     C18 2304   5.047   4.408   4.057
    1PA     H8R 2305   5.120   4.483   4.026
    1PA     H8S 2306   4.946   4.432   4.025
    1PA     C17 2307   5.032   4.382   4.207
    1PA     H7R 2308   4.951   4.309   4.214
    1PA     H7S 2309   5.124   4.340   4.247
    1PA     C16 2310   5.007   4.515   4.279
    1PA     H6R 2311   5.092   4.583   4.265
    1PA     H6S 2312   4.914   4.566   4.253
    1PA     C15 2313   5.005   4.486   4.429
    1PA     H5R 2314   5.066   4.401   4.463
    1PA     H5S 2315   5.029   4.576   4.486
    1PA     C14 2316   4.860   4.458   4.471
    1PA     H4R 2317   4.801   4.549   4.459
    1PA     H4S 2318   4.820   4.375   4.413
    1PA     C13 2319   4.856   4.407   4.615
    1PA     H3R 2320   4.759   4.363   4.638
    1PA     H3S 2321   4.927   4.325   4.626
    1PA     C12 2322   4.879   4.529   4.707
    1PA     H2R 2323   4.964   4.591   4.678
    1PA     H2S 2324   4.787   4.586   4.709
    2PC     C11 2325   4.915   4.473   4.842
    2PC     O12 2326   4.996   4.383   4.851
    2PC     O11 2327   4.847   4.528   4.945
    2PC      C1 2328   4.866   4.477   5.078
    2PC      HR 2329   4.969   4.443   5.093
    2PC      HS 2330   4.865   4.562   5.147
    2PC      C2 2331   4.757   4.373   5.107
    2PC      HX 2332   4.677   4.407   5.041
    2PC      C3 2333   4.712   4.373   5.253
    2PC      HA 2334   4.635   4.447   5.276
    2PC      HB 2335   4.672   4.281   5.296
    2PC     O31 2336   4.826   4.410   5.332
    2PC     P31 2337   4.819   4.450   5.487
    2PC     O32 2338   4.809   4.610   5.478
    2PC     C31 2339   4.778   4.672   5.604
    2PC     H1A 2340   4.677   4.639   5.632
    2PC     H1B 2341   4.852   4.628   5.670
    2PC     C32 2342   4.786   4.825   5.605
    2PC     H2A 2343   4.769   4.861   5.707
    2PC     H2B 2344   4.888   4.856   5.578
    2PC     N31 2345   4.693   4.897   5.512
    2PC     C33 2346   4.550   4.891   5.555
    2PC     H3A 2347   4.527   4.786   5.573
    2PC     H3B 2348   4.535   4.944   5.648
    2PC     H3C 2349   4.486   4.925   5.473
    2PC     C34 2350   4.733   5.041   5.529
    2PC     H4A 2351   4.834   5.053   5.489
    2PC     H4B 2352   4.665   5.100   5.467
    2PC     H4C 2353   4.734   5.053   5.637
    2PC     C35 2354   4.702   4.855   5.369
    2PC     H5A 2355   4.804   4.873   5.333
    2PC     H5B 2356   4.635   4.913   5.305
    2PC     H5C 2357   4.693   4.746   5.368
    2PC     O33 2358   4.694   4.390   5.539
    2PC     O34 2359   4.939   4.406   5.561
    2PC     O21 2360   4.804   4.244   5.065
    2PC     C21 2361   4.762   4.189   4.949
    2PC     O22 2362   4.666   4.223   4.883
    3OL     C12 2363   4.842   4.065   4.918
    3OL     H2R 2364   4.792   3.985   4.974
    3OL     H2S 2365   4.946   4.084   4.943
    3OL     C13 2366   4.831   4.026   4.769
    3OL     H3R 2367   4.852   4.114   4.709
    3OL     H3S 2368   4.730   3.989   4.747
    3OL     C14 2369   4.932   3.920   4.725
    3OL     H4R 2370   4.924   3.840   4.799
    3OL     H4S 2371   5.033   3.960   4.736
    3OL     C15 2372   4.917   3.859   4.584
    3OL     H5R 2373   4.826   3.800   4.598
    3OL     H5S 2374   5.001   3.790   4.571
    3OL     C16 2375   4.903   3.959   4.469
    3OL     H6R 2376   4.992   4.020   4.453
    3OL     H6S 2377   4.818   4.024   4.488
    3OL     C17 2378   4.858   3.886   4.341
    3OL     H7R 2379   4.762   3.837   4.360
    3OL     H7S 2380   4.937   3.814   4.319
    3OL     C18 2381   4.846   3.983   4.223
    3OL     H8R 2382   4.940   4.038   4.226
    3OL     H8S 2383   4.764   4.054   4.236
    3OL     C19 2384   4.824   3.915   4.090
    3OL     H9R 2385   4.846   3.809   4.078
    3OL    C110 2386   4.727   3.960   4.011
    3OL    H10R 2387   4.700   3.899   3.925
    3OL    C111 2388   4.651   4.090   4.018
    3OL    H11R 2389   4.715   4.157   4.075
    3OL    H11S 2390   4.550   4.076   4.058
    3OL    C112 2391   4.631   4.143   3.876
    3OL    H12R 2392   4.589   4.067   3.810
    3OL    H12S 2393   4.731   4.160   3.835
    3OL    C113 2394   4.553   4.276   3.878
    3OL    H13R 2395   4.476   4.261   3.954
    3OL    H13S 2396   4.490   4.297   3.792
    3OL    C114 2397   4.648   4.391   3.914
    3OL    H14R 2398   4.697   4.410   3.818
    3OL    H14S 2399   4.720   4.350   3.985
    3OL    C115 2400   4.578   4.524   3.949
    3OL    H15R 2401   4.493   4.541   3.883
    3OL    H15S 2402   4.656   4.594   3.918
    3OL    C116 2403   4.535   4.537   4.095
    3OL    H16R 2404   4.616   4.495   4.156
    3OL    H16S 2405   4.442   4.483   4.116
    3OL    C117 2406   4.522   4.684   4.138
    3OL    H17R 2407   4.434   4.730   4.091
    3OL    H17S 2408   4.611   4.744   4.115
    3OL    C118 2409   4.517   4.699   4.290
    3OL    H18R 2410   4.571   4.791   4.314
    3OL    H18S 2411   4.570   4.618   4.342
    3OL    H18T 2412   4.414   4.698   4.327
    1PA    C116 2413   4.781   2.573   4.025
    1PA    H16R 2414   4.849   2.515   4.087
    1PA    H16S 2415   4.843   2.616   3.947
    1PA    H16T 2416   4.716   2.501   3.974
    1PA    C115 2417   4.703   2.678   4.105
    1PA    H15R 2418   4.774   2.754   4.140
    1PA    H15S 2419   4.626   2.724   4.043
    1PA    C114 2420   4.635   2.599   4.218
    1PA    H14R 2421   4.567   2.525   4.174
    1PA    H14S 2422   4.713   2.545   4.272
    1PA    C113 2423   4.562   2.688   4.318
    1PA    H13R 2424   4.625   2.771   4.351
    1PA    H13S 2425   4.477   2.733   4.265
    1PA    C112 2426   4.508   2.612   4.440
    1PA    H12R 2427   4.435   2.536   4.409
    1PA    H12S 2428   4.590   2.551   4.479
    1PA    C111 2429   4.445   2.708   4.542
    1PA    H11R 2430   4.523   2.770   4.587
    1PA    H11S 2431   4.383   2.778   4.486
    1PA    C110 2432   4.385   2.640   4.666
    1PA    H10R 2433   4.314   2.563   4.636
    1PA    H10S 2434   4.468   2.586   4.711
    1PA     C19 2435   4.315   2.738   4.761
    1PA     H9R 2436   4.312   2.693   4.861
    1PA     H9S 2437   4.375   2.829   4.770
    1PA     C18 2438   4.173   2.781   4.722
    1PA     H8R 2439   4.160   2.883   4.685
    1PA     H8S 2440   4.126   2.721   4.644
    1PA     C17 2441   4.077   2.762   4.840
    1PA     H7R 2442   4.096   2.670   4.896
    1PA     H7S 2443   4.090   2.843   4.912
    1PA     C16 2444   3.929   2.784   4.806
    1PA     H6R 2445   3.912   2.890   4.787
    1PA     H6S 2446   3.911   2.714   4.723
    1PA     C15 2447   3.850   2.748   4.933
    1PA     H5R 2448   3.876   2.643   4.951
    1PA     H5S 2449   3.874   2.813   5.017
    1PA     C14 2450   3.698   2.762   4.910
    1PA     H4R 2451   3.678   2.869   4.904
    1PA     H4S 2452   3.666   2.708   4.820
    1PA     C13 2453   3.625   2.711   5.035
    1PA     H3R 2454   3.668   2.621   5.079
    1PA     H3S 2455   3.639   2.787   5.112
    1PA     C12 2456   3.476   2.698   5.001
    1PA     H2R 2457   3.416   2.781   4.962
    1PA     H2S 2458   3.467   2.617   4.929
    2PC     C11 2459   3.395   2.665   5.124
    2PC     O12 2460   3.440   2.654   5.236
    2PC     O11 2461   3.265   2.667   5.092
    2PC      C1 2462   3.165   2.642   5.193
    2PC      HR 2463   3.067   2.628   5.146
    2PC      HS 2464   3.189   2.553   5.251
    2PC      C2 2465   3.155   2.745   5.306
    2PC      HX 2466   3.254   2.777   5.340
    2PC      C3 2467   3.073   2.693   5.425
    2PC      HA 2468   2.972   2.671   5.390
    2PC      HB 2469   3.126   2.604   5.459
    2PC     O31 2470   3.066   2.795   5.526
    2PC     P31 2471   3.023   2.756   5.675
    2PC     O32 2472   2.874   2.697   5.666
    2PC     C31 2473   2.766   2.789   5.639
    2PC     H1A 2474   2.804   2.859   5.564
    2PC     H1B 2475   2.681   2.740   5.590
    2PC     C32 2476   2.726   2.854   5.772
    2PC     H2A 2477   2.815   2.877   5.831
    2PC     H2B 2478   2.676   2.944   5.736
    2PC     N31 2479   2.633   2.775   5.858
    2PC     C33 2480   2.603   2.862   5.977
    2PC     H3A 2481   2.573   2.961   5.942
    2PC     H3B 2482   2.519   2.821   6.034
    2PC     H3C 2483   2.688   2.871   6.044
    2PC     C34 2484   2.504   2.735   5.794
    2PC     H4A 2485   2.466   2.810   5.725
    2PC     H4B 2486   2.518   2.637   5.747
    2PC     H4C 2487   2.431   2.713   5.873
    2PC     C35 2488   2.690   2.649   5.918
    2PC     H5A 2489   2.769   2.683   5.984
    2PC     H5B 2490   2.719   2.591   5.830
    2PC     H5C 2491   2.612   2.596   5.973
    2PC     O33 2492   3.113   2.652   5.731
    2PC     O34 2493   3.036   2.869   5.769
    2PC     O21 2494   3.084   2.845   5.230
    2PC     C21 2495   3.153   2.939   5.164
    2PC     O22 2496   3.273   2.958   5.166
    3OL     C12 2497   3.069   3.040   5.090
    3OL     H2R 2498   3.110   3.133   5.131
    3OL     H2S 2499   2.965   3.039   5.122
    3OL     C13 2500   3.081   3.010   4.940
    3OL     H3R 2501   3.012   2.930   4.914
    3OL     H3S 2502   3.171   2.953   4.918
    3OL     C14 2503   3.057   3.129   4.846
    3OL     H4R 2504   3.117   3.217   4.868
    3OL     H4S 2505   2.953   3.163   4.854
    3OL     C15 2506   3.070   3.089   4.699
    3OL     H5R 2507   3.012   3.000   4.672
    3OL     H5S 2508   3.174   3.057   4.688
    3OL     C16 2509   3.034   3.207   4.608
    3OL     H6R 2510   3.103   3.283   4.644
    3OL     H6S 2511   2.931   3.241   4.622
    3OL     C17 2512   3.049   3.179   4.458
    3OL     H7R 2513   3.021   3.080   4.421
    3OL     H7S 2514   3.155   3.192   4.436
    3OL     C18 2515   2.973   3.281   4.372
    3OL     H8R 2516   3.027   3.375   4.385
    3OL     H8S 2517   2.873   3.287   4.416
    3OL     C19 2518   2.982   3.249   4.225
    3OL     H9R 2519   2.946   3.149   4.205
    3OL    C110 2520   3.041   3.324   4.133
    3OL    H10R 2521   3.058   3.285   4.033
    3OL    C111 2522   3.102   3.460   4.152
    3OL    H11R 2523   3.053   3.509   4.237
    3OL    H11S 2524   3.076   3.533   4.075
    3OL    C112 2525   3.254   3.468   4.176
    3OL    H12R 2526   3.270   3.430   4.277
    3OL    H12S 2527   3.270   3.575   4.181
    3OL    C113 2528   3.326   3.406   4.055
    3OL    H13R 2529   3.306   3.300   4.042
    3OL    H13S 2530   3.433   3.418   4.072
    3OL    C114 2531   3.287   3.467   3.919
    3OL    H14R 2532   3.179   3.470   3.901
    3OL    H14S 2533   3.335   3.400   3.847
    3OL    C115 2534   3.354   3.602   3.892
    3OL    H15R 2535   3.458   3.580   3.870
    3OL    H15S 2536   3.351   3.662   3.984
    3OL    C116 2537   3.294   3.678   3.772
    3OL    H16R 2538   3.262   3.601   3.701
    3OL    H16S 2539   3.368   3.744   3.727
    3OL    C117 2540   3.170   3.763   3.801
    3OL    H17R 2541   3.202   3.854   3.851
    3OL    H17S 2542   3.105   3.706   3.868
    3OL    C118 2543   3.102   3.794   3.667
    3OL    H18R 2544   3.044   3.885   3.683
    3OL    H18S 2545   3.028   3.721   3.633
    3OL    H18T 2546   3.163   3.811   3.578
    1PA    C116 2547   5.853   1.564   4.010
    1PA    H16R 2548   5.870   1.672   4.003
    1PA    H16S 2549   5.749   1.545   3.983
    1PA    H16T 2550   5.927   1.528   3.937
    1PA    C115 2551   5.872   1.523   4.156
    1PA    H15R 2552   5.773   1.543   4.198
    1PA    H15S 2553   5.888   1.415   4.162
    1PA    C114 2554   5.978   1.603   4.234
    1PA    H14R 2555   6.073   1.603   4.182
    1PA    H14S 2556   5.945   1.707   4.237
    1PA    C113 2557   5.988   1.565   4.383
    1PA    H13R 2558   5.903   1.608   4.436
    1PA    H13S 2559   5.979   1.456   4.387
    1PA    C112 2560   6.107   1.624   4.459
    1PA    H12R 2561   6.198   1.584   4.415
    1PA    H12S 2562   6.106   1.732   4.444
    1PA    C111 2563   6.108   1.590   4.609
    1PA    H11R 2564   6.018   1.612   4.666
    1PA    H11S 2565   6.111   1.481   4.612
    1PA    C110 2566   6.225   1.656   4.684
    1PA    H10R 2567   6.316   1.613   4.641
    1PA    H10S 2568   6.216   1.762   4.658
    1PA     C19 2569   6.233   1.625   4.834
    1PA     H9R 2570   6.214   1.520   4.859
    1PA     H9S 2571   6.336   1.643   4.866
    1PA     C18 2572   6.153   1.723   4.921
    1PA     H8R 2573   6.194   1.822   4.901
    1PA     H8S 2574   6.047   1.716   4.899
    1PA     C17 2575   6.179   1.697   5.070
    1PA     H7R 2576   6.168   1.592   5.095
    1PA     H7S 2577   6.281   1.710   5.107
    1PA     C16 2578   6.096   1.797   5.153
    1PA     H6R 2579   6.139   1.809   5.252
    1PA     H6S 2580   6.102   1.894   5.102
    1PA     C15 2581   5.952   1.745   5.166
    1PA     H5R 2582   5.909   1.724   5.068
    1PA     H5S 2583   5.958   1.642   5.203
    1PA     C14 2584   5.857   1.824   5.256
    1PA     H4R 2585   5.912   1.872   5.338
    1PA     H4S 2586   5.815   1.903   5.192
    1PA     C13 2587   5.739   1.737   5.301
    1PA     H3R 2588   5.657   1.799   5.337
    1PA     H3S 2589   5.717   1.662   5.224
    1PA     C12 2590   5.789   1.646   5.414
    1PA     H2R 2591   5.860   1.572   5.377
    1PA     H2S 2592   5.841   1.717   5.479
    2PC     C11 2593   5.682   1.585   5.501
    2PC     O12 2594   5.716   1.546   5.612
    2PC     O11 2595   5.558   1.564   5.454
    2PC      C1 2596   5.462   1.521   5.552
    2PC      HR 2597   5.369   1.511   5.495
    2PC      HS 2598   5.500   1.428   5.595
    2PC      C2 2599   5.442   1.634   5.654
    2PC      HX 2600   5.536   1.684   5.680
    2PC      C3 2601   5.379   1.568   5.778
    2PC      HA 2602   5.279   1.529   5.757
    2PC      HB 2603   5.440   1.483   5.808
    2PC     O31 2604   5.367   1.667   5.882
    2PC     P31 2605   5.302   1.637   6.025
    2PC     O32 2606   5.412   1.673   6.136
    2PC     C31 2607   5.438   1.814   6.143
    2PC     H1A 2608   5.423   1.863   6.047
    2PC     H1B 2609   5.364   1.841   6.220
    2PC     C32 2610   5.583   1.829   6.191
    2PC     H2A 2611   5.611   1.934   6.190
    2PC     H2B 2612   5.581   1.806   6.297
    2PC     N31 2613   5.700   1.755   6.133
    2PC     C33 2614   5.697   1.606   6.152
    2PC     H3A 2615   5.776   1.557   6.096
    2PC     H3B 2616   5.700   1.587   6.259
    2PC     H3C 2617   5.602   1.558   6.129
    2PC     C34 2618   5.708   1.765   5.983
    2PC     H4A 2619   5.790   1.704   5.945
    2PC     H4B 2620   5.611   1.727   5.952
    2PC     H4C 2621   5.705   1.870   5.954
    2PC     C35 2622   5.835   1.797   6.184
    2PC     H5A 2623   5.861   1.887   6.128
    2PC     H5B 2624   5.908   1.718   6.165
    2PC     H5C 2625   5.813   1.814   6.289
    2PC     O33 2626   5.182   1.721   6.044
    2PC     O34 2627   5.228   1.509   6.034
    2PC     O21 2628   5.350   1.725   5.591
    2PC     C21 2629   5.402   1.830   5.524
    2PC     O22 2630   5.519   1.858   5.538
    3OL     C12 2631   5.304   1.900   5.434
    3OL     H2R 2632   5.361   1.953   5.357
    3OL     H2S 2633   5.242   1.962   5.499
    3OL     C13 2634   5.210   1.815   5.347
    3OL     H3R 2635   5.142   1.767   5.417
    3OL     H3S 2636   5.267   1.740   5.291
    3OL     C14 2637   5.136   1.890   5.235
    3OL     H4R 2638   5.212   1.926   5.165
    3OL     H4S 2639   5.078   1.976   5.268
    3OL     C15 2640   5.047   1.788   5.163
    3OL     H5R 2641   4.986   1.738   5.238
    3OL     H5S 2642   5.108   1.718   5.106
    3OL     C16 2643   4.941   1.860   5.079
    3OL     H6R 2644   4.891   1.789   5.014
    3OL     H6S 2645   4.986   1.934   5.012
    3OL     C17 2646   4.829   1.925   5.161
    3OL     H7R 2647   4.769   2.001   5.111
    3OL     H7S 2648   4.884   1.980   5.238
    3OL     C18 2649   4.734   1.823   5.226
    3OL     H8R 2650   4.788   1.761   5.297
    3OL     H8S 2651   4.703   1.759   5.143
    3OL     C19 2652   4.621   1.887   5.303
    3OL     H9R 2653   4.651   1.955   5.382
    3OL    C110 2654   4.491   1.873   5.284
    3OL    H10R 2655   4.414   1.929   5.337
    3OL    C111 2656   4.439   1.802   5.161
    3OL    H11R 2657   4.379   1.719   5.198
    3OL    H11S 2658   4.511   1.765   5.088
    3OL    C112 2659   4.340   1.893   5.086
    3OL    H12R 2660   4.397   1.984   5.064
    3OL    H12S 2661   4.259   1.922   5.153
    3OL    C113 2662   4.296   1.835   4.951
    3OL    H13R 2663   4.248   1.741   4.980
    3OL    H13S 2664   4.383   1.804   4.894
    3OL    C114 2665   4.195   1.923   4.876
    3OL    H14R 2666   4.123   1.967   4.945
    3OL    H14S 2667   4.137   1.856   4.813
    3OL    C115 2668   4.262   2.031   4.790
    3OL    H15R 2669   4.353   2.064   4.842
    3OL    H15S 2670   4.191   2.114   4.800
    3OL    C116 2671   4.291   1.988   4.645
    3OL    H16R 2672   4.269   2.073   4.581
    3OL    H16S 2673   4.228   1.903   4.616
    3OL    C117 2674   4.433   1.932   4.637
    3OL    H17R 2675   4.437   1.844   4.701
    3OL    H17S 2676   4.503   2.008   4.674
    3OL    C118 2677   4.465   1.884   4.494
    3OL    H18R 2678   4.458   1.968   4.424
    3OL    H18S 2679   4.393   1.806   4.471
    3OL    H18T 2680   4.564   1.839   4.492
    1PA    C116 2681   2.322   4.025   4.148
    1PA    H16R 2682   2.371   4.007   4.051
    1PA    H16S 2683   2.297   3.921   4.169
    1PA    H16T 2684   2.395   4.056   4.222
    1PA    C115 2685   2.204   4.119   4.121
    1PA    H15R 2686   2.243   4.221   4.119
    1PA    H15S 2687   2.153   4.105   4.026
    1PA    C114 2688   2.093   4.105   4.227
    1PA    H14R 2689   2.017   4.166   4.177
    1PA    H14S 2690   2.047   4.010   4.252
    1PA    C113 2691   2.117   4.185   4.356
    1PA    H13R 2692   2.196   4.135   4.412
    1PA    H13S 2693   2.163   4.281   4.330
    1PA    C112 2694   1.986   4.182   4.436
    1PA    H12R 2695   1.919   4.257   4.393
    1PA    H12S 2696   1.933   4.088   4.426
    1PA    C111 2697   2.008   4.218   4.584
    1PA    H11R 2698   2.078   4.144   4.624
    1PA    H11S 2699   2.056   4.315   4.602
    1PA    C110 2700   1.880   4.221   4.667
    1PA    H10R 2701   1.814   4.298   4.626
    1PA    H10S 2702   1.833   4.123   4.655
    1PA     C19 2703   1.909   4.248   4.815
    1PA     H9R 2704   1.969   4.165   4.854
    1PA     H9S 2705   1.969   4.339   4.828
    1PA     C18 2706   1.771   4.262   4.879
    1PA     H8R 2707   1.725   4.354   4.842
    1PA     H8S 2708   1.707   4.175   4.864
    1PA     C17 2709   1.797   4.274   5.030
    1PA     H7R 2710   1.844   4.186   5.073
    1PA     H7S 2711   1.872   4.354   5.038
    1PA     C16 2712   1.662   4.296   5.099
    1PA     H6R 2713   1.614   4.376   5.042
    1PA     H6S 2714   1.603   4.204   5.103
    1PA     C15 2715   1.690   4.342   5.243
    1PA     H5R 2716   1.724   4.251   5.293
    1PA     H5S 2717   1.768   4.418   5.249
    1PA     C14 2718   1.556   4.385   5.304
    1PA     H4R 2719   1.539   4.489   5.272
    1PA     H4S 2720   1.468   4.332   5.267
    1PA     C13 2721   1.556   4.375   5.458
    1PA     H3R 2722   1.647   4.424   5.492
    1PA     H3S 2723   1.470   4.434   5.490
    1PA     C12 2724   1.551   4.228   5.501
    1PA     H2R 2725   1.448   4.193   5.488
    1PA     H2S 2726   1.622   4.175   5.437
    2PC     C11 2727   1.574   4.219   5.650
    2PC     O12 2728   1.670   4.262   5.710
    2PC     O11 2729   1.472   4.164   5.718
    2PC      C1 2730   1.469   4.141   5.860
    2PC      HR 2731   1.550   4.080   5.900
    2PC      HS 2732   1.463   4.232   5.920
    2PC      C2 2733   1.337   4.075   5.902
    2PC      HX 2734   1.257   4.145   5.875
    2PC      C3 2735   1.320   4.052   6.053
    2PC      HA 2736   1.377   3.968   6.092
    2PC      HB 2737   1.347   4.140   6.112
    2PC     O31 2738   1.177   4.036   6.060
    2PC     P31 2739   1.106   4.021   6.203
    2PC     O32 2740   1.087   4.172   6.253
    2PC     C31 2741   1.186   4.225   6.343
    2PC     H1A 2742   1.226   4.156   6.417
    2PC     H1B 2743   1.271   4.256   6.281
    2PC     C32 2744   1.120   4.343   6.417
    2PC     H2A 2745   1.118   4.427   6.348
    2PC     H2B 2746   1.015   4.315   6.418
    2PC     N31 2747   1.183   4.388   6.545
    2PC     C33 2748   1.142   4.305   6.663
    2PC     H3A 2749   1.201   4.343   6.747
    2PC     H3B 2750   1.036   4.315   6.685
    2PC     H3C 2751   1.160   4.198   6.660
    2PC     C34 2752   1.332   4.406   6.534
    2PC     H4A 2753   1.364   4.466   6.620
    2PC     H4B 2754   1.386   4.312   6.528
    2PC     H4C 2755   1.346   4.476   6.452
    2PC     C35 2756   1.138   4.528   6.572
    2PC     H5A 2757   1.172   4.563   6.669
    2PC     H5B 2758   1.029   4.533   6.566
    2PC     H5C 2759   1.168   4.595   6.491
    2PC     O33 2760   0.976   3.955   6.177
    2PC     O34 2761   1.176   3.938   6.304
    2PC     O21 2762   1.315   3.954   5.828
    2PC     C21 2763   1.201   3.940   5.759
    2PC     O22 2764   1.107   4.017   5.768
    3OL     C12 2765   1.207   3.816   5.674
    3OL     H2R 2766   1.179   3.726   5.729
    3OL     H2S 2767   1.308   3.801   5.635
    3OL     C13 2768   1.121   3.837   5.548
    3OL     H3R 2769   1.017   3.852   5.576
    3OL     H3S 2770   1.123   3.746   5.487
    3OL     C14 2771   1.163   3.955   5.459
    3OL     H4R 2772   1.161   4.050   5.512
    3OL     H4S 2773   1.095   3.964   5.373
    3OL     C15 2774   1.297   3.926   5.390
    3OL     H5R 2775   1.299   3.829   5.339
    3OL     H5S 2776   1.374   3.948   5.463
    3OL     C16 2777   1.331   4.015   5.269
    3OL     H6R 2778   1.438   4.001   5.253
    3OL     H6S 2779   1.316   4.120   5.295
    3OL     C17 2780   1.253   3.970   5.144
    3OL     H7R 2781   1.147   3.959   5.165
    3OL     H7S 2782   1.293   3.874   5.112
    3OL     C18 2783   1.275   4.075   5.035
    3OL     H8R 2784   1.380   4.104   5.024
    3OL     H8S 2785   1.226   4.166   5.072
    3OL     C19 2786   1.219   4.022   4.905
    3OL     H9R 2787   1.112   4.035   4.891
    3OL    C110 2788   1.289   3.992   4.797
    3OL    H10R 2789   1.229   3.964   4.710
    3OL    C111 2790   1.439   3.990   4.799
    3OL    H11R 2791   1.478   3.933   4.884
    3OL    H11S 2792   1.484   4.089   4.808
    3OL    C112 2793   1.497   3.922   4.674
    3OL    H12R 2794   1.458   3.820   4.666
    3OL    H12S 2795   1.603   3.906   4.695
    3OL    C113 2796   1.462   4.002   4.548
    3OL    H13R 2797   1.361   4.041   4.535
    3OL    H13S 2798   1.458   3.928   4.468
    3OL    C114 2799   1.564   4.114   4.519
    3OL    H14R 2800   1.658   4.058   4.516
    3OL    H14S 2801   1.568   4.187   4.601
    3OL    C115 2802   1.544   4.195   4.391
    3OL    H15R 2803   1.625   4.267   4.373
    3OL    H15S 2804   1.447   4.243   4.400
    3OL    C116 2805   1.541   4.098   4.272
    3OL    H16R 2806   1.463   4.023   4.287
    3OL    H16S 2807   1.642   4.057   4.259
    3OL    C117 2808   1.503   4.173   4.144
    3OL    H17R 2809   1.414   4.235   4.157
    3OL    H17S 2810   1.469   4.105   4.065
    3OL    C118 2811   1.625   4.246   4.086
    3OL    H18R 2812   1.617   4.256   3.978
    3OL    H18S 2813   1.708   4.176   4.102
    3OL    H18T 2814   1.642   4.341   4.137
    1PA    C116 2815   2.017   6.847   3.800
    1PA    H16R 2816   1.922   6.893   3.771
    1PA    H16S 2817   2.014   6.738   3.792
    1PA    H16T 2818   2.091   6.900   3.740
    1PA    C115 2819   2.063   6.900   3.936
    1PA    H15R 2820   2.162   6.855   3.950
    1PA    H15S 2821   2.069   7.009   3.933
    1PA    C114 2822   1.959   6.853   4.038
    1PA    H14R 2823   1.983   6.903   4.132
    1PA    H14S 2824   1.860   6.894   4.016
    1PA    C113 2825   1.951   6.699   4.042
    1PA    H13R 2826   1.939   6.644   3.949
    1PA    H13S 2827   2.041   6.661   4.089
    1PA    C112 2828   1.822   6.651   4.109
    1PA    H12R 2829   1.737   6.687   4.050
    1PA    H12S 2830   1.825   6.545   4.085
    1PA    C111 2831   1.792   6.681   4.257
    1PA    H11R 2832   1.871   6.636   4.318
    1PA    H11S 2833   1.789   6.789   4.266
    1PA    C110 2834   1.662   6.616   4.308
    1PA    H10R 2835   1.577   6.631   4.242
    1PA    H10S 2836   1.677   6.508   4.311
    1PA     C19 2837   1.631   6.660   4.452
    1PA     H9R 2838   1.711   6.632   4.520
    1PA     H9S 2839   1.614   6.767   4.444
    1PA     C18 2840   1.503   6.590   4.500
    1PA     H8R 2841   1.412   6.623   4.449
    1PA     H8S 2842   1.512   6.483   4.483
    1PA     C17 2843   1.483   6.621   4.649
    1PA     H7R 2844   1.580   6.603   4.698
    1PA     H7S 2845   1.466   6.728   4.664
    1PA     C16 2846   1.359   6.547   4.701
    1PA     H6R 2847   1.281   6.549   4.625
    1PA     H6S 2848   1.391   6.447   4.730
    1PA     C15 2849   1.303   6.625   4.822
    1PA     H5R 2850   1.379   6.619   4.900
    1PA     H5S 2851   1.270   6.725   4.796
    1PA     C14 2852   1.188   6.541   4.879
    1PA     H4R 2853   1.093   6.538   4.826
    1PA     H4S 2854   1.215   6.436   4.894
    1PA     C13 2855   1.158   6.601   5.017
    1PA     H3R 2856   1.242   6.617   5.084
    1PA     H3S 2857   1.117   6.701   5.004
    1PA     C12 2858   1.036   6.531   5.079
    1PA     H2R 2859   0.955   6.553   5.009
    1PA     H2S 2860   1.060   6.427   5.102
    2PC     C11 2861   1.009   6.593   5.213
    2PC     O12 2862   0.913   6.661   5.242
    2PC     O11 2863   1.112   6.570   5.297
    2PC      C1 2864   1.116   6.603   5.437
    2PC      HR 2865   1.219   6.601   5.472
    2PC      HS 2866   1.084   6.707   5.450
    2PC      C2 2867   1.017   6.518   5.519
    2PC      HX 2868   0.920   6.523   5.468
    2PC      C3 2869   1.005   6.578   5.660
    2PC      HA 2870   1.104   6.588   5.705
    2PC      HB 2871   0.942   6.667   5.666
    2PC     O31 2872   0.936   6.474   5.730
    2PC     P31 2873   0.915   6.491   5.888
    2PC     O32 2874   0.756   6.507   5.888
    2PC     C31 2875   0.691   6.499   6.016
    2PC     H1A 2876   0.750   6.553   6.090
    2PC     H1B 2877   0.601   6.557   5.994
    2PC     C32 2878   0.664   6.353   6.056
    2PC     H2A 2879   0.744   6.298   6.007
    2PC     H2B 2880   0.673   6.341   6.165
    2PC     N31 2881   0.545   6.280   6.003
    2PC     C33 2882   0.422   6.344   6.061
    2PC     H3A 2883   0.409   6.446   6.026
    2PC     H3B 2884   0.344   6.286   6.010
    2PC     H3C 2885   0.413   6.331   6.169
    2PC     C34 2886   0.532   6.278   5.854
    2PC     H4A 2887   0.427   6.256   5.836
    2PC     H4B 2888   0.554   6.373   5.805
    2PC     H4C 2889   0.595   6.198   5.815
    2PC     C35 2890   0.551   6.139   6.051
    2PC     H5A 2891   0.533   6.131   6.159
    2PC     H5B 2892   0.653   6.101   6.038
    2PC     H5C 2893   0.477   6.093   5.985
    2PC     O33 2894   0.961   6.376   5.969
    2PC     O34 2895   0.970   6.617   5.944
    2PC     O21 2896   1.072   6.386   5.525
    2PC     C21 2897   1.036   6.288   5.440
    2PC     O22 2898   0.955   6.292   5.350
    3OL     C12 2899   1.118   6.163   5.461
    3OL     H2R 2900   1.114   6.128   5.564
    3OL     H2S 2901   1.222   6.194   5.447
    3OL     C13 2902   1.097   6.049   5.360
    3OL     H3R 2903   0.990   6.046   5.340
    3OL     H3S 2904   1.114   5.948   5.399
    3OL     C14 2905   1.163   6.071   5.224
    3OL     H4R 2906   1.268   6.041   5.221
    3OL     H4S 2907   1.165   6.176   5.193
    3OL     C15 2908   1.086   5.980   5.127
    3OL     H5R 2909   0.983   6.009   5.107
    3OL     H5S 2910   1.070   5.882   5.171
    3OL     C16 2911   1.168   5.958   4.999
    3OL     H6R 2912   1.114   5.888   4.936
    3OL     H6S 2913   1.254   5.900   5.034
    3OL     C17 2914   1.195   6.089   4.924
    3OL     H7R 2915   1.279   6.083   4.854
    3OL     H7S 2916   1.216   6.172   4.991
    3OL     C18 2917   1.073   6.124   4.839
    3OL     H8R 2918   1.076   6.231   4.814
    3OL     H8S 2919   0.992   6.106   4.910
    3OL     C19 2920   1.044   6.025   4.729
    3OL     H9R 2921   1.021   5.922   4.755
    3OL    C110 2922   1.052   6.051   4.599
    3OL    H10R 2923   1.021   5.970   4.534
    3OL    C111 2924   1.088   6.181   4.531
    3OL    H11R 2925   1.091   6.263   4.603
    3OL    H11S 2926   1.010   6.196   4.457
    3OL    C112 2927   1.221   6.159   4.458
    3OL    H12R 2928   1.227   6.243   4.388
    3OL    H12S 2929   1.213   6.068   4.398
    3OL    C113 2930   1.337   6.147   4.558
    3OL    H13R 2931   1.334   6.060   4.623
    3OL    H13S 2932   1.335   6.237   4.620
    3OL    C114 2933   1.474   6.140   4.490
    3OL    H14R 2934   1.543   6.115   4.572
    3OL    H14S 2935   1.503   6.238   4.454
    3OL    C115 2936   1.487   6.037   4.376
    3OL    H15R 2937   1.418   6.072   4.299
    3OL    H15S 2938   1.453   5.943   4.418
    3OL    C116 2939   1.630   6.025   4.322
    3OL    H16R 2940   1.672   6.125   4.311
    3OL    H16S 2941   1.627   5.988   4.220
    3OL    C117 2942   1.719   5.941   4.415
    3OL    H17R 2943   1.707   5.833   4.402
    3OL    H17S 2944   1.700   5.961   4.521
    3OL    C118 2945   1.868   5.966   4.386
    3OL    H18R 2946   1.904   6.065   4.416
    3OL    H18S 2947   1.894   5.957   4.280
    3OL    H18T 2948   1.932   5.899   4.443
    1PA    C116 2949   5.794   4.935   3.707
    1PA    H16R 2950   5.885   4.876   3.692
    1PA    H16S 2951   5.802   5.029   3.651
    1PA    H16T 2952   5.707   4.894   3.656
    1PA    C115 2953   5.772   4.973   3.854
    1PA    H15R 2954   5.770   4.885   3.917
    1PA    H15S 2955   5.865   5.027   3.875
    1PA    C114 2956   5.652   5.065   3.881
    1PA    H14R 2957   5.666   5.108   3.980
    1PA    H14S 2958   5.667   5.150   3.814
    1PA    C113 2959   5.518   4.997   3.854
    1PA    H13R 2960   5.510   4.957   3.752
    1PA    H13S 2961   5.521   4.909   3.918
    1PA    C112 2962   5.403   5.093   3.891
    1PA    H12R 2963   5.429   5.195   3.864
    1PA    H12S 2964   5.311   5.072   3.837
    1PA    C111 2965   5.372   5.100   4.041
    1PA    H11R 2966   5.321   5.009   4.073
    1PA    H11S 2967   5.460   5.104   4.105
    1PA    C110 2968   5.272   5.210   4.077
    1PA    H10R 2969   5.315   5.310   4.060
    1PA    H10S 2970   5.191   5.201   4.005
    1PA     C19 2971   5.240   5.192   4.226
    1PA     H9R 2972   5.151   5.130   4.230
    1PA     H9S 2973   5.321   5.144   4.282
    1PA     C18 2974   5.195   5.328   4.282
    1PA     H8R 2975   5.281   5.395   4.276
    1PA     H8S 2976   5.119   5.372   4.217
    1PA     C17 2977   5.156   5.315   4.430
    1PA     H7R 2978   5.069   5.250   4.438
    1PA     H7S 2979   5.235   5.267   4.488
    1PA     C16 2980   5.115   5.452   4.486
    1PA     H6R 2981   5.202   5.517   4.476
    1PA     H6S 2982   5.042   5.494   4.418
    1PA     C15 2983   5.075   5.458   4.634
    1PA     H5R 2984   5.049   5.561   4.657
    1PA     H5S 2985   4.979   5.408   4.651
    1PA     C14 2986   5.173   5.400   4.737
    1PA     H4R 2987   5.196   5.294   4.725
    1PA     H4S 2988   5.268   5.455   4.736
    1PA     C13 2989   5.117   5.415   4.879
    1PA     H3R 2990   5.099   5.521   4.896
    1PA     H3S 2991   5.016   5.373   4.885
    1PA     C12 2992   5.222   5.371   4.982
    1PA     H2R 2993   5.246   5.265   4.966
    1PA     H2S 2994   5.318   5.420   4.971
    2PC     C11 2995   5.181   5.394   5.126
    2PC     O12 2996   5.130   5.308   5.195
    2PC     O11 2997   5.185   5.524   5.159
    2PC      C1 2998   5.142   5.563   5.290
    2PC      HR 2999   5.147   5.672   5.284
    2PC      HS 3000   5.040   5.537   5.322
    2PC      C2 3001   5.231   5.500   5.398
    2PC      HX 3002   5.232   5.391   5.394
    2PC      C3 3003   5.189   5.534   5.542
    2PC      HA 3004   5.208   5.642   5.545
    2PC      HB 3005   5.084   5.515   5.565
    2PC     O31 3006   5.265   5.464   5.642
    2PC     P31 3007   5.195   5.448   5.785
    2PC     O32 3008   5.329   5.418   5.868
    2PC     C31 3009   5.324   5.445   6.010
    2PC     H1A 3010   5.272   5.535   6.044
    2PC     H1B 3011   5.273   5.366   6.066
    2PC     C32 3012   5.468   5.433   6.060
    2PC     H2A 3013   5.453   5.400   6.163
    2PC     H2B 3014   5.530   5.351   6.025
    2PC     N31 3015   5.559   5.551   6.076
    2PC     C33 3016   5.585   5.610   5.940
    2PC     H3A 3017   5.498   5.608   5.875
    2PC     H3B 3018   5.625   5.712   5.950
    2PC     H3C 3019   5.653   5.538   5.896
    2PC     C34 3020   5.492   5.664   6.148
    2PC     H4A 3021   5.417   5.721   6.093
    2PC     H4B 3022   5.451   5.618   6.238
    2PC     H4C 3023   5.564   5.739   6.180
    2PC     C35 3024   5.690   5.512   6.138
    2PC     H5A 3025   5.746   5.604   6.153
    2PC     H5B 3026   5.738   5.441   6.070
    2PC     H5C 3027   5.675   5.466   6.236
    2PC     O33 3028   5.138   5.577   5.830
    2PC     O34 3029   5.097   5.338   5.773
    2PC     O21 3030   5.363   5.550   5.370
    2PC     C21 3031   5.457   5.489   5.297
    2PC     O22 3032   5.436   5.373   5.269
    3OL     C12 3033   5.590   5.558   5.282
    3OL     H2R 3034   5.616   5.583   5.385
    3OL     H2S 3035   5.575   5.649   5.225
    3OL     C13 3036   5.695   5.468   5.215
    3OL     H3R 3037   5.657   5.425   5.122
    3OL     H3S 3038   5.726   5.384   5.277
    3OL     C14 3039   5.827   5.543   5.192
    3OL     H4R 3040   5.912   5.478   5.175
    3OL     H4S 3041   5.851   5.599   5.283
    3OL     C15 3042   5.824   5.643   5.075
    3OL     H5R 3043   5.872   5.733   5.113
    3OL     H5S 3044   5.719   5.670   5.062
    3OL     C16 3045   5.896   5.592   4.950
    3OL     H6R 3046   5.872   5.486   4.934
    3OL     H6S 3047   6.003   5.599   4.968
    3OL     C17 3048   5.853   5.681   4.832
    3OL     H7R 3049   5.891   5.782   4.848
    3OL     H7S 3050   5.747   5.705   4.830
    3OL     C18 3051   5.911   5.643   4.695
    3OL     H8R 3052   5.874   5.713   4.620
    3OL     H8S 3053   5.883   5.541   4.667
    3OL     C19 3054   6.062   5.649   4.694
    3OL     H9R 3055   6.107   5.630   4.791
    3OL    C110 3056   6.137   5.715   4.607
    3OL    H10R 3057   6.236   5.740   4.644
    3OL    C111 3058   6.097   5.778   4.476
    3OL    H11R 3059   5.991   5.753   4.460
    3OL    H11S 3060   6.157   5.733   4.397
    3OL    C112 3061   6.129   5.927   4.463
    3OL    H12R 3062   6.234   5.954   4.448
    3OL    H12S 3063   6.101   5.977   4.556
    3OL    C113 3064   6.065   5.991   4.339
    3OL    H13R 3065   5.959   5.964   4.330
    3OL    H13S 3066   6.110   5.963   4.244
    3OL    C114 3067   6.079   6.144   4.345
    3OL    H14R 3068   6.183   6.175   4.351
    3OL    H14S 3069   6.035   6.175   4.440
    3OL    C115 3070   6.009   6.214   4.227
    3OL    H15R 3071   5.987   6.316   4.259
    3OL    H15S 3072   5.914   6.160   4.214
    3OL    C116 3073   6.105   6.209   4.108
    3OL    H16R 3074   6.116   6.103   4.084
    3OL    H16S 3075   6.203   6.239   4.146
    3OL    C117 3076   6.067   6.307   3.997
    3OL    H17R 3077   6.064   6.403   4.049
    3OL    H17S 3078   5.967   6.281   3.962
    3OL    C118 3079   6.178   6.311   3.891
    3OL    H18R 3080   6.169   6.215   3.839
    3OL    H18S 3081   6.277   6.302   3.936
    3OL    H18T 3082   6.177   6.397   3.823
    1PA    C116 3083   5.402   4.880   4.617
    1PA    H16R 3084   5.410   4.773   4.592
    1PA    H16S 3085   5.300   4.918   4.612
    1PA    H16T 3086   5.440   4.905   4.716
    1PA    C115 3087   5.491   4.955   4.517
    1PA    H15R 3088   5.467   5.058   4.547
    1PA    H15S 3089   5.597   4.937   4.541
    1PA    C114 3090   5.448   4.922   4.374
    1PA    H14R 3091   5.339   4.913   4.370
    1PA    H14S 3092   5.476   4.995   4.297
    1PA    C113 3093   5.520   4.792   4.336
    1PA    H13R 3094   5.624   4.824   4.335
    1PA    H13S 3095   5.493   4.712   4.404
    1PA    C112 3096   5.476   4.748   4.196
    1PA    H12R 3097   5.373   4.710   4.202
    1PA    H12S 3098   5.481   4.820   4.114
    1PA    C111 3099   5.562   4.636   4.136
    1PA    H11R 3100   5.538   4.613   4.032
    1PA    H11S 3101   5.666   4.670   4.140
    1PA    C110 3102   5.550   4.504   4.213
    1PA    H10R 3103   5.627   4.432   4.187
    1PA    H10S 3104   5.572   4.515   4.320
    1PA     C19 3105   5.409   4.443   4.205
    1PA     H9R 3106   5.329   4.498   4.255
    1PA     H9S 3107   5.382   4.446   4.099
    1PA     C18 3108   5.412   4.295   4.247
    1PA     H8R 3109   5.313   4.250   4.235
    1PA     H8S 3110   5.474   4.232   4.183
    1PA     C17 3111   5.449   4.277   4.395
    1PA     H7R 3112   5.459   4.173   4.428
    1PA     H7S 3113   5.548   4.320   4.413
    1PA     C16 3114   5.353   4.352   4.488
    1PA     H6R 3115   5.334   4.455   4.456
    1PA     H6S 3116   5.253   4.308   4.492
    1PA     C15 3117   5.413   4.360   4.629
    1PA     H5R 3118   5.434   4.259   4.665
    1PA     H5S 3119   5.511   4.409   4.627
    1PA     C14 3120   5.321   4.433   4.727
    1PA     H4R 3121   5.308   4.535   4.691
    1PA     H4S 3122   5.222   4.388   4.723
    1PA     C13 3123   5.370   4.435   4.873
    1PA     H3R 3124   5.361   4.340   4.926
    1PA     H3S 3125   5.475   4.464   4.860
    1PA     C12 3126   5.300   4.551   4.944
    1PA     H2R 3127   5.336   4.652   4.925
    1PA     H2S 3128   5.197   4.556   4.908
    2PC     C11 3129   5.309   4.533   5.094
    2PC     O12 3130   5.415   4.537   5.152
    2PC     O11 3131   5.186   4.514   5.145
    2PC      C1 3132   5.173   4.518   5.288
    2PC      HR 3133   5.081   4.465   5.311
    2PC      HS 3134   5.256   4.473   5.343
    2PC      C2 3135   5.175   4.663   5.340
    2PC      HX 3136   5.275   4.706   5.331
    2PC      C3 3137   5.147   4.666   5.491
    2PC      HA 3138   5.056   4.612   5.518
    2PC      HB 3139   5.226   4.608   5.540
    2PC     O31 3140   5.167   4.799   5.540
    2PC     P31 3141   5.137   4.836   5.693
    2PC     O32 3142   5.286   4.840   5.753
    2PC     C31 3143   5.317   4.733   5.844
    2PC     H1A 3144   5.246   4.743   5.925
    2PC     H1B 3145   5.286   4.640   5.796
    2PC     C32 3146   5.464   4.756   5.885
    2PC     H2A 3147   5.515   4.744   5.789
    2PC     H2B 3148   5.497   4.854   5.920
    2PC     N31 3149   5.518   4.653   5.979
    2PC     C33 3150   5.433   4.652   6.103
    2PC     H3A 3151   5.437   4.755   6.141
    2PC     H3B 3152   5.333   4.620   6.076
    2PC     H3C 3153   5.475   4.578   6.172
    2PC     C34 3154   5.510   4.516   5.919
    2PC     H4A 3155   5.557   4.443   5.985
    2PC     H4B 3156   5.407   4.480   5.918
    2PC     H4C 3157   5.553   4.511   5.819
    2PC     C35 3158   5.662   4.676   6.014
    2PC     H5A 3159   5.677   4.784   6.010
    2PC     H5B 3160   5.728   4.624   5.944
    2PC     H5C 3161   5.677   4.625   6.109
    2PC     O33 3162   5.087   4.973   5.715
    2PC     O34 3163   5.051   4.748   5.776
    2PC     O21 3164   5.074   4.739   5.273
    2PC     C21 3165   5.111   4.824   5.176
    2PC     O22 3166   5.226   4.844   5.142
    3OL     C12 3167   4.991   4.874   5.101
    3OL     H2R 3168   4.925   4.913   5.179
    3OL     H2S 3169   4.948   4.794   5.041
    3OL     C13 3170   5.020   4.985   4.999
    3OL     H3R 3171   5.085   4.939   4.924
    3OL     H3S 3172   5.085   5.060   5.046
    3OL     C14 3173   4.897   5.052   4.937
    3OL     H4R 3174   4.925   5.153   4.907
    3OL     H4S 3175   4.819   5.057   5.014
    3OL     C15 3176   4.851   4.983   4.808
    3OL     H5R 3177   4.755   5.028   4.784
    3OL     H5S 3178   4.828   4.877   4.825
    3OL     C16 3179   4.950   4.990   4.691
    3OL     H6R 3180   5.031   4.923   4.721
    3OL     H6S 3181   4.981   5.094   4.675
    3OL     C17 3182   4.875   4.932   4.570
    3OL     H7R 3183   4.779   4.982   4.561
    3OL     H7S 3184   4.858   4.826   4.585
    3OL     C18 3185   4.957   4.949   4.441
    3OL     H8R 3186   5.054   4.901   4.456
    3OL     H8S 3187   4.975   5.053   4.411
    3OL     C19 3188   4.898   4.870   4.328
    3OL     H9R 3189   4.870   4.768   4.355
    3OL    C110 3190   4.874   4.913   4.205
    3OL    H10R 3191   4.841   4.832   4.140
    3OL    C111 3192   4.889   5.047   4.138
    3OL    H11R 3193   4.947   5.028   4.047
    3OL    H11S 3194   4.949   5.114   4.200
    3OL    C112 3195   4.756   5.118   4.107
    3OL    H12R 3196   4.709   5.061   4.027
    3OL    H12S 3197   4.776   5.215   4.061
    3OL    C113 3198   4.660   5.133   4.225
    3OL    H13R 3199   4.626   5.031   4.247
    3OL    H13S 3200   4.564   5.178   4.199
    3OL    C114 3201   4.726   5.212   4.339
    3OL    H14R 3202   4.750   5.312   4.302
    3OL    H14S 3203   4.820   5.163   4.363
    3OL    C115 3204   4.640   5.231   4.465
    3OL    H15R 3205   4.625   5.131   4.506
    3OL    H15S 3206   4.542   5.276   4.445
    3OL    C116 3207   4.722   5.310   4.568
    3OL    H16R 3208   4.760   5.407   4.537
    3OL    H16S 3209   4.811   5.251   4.589
    3OL    C117 3210   4.648   5.327   4.702
    3OL    H17R 3211   4.722   5.365   4.773
    3OL    H17S 3212   4.607   5.231   4.734
    3OL    C118 3213   4.533   5.428   4.687
    3OL    H18R 3214   4.583   5.523   4.668
    3OL    H18S 3215   4.479   5.427   4.782
    3OL    H18T 3216   4.462   5.414   4.605
    1PA    C116 3217   0.251   1.355   3.586
    1PA    H16R 3218   0.163   1.401   3.541
    1PA    H16S 3219   0.218   1.336   3.688
    1PA    H16T 3220   0.270   1.254   3.550
    1PA    C115 3221   0.374   1.448   3.582
    1PA    H15R 3222   0.449   1.384   3.628
    1PA    H15S 3223   0.418   1.470   3.484
    1PA    C114 3224   0.369   1.581   3.657
    1PA    H14R 3225   0.459   1.639   3.634
    1PA    H14S 3226   0.284   1.646   3.635
    1PA    C113 3227   0.353   1.552   3.807
    1PA    H13R 3228   0.254   1.509   3.823
    1PA    H13S 3229   0.429   1.483   3.842
    1PA    C112 3230   0.378   1.675   3.895
    1PA    H12R 3231   0.477   1.720   3.883
    1PA    H12S 3232   0.312   1.753   3.858
    1PA    C111 3233   0.348   1.654   4.044
    1PA    H11R 3234   0.244   1.620   4.045
    1PA    H11S 3235   0.412   1.571   4.076
    1PA    C110 3236   0.365   1.785   4.121
    1PA    H10R 3237   0.469   1.818   4.109
    1PA    H10S 3238   0.300   1.862   4.080
    1PA     C19 3239   0.328   1.775   4.270
    1PA     H9R 3240   0.332   1.880   4.300
    1PA     H9S 3241   0.233   1.723   4.284
    1PA     C18 3242   0.436   1.700   4.349
    1PA     H8R 3243   0.455   1.606   4.296
    1PA     H8S 3244   0.525   1.764   4.356
    1PA     C17 3245   0.396   1.687   4.496
    1PA     H7R 3246   0.308   1.625   4.483
    1PA     H7S 3247   0.470   1.625   4.547
    1PA     C16 3248   0.367   1.816   4.574
    1PA     H6R 3249   0.455   1.880   4.565
    1PA     H6S 3250   0.275   1.858   4.533
    1PA     C15 3251   0.346   1.788   4.723
    1PA     H5R 3252   0.357   1.680   4.737
    1PA     H5S 3253   0.432   1.833   4.773
    1PA     C14 3254   0.214   1.830   4.789
    1PA     H4R 3255   0.188   1.933   4.764
    1PA     H4S 3256   0.136   1.764   4.749
    1PA     C13 3257   0.217   1.808   4.940
    1PA     H3R 3258   0.227   1.703   4.968
    1PA     H3S 3259   0.296   1.867   4.986
    1PA     C12 3260   0.084   1.870   4.988
    1PA     H2R 3261   0.088   1.973   4.953
    1PA     H2S 3262   0.004   1.819   4.933
    2PC     C11 3263   0.070   1.875   5.138
    2PC     O12 3264   0.140   1.822   5.221
    2PC     O11 3265  -0.030   1.960   5.168
    2PC      C1 3266  -0.051   1.996   5.305
    2PC      HR 3267  -0.129   2.073   5.308
    2PC      HS 3268  -0.075   1.903   5.358
    2PC      C2 3269   0.071   2.061   5.372
    2PC      HX 3270   0.154   1.990   5.365
    2PC      C3 3271   0.056   2.083   5.523
    2PC      HA 3272  -0.018   2.161   5.541
    2PC      HB 3273   0.022   1.990   5.570
    2PC     O31 3274   0.180   2.125   5.582
    2PC     P31 3275   0.184   2.179   5.733
    2PC     O32 3276   0.238   2.056   5.819
    2PC     C31 3277   0.182   1.925   5.801
    2PC     H1A 3278   0.089   1.925   5.859
    2PC     H1B 3279   0.162   1.900   5.696
    2PC     C32 3280   0.277   1.823   5.864
    2PC     H2A 3281   0.362   1.823   5.795
    2PC     H2B 3282   0.313   1.855   5.962
    2PC     N31 3283   0.241   1.678   5.863
    2PC     C33 3284   0.238   1.625   5.723
    2PC     H3A 3285   0.339   1.640   5.686
    2PC     H3B 3286   0.210   1.521   5.741
    2PC     H3C 3287   0.171   1.692   5.669
    2PC     C34 3288   0.347   1.603   5.937
    2PC     H4A 3289   0.443   1.651   5.920
    2PC     H4B 3290   0.320   1.621   6.041
    2PC     H4C 3291   0.348   1.499   5.904
    2PC     C35 3292   0.108   1.656   5.929
    2PC     H5A 3293   0.030   1.660   5.853
    2PC     H5B 3294   0.097   1.721   6.016
    2PC     H5C 3295   0.113   1.556   5.972
    2PC     O33 3296   0.268   2.298   5.757
    2PC     O34 3297   0.054   2.237   5.777
    2PC     O21 3298   0.089   2.188   5.306
    2PC     C21 3299   0.165   2.205   5.197
    2PC     O22 3300   0.224   2.112   5.147
    3OL     C12 3301   0.179   2.351   5.158
    3OL     H2R 3302   0.219   2.398   5.248
    3OL     H2S 3303   0.076   2.383   5.140
    3OL     C13 3304   0.271   2.374   5.038
    3OL     H3R 3305   0.374   2.365   5.074
    3OL     H3S 3306   0.252   2.476   5.004
    3OL     C14 3307   0.235   2.299   4.909
    3OL     H4R 3308   0.135   2.327   4.875
    3OL     H4S 3309   0.227   2.192   4.931
    3OL     C15 3310   0.333   2.324   4.793
    3OL     H5R 3311   0.429   2.274   4.802
    3OL     H5S 3312   0.348   2.432   4.787
    3OL     C16 3313   0.260   2.273   4.668
    3OL     H6R 3314   0.206   2.357   4.622
    3OL     H6S 3315   0.176   2.205   4.683
    3OL     C17 3316   0.357   2.222   4.561
    3OL     H7R 3317   0.408   2.134   4.601
    3OL     H7S 3318   0.436   2.292   4.531
    3OL     C18 3319   0.288   2.167   4.436
    3OL     H8R 3320   0.194   2.219   4.418
    3OL     H8S 3321   0.255   2.066   4.461
    3OL     C19 3322   0.380   2.173   4.316
    3OL     H9R 3323   0.467   2.109   4.328
    3OL    C110 3324   0.365   2.248   4.208
    3OL    H10R 3325   0.442   2.247   4.132
    3OL    C111 3326   0.245   2.335   4.181
    3OL    H11R 3327   0.281   2.416   4.117
    3OL    H11S 3328   0.216   2.389   4.271
    3OL    C112 3329   0.130   2.268   4.105
    3OL    H12R 3330   0.091   2.184   4.163
    3OL    H12S 3331   0.171   2.235   4.009
    3OL    C113 3332   0.020   2.375   4.099
    3OL    H13R 3333   0.062   2.465   4.054
    3OL    H13S 3334  -0.006   2.407   4.200
    3OL    C114 3335  -0.101   2.329   4.016
    3OL    H14R 3336  -0.142   2.236   4.057
    3OL    H14S 3337  -0.064   2.314   3.915
    3OL    C115 3338  -0.225   2.419   4.007
    3OL    H15R 3339  -0.205   2.514   3.958
    3OL    H15S 3340  -0.268   2.430   4.107
    3OL    C116 3341  -0.338   2.357   3.922
    3OL    H16R 3342  -0.411   2.435   3.901
    3OL    H16S 3343  -0.375   2.277   3.987
    3OL    C117 3344  -0.290   2.301   3.787
    3OL    H17R 3345  -0.377   2.246   3.750
    3OL    H17S 3346  -0.206   2.232   3.796
    3OL    C118 3347  -0.265   2.420   3.693
    3OL    H18R 3348  -0.210   2.389   3.604
    3OL    H18S 3349  -0.188   2.482   3.740
    3OL    H18T 3350  -0.354   2.477   3.668
    1PA    C116 3351  -0.379   1.442   3.446
    1PA    H16R 3352  -0.381   1.333   3.454
    1PA    H16S 3353  -0.433   1.466   3.354
    1PA    H16T 3354  -0.431   1.483   3.533
    1PA    C115 3355  -0.233   1.490   3.442
    1PA    H15R 3356  -0.186   1.443   3.356
    1PA    H15S 3357  -0.236   1.595   3.412
    1PA    C114 3358  -0.148   1.475   3.569
    1PA    H14R 3359  -0.109   1.373   3.573
    1PA    H14S 3360  -0.061   1.540   3.567
    1PA    C113 3361  -0.212   1.496   3.707
    1PA    H13R 3362  -0.255   1.596   3.721
    1PA    H13S 3363  -0.297   1.428   3.704
    1PA    C112 3364  -0.110   1.466   3.817
    1PA    H12R 3365  -0.090   1.358   3.814
    1PA    H12S 3366  -0.015   1.516   3.797
    1PA    C111 3367  -0.143   1.521   3.957
    1PA    H11R 3368  -0.146   1.630   3.954
    1PA    H11S 3369  -0.242   1.485   3.986
    1PA    C110 3370  -0.040   1.471   4.059
    1PA    H10R 3371  -0.063   1.364   4.059
    1PA    H10S 3372   0.065   1.479   4.032
    1PA     C19 3373  -0.074   1.541   4.191
    1PA     H9R 3374  -0.066   1.648   4.174
    1PA     H9S 3375  -0.173   1.513   4.227
    1PA     C18 3376   0.030   1.510   4.300
    1PA     H8R 3377   0.129   1.528   4.258
    1PA     H8S 3378   0.035   1.575   4.388
    1PA     C17 3379   0.034   1.365   4.349
    1PA     H7R 3380  -0.063   1.340   4.394
    1PA     H7S 3381   0.050   1.305   4.259
    1PA     C16 3382   0.147   1.335   4.448
    1PA     H6R 3383   0.158   1.227   4.461
    1PA     H6S 3384   0.232   1.379   4.395
    1PA     C15 3385   0.129   1.400   4.585
    1PA     H5R 3386   0.120   1.509   4.579
    1PA     H5S 3387   0.036   1.353   4.618
    1PA     C14 3388   0.237   1.358   4.686
    1PA     H4R 3389   0.224   1.254   4.715
    1PA     H4S 3390   0.336   1.372   4.642
    1PA     C13 3391   0.233   1.443   4.814
    1PA     H3R 3392   0.230   1.548   4.784
    1PA     H3S 3393   0.140   1.427   4.869
    1PA     C12 3394   0.354   1.405   4.900
    1PA     H2R 3395   0.337   1.300   4.923
    1PA     H2S 3396   0.451   1.415   4.850
    2PC     C11 3397   0.365   1.479   5.031
    2PC     O12 3398   0.276   1.493   5.112
    2PC     O11 3399   0.489   1.531   5.041
    2PC      C1 3400   0.521   1.618   5.150
    2PC      HR 3401   0.498   1.719   5.115
    2PC      HS 3402   0.455   1.597   5.235
    2PC      C2 3403   0.665   1.597   5.198
    2PC      HX 3404   0.685   1.494   5.228
    2PC      C3 3405   0.686   1.687   5.320
    2PC      HA 3406   0.669   1.792   5.293
    2PC      HB 3407   0.613   1.659   5.396
    2PC     O31 3408   0.821   1.674   5.369
    2PC     P31 3409   0.832   1.720   5.522
    2PC     O32 3410   0.900   1.864   5.501
    2PC     C31 3411   0.915   1.948   5.616
    2PC     H1A 3412   0.825   1.967   5.675
    2PC     H1B 3413   0.979   1.902   5.692
    2PC     C32 3414   0.972   2.082   5.568
    2PC     H2A 3415   0.959   2.152   5.652
    2PC     H2B 3416   1.078   2.073   5.543
    2PC     N31 3417   0.911   2.167   5.461
    2PC     C33 3418   0.962   2.306   5.483
    2PC     H3A 3419   0.922   2.366   5.402
    2PC     H3B 3420   0.923   2.330   5.582
    2PC     H3C 3421   1.071   2.311   5.485
    2PC     C34 3422   0.947   2.113   5.326
    2PC     H4A 3423   0.914   2.188   5.253
    2PC     H4B 3424   1.056   2.108   5.327
    2PC     H4C 3425   0.900   2.015   5.312
    2PC     C35 3426   0.761   2.169   5.464
    2PC     H5A 3427   0.731   2.173   5.568
    2PC     H5B 3428   0.718   2.079   5.419
    2PC     H5C 3429   0.727   2.262   5.419
    2PC     O33 3430   0.703   1.733   5.594
    2PC     O34 3431   0.903   1.616   5.600
    2PC     O21 3432   0.747   1.637   5.086
    2PC     C21 3433   0.818   1.538   5.030
    2PC     O22 3434   0.843   1.429   5.078
    3OL     C12 3435   0.858   1.567   4.888
    3OL     H2R 3436   0.933   1.495   4.856
    3OL     H2S 3437   0.903   1.665   4.873
    3OL     C13 3438   0.730   1.559   4.804
    3OL     H3R 3439   0.653   1.631   4.834
    3OL     H3S 3440   0.693   1.456   4.807
    3OL     C14 3441   0.761   1.566   4.654
    3OL     H4R 3442   0.819   1.657   4.634
    3OL     H4S 3443   0.673   1.584   4.593
    3OL     C15 3444   0.837   1.442   4.604
    3OL     H5R 3445   0.782   1.348   4.616
    3OL     H5S 3446   0.938   1.430   4.642
    3OL     C16 3447   0.852   1.450   4.451
    3OL     H6R 3448   0.762   1.494   4.408
    3OL     H6S 3449   0.858   1.347   4.416
    3OL     C17 3450   0.978   1.526   4.408
    3OL     H7R 3451   1.065   1.490   4.464
    3OL     H7S 3452   0.963   1.629   4.439
    3OL     C18 3453   1.009   1.526   4.257
    3OL     H8R 3454   0.916   1.553   4.207
    3OL     H8S 3455   1.029   1.422   4.228
    3OL     C19 3456   1.134   1.604   4.227
    3OL     H9R 3457   1.202   1.622   4.309
    3OL    C110 3458   1.166   1.653   4.108
    3OL    H10R 3459   1.253   1.716   4.091
    3OL    C111 3460   1.090   1.631   3.980
    3OL    H11R 3461   1.010   1.557   3.992
    3OL    H11S 3462   1.156   1.580   3.909
    3OL    C112 3463   1.044   1.765   3.921
    3OL    H12R 3464   1.137   1.813   3.890
    3OL    H12S 3465   0.991   1.818   4.001
    3OL    C113 3466   0.944   1.757   3.805
    3OL    H13R 3467   0.838   1.738   3.827
    3OL    H13S 3468   0.980   1.679   3.738
    3OL    C114 3469   0.947   1.891   3.731
    3OL    H14R 3470   1.050   1.908   3.697
    3OL    H14S 3471   0.911   1.976   3.789
    3OL    C115 3472   0.871   1.874   3.598
    3OL    H15R 3473   0.773   1.827   3.609
    3OL    H15S 3474   0.934   1.802   3.545
    3OL    C116 3475   0.875   2.008   3.525
    3OL    H16R 3476   0.977   2.047   3.527
    3OL    H16S 3477   0.810   2.084   3.569
    3OL    C117 3478   0.837   1.999   3.376
    3OL    H17R 3479   0.729   1.992   3.363
    3OL    H17S 3480   0.890   1.918   3.326
    3OL    C118 3481   0.890   2.127   3.312
    3OL    H18R 3482   0.856   2.134   3.208
    3OL    H18S 3483   0.998   2.141   3.320
    3OL    H18T 3484   0.840   2.213   3.358
    1PA    C116 3485   6.589   6.155   3.874
    1PA    H16R 3486   6.679   6.094   3.875
    1PA    H16S 3487   6.498   6.095   3.864
    1PA    H16T 3488   6.602   6.234   3.800
    1PA    C115 3489   6.581   6.221   4.013
    1PA    H15R 3490   6.656   6.301   4.017
    1PA    H15S 3491   6.487   6.277   4.021
    1PA    C114 3492   6.580   6.123   4.131
    1PA    H14R 3493   6.485   6.070   4.133
    1PA    H14S 3494   6.661   6.050   4.131
    1PA    C113 3495   6.591   6.212   4.255
    1PA    H13R 3496   6.689   6.260   4.248
    1PA    H13S 3497   6.519   6.292   4.273
    1PA    C112 3498   6.595   6.126   4.382
    1PA    H12R 3499   6.520   6.047   4.373
    1PA    H12S 3500   6.693   6.080   4.372
    1PA    C111 3501   6.584   6.213   4.508
    1PA    H11R 3502   6.662   6.290   4.507
    1PA    H11S 3503   6.488   6.262   4.521
    1PA    C110 3504   6.599   6.126   4.633
    1PA    H10R 3505   6.699   6.082   4.627
    1PA    H10S 3506   6.595   6.204   4.709
    1PA     C19 3507   6.481   6.032   4.663
    1PA     H9R 3508   6.389   6.086   4.642
    1PA     H9S 3509   6.477   5.948   4.593
    1PA     C18 3510   6.487   5.984   4.808
    1PA     H8R 3511   6.585   5.940   4.830
    1PA     H8S 3512   6.472   6.073   4.871
    1PA     C17 3513   6.369   5.893   4.844
    1PA     H7R 3514   6.276   5.950   4.848
    1PA     H7S 3515   6.373   5.809   4.774
    1PA     C16 3516   6.398   5.829   4.980
    1PA     H6R 3517   6.489   5.769   4.967
    1PA     H6S 3518   6.412   5.909   5.053
    1PA     C15 3519   6.285   5.729   5.008
    1PA     H5R 3520   6.186   5.766   4.979
    1PA     H5S 3521   6.300   5.643   4.942
    1PA     C14 3522   6.273   5.675   5.151
    1PA     H4R 3523   6.214   5.584   5.148
    1PA     H4S 3524   6.371   5.644   5.189
    1PA     C13 3525   6.207   5.782   5.239
    1PA     H3R 3526   6.251   5.882   5.237
    1PA     H3S 3527   6.107   5.782   5.194
    1PA     C12 3528   6.204   5.732   5.384
    1PA     H2R 3529   6.148   5.638   5.380
    1PA     H2S 3530   6.311   5.727   5.407
    2PC     C11 3531   6.131   5.823   5.480
    2PC     O12 3532   6.183   5.921   5.529
    2PC     O11 3533   6.005   5.783   5.504
    2PC      C1 3534   5.931   5.841   5.613
    2PC      HR 3535   5.988   5.846   5.706
    2PC      HS 3536   5.906   5.944   5.589
    2PC      C2 3537   5.806   5.754   5.631
    2PC      HX 3538   5.761   5.788   5.725
    2PC      C3 3539   5.841   5.605   5.625
    2PC      HA 3540   5.859   5.577   5.521
    2PC      HB 3541   5.934   5.590   5.680
    2PC     O31 3542   5.736   5.522   5.680
    2PC     P31 3543   5.753   5.366   5.714
    2PC     O32 3544   5.650   5.296   5.613
    2PC     C31 3545   5.517   5.267   5.658
    2PC     H1A 3546   5.535   5.194   5.738
    2PC     H1B 3547   5.464   5.356   5.694
    2PC     C32 3548   5.434   5.197   5.549
    2PC     H2A 3549   5.345   5.150   5.589
    2PC     H2B 3550   5.406   5.269   5.471
    2PC     N31 3551   5.495   5.083   5.474
    2PC     C33 3552   5.605   5.138   5.388
    2PC     H3A 3553   5.592   5.238   5.346
    2PC     H3B 3554   5.684   5.133   5.463
    2PC     H3C 3555   5.624   5.062   5.312
    2PC     C34 3556   5.548   4.976   5.564
    2PC     H4A 3557   5.600   5.021   5.649
    2PC     H4B 3558   5.459   4.923   5.597
    2PC     H4C 3559   5.607   4.909   5.501
    2PC     C35 3560   5.385   5.024   5.391
    2PC     H5A 3561   5.312   4.980   5.459
    2PC     H5B 3562   5.421   4.949   5.320
    2PC     H5C 3563   5.334   5.102   5.335
    2PC     O33 3564   5.890   5.319   5.682
    2PC     O34 3565   5.733   5.314   5.851
    2PC     O21 3566   5.717   5.783   5.522
    2PC     C21 3567   5.649   5.897   5.537
    2PC     O22 3568   5.658   5.981   5.624
    3OL     C12 3569   5.563   5.917   5.414
    3OL     H2R 3570   5.461   5.909   5.454
    3OL     H2S 3571   5.580   5.830   5.351
    3OL     C13 3572   5.586   6.043   5.330
    3OL     H3R 3573   5.694   6.048   5.320
    3OL     H3S 3574   5.560   6.134   5.385
    3OL     C14 3575   5.533   6.025   5.188
    3OL     H4R 3576   5.531   6.121   5.136
    3OL     H4S 3577   5.435   5.977   5.194
    3OL     C15 3578   5.619   5.935   5.098
    3OL     H5R 3579   5.573   5.838   5.118
    3OL     H5S 3580   5.720   5.924   5.137
    3OL     C16 3581   5.602   5.982   4.952
    3OL     H6R 3582   5.498   6.008   4.935
    3OL     H6S 3583   5.630   5.894   4.895
    3OL     C17 3584   5.685   6.098   4.896
    3OL     H7R 3585   5.792   6.076   4.899
    3OL     H7S 3586   5.671   6.178   4.969
    3OL     C18 3587   5.638   6.145   4.757
    3OL     H8R 3588   5.698   6.234   4.737
    3OL     H8S 3589   5.533   6.176   4.754
    3OL     C19 3590   5.681   6.047   4.651
    3OL     H9R 3591   5.694   5.947   4.692
    3OL    C110 3592   5.665   6.067   4.521
    3OL    H10R 3593   5.667   5.984   4.451
    3OL    C111 3594   5.654   6.200   4.450
    3OL    H11R 3595   5.739   6.200   4.382
    3OL    H11S 3596   5.677   6.288   4.510
    3OL    C112 3597   5.519   6.212   4.378
    3OL    H12R 3598   5.515   6.314   4.341
    3OL    H12S 3599   5.438   6.207   4.452
    3OL    C113 3600   5.491   6.107   4.270
    3OL    H13R 3601   5.387   6.128   4.243
    3OL    H13S 3602   5.483   6.008   4.315
    3OL    C114 3603   5.596   6.109   4.158
    3OL    H14R 3604   5.697   6.108   4.199
    3OL    H14S 3605   5.592   6.209   4.113
    3OL    C115 3606   5.567   6.001   4.053
    3OL    H15R 3607   5.604   6.031   3.955
    3OL    H15S 3608   5.463   5.969   4.042
    3OL    C116 3609   5.648   5.875   4.086
    3OL    H16R 3610   5.610   5.787   4.035
    3OL    H16S 3611   5.628   5.858   4.192
    3OL    C117 3612   5.797   5.894   4.053
    3OL    H17R 3613   5.831   5.981   4.109
    3OL    H17S 3614   5.806   5.908   3.945
    3OL    C118 3615   5.878   5.772   4.097
    3OL    H18R 3616   5.842   5.685   4.041
    3OL    H18S 3617   5.859   5.774   4.205
    3OL    H18T 3618   5.986   5.783   4.083
    1PA    C116 3619   0.952   2.179   4.284
    1PA    H16R 3620   0.962   2.142   4.386
    1PA    H16S 3621   1.051   2.185   4.237
    1PA    H16T 3622   0.884   2.121   4.221
    1PA    C115 3623   0.905   2.324   4.303
    1PA    H15R 3624   0.875   2.354   4.203
    1PA    H15S 3625   0.811   2.330   4.360
    1PA    C114 3626   1.007   2.428   4.351
    1PA    H14R 3627   1.050   2.391   4.444
    1PA    H14S 3628   1.084   2.441   4.274
    1PA    C113 3629   0.950   2.568   4.375
    1PA    H13R 3630   0.905   2.606   4.283
    1PA    H13S 3631   0.866   2.569   4.445
    1PA    C112 3632   1.061   2.665   4.418
    1PA    H12R 3633   1.145   2.654   4.349
    1PA    H12S 3634   1.016   2.764   4.404
    1PA    C111 3635   1.099   2.643   4.565
    1PA    H11R 3636   1.011   2.659   4.628
    1PA    H11S 3637   1.128   2.539   4.582
    1PA    C110 3638   1.224   2.723   4.603
    1PA    H10R 3639   1.303   2.712   4.529
    1PA    H10S 3640   1.200   2.829   4.590
    1PA     C19 3641   1.283   2.710   4.745
    1PA     H9R 3642   1.319   2.611   4.773
    1PA     H9S 3643   1.371   2.773   4.760
    1PA     C18 3644   1.184   2.757   4.852
    1PA     H8R 3645   1.141   2.857   4.844
    1PA     H8S 3646   1.090   2.704   4.834
    1PA     C17 3647   1.227   2.730   4.997
    1PA     H7R 3648   1.146   2.715   5.068
    1PA     H7S 3649   1.283   2.636   5.004
    1PA     C16 3650   1.323   2.841   5.041
    1PA     H6R 3651   1.403   2.852   4.967
    1PA     H6S 3652   1.286   2.944   5.044
    1PA     C15 3653   1.388   2.811   5.177
    1PA     H5R 3654   1.309   2.830   5.251
    1PA     H5S 3655   1.421   2.707   5.169
    1PA     C14 3656   1.501   2.914   5.192
    1PA     H4R 3657   1.592   2.867   5.154
    1PA     H4S 3658   1.481   3.008   5.141
    1PA     C13 3659   1.511   2.965   5.336
    1PA     H3R 3660   1.419   3.013   5.367
    1PA     H3S 3661   1.520   2.881   5.405
    1PA     C12 3662   1.637   3.051   5.355
    1PA     H2R 3663   1.721   2.994   5.316
    1PA     H2S 3664   1.613   3.147   5.309
    2PC     C11 3665   1.663   3.085   5.500
    2PC     O12 3666   1.771   3.067   5.553
    2PC     O11 3667   1.553   3.129   5.564
    2PC      C1 3668   1.563   3.158   5.704
    2PC      HR 3669   1.461   3.155   5.745
    2PC      HS 3670   1.619   3.077   5.754
    2PC      C2 3671   1.632   3.292   5.730
    2PC      HX 3672   1.735   3.285   5.694
    2PC      C3 3673   1.634   3.337   5.877
    2PC      HA 3674   1.715   3.283   5.926
    2PC      HB 3675   1.637   3.446   5.879
    2PC     O31 3676   1.512   3.284   5.934
    2PC     P31 3677   1.492   3.292   6.093
    2PC     O32 3678   1.618   3.218   6.158
    2PC     C31 3679   1.598   3.091   6.221
    2PC     H1A 3680   1.497   3.088   6.264
    2PC     H1B 3681   1.596   3.004   6.154
    2PC     C32 3682   1.700   3.077   6.334
    2PC     H2A 3683   1.735   2.975   6.350
    2PC     H2B 3684   1.791   3.132   6.309
    2PC     N31 3685   1.670   3.131   6.471
    2PC     C33 3686   1.784   3.099   6.563
    2PC     H3A 3687   1.779   2.996   6.599
    2PC     H3B 3688   1.877   3.118   6.510
    2PC     H3C 3689   1.770   3.161   6.651
    2PC     C34 3690   1.660   3.280   6.464
    2PC     H4A 3691   1.567   3.309   6.414
    2PC     H4B 3692   1.658   3.313   6.568
    2PC     H4C 3693   1.745   3.325   6.412
    2PC     C35 3694   1.543   3.075   6.529
    2PC     H5A 3695   1.525   3.139   6.615
    2PC     H5B 3696   1.571   2.974   6.558
    2PC     H5C 3697   1.459   3.082   6.459
    2PC     O33 3698   1.495   3.435   6.131
    2PC     O34 3699   1.359   3.249   6.143
    2PC     O21 3700   1.581   3.395   5.645
    2PC     C21 3701   1.459   3.451   5.650
    2PC     O22 3702   1.379   3.429   5.739
    3OL     C12 3703   1.425   3.550   5.541
    3OL     H2R 3704   1.452   3.655   5.552
    3OL     H2S 3705   1.316   3.549   5.533
    3OL     C13 3706   1.497   3.508   5.412
    3OL     H3R 3707   1.468   3.406   5.385
    3OL     H3S 3708   1.605   3.495   5.426
    3OL     C14 3709   1.458   3.590   5.288
    3OL     H4R 3710   1.476   3.694   5.315
    3OL     H4S 3711   1.351   3.580   5.273
    3OL     C15 3712   1.530   3.551   5.158
    3OL     H5R 3713   1.507   3.448   5.132
    3OL     H5S 3714   1.638   3.557   5.172
    3OL     C16 3715   1.476   3.641   5.046
    3OL     H6R 3716   1.471   3.746   5.077
    3OL     H6S 3717   1.378   3.601   5.020
    3OL     C17 3718   1.569   3.619   4.925
    3OL     H7R 3719   1.671   3.621   4.962
    3OL     H7S 3720   1.558   3.706   4.861
    3OL     C18 3721   1.528   3.496   4.843
    3OL     H8R 3722   1.439   3.521   4.785
    3OL     H8S 3723   1.485   3.425   4.914
    3OL     C19 3724   1.633   3.433   4.755
    3OL     H9R 3725   1.724   3.493   4.743
    3OL    C110 3726   1.621   3.309   4.711
    3OL    H10R 3727   1.704   3.262   4.660
    3OL    C111 3728   1.510   3.211   4.739
    3OL    H11R 3729   1.414   3.263   4.730
    3OL    H11S 3730   1.526   3.180   4.842
    3OL    C112 3731   1.507   3.091   4.643
    3OL    H12R 3732   1.450   3.015   4.697
    3OL    H12S 3733   1.607   3.048   4.634
    3OL    C113 3734   1.447   3.127   4.506
    3OL    H13R 3735   1.505   3.209   4.464
    3OL    H13S 3736   1.343   3.162   4.512
    3OL    C114 3737   1.457   3.005   4.413
    3OL    H14R 3738   1.412   2.924   4.472
    3OL    H14S 3739   1.563   2.979   4.409
    3OL    C115 3740   1.395   3.017   4.273
    3OL    H15R 3741   1.439   2.955   4.195
    3OL    H15S 3742   1.404   3.123   4.248
    3OL    C116 3743   1.246   2.984   4.286
    3OL    H16R 3744   1.194   3.044   4.361
    3OL    H16S 3745   1.219   2.882   4.314
    3OL    C117 3746   1.161   3.000   4.159
    3OL    H17R 3747   1.196   2.921   4.092
    3OL    H17S 3748   1.180   3.094   4.107
    3OL    C118 3749   1.011   2.979   4.182
    3OL    H18R 3750   0.962   2.949   4.089
    3OL    H18S 3751   0.956   3.061   4.229
    3OL    H18T 3752   1.000   2.892   4.246
    1PA    C116 3753   2.923   2.514   3.646
    1PA    H16R 3754   2.977   2.472   3.561
    1PA    H16S 3755   2.866   2.601   3.613
    1PA    H16T 3756   2.852   2.442   3.690
    1PA    C115 3757   3.008   2.569   3.761
    1PA    H15R 3758   3.077   2.491   3.794
    1PA    H15S 3759   3.082   2.640   3.724
    1PA    C114 3760   2.939   2.635   3.881
    1PA    H14R 3761   2.856   2.701   3.853
    1PA    H14S 3762   2.903   2.553   3.943
    1PA    C113 3763   3.041   2.708   3.969
    1PA    H13R 3764   3.117   2.637   4.003
    1PA    H13S 3765   3.080   2.789   3.908
    1PA    C112 3766   2.979   2.771   4.095
    1PA    H12R 3767   3.062   2.820   4.146
    1PA    H12S 3768   2.909   2.846   4.058
    1PA    C111 3769   2.931   2.670   4.200
    1PA    H11R 3770   2.857   2.612   4.144
    1PA    H11S 3771   3.001   2.594   4.237
    1PA    C110 3772   2.858   2.736   4.318
    1PA    H10R 3773   2.935   2.796   4.368
    1PA    H10S 3774   2.789   2.812   4.281
    1PA     C19 3775   2.803   2.633   4.417
    1PA     H9R 3776   2.748   2.562   4.355
    1PA     H9S 3777   2.883   2.577   4.466
    1PA     C18 3778   2.709   2.697   4.520
    1PA     H8R 3779   2.614   2.722   4.472
    1PA     H8S 3780   2.685   2.618   4.591
    1PA     C17 3781   2.754   2.816   4.605
    1PA     H7R 3782   2.832   2.796   4.679
    1PA     H7S 3783   2.791   2.903   4.550
    1PA     C16 3784   2.640   2.870   4.692
    1PA     H6R 3785   2.548   2.869   4.633
    1PA     H6S 3786   2.630   2.799   4.775
    1PA     C15 3787   2.668   3.003   4.763
    1PA     H5R 3788   2.769   2.988   4.800
    1PA     H5S 3789   2.678   3.085   4.692
    1PA     C14 3790   2.571   3.028   4.879
    1PA     H4R 3791   2.469   3.033   4.841
    1PA     H4S 3792   2.574   2.944   4.949
    1PA     C13 3793   2.596   3.160   4.953
    1PA     H3R 3794   2.650   3.231   4.889
    1PA     H3S 3795   2.511   3.202   5.006
    1PA     C12 3796   2.700   3.134   5.063
    1PA     H2R 3797   2.649   3.080   5.143
    1PA     H2S 3798   2.785   3.075   5.030
    2PC     C11 3799   2.762   3.260   5.119
    2PC     O12 3800   2.881   3.282   5.121
    2PC     O11 3801   2.666   3.343   5.162
    2PC      C1 3802   2.702   3.464   5.231
    2PC      HR 3803   2.797   3.456   5.283
    2PC      HS 3804   2.711   3.548   5.161
    2PC      C2 3805   2.604   3.497   5.345
    2PC      HX 3806   2.627   3.601   5.371
    2PC      C3 3807   2.604   3.404   5.467
    2PC      HA 3808   2.529   3.444   5.536
    2PC      HB 3809   2.588   3.300   5.439
    2PC     O31 3810   2.731   3.426   5.531
    2PC     P31 3811   2.753   3.387   5.684
    2PC     O32 3812   2.903   3.333   5.680
    2PC     C31 3813   2.928   3.200   5.630
    2PC     H1A 3814   2.872   3.139   5.702
    2PC     H1B 3815   2.898   3.197   5.525
    2PC     C32 3816   3.079   3.174   5.642
    2PC     H2A 3817   3.113   3.209   5.739
    2PC     H2B 3818   3.086   3.067   5.626
    2PC     N31 3819   3.165   3.238   5.537
    2PC     C33 3820   3.144   3.385   5.515
    2PC     H3A 3821   3.232   3.418   5.460
    2PC     H3B 3822   3.047   3.382   5.466
    2PC     H3C 3823   3.128   3.428   5.614
    2PC     C34 3824   3.309   3.220   5.574
    2PC     H4A 3825   3.366   3.236   5.483
    2PC     H4B 3826   3.344   3.295   5.645
    2PC     H4C 3827   3.310   3.117   5.610
    2PC     C35 3828   3.148   3.164   5.408
    2PC     H5A 3829   3.176   3.060   5.426
    2PC     H5B 3830   3.202   3.215   5.328
    2PC     H5C 3831   3.040   3.159   5.393
    2PC     O33 3832   2.730   3.508   5.767
    2PC     O34 3833   2.683   3.271   5.745
    2PC     O21 3834   2.469   3.495   5.297
    2PC     C21 3835   2.427   3.598   5.221
    2PC     O22 3836   2.497   3.687   5.179
    3OL     C12 3837   2.277   3.600   5.207
    3OL     H2R 3838   2.246   3.704   5.216
    3OL     H2S 3839   2.219   3.548   5.283
    3OL     C13 3840   2.223   3.568   5.067
    3OL     H3R 3841   2.261   3.642   4.997
    3OL     H3S 3842   2.114   3.569   5.059
    3OL     C14 3843   2.260   3.425   5.025
    3OL     H4R 3844   2.235   3.353   5.103
    3OL     H4S 3845   2.368   3.425   5.010
    3OL     C15 3846   2.202   3.386   4.888
    3OL     H5R 3847   2.224   3.462   4.813
    3OL     H5S 3848   2.095   3.367   4.901
    3OL     C16 3849   2.267   3.254   4.843
    3OL     H6R 3850   2.229   3.180   4.914
    3OL     H6S 3851   2.373   3.275   4.854
    3OL     C17 3852   2.212   3.219   4.704
    3OL     H7R 3853   2.110   3.256   4.712
    3OL     H7S 3854   2.224   3.111   4.687
    3OL     C18 3855   2.280   3.291   4.587
    3OL     H8R 3856   2.388   3.291   4.602
    3OL     H8S 3857   2.252   3.396   4.575
    3OL     C19 3858   2.248   3.223   4.457
    3OL     H9R 3859   2.163   3.274   4.411
    3OL    C110 3860   2.320   3.129   4.398
    3OL    H10R 3861   2.283   3.084   4.307
    3OL    C111 3862   2.439   3.056   4.456
    3OL    H11R 3863   2.438   2.948   4.438
    3OL    H11S 3864   2.440   3.066   4.564
    3OL    C112 3865   2.574   3.108   4.404
    3OL    H12R 3866   2.659   3.072   4.462
    3OL    H12S 3867   2.573   3.217   4.413
    3OL    C113 3868   2.595   3.070   4.257
    3OL    H13R 3869   2.554   2.969   4.246
    3OL    H13S 3870   2.704   3.071   4.247
    3OL    C114 3871   2.543   3.176   4.159
    3OL    H14R 3872   2.435   3.195   4.166
    3OL    H14S 3873   2.566   3.142   4.058
    3OL    C115 3874   2.613   3.313   4.160
    3OL    H15R 3875   2.721   3.298   4.150
    3OL    H15S 3876   2.594   3.364   4.254
    3OL    C116 3877   2.566   3.400   4.043
    3OL    H16R 3878   2.458   3.410   4.046
    3OL    H16S 3879   2.590   3.345   3.951
    3OL    C117 3880   2.635   3.537   4.034
    3OL    H17R 3881   2.740   3.513   4.052
    3OL    H17S 3882   2.607   3.607   4.112
    3OL    C118 3883   2.606   3.595   3.895
    3OL    H18R 3884   2.502   3.578   3.866
    3OL    H18S 3885   2.662   3.541   3.818
    3OL    H18T 3886   2.640   3.698   3.901
    1PA    C116 3887   1.068   0.739   4.059
    1PA    H16R 3888   1.051   0.821   4.129
    1PA    H16S 3889   0.969   0.712   4.023
    1PA    H16T 3890   1.127   0.763   3.970
    1PA    C115 3891   1.132   0.634   4.151
    1PA    H15R 3892   1.230   0.605   4.113
    1PA    H15S 3893   1.134   0.682   4.249
    1PA    C114 3894   1.054   0.502   4.161
    1PA    H14R 3895   0.957   0.520   4.207
    1PA    H14S 3896   1.032   0.472   4.059
    1PA    C113 3897   1.126   0.397   4.246
    1PA    H13R 3898   1.226   0.377   4.205
    1PA    H13S 3899   1.142   0.438   4.346
    1PA    C112 3900   1.046   0.266   4.253
    1PA    H12R 3901   0.998   0.249   4.156
    1PA    H12S 3902   1.120   0.194   4.287
    1PA    C111 3903   0.933   0.273   4.356
    1PA    H11R 3904   0.909   0.377   4.381
    1PA    H11S 3905   0.840   0.239   4.311
    1PA    C110 3906   0.973   0.198   4.483
    1PA    H10R 3907   0.977   0.090   4.466
    1PA    H10S 3908   1.068   0.229   4.527
    1PA     C19 3909   0.857   0.211   4.583
    1PA     H9R 3910   0.759   0.183   4.545
    1PA     H9S 3911   0.869   0.125   4.650
    1PA     C18 3912   0.847   0.339   4.667
    1PA     H8R 3913   0.935   0.348   4.732
    1PA     H8S 3914   0.857   0.427   4.604
    1PA     C17 3915   0.719   0.350   4.751
    1PA     H7R 3916   0.632   0.360   4.685
    1PA     H7S 3917   0.721   0.264   4.818
    1PA     C16 3918   0.734   0.470   4.846
    1PA     H6R 3919   0.825   0.465   4.905
    1PA     H6S 3920   0.739   0.557   4.779
    1PA     C15 3921   0.617   0.477   4.945
    1PA     H5R 3922   0.638   0.553   5.020
    1PA     H5S 3923   0.530   0.506   4.885
    1PA     C14 3924   0.589   0.353   5.031
    1PA     H4R 3925   0.687   0.313   5.058
    1PA     H4S 3926   0.543   0.394   5.121
    1PA     C13 3927   0.493   0.248   4.974
    1PA     H3R 3928   0.406   0.289   4.922
    1PA     H3S 3929   0.554   0.191   4.903
    1PA     C12 3930   0.448   0.155   5.087
    1PA     H2R 3931   0.394   0.075   5.036
    1PA     H2S 3932   0.538   0.115   5.134
    2PC     C11 3933   0.357   0.213   5.192
    2PC     O12 3934   0.378   0.183   5.308
    2PC     O11 3935   0.240   0.266   5.150
    2PC      C1 3936   0.165   0.345   5.243
    2PC      HR 3937   0.072   0.384   5.200
    2PC      HS 3938   0.131   0.295   5.334
    2PC      C2 3939   0.247   0.469   5.281
    2PC      HX 3940   0.349   0.452   5.315
    2PC      C3 3941   0.165   0.556   5.377
    2PC      HA 3942   0.066   0.564   5.332
    2PC      HB 3943   0.154   0.511   5.476
    2PC     O31 3944   0.235   0.679   5.404
    2PC     P31 3945   0.343   0.681   5.522
    2PC     O32 3946   0.270   0.744   5.650
    2PC     C31 3947   0.129   0.731   5.677
    2PC     H1A 3948   0.077   0.778   5.593
    2PC     H1B 3949   0.105   0.624   5.679
    2PC     C32 3950   0.109   0.788   5.818
    2PC     H2A 3951   0.007   0.761   5.848
    2PC     H2B 3952   0.172   0.743   5.895
    2PC     N31 3953   0.104   0.936   5.842
    2PC     C33 3954  -0.015   1.000   5.777
    2PC     H3A 3955  -0.005   1.016   5.669
    2PC     H3B 3956  -0.098   0.936   5.806
    2PC     H3C 3957  -0.039   1.097   5.819
    2PC     C34 3958   0.111   0.970   5.987
    2PC     H4A 3959   0.024   0.935   6.044
    2PC     H4B 3960   0.202   0.924   6.025
    2PC     H4C 3961   0.120   1.078   5.994
    2PC     C35 3962   0.234   0.988   5.790
    2PC     H5A 3963   0.319   0.926   5.821
    2PC     H5B 3964   0.240   1.090   5.829
    2PC     H5C 3965   0.222   0.993   5.682
    2PC     O33 3966   0.390   0.548   5.566
    2PC     O34 3967   0.463   0.760   5.486
    2PC     O21 3968   0.266   0.550   5.163
    2PC     C21 3969   0.175   0.603   5.079
    2PC     O22 3970   0.056   0.590   5.095
    3OL     C12 3971   0.236   0.682   4.965
    3OL     H2R 3972   0.343   0.690   4.982
    3OL     H2S 3973   0.199   0.785   4.964
    3OL     C13 3974   0.216   0.617   4.828
    3OL     H3R 3975   0.115   0.633   4.789
    3OL     H3S 3976   0.226   0.509   4.832
    3OL     C14 3977   0.322   0.668   4.729
    3OL     H4R 3978   0.315   0.597   4.646
    3OL     H4S 3979   0.424   0.648   4.763
    3OL     C15 3980   0.291   0.814   4.694
    3OL     H5R 3981   0.309   0.875   4.782
    3OL     H5S 3982   0.189   0.841   4.667
    3OL     C16 3983   0.384   0.867   4.584
    3OL     H6R 3984   0.343   0.964   4.555
    3OL     H6S 3985   0.380   0.809   4.491
    3OL     C17 3986   0.522   0.897   4.644
    3OL     H7R 3987   0.530   0.893   4.753
    3OL     H7S 3988   0.561   0.992   4.608
    3OL     C18 3989   0.619   0.789   4.594
    3OL     H8R 3990   0.610   0.787   4.485
    3OL     H8S 3991   0.607   0.689   4.637
    3OL     C19 3992   0.765   0.825   4.603
    3OL     H9R 3993   0.804   0.833   4.704
    3OL    C110 3994   0.855   0.840   4.507
    3OL    H10R 3995   0.958   0.861   4.536
    3OL    C111 3996   0.827   0.840   4.359
    3OL    H11R 3997   0.753   0.768   4.325
    3OL    H11S 3998   0.919   0.801   4.316
    3OL    C112 3999   0.794   0.975   4.293
    3OL    H12R 4000   0.774   0.959   4.187
    3OL    H12S 4001   0.875   1.048   4.293
    3OL    C113 4002   0.664   1.043   4.339
    3OL    H13R 4003   0.682   1.064   4.444
    3OL    H13S 4004   0.586   0.968   4.331
    3OL    C114 4005   0.629   1.174   4.265
    3OL    H14R 4006   0.652   1.176   4.159
    3OL    H14S 4007   0.693   1.251   4.309
    3OL    C115 4008   0.490   1.222   4.308
    3OL    H15R 4009   0.481   1.331   4.303
    3OL    H15S 4010   0.472   1.194   4.412
    3OL    C116 4011   0.378   1.163   4.222
    3OL    H16R 4012   0.284   1.170   4.278
    3OL    H16S 4013   0.396   1.055   4.219
    3OL    C117 4014   0.367   1.222   4.081
    3OL    H17R 4015   0.454   1.193   4.022
    3OL    H17S 4016   0.365   1.331   4.076
    3OL    C118 4017   0.236   1.176   4.015
    3OL    H18R 4018   0.164   1.256   4.036
    3OL    H18S 4019   0.194   1.089   4.065
    3OL    H18T 4020   0.239   1.164   3.907
    1PA    C116 4021   3.041   4.510   3.898
    1PA    H16R 4022   3.020   4.580   3.817
    1PA    H16S 4023   2.976   4.422   3.890
    1PA    H16T 4024   3.143   4.473   3.883
    1PA    C115 4025   3.034   4.585   4.032
    1PA    H15R 4026   3.112   4.536   4.091
    1PA    H15S 4027   3.061   4.691   4.028
    1PA    C114 4028   2.896   4.576   4.097
    1PA    H14R 4029   2.859   4.473   4.104
    1PA    H14S 4030   2.903   4.622   4.195
    1PA    C113 4031   2.801   4.663   4.013
    1PA    H13R 4032   2.837   4.766   4.011
    1PA    H13S 4033   2.797   4.626   3.910
    1PA    C112 4034   2.659   4.648   4.068
    1PA    H12R 4035   2.593   4.702   4.000
    1PA    H12S 4036   2.615   4.548   4.075
    1PA    C111 4037   2.650   4.698   4.213
    1PA    H11R 4038   2.719   4.646   4.280
    1PA    H11S 4039   2.678   4.802   4.231
    1PA    C110 4040   2.508   4.674   4.265
    1PA    H10R 4041   2.434   4.741   4.222
    1PA    H10S 4042   2.476   4.580   4.220
    1PA     C19 4043   2.508   4.670   4.419
    1PA     H9R 4044   2.592   4.612   4.457
    1PA     H9S 4045   2.514   4.772   4.456
    1PA     C18 4046   2.383   4.595   4.466
    1PA     H8R 4047   2.294   4.634   4.414
    1PA     H8S 4048   2.395   4.488   4.445
    1PA     C17 4049   2.361   4.620   4.616
    1PA     H7R 4050   2.398   4.717   4.649
    1PA     H7S 4051   2.253   4.619   4.635
    1PA     C16 4052   2.439   4.520   4.702
    1PA     H6R 4053   2.410   4.420   4.667
    1PA     H6S 4054   2.543   4.528   4.670
    1PA     C15 4055   2.407   4.546   4.850
    1PA     H5R 4056   2.416   4.652   4.871
    1PA     H5S 4057   2.306   4.512   4.874
    1PA     C14 4058   2.515   4.469   4.927
    1PA     H4R 4059   2.500   4.361   4.917
    1PA     H4S 4060   2.619   4.494   4.903
    1PA     C13 4061   2.503   4.494   5.078
    1PA     H3R 4062   2.503   4.602   5.096
    1PA     H3S 4063   2.415   4.441   5.114
    1PA     C12 4064   2.631   4.441   5.144
    1PA     H2R 4065   2.648   4.336   5.119
    1PA     H2S 4066   2.718   4.505   5.123
    2PC     C11 4067   2.610   4.444   5.293
    2PC     O12 4068   2.603   4.550   5.351
    2PC     O11 4069   2.604   4.324   5.355
    2PC      C1 4070   2.604   4.310   5.498
    2PC      HR 4071   2.703   4.338   5.536
    2PC      HS 4072   2.532   4.382   5.537
    2PC      C2 4073   2.582   4.170   5.556
    2PC      HX 4074   2.479   4.145   5.528
    2PC      C3 4075   2.579   4.166   5.709
    2PC      HA 4076   2.508   4.244   5.739
    2PC      HB 4077   2.547   4.067   5.743
    2PC     O31 4078   2.710   4.208   5.752
    2PC     P31 4079   2.735   4.272   5.897
    2PC     O32 4080   2.820   4.159   5.973
    2PC     C31 4081   2.749   4.053   6.040
    2PC     H1A 4082   2.681   4.105   6.108
    2PC     H1B 4083   2.688   3.993   5.972
    2PC     C32 4084   2.851   3.965   6.114
    2PC     H2A 4085   2.798   3.906   6.190
    2PC     H2B 4086   2.911   3.902   6.048
    2PC     N31 4087   2.944   4.042   6.202
    2PC     C33 4088   3.074   4.068   6.131
    2PC     H3A 4089   3.062   4.133   6.044
    2PC     H3B 4090   3.135   4.125   6.201
    2PC     H3C 4091   3.114   3.970   6.103
    2PC     C34 4092   2.897   4.173   6.258
    2PC     H4A 4093   2.978   4.217   6.316
    2PC     H4B 4094   2.874   4.242   6.176
    2PC     H4C 4095   2.807   4.148   6.314
    2PC     C35 4096   2.962   3.948   6.317
    2PC     H5A 4097   2.865   3.922   6.359
    2PC     H5B 4098   3.001   4.009   6.399
    2PC     H5C 4099   3.027   3.864   6.294
    2PC     O33 4100   2.802   4.402   5.881
    2PC     O34 4101   2.613   4.310   5.973
    2PC     O21 4102   2.679   4.078   5.504
    2PC     C21 4103   2.655   3.947   5.486
    2PC     O22 4104   2.563   3.881   5.531
    3OL     C12 4105   2.764   3.873   5.412
    3OL     H2R 4106   2.830   3.939   5.355
    3OL     H2S 4107   2.716   3.810   5.338
    3OL     C13 4108   2.844   3.786   5.509
    3OL     H3R 4109   2.770   3.720   5.555
    3OL     H3S 4110   2.888   3.847   5.589
    3OL     C14 4111   2.955   3.704   5.442
    3OL     H4R 4112   2.913   3.646   5.360
    3OL     H4S 4113   2.992   3.630   5.513
    3OL     C15 4114   3.071   3.791   5.389
    3OL     H5R 4115   3.117   3.844   5.473
    3OL     H5S 4116   3.029   3.877   5.336
    3OL     C16 4117   3.174   3.716   5.305
    3OL     H6R 4118   3.227   3.639   5.362
    3OL     H6S 4119   3.239   3.794   5.265
    3OL     C17 4120   3.120   3.626   5.192
    3OL     H7R 4121   3.058   3.671   5.115
    3OL     H7S 4122   3.057   3.546   5.230
    3OL     C18 4123   3.228   3.550   5.114
    3OL     H8R 4124   3.179   3.470   5.059
    3OL     H8S 4125   3.305   3.511   5.180
    3OL     C19 4126   3.305   3.631   5.012
    3OL     H9R 4127   3.342   3.727   5.048
    3OL    C110 4128   3.324   3.600   4.885
    3OL    H10R 4129   3.383   3.662   4.817
    3OL    C111 4130   3.274   3.477   4.814
    3OL    H11R 4131   3.169   3.458   4.835
    3OL    H11S 4132   3.336   3.400   4.860
    3OL    C112 4133   3.308   3.485   4.664
    3OL    H12R 4134   3.258   3.567   4.611
    3OL    H12S 4135   3.276   3.389   4.624
    3OL    C113 4136   3.455   3.490   4.623
    3OL    H13R 4137   3.515   3.422   4.684
    3OL    H13S 4138   3.494   3.591   4.639
    3OL    C114 4139   3.474   3.457   4.475
    3OL    H14R 4140   3.436   3.541   4.416
    3OL    H14S 4141   3.435   3.364   4.433
    3OL    C115 4142   3.625   3.449   4.445
    3OL    H15R 4143   3.665   3.376   4.515
    3OL    H15S 4144   3.675   3.538   4.486
    3OL    C116 4145   3.666   3.410   4.303
    3OL    H16R 4146   3.775   3.417   4.303
    3OL    H16S 4147   3.619   3.484   4.238
    3OL    C117 4148   3.624   3.268   4.262
    3OL    H17R 4149   3.514   3.269   4.262
    3OL    H17S 4150   3.665   3.194   4.331
    3OL    C118 4151   3.676   3.250   4.119
    3OL    H18R 4152   3.597   3.287   4.052
    3OL    H18S 4153   3.692   3.145   4.094
    3OL    H18T 4154   3.773   3.297   4.101
    1PA    C116 4155   4.477   1.217   3.709
    1PA    H16R 4156   4.383   1.242   3.661
    1PA    H16S 4157   4.522   1.140   3.646
    1PA    H16T 4158   4.533   1.310   3.696
    1PA    C115 4159   4.467   1.173   3.856
    1PA    H15R 4160   4.425   1.256   3.914
    1PA    H15S 4161   4.398   1.089   3.868
    1PA    C114 4162   4.597   1.131   3.926
    1PA    H14R 4163   4.632   1.062   3.849
    1PA    H14S 4164   4.673   1.209   3.924
    1PA    C113 4165   4.577   1.078   4.068
    1PA    H13R 4166   4.523   1.154   4.125
    1PA    H13S 4167   4.504   0.997   4.073
    1PA    C112 4168   4.709   1.047   4.140
    1PA    H12R 4169   4.761   0.965   4.091
    1PA    H12S 4170   4.782   1.123   4.113
    1PA    C111 4171   4.707   1.027   4.293
    1PA    H11R 4172   4.672   1.113   4.351
    1PA    H11S 4173   4.632   0.953   4.319
    1PA    C110 4174   4.845   0.993   4.352
    1PA    H10R 4175   4.904   0.926   4.290
    1PA    H10S 4176   4.908   1.082   4.357
    1PA     C19 4177   4.822   0.947   4.497
    1PA     H9R 4178   4.729   0.892   4.509
    1PA     H9S 4179   4.898   0.872   4.519
    1PA     C18 4180   4.813   1.062   4.598
    1PA     H8R 4181   4.891   1.139   4.587
    1PA     H8S 4182   4.716   1.110   4.584
    1PA     C17 4183   4.813   1.005   4.740
    1PA     H7R 4184   4.735   0.929   4.745
    1PA     H7S 4185   4.899   0.943   4.764
    1PA     C16 4186   4.796   1.118   4.842
    1PA     H6R 4187   4.883   1.183   4.838
    1PA     H6S 4188   4.700   1.167   4.821
    1PA     C15 4189   4.784   1.047   4.978
    1PA     H5R 4190   4.729   0.954   4.963
    1PA     H5S 4191   4.882   1.026   5.019
    1PA     C14 4192   4.703   1.132   5.076
    1PA     H4R 4193   4.756   1.226   5.087
    1PA     H4S 4194   4.605   1.159   5.034
    1PA     C13 4195   4.679   1.075   5.217
    1PA     H3R 4196   4.777   1.040   5.251
    1PA     H3S 4197   4.638   1.150   5.285
    1PA     C12 4198   4.588   0.952   5.224
    1PA     H2R 4199   4.500   0.990   5.172
    1PA     H2S 4200   4.630   0.868   5.167
    2PC     C11 4201   4.556   0.914   5.366
    2PC     O12 4202   4.636   0.936   5.455
    2PC     O11 4203   4.438   0.853   5.385
    2PC      C1 4204   4.385   0.858   5.519
    2PC      HR 4205   4.451   0.792   5.575
    2PC      HS 4206   4.403   0.955   5.565
    2PC      C2 4207   4.235   0.825   5.509
    2PC      HX 4208   4.181   0.883   5.434
    2PC      C3 4209   4.154   0.844   5.638
    2PC      HA 4210   4.120   0.947   5.627
    2PC      HB 4211   4.068   0.777   5.641
    2PC     O31 4212   4.238   0.828   5.754
    2PC     P31 4213   4.225   0.929   5.877
    2PC     O32 4214   4.284   0.847   6.001
    2PC     C31 4215   4.204   0.751   6.073
    2PC     H1A 4216   4.107   0.795   6.098
    2PC     H1B 4217   4.191   0.665   6.008
    2PC     C32 4218   4.284   0.728   6.202
    2PC     H2A 4219   4.364   0.657   6.178
    2PC     H2B 4220   4.327   0.822   6.237
    2PC     N31 4221   4.212   0.675   6.323
    2PC     C33 4222   4.316   0.644   6.427
    2PC     H3A 4223   4.384   0.728   6.435
    2PC     H3B 4224   4.262   0.614   6.518
    2PC     H3C 4225   4.380   0.570   6.379
    2PC     C34 4226   4.125   0.782   6.381
    2PC     H4A 4227   4.088   0.751   6.479
    2PC     H4B 4228   4.177   0.878   6.380
    2PC     H4C 4229   4.042   0.793   6.311
    2PC     C35 4230   4.127   0.555   6.297
    2PC     H5A 4231   4.126   0.497   6.390
    2PC     H5B 4232   4.171   0.489   6.222
    2PC     H5C 4233   4.028   0.582   6.259
    2PC     O33 4234   4.283   1.064   5.858
    2PC     O34 4235   4.082   0.959   5.901
    2PC     O21 4236   4.232   0.687   5.470
    2PC     C21 4237   4.117   0.635   5.422
    2PC     O22 4238   4.014   0.699   5.411
    3OL     C12 4239   4.128   0.486   5.405
    3OL     H2R 4240   4.035   0.430   5.422
    3OL     H2S 4241   4.204   0.445   5.472
    3OL     C13 4242   4.187   0.460   5.266
    3OL     H3R 4243   4.115   0.502   5.194
    3OL     H3S 4244   4.183   0.353   5.246
    3OL     C14 4245   4.323   0.522   5.231
    3OL     H4R 4246   4.401   0.493   5.301
    3OL     H4S 4247   4.312   0.630   5.243
    3OL     C15 4248   4.373   0.501   5.087
    3OL     H5R 4249   4.459   0.560   5.057
    3OL     H5S 4250   4.285   0.519   5.025
    3OL     C16 4251   4.412   0.356   5.052
    3OL     H6R 4252   4.333   0.292   5.092
    3OL     H6S 4253   4.497   0.333   5.117
    3OL     C17 4254   4.453   0.343   4.905
    3OL     H7R 4255   4.520   0.425   4.879
    3OL     H7S 4256   4.367   0.353   4.840
    3OL     C18 4257   4.518   0.204   4.891
    3OL     H8R 4258   4.446   0.122   4.902
    3OL     H8S 4259   4.597   0.191   4.965
    3OL     C19 4260   4.574   0.184   4.753
    3OL     H9R 4261   4.501   0.196   4.673
    3OL    C110 4262   4.688   0.128   4.715
    3OL    H10R 4263   4.715   0.119   4.611
    3OL    C111 4264   4.795   0.088   4.814
    3OL    H11R 4265   4.777  -0.008   4.861
    3OL    H11S 4266   4.811   0.155   4.899
    3OL    C112 4267   4.927   0.090   4.737
    3OL    H12R 4268   5.016   0.081   4.800
    3OL    H12S 4269   4.934   0.191   4.696
    3OL    C113 4270   4.933   0.003   4.610
    3OL    H13R 4271   5.008   0.051   4.547
    3OL    H13S 4272   4.844   0.008   4.546
    3OL    C114 4273   4.959  -0.143   4.648
    3OL    H14R 4274   4.880  -0.177   4.715
    3OL    H14S 4275   5.060  -0.144   4.690
    3OL    C115 4276   4.955  -0.237   4.526
    3OL    H15R 4277   4.854  -0.243   4.486
    3OL    H15S 4278   4.983  -0.336   4.564
    3OL    C116 4279   5.066  -0.215   4.422
    3OL    H16R 4280   5.166  -0.215   4.463
    3OL    H16S 4281   5.046  -0.115   4.383
    3OL    C117 4282   5.058  -0.314   4.304
    3OL    H17R 4283   5.054  -0.413   4.350
    3OL    H17S 4284   5.155  -0.299   4.257
    3OL    C118 4285   4.945  -0.287   4.203
    3OL    H18R 4286   4.851  -0.332   4.236
    3OL    H18S 4287   4.968  -0.353   4.119
    3OL    H18T 4288   4.938  -0.181   4.178
    1PA    C116 4289   2.625   0.072   3.767
    1PA    H16R 4290   2.702  -0.002   3.744
    1PA    H16S 4291   2.686   0.163   3.774
    1PA    H16T 4292   2.557   0.077   3.682
    1PA    C115 4293   2.555   0.038   3.899
    1PA    H15R 4294   2.495  -0.053   3.898
    1PA    H15S 4295   2.635   0.023   3.972
    1PA    C114 4296   2.468   0.158   3.937
    1PA    H14R 4297   2.523   0.251   3.920
    1PA    H14S 4298   2.388   0.151   3.863
    1PA    C113 4299   2.415   0.164   4.081
    1PA    H13R 4300   2.497   0.129   4.143
    1PA    H13S 4301   2.393   0.266   4.115
    1PA    C112 4302   2.297   0.071   4.114
    1PA    H12R 4303   2.217   0.101   4.046
    1PA    H12S 4304   2.333  -0.031   4.102
    1PA    C111 4305   2.245   0.080   4.258
    1PA    H11R 4306   2.325   0.060   4.331
    1PA    H11S 4307   2.217   0.183   4.281
    1PA    C110 4308   2.131  -0.020   4.280
    1PA    H10R 4309   2.058  -0.016   4.199
    1PA    H10S 4310   2.185  -0.115   4.290
    1PA     C19 4311   2.081   0.017   4.420
    1PA     H9R 4312   2.160   0.032   4.493
    1PA     H9S 4313   2.014   0.103   4.424
    1PA     C18 4314   1.985  -0.097   4.457
    1PA     H8R 4315   1.916  -0.122   4.377
    1PA     H8S 4316   2.038  -0.193   4.467
    1PA     C17 4317   1.905  -0.059   4.582
    1PA     H7R 4318   1.976  -0.039   4.662
    1PA     H7S 4319   1.844   0.031   4.569
    1PA     C16 4320   1.812  -0.169   4.634
    1PA     H6R 4321   1.739  -0.202   4.561
    1PA     H6S 4322   1.874  -0.255   4.662
    1PA     C15 4323   1.750  -0.133   4.770
    1PA     H5R 4324   1.836  -0.116   4.835
    1PA     H5S 4325   1.703  -0.035   4.771
    1PA     C14 4326   1.659  -0.241   4.830
    1PA     H4R 4327   1.574  -0.242   4.761
    1PA     H4S 4328   1.713  -0.337   4.833
    1PA     C13 4329   1.610  -0.216   4.973
    1PA     H3R 4330   1.563  -0.310   5.003
    1PA     H3S 4331   1.687  -0.191   5.046
    1PA     C12 4332   1.503  -0.106   4.971
    1PA     H2R 4333   1.544  -0.015   4.927
    1PA     H2S 4334   1.406  -0.135   4.931
    2PC     C11 4335   1.479  -0.082   5.118
    2PC     O12 4336   1.484  -0.174   5.197
    2PC     O11 4337   1.452   0.046   5.151
    2PC      C1 4338   1.426   0.075   5.290
    2PC      HR 4339   1.378   0.173   5.289
    2PC      HS 4340   1.364  -0.002   5.335
    2PC      C2 4341   1.557   0.076   5.370
    2PC      HX 4342   1.619  -0.009   5.338
    2PC      C3 4343   1.533   0.064   5.521
    2PC      HA 4344   1.474  -0.022   5.553
    2PC      HB 4345   1.625   0.065   5.581
    2PC     O31 4346   1.439   0.167   5.553
    2PC     P31 4347   1.400   0.185   5.707
    2PC     O32 4348   1.318   0.050   5.736
    2PC     C31 4349   1.298   0.017   5.875
    2PC     H1A 4350   1.363   0.068   5.947
    2PC     H1B 4351   1.195   0.035   5.904
    2PC     C32 4352   1.324  -0.134   5.887
    2PC     H2A 4353   1.238  -0.190   5.851
    2PC     H2B 4354   1.407  -0.156   5.821
    2PC     N31 4355   1.353  -0.187   6.025
    2PC     C33 4356   1.471  -0.122   6.090
    2PC     H3A 4357   1.552  -0.121   6.018
    2PC     H3B 4358   1.439  -0.022   6.120
    2PC     H3C 4359   1.508  -0.182   6.174
    2PC     C34 4360   1.235  -0.167   6.115
    2PC     H4A 4361   1.145  -0.226   6.097
    2PC     H4B 4362   1.259  -0.178   6.221
    2PC     H4C 4363   1.207  -0.062   6.105
    2PC     C35 4364   1.378  -0.334   6.015
    2PC     H5A 4365   1.477  -0.362   5.981
    2PC     H5B 4366   1.290  -0.390   5.983
    2PC     H5C 4367   1.386  -0.362   6.120
    2PC     O33 4368   1.517   0.201   5.797
    2PC     O34 4369   1.313   0.303   5.728
    2PC     O21 4370   1.639   0.193   5.358
    2PC     C21 4371   1.771   0.173   5.372
    2PC     O22 4372   1.820   0.074   5.423
    3OL     C12 4373   1.859   0.282   5.316
    3OL     H2R 4374   1.941   0.298   5.387
    3OL     H2S 4375   1.805   0.376   5.322
    3OL     C13 4376   1.903   0.250   5.173
    3OL     H3R 4377   1.943   0.341   5.128
    3OL     H3S 4378   1.818   0.229   5.108
    3OL     C14 4379   1.996   0.128   5.158
    3OL     H4R 4380   1.935   0.047   5.199
    3OL     H4S 4381   2.081   0.140   5.225
    3OL     C15 4382   2.033   0.093   5.013
    3OL     H5R 4383   1.944   0.091   4.950
    3OL     H5S 4384   2.073  -0.008   5.004
    3OL     C16 4385   2.139   0.186   4.952
    3OL     H6R 4386   2.229   0.186   5.014
    3OL     H6S 4387   2.099   0.288   4.951
    3OL     C17 4388   2.173   0.146   4.808
    3OL     H7R 4389   2.088   0.153   4.741
    3OL     H7S 4390   2.198   0.039   4.807
    3OL     C18 4391   2.295   0.227   4.763
    3OL     H8R 4392   2.373   0.197   4.833
    3OL     H8S 4393   2.272   0.334   4.753
    3OL     C19 4394   2.345   0.184   4.627
    3OL     H9R 4395   2.362   0.077   4.624
    3OL    C110 4396   2.387   0.257   4.526
    3OL    H10R 4397   2.436   0.206   4.443
    3OL    C111 4398   2.369   0.405   4.508
    3OL    H11R 4399   2.467   0.449   4.526
    3OL    H11S 4400   2.289   0.449   4.567
    3OL    C112 4401   2.317   0.431   4.365
    3OL    H12R 4402   2.227   0.373   4.349
    3OL    H12S 4403   2.394   0.400   4.294
    3OL    C113 4404   2.291   0.581   4.347
    3OL    H13R 4405   2.387   0.625   4.375
    3OL    H13S 4406   2.206   0.616   4.406
    3OL    C114 4407   2.270   0.625   4.201
    3OL    H14R 4408   2.182   0.575   4.159
    3OL    H14S 4409   2.350   0.589   4.136
    3OL    C115 4410   2.256   0.776   4.180
    3OL    H15R 4411   2.337   0.829   4.229
    3OL    H15S 4412   2.171   0.804   4.243
    3OL    C116 4413   2.246   0.812   4.031
    3OL    H16R 4414   2.172   0.890   4.015
    3OL    H16S 4415   2.225   0.723   3.971
    3OL    C117 4416   2.381   0.853   3.971
    3OL    H17R 4417   2.456   0.774   3.961
    3OL    H17S 4418   2.432   0.918   4.043
    3OL    C118 4419   2.375   0.909   3.828
    3OL    H18R 4420   2.330   0.835   3.762
    3OL    H18S 4421   2.478   0.932   3.799
    3OL    H18T 4422   2.318   1.002   3.836
    1PA    C116 4423   4.183   5.036   4.657
    1PA    H16R 4424   4.285   5.038   4.618
    1PA    H16S 4425   4.115   5.005   4.577
    1PA    H16T 4426   4.173   4.972   4.745
    1PA    C115 4427   4.133   5.175   4.699
    1PA    H15R 4428   4.171   5.204   4.797
    1PA    H15S 4429   4.153   5.262   4.636
    1PA    C114 4430   3.983   5.175   4.730
    1PA    H14R 4431   3.968   5.085   4.791
    1PA    H14S 4432   3.966   5.265   4.789
    1PA    C113 4433   3.898   5.183   4.602
    1PA    H13R 4434   3.938   5.266   4.545
    1PA    H13S 4435   3.904   5.091   4.543
    1PA    C112 4436   3.751   5.216   4.633
    1PA    H12R 4437   3.755   5.316   4.677
    1PA    H12S 4438   3.689   5.225   4.544
    1PA    C111 4439   3.679   5.111   4.718
    1PA    H11R 4440   3.707   5.012   4.683
    1PA    H11S 4441   3.697   5.116   4.826
    1PA    C110 4442   3.526   5.115   4.703
    1PA    H10R 4443   3.487   5.216   4.715
    1PA    H10S 4444   3.495   5.084   4.603
    1PA     C19 4445   3.446   5.017   4.790
    1PA     H9R 4446   3.344   5.009   4.751
    1PA     H9S 4447   3.490   4.917   4.791
    1PA     C18 4448   3.431   5.066   4.935
    1PA     H8R 4449   3.421   4.987   5.009
    1PA     H8S 4450   3.522   5.119   4.965
    1PA     C17 4451   3.301   5.146   4.957
    1PA     H7R 4452   3.314   5.243   4.909
    1PA     H7S 4453   3.208   5.101   4.921
    1PA     C16 4454   3.271   5.169   5.106
    1PA     H6R 4455   3.250   5.073   5.153
    1PA     H6S 4456   3.354   5.215   5.159
    1PA     C15 4457   3.141   5.252   5.112
    1PA     H5R 4458   3.161   5.343   5.056
    1PA     H5S 4459   3.064   5.195   5.061
    1PA     C14 4460   3.094   5.274   5.257
    1PA     H4R 4461   2.987   5.295   5.247
    1PA     H4S 4462   3.088   5.184   5.319
    1PA     C13 4463   3.173   5.385   5.327
    1PA     H3R 4464   3.137   5.385   5.430
    1PA     H3S 4465   3.279   5.362   5.316
    1PA     C12 4466   3.145   5.523   5.265
    1PA     H2R 4467   3.202   5.526   5.172
    1PA     H2S 4468   3.039   5.541   5.249
    2PC     C11 4469   3.192   5.628   5.362
    2PC     O12 4470   3.269   5.612   5.454
    2PC     O11 4471   3.126   5.744   5.349
    2PC      C1 4472   3.127   5.840   5.456
    2PC      HR 4473   3.040   5.907   5.449
    2PC      HS 4474   3.101   5.790   5.549
    2PC      C2 4475   3.261   5.913   5.465
    2PC      HX 4476   3.345   5.843   5.467
    2PC      C3 4477   3.263   5.985   5.600
    2PC      HA 4478   3.251   5.904   5.673
    2PC      HB 4479   3.356   6.040   5.616
    2PC     O31 4480   3.160   6.084   5.613
    2PC     P31 4481   3.121   6.144   5.757
    2PC     O32 4482   2.992   6.233   5.723
    2PC     C31 4483   2.886   6.159   5.660
    2PC     H1A 4484   2.920   6.125   5.562
    2PC     H1B 4485   2.849   6.083   5.729
    2PC     C32 4486   2.772   6.260   5.639
    2PC     H2A 4487   2.798   6.320   5.551
    2PC     H2B 4488   2.683   6.203   5.612
    2PC     N31 4489   2.725   6.359   5.741
    2PC     C33 4490   2.695   6.284   5.868
    2PC     H3A 4491   2.600   6.233   5.854
    2PC     H3B 4492   2.783   6.220   5.878
    2PC     H3C 4493   2.693   6.352   5.954
    2PC     C34 4494   2.832   6.460   5.772
    2PC     H4A 4495   2.813   6.532   5.852
    2PC     H4B 4496   2.927   6.417   5.804
    2PC     H4C 4497   2.849   6.520   5.683
    2PC     C35 4498   2.603   6.434   5.697
    2PC     H5A 4499   2.630   6.478   5.601
    2PC     H5B 4500   2.584   6.514   5.768
    2PC     H5C 4501   2.525   6.357   5.690
    2PC     O33 4502   3.084   6.064   5.876
    2PC     O34 4503   3.242   6.218   5.800
    2PC     O21 4504   3.283   6.003   5.354
    2PC     C21 4505   3.401   6.066   5.343
    2PC     O22 4506   3.494   6.042   5.418
    3OL     C12 4507   3.397   6.174   5.238
    3OL     H2R 4508   3.342   6.257   5.282
    3OL     H2S 4509   3.346   6.129   5.153
    3OL     C13 4510   3.531   6.233   5.189
    3OL     H3R 4511   3.603   6.151   5.186
    3OL     H3S 4512   3.575   6.310   5.252
    3OL     C14 4513   3.512   6.292   5.049
    3OL     H4R 4514   3.448   6.380   5.058
    3OL     H4S 4515   3.467   6.219   4.982
    3OL     C15 4516   3.652   6.333   4.999
    3OL     H5R 4517   3.719   6.247   4.990
    3OL     H5S 4518   3.703   6.392   5.074
    3OL     C16 4519   3.638   6.401   4.862
    3OL     H6R 4520   3.733   6.452   4.842
    3OL     H6S 4521   3.562   6.479   4.865
    3OL     C17 4522   3.613   6.306   4.744
    3OL     H7R 4523   3.512   6.265   4.749
    3OL     H7S 4524   3.686   6.225   4.750
    3OL     C18 4525   3.619   6.386   4.613
    3OL     H8R 4526   3.705   6.453   4.609
    3OL     H8S 4527   3.524   6.441   4.605
    3OL     C19 4528   3.618   6.284   4.503
    3OL     H9R 4529   3.540   6.213   4.528
    3OL    C110 4530   3.692   6.275   4.393
    3OL    H10R 4531   3.662   6.201   4.319
    3OL    C111 4532   3.792   6.378   4.347
    3OL    H11R 4533   3.799   6.463   4.415
    3OL    H11S 4534   3.762   6.427   4.254
    3OL    C112 4535   3.928   6.316   4.314
    3OL    H12R 4536   3.995   6.402   4.309
    3OL    H12S 4537   3.926   6.265   4.217
    3OL    C113 4538   3.978   6.208   4.411
    3OL    H13R 4539   4.085   6.196   4.392
    3OL    H13S 4540   3.932   6.111   4.394
    3OL    C114 4541   3.962   6.243   4.560
    3OL    H14R 4542   3.856   6.256   4.583
    3OL    H14S 4543   4.016   6.338   4.566
    3OL    C115 4544   4.018   6.139   4.657
    3OL    H15R 4545   4.124   6.116   4.641
    3OL    H15S 4546   3.970   6.043   4.636
    3OL    C116 4547   4.004   6.187   4.802
    3OL    H16R 4548   3.897   6.202   4.820
    3OL    H16S 4549   4.051   6.286   4.802
    3OL    C117 4550   4.056   6.088   4.907
    3OL    H17R 4551   4.162   6.074   4.884
    3OL    H17S 4552   4.014   5.987   4.904
    3OL    C118 4553   4.050   6.147   5.049
    3OL    H18R 4554   4.118   6.230   5.069
    3OL    H18S 4555   4.074   6.075   5.127
    3OL    H18T 4556   3.949   6.189   5.056
    1PA    C116 4557   4.557   5.601   4.209
    1PA    H16R 4558   4.506   5.562   4.297
    1PA    H16S 4559   4.525   5.533   4.130
    1PA    H16T 4560   4.511   5.696   4.184
    1PA    C115 4561   4.710   5.603   4.209
    1PA    H15R 4562   4.751   5.508   4.243
    1PA    H15S 4563   4.742   5.612   4.105
    1PA    C114 4564   4.755   5.724   4.292
    1PA    H14R 4565   4.863   5.741   4.285
    1PA    H14S 4566   4.707   5.816   4.259
    1PA    C113 4567   4.721   5.700   4.440
    1PA    H13R 4568   4.612   5.695   4.445
    1PA    H13S 4569   4.770   5.614   4.487
    1PA    C112 4570   4.761   5.822   4.524
    1PA    H12R 4571   4.869   5.831   4.539
    1PA    H12S 4572   4.724   5.914   4.478
    1PA    C111 4573   4.699   5.802   4.663
    1PA    H11R 4574   4.696   5.902   4.706
    1PA    H11S 4575   4.595   5.770   4.654
    1PA    C110 4576   4.790   5.713   4.748
    1PA    H10R 4577   4.792   5.610   4.712
    1PA    H10S 4578   4.894   5.741   4.730
    1PA     C19 4579   4.747   5.712   4.895
    1PA     H9R 4580   4.721   5.816   4.917
    1PA     H9S 4581   4.655   5.655   4.911
    1PA     C18 4582   4.864   5.658   4.978
    1PA     H8R 4583   4.884   5.557   4.942
    1PA     H8S 4584   4.952   5.714   4.944
    1PA     C17 4585   4.850   5.662   5.131
    1PA     H7R 4586   4.932   5.607   5.177
    1PA     H7S 4587   4.847   5.765   5.168
    1PA     C16 4588   4.720   5.594   5.174
    1PA     H6R 4589   4.713   5.634   5.276
    1PA     H6S 4590   4.648   5.645   5.109
    1PA     C15 4591   4.712   5.442   5.159
    1PA     H5R 4592   4.740   5.434   5.054
    1PA     H5S 4593   4.776   5.395   5.233
    1PA     C14 4594   4.565   5.397   5.167
    1PA     H4R 4595   4.521   5.409   5.266
    1PA     H4S 4596   4.502   5.454   5.098
    1PA     C13 4597   4.563   5.254   5.112
    1PA     H3R 4598   4.600   5.248   5.010
    1PA     H3S 4599   4.635   5.194   5.168
    1PA     C12 4600   4.422   5.192   5.119
    1PA     H2R 4601   4.336   5.259   5.124
    1PA     H2S 4602   4.398   5.142   5.025
    2PC     C11 4603   4.396   5.098   5.234
    2PC     O12 4604   4.484   5.063   5.310
    2PC     O11 4605   4.269   5.056   5.241
    2PC      C1 4606   4.225   4.979   5.354
    2PC      HR 4607   4.255   4.874   5.350
    2PC      HS 4608   4.268   5.027   5.442
    2PC      C2 4609   4.072   4.980   5.350
    2PC      HX 4610   4.032   5.082   5.340
    2PC      C3 4611   4.010   4.931   5.481
    2PC      HA 4612   4.000   5.006   5.561
    2PC      HB 4613   3.905   4.900   5.471
    2PC     O31 4614   4.085   4.824   5.539
    2PC     P31 4615   4.057   4.776   5.690
    2PC     O32 4616   4.082   4.911   5.773
    2PC     C31 4617   4.219   4.955   5.777
    2PC     H1A 4618   4.269   4.864   5.812
    2PC     H1B 4619   4.256   4.992   5.681
    2PC     C32 4620   4.228   5.070   5.879
    2PC     H2A 4621   4.332   5.100   5.884
    2PC     H2B 4622   4.162   5.153   5.855
    2PC     N31 4623   4.198   5.035   6.022
    2PC     C33 4624   4.282   4.920   6.070
    2PC     H3A 4625   4.288   4.922   6.178
    2PC     H3B 4626   4.255   4.824   6.025
    2PC     H3C 4627   4.384   4.941   6.036
    2PC     C34 4628   4.214   5.160   6.102
    2PC     H4A 4629   4.146   5.236   6.062
    2PC     H4B 4630   4.203   5.135   6.207
    2PC     H4C 4631   4.314   5.200   6.080
    2PC     C35 4632   4.057   4.991   6.048
    2PC     H5A 4633   3.998   5.074   6.007
    2PC     H5B 4634   4.038   4.971   6.154
    2PC     H5C 4635   4.038   4.901   5.991
    2PC     O33 4636   3.922   4.721   5.714
    2PC     O34 4637   4.160   4.681   5.736
    2PC     O21 4638   4.020   4.888   5.252
    2PC     C21 4639   3.996   4.918   5.123
    2PC     O22 4640   4.003   5.030   5.079
    3OL     C12 4641   3.966   4.790   5.048
    3OL     H2R 4642   3.947   4.714   5.124
    3OL     H2S 4643   4.056   4.756   4.997
    3OL     C13 4644   3.848   4.819   4.954
    3OL     H3R 4645   3.863   4.907   4.891
    3OL     H3S 4646   3.765   4.830   5.025
    3OL     C14 4647   3.797   4.700   4.873
    3OL     H4R 4648   3.695   4.717   4.836
    3OL     H4S 4649   3.788   4.618   4.945
    3OL     C15 4650   3.892   4.650   4.763
    3OL     H5R 4651   3.856   4.550   4.737
    3OL     H5S 4652   3.999   4.657   4.784
    3OL     C16 4653   3.879   4.720   4.627
    3OL     H6R 4654   3.901   4.825   4.647
    3OL     H6S 4655   3.782   4.741   4.582
    3OL     C17 4656   3.980   4.665   4.525
    3OL     H7R 4657   3.956   4.560   4.507
    3OL     H7S 4658   4.078   4.657   4.572
    3OL     C18 4659   3.959   4.726   4.386
    3OL     H8R 4660   3.893   4.657   4.332
    3OL     H8S 4661   4.053   4.721   4.331
    3OL     C19 4662   3.903   4.866   4.383
    3OL     H9R 4663   3.962   4.937   4.441
    3OL    C110 4664   3.785   4.899   4.333
    3OL    H10R 4665   3.758   5.003   4.349
    3OL    C111 4666   3.677   4.813   4.274
    3OL    H11R 4667   3.706   4.711   4.247
    3OL    H11S 4668   3.651   4.863   4.181
    3OL    C112 4669   3.557   4.817   4.371
    3OL    H12R 4670   3.516   4.916   4.394
    3OL    H12S 4671   3.578   4.775   4.469
    3OL    C113 4672   3.449   4.724   4.314
    3OL    H13R 4673   3.489   4.626   4.288
    3OL    H13S 4674   3.413   4.766   4.219
    3OL    C114 4675   3.334   4.713   4.415
    3OL    H14R 4676   3.305   4.810   4.457
    3OL    H14S 4677   3.374   4.652   4.496
    3OL    C115 4678   3.225   4.626   4.351
    3OL    H15R 4679   3.272   4.528   4.338
    3OL    H15S 4680   3.198   4.662   4.251
    3OL    C116 4681   3.106   4.619   4.447
    3OL    H16R 4682   3.159   4.607   4.541
    3OL    H16S 4683   3.046   4.529   4.429
    3OL    C117 4684   3.019   4.745   4.449
    3OL    H17R 4685   3.003   4.780   4.346
    3OL    H17S 4686   3.067   4.821   4.512
    3OL    C118 4687   2.886   4.705   4.514
    3OL    H18R 4688   2.846   4.618   4.462
    3OL    H18S 4689   2.813   4.785   4.504
    3OL    H18T 4690   2.907   4.673   4.616
    1PA    C116 4691   6.159   1.995   3.414
    1PA    H16R 4692   6.221   2.045   3.340
    1PA    H16S 4693   6.056   2.031   3.411
    1PA    H16T 4694   6.150   1.888   3.397
    1PA    C115 4695   6.217   1.998   3.556
    1PA    H15R 4696   6.197   2.096   3.600
    1PA    H15S 4697   6.176   1.921   3.622
    1PA    C114 4698   6.370   1.982   3.556
    1PA    H14R 4699   6.403   1.895   3.499
    1PA    H14S 4700   6.414   2.073   3.513
    1PA    C113 4701   6.436   1.979   3.694
    1PA    H13R 4702   6.540   2.004   3.673
    1PA    H13S 4703   6.401   2.066   3.751
    1PA    C112 4704   6.415   1.845   3.765
    1PA    H12R 4705   6.310   1.817   3.760
    1PA    H12S 4706   6.480   1.773   3.714
    1PA    C111 4707   6.479   1.854   3.905
    1PA    H11R 4708   6.494   1.754   3.946
    1PA    H11S 4709   6.579   1.895   3.891
    1PA    C110 4710   6.406   1.944   4.006
    1PA    H10R 4711   6.413   2.050   3.981
    1PA    H10S 4712   6.300   1.923   3.988
    1PA     C19 4713   6.450   1.931   4.152
    1PA     H9R 4714   6.466   1.826   4.177
    1PA     H9S 4715   6.542   1.989   4.153
    1PA     C18 4716   6.341   1.980   4.248
    1PA     H8R 4717   6.303   2.075   4.208
    1PA     H8S 4718   6.247   1.924   4.254
    1PA     C17 4719   6.403   2.005   4.386
    1PA     H7R 4720   6.476   1.926   4.408
    1PA     H7S 4721   6.453   2.102   4.387
    1PA     C16 4722   6.290   2.008   4.490
    1PA     H6R 4723   6.227   2.089   4.452
    1PA     H6S 4724   6.230   1.916   4.485
    1PA     C15 4725   6.339   2.029   4.633
    1PA     H5R 4726   6.373   1.933   4.673
    1PA     H5S 4727   6.427   2.093   4.623
    1PA     C14 4728   6.224   2.081   4.721
    1PA     H4R 4729   6.169   2.163   4.674
    1PA     H4S 4730   6.144   2.009   4.736
    1PA     C13 4731   6.272   2.121   4.861
    1PA     H3R 4732   6.318   2.035   4.911
    1PA     H3S 4733   6.346   2.202   4.857
    1PA     C12 4734   6.148   2.160   4.943
    1PA     H2R 4735   6.088   2.224   4.877
    1PA     H2S 4736   6.095   2.069   4.973
    2PC     C11 4737   6.187   2.240   5.065
    2PC     O12 4738   6.275   2.323   5.061
    2PC     O11 4739   6.123   2.204   5.178
    2PC      C1 4740   6.121   2.280   5.300
    2PC      HR 4741   6.073   2.214   5.372
    2PC      HS 4742   6.225   2.304   5.325
    2PC      C2 4743   6.038   2.409   5.285
    2PC      HX 4744   6.070   2.472   5.203
    2PC      C3 4745   6.046   2.483   5.420
    2PC      HA 4746   6.142   2.534   5.428
    2PC      HB 4747   5.959   2.550   5.422
    2PC     O31 4748   6.047   2.399   5.536
    2PC     P31 4749   6.035   2.479   5.674
    2PC     O32 4750   5.893   2.426   5.726
    2PC     C31 4751   5.779   2.454   5.643
    2PC     H1A 4752   5.760   2.561   5.633
    2PC     H1B 4753   5.791   2.410   5.544
    2PC     C32 4754   5.659   2.383   5.707
    2PC     H2A 4755   5.565   2.402   5.654
    2PC     H2B 4756   5.672   2.275   5.718
    2PC     N31 4757   5.630   2.431   5.846
    2PC     C33 4758   5.742   2.411   5.944
    2PC     H3A 4759   5.705   2.421   6.046
    2PC     H3B 4760   5.787   2.312   5.937
    2PC     H3C 4761   5.828   2.473   5.922
    2PC     C34 4762   5.595   2.577   5.847
    2PC     H4A 4763   5.546   2.593   5.751
    2PC     H4B 4764   5.536   2.611   5.932
    2PC     H4C 4765   5.688   2.634   5.841
    2PC     C35 4766   5.507   2.366   5.900
    2PC     H5A 4767   5.502   2.407   6.001
    2PC     H5B 4768   5.523   2.258   5.903
    2PC     H5C 4769   5.414   2.377   5.844
    2PC     O33 4770   6.138   2.431   5.769
    2PC     O34 4771   6.043   2.627   5.669
    2PC     O21 4772   5.898   2.382   5.269
    2PC     C21 4773   5.861   2.375   5.140
    2PC     O22 4774   5.935   2.374   5.044
    3OL     C12 4775   5.711   2.359   5.136
    3OL     H2R 4776   5.664   2.452   5.102
    3OL     H2S 4777   5.669   2.333   5.233
    3OL     C13 4778   5.666   2.256   5.031
    3OL     H3R 4779   5.710   2.293   4.938
    3OL     H3S 4780   5.558   2.262   5.024
    3OL     C14 4781   5.710   2.111   5.058
    3OL     H4R 4782   5.660   2.080   5.150
    3OL     H4S 4783   5.819   2.113   5.063
    3OL     C15 4784   5.680   2.022   4.937
    3OL     H5R 4785   5.577   1.999   4.910
    3OL     H5S 4786   5.728   1.930   4.971
    3OL     C16 4787   5.763   2.059   4.813
    3OL     H6R 4788   5.868   2.052   4.842
    3OL     H6S 4789   5.751   2.161   4.776
    3OL     C17 4790   5.737   1.966   4.694
    3OL     H7R 4791   5.639   1.986   4.648
    3OL     H7S 4792   5.731   1.860   4.722
    3OL     C18 4793   5.840   1.997   4.585
    3OL     H8R 4794   5.840   1.907   4.523
    3OL     H8S 4795   5.941   1.998   4.626
    3OL     C19 4796   5.813   2.126   4.512
    3OL     H9R 4797   5.743   2.191   4.565
    3OL    C110 4798   5.872   2.164   4.400
    3OL    H10R 4799   5.848   2.262   4.360
    3OL    C111 4800   5.958   2.083   4.307
    3OL    H11R 4801   5.986   1.983   4.340
    3OL    H11S 4802   6.053   2.128   4.280
    3OL    C112 4803   5.885   2.064   4.173
    3OL    H12R 4804   5.870   2.158   4.119
    3OL    H12S 4805   5.788   2.016   4.184
    3OL    C113 4806   5.971   1.992   4.068
    3OL    H13R 4807   5.986   1.892   4.110
    3OL    H13S 4808   6.069   2.038   4.056
    3OL    C114 4809   5.908   1.982   3.929
    3OL    H14R 4810   5.884   2.082   3.892
    3OL    H14S 4811   5.809   1.936   3.941
    3OL    C115 4812   6.003   1.911   3.831
    3OL    H15R 4813   6.054   1.827   3.879
    3OL    H15S 4814   6.081   1.978   3.795
    3OL    C116 4815   5.924   1.855   3.712
    3OL    H16R 4816   5.862   1.768   3.737
    3OL    H16S 4817   6.003   1.805   3.655
    3OL    C117 4818   5.851   1.960   3.628
    3OL    H17R 4819   5.922   2.035   3.593
    3OL    H17S 4820   5.766   2.008   3.678
    3OL    C118 4821   5.795   1.899   3.499
    3OL    H18R 4822   5.704   1.840   3.510
    3OL    H18S 4823   5.877   1.836   3.464
    3OL    H18T 4824   5.785   1.983   3.430
    1PA    C116 4825   3.169   4.112   3.982
    1PA    H16R 4826   3.162   4.005   3.999
    1PA    H16S 4827   3.175   4.134   3.875
    1PA    H16T 4828   3.077   4.162   4.012
    1PA    C115 4829   3.282   4.184   4.057
    1PA    H15R 4830   3.371   4.178   3.993
    1PA    H15S 4831   3.254   4.287   4.079
    1PA    C114 4832   3.304   4.109   4.189
    1PA    H14R 4833   3.281   4.002   4.182
    1PA    H14S 4834   3.408   4.110   4.223
    1PA    C113 4835   3.216   4.160   4.304
    1PA    H13R 4836   3.222   4.268   4.318
    1PA    H13S 4837   3.110   4.135   4.292
    1PA    C112 4838   3.252   4.096   4.439
    1PA    H12R 4839   3.258   3.988   4.424
    1PA    H12S 4840   3.352   4.122   4.473
    1PA    C111 4841   3.141   4.113   4.544
    1PA    H11R 4842   3.047   4.083   4.497
    1PA    H11S 4843   3.158   4.054   4.634
    1PA    C110 4844   3.135   4.261   4.583
    1PA    H10R 4845   3.235   4.300   4.603
    1PA    H10S 4846   3.091   4.328   4.508
    1PA     C19 4847   3.058   4.287   4.713
    1PA     H9R 4848   2.957   4.251   4.697
    1PA     H9S 4849   3.104   4.241   4.801
    1PA     C18 4850   3.053   4.438   4.744
    1PA     H8R 4851   3.154   4.479   4.749
    1PA     H8S 4852   2.999   4.479   4.659
    1PA     C17 4853   2.982   4.473   4.876
    1PA     H7R 4854   2.877   4.443   4.877
    1PA     H7S 4855   3.019   4.409   4.956
    1PA     C16 4856   2.991   4.620   4.918
    1PA     H6R 4857   2.940   4.687   4.849
    1PA     H6S 4858   2.961   4.620   5.023
    1PA     C15 4859   3.133   4.678   4.920
    1PA     H5R 4860   3.173   4.680   4.819
    1PA     H5S 4861   3.133   4.782   4.956
    1PA     C14 4862   3.233   4.607   5.012
    1PA     H4R 4863   3.200   4.587   5.114
    1PA     H4S 4864   3.255   4.508   4.971
    1PA     C13 4865   3.360   4.693   5.019
    1PA     H3R 4866   3.410   4.693   4.922
    1PA     H3S 4867   3.340   4.794   5.055
    1PA     C12 4868   3.458   4.628   5.117
    1PA     H2R 4869   3.498   4.531   5.087
    1PA     H2S 4870   3.543   4.695   5.105
    2PC     C11 4871   3.434   4.628   5.266
    2PC     O12 4872   3.453   4.532   5.338
    2PC     O11 4873   3.383   4.740   5.320
    2PC      C1 4874   3.388   4.743   5.464
    2PC      HR 4875   3.311   4.683   5.512
    2PC      HS 4876   3.478   4.697   5.506
    2PC      C2 4877   3.368   4.888   5.510
    2PC      HX 4878   3.400   4.907   5.613
    2PC      C3 4879   3.224   4.935   5.490
    2PC      HA 4880   3.195   4.949   5.386
    2PC      HB 4881   3.158   4.862   5.539
    2PC     O31 4882   3.209   5.063   5.554
    2PC     P31 4883   3.165   5.080   5.707
    2PC     O32 4884   3.300   5.141   5.769
    2PC     C31 4885   3.296   5.218   5.891
    2PC     H1A 4886   3.208   5.188   5.950
    2PC     H1B 4887   3.390   5.220   5.947
    2PC     C32 4888   3.259   5.358   5.841
    2PC     H2A 4889   3.167   5.348   5.783
    2PC     H2B 4890   3.229   5.406   5.934
    2PC     N31 4891   3.349   5.452   5.766
    2PC     C33 4892   3.487   5.464   5.822
    2PC     H3A 4893   3.537   5.368   5.815
    2PC     H3B 4894   3.531   5.549   5.768
    2PC     H3C 4895   3.482   5.487   5.928
    2PC     C34 4896   3.360   5.404   5.624
    2PC     H4A 4897   3.404   5.477   5.556
    2PC     H4B 4898   3.426   5.318   5.627
    2PC     H4C 4899   3.261   5.378   5.585
    2PC     C35 4900   3.292   5.590   5.757
    2PC     H5A 4901   3.290   5.638   5.855
    2PC     H5B 4902   3.191   5.580   5.718
    2PC     H5C 4903   3.361   5.646   5.692
    2PC     O33 4904   3.048   5.170   5.716
    2PC     O34 4905   3.127   4.956   5.778
    2PC     O21 4906   3.452   4.965   5.423
    2PC     C21 4907   3.586   4.959   5.439
    2PC     O22 4908   3.646   4.894   5.522
    3OL     C12 4909   3.646   5.046   5.332
    3OL     H2R 4910   3.589   5.024   5.242
    3OL     H2S 4911   3.748   5.009   5.316
    3OL     C13 4912   3.642   5.195   5.370
    3OL     H3R 4913   3.696   5.205   5.464
    3OL     H3S 4914   3.542   5.239   5.377
    3OL     C14 4915   3.729   5.280   5.276
    3OL     H4R 4916   3.823   5.226   5.263
    3OL     H4S 4917   3.745   5.382   5.313
    3OL     C15 4918   3.667   5.303   5.137
    3OL     H5R 4919   3.576   5.360   5.157
    3OL     H5S 4920   3.646   5.209   5.086
    3OL     C16 4921   3.751   5.404   5.058
    3OL     H6R 4922   3.847   5.357   5.036
    3OL     H6S 4923   3.759   5.497   5.115
    3OL     C17 4924   3.675   5.447   4.931
    3OL     H7R 4925   3.581   5.490   4.967
    3OL     H7S 4926   3.655   5.365   4.862
    3OL     C18 4927   3.759   5.548   4.852
    3OL     H8R 4928   3.841   5.496   4.802
    3OL     H8S 4929   3.794   5.626   4.920
    3OL     C19 4930   3.682   5.624   4.746
    3OL     H9R 4931   3.634   5.564   4.670
    3OL    C110 4932   3.654   5.753   4.753
    3OL    H10R 4933   3.576   5.783   4.683
    3OL    C111 4934   3.712   5.855   4.847
    3OL    H11R 4935   3.762   5.932   4.788
    3OL    H11S 4936   3.786   5.818   4.919
    3OL    C112 4937   3.595   5.925   4.919
    3OL    H12R 4938   3.531   5.941   4.832
    3OL    H12S 4939   3.615   6.021   4.967
    3OL    C113 4940   3.525   5.840   5.026
    3OL    H13R 4941   3.510   5.740   4.985
    3OL    H13S 4942   3.428   5.880   5.054
    3OL    C114 4943   3.618   5.797   5.141
    3OL    H14R 4944   3.661   5.885   5.189
    3OL    H14S 4945   3.702   5.744   5.095
    3OL    C115 4946   3.560   5.704   5.249
    3OL    H15R 4947   3.517   5.617   5.199
    3OL    H15S 4948   3.472   5.758   5.284
    3OL    C116 4949   3.670   5.674   5.352
    3OL    H16R 4950   3.702   5.767   5.400
    3OL    H16S 4951   3.756   5.623   5.310
    3OL    C117 4952   3.610   5.569   5.446
    3OL    H17R 4953   3.577   5.493   5.375
    3OL    H17S 4954   3.517   5.600   5.496
    3OL    C118 4955   3.708   5.508   5.548
    3OL    H18R 4956   3.657   5.431   5.606
    3OL    H18S 4957   3.761   5.575   5.616
    3OL    H18T 4958   3.789   5.455   5.499
    1PA    C116 4959   0.165   0.807   3.476
    1PA    H16R 4960   0.217   0.901   3.454
    1PA    H16S 4961   0.080   0.784   3.411
    1PA    H16T 4962   0.238   0.727   3.475
    1PA    C115 4963   0.115   0.822   3.620
    1PA    H15R 4964   0.088   0.720   3.651
    1PA    H15S 4965   0.201   0.856   3.677
    1PA    C114 4966  -0.003   0.920   3.624
    1PA    H14R 4967   0.004   1.002   3.552
    1PA    H14S 4968  -0.090   0.857   3.604
    1PA    C113 4969  -0.007   0.993   3.759
    1PA    H13R 4970   0.039   0.930   3.836
    1PA    H13S 4971   0.055   1.082   3.755
    1PA    C112 4972  -0.155   1.025   3.785
    1PA    H12R 4973  -0.175   1.094   3.704
    1PA    H12S 4974  -0.221   0.938   3.781
    1PA    C111 4975  -0.158   1.083   3.927
    1PA    H11R 4976  -0.121   1.007   3.996
    1PA    H11S 4977  -0.089   1.167   3.923
    1PA    C110 4978  -0.302   1.126   3.960
    1PA    H10R 4979  -0.336   1.193   3.881
    1PA    H10S 4980  -0.352   1.029   3.959
    1PA     C19 4981  -0.316   1.196   4.096
    1PA     H9R 4982  -0.237   1.271   4.104
    1PA     H9S 4983  -0.411   1.251   4.091
    1PA     C18 4984  -0.315   1.092   4.209
    1PA     H8R 4985  -0.404   1.031   4.195
    1PA     H8S 4986  -0.226   1.033   4.184
    1PA     C17 4987  -0.297   1.164   4.343
    1PA     H7R 4988  -0.209   1.230   4.341
    1PA     H7S 4989  -0.387   1.222   4.365
    1PA     C16 4990  -0.269   1.070   4.460
    1PA     H6R 4991  -0.355   1.007   4.484
    1PA     H6S 4992  -0.187   1.001   4.435
    1PA     C15 4993  -0.230   1.139   4.591
    1PA     H5R 4994  -0.138   1.198   4.576
    1PA     H5S 4995  -0.308   1.209   4.623
    1PA     C14 4996  -0.209   1.041   4.707
    1PA     H4R 4997  -0.298   0.986   4.739
    1PA     H4S 4998  -0.132   0.976   4.666
    1PA     C13 4999  -0.140   1.099   4.831
    1PA     H3R 5000  -0.151   1.207   4.841
    1PA     H3S 5001  -0.183   1.062   4.924
    1PA     C12 5002   0.011   1.072   4.839
    1PA     H2R 5003   0.010   0.964   4.850
    1PA     H2S 5004   0.055   1.100   4.743
    2PC     C11 5005   0.069   1.135   4.963
    2PC     O12 5006   0.008   1.222   5.022
    2PC     O11 5007   0.183   1.076   5.003
    2PC      C1 5008   0.235   1.121   5.130
    2PC      HR 5009   0.250   1.229   5.119
    2PC      HS 5010   0.151   1.105   5.198
    2PC      C2 5011   0.364   1.045   5.164
    2PC      HX 5012   0.353   0.937   5.176
    2PC      C3 5013   0.430   1.078   5.299
    2PC      HA 5014   0.356   1.059   5.377
    2PC      HB 5015   0.512   1.012   5.328
    2PC     O31 5016   0.464   1.217   5.301
    2PC     P31 5017   0.511   1.283   5.440
    2PC     O32 5018   0.663   1.259   5.396
    2PC     C31 5019   0.766   1.287   5.492
    2PC     H1A 5020   0.766   1.395   5.509
    2PC     H1B 5021   0.743   1.234   5.584
    2PC     C32 5022   0.894   1.232   5.428
    2PC     H2A 5023   0.907   1.272   5.327
    2PC     H2B 5024   0.978   1.261   5.491
    2PC     N31 5025   0.914   1.085   5.407
    2PC     C33 5026   0.914   1.006   5.534
    2PC     H3A 5027   0.990   1.055   5.595
    2PC     H3B 5028   0.821   1.020   5.589
    2PC     H3C 5029   0.919   0.898   5.515
    2PC     C34 5030   0.812   1.027   5.313
    2PC     H4A 5031   0.720   1.028   5.372
    2PC     H4B 5032   0.806   1.097   5.230
    2PC     H4C 5033   0.849   0.929   5.285
    2PC     C35 5034   1.046   1.062   5.339
    2PC     H5A 5035   1.046   0.962   5.296
    2PC     H5B 5036   1.127   1.070   5.412
    2PC     H5C 5037   1.057   1.131   5.256
    2PC     O33 5038   0.472   1.422   5.475
    2PC     O34 5039   0.472   1.190   5.548
    2PC     O21 5040   0.451   1.080   5.055
    2PC     C21 5041   0.574   1.029   5.049
    2PC     O22 5042   0.614   0.929   5.106
    3OL     C12 5043   0.661   1.116   4.962
    3OL     H2R 5044   0.695   1.207   5.012
    3OL     H2S 5045   0.607   1.141   4.871
    3OL     C13 5046   0.795   1.055   4.919
    3OL     H3R 5047   0.783   0.950   4.894
    3OL     H3S 5048   0.866   1.061   5.002
    3OL     C14 5049   0.857   1.129   4.799
    3OL     H4R 5050   0.851   1.237   4.815
    3OL     H4S 5051   0.789   1.111   4.716
    3OL     C15 5052   0.999   1.078   4.772
    3OL     H5R 5053   1.005   0.971   4.757
    3OL     H5S 5054   1.066   1.106   4.853
    3OL     C16 5055   1.052   1.152   4.647
    3OL     H6R 5056   1.063   1.257   4.672
    3OL     H6S 5057   0.981   1.141   4.565
    3OL     C17 5058   1.192   1.098   4.611
    3OL     H7R 5059   1.185   0.996   4.574
    3OL     H7S 5060   1.249   1.100   4.704
    3OL     C18 5061   1.266   1.182   4.506
    3OL     H8R 5062   1.276   1.284   4.545
    3OL     H8S 5063   1.207   1.195   4.415
    3OL     C19 5064   1.406   1.130   4.486
    3OL     H9R 5065   1.476   1.146   4.567
    3OL    C110 5066   1.442   1.074   4.371
    3OL    H10R 5067   1.548   1.058   4.354
    3OL    C111 5068   1.355   1.039   4.254
    3OL    H11R 5069   1.249   1.036   4.280
    3OL    H11S 5070   1.379   0.934   4.240
    3OL    C112 5071   1.381   1.131   4.133
    3OL    H12R 5072   1.482   1.121   4.091
    3OL    H12S 5073   1.368   1.235   4.164
    3OL    C113 5074   1.279   1.117   4.019
    3OL    H13R 5075   1.258   1.011   4.006
    3OL    H13S 5076   1.317   1.155   3.924
    3OL    C114 5077   1.144   1.181   4.053
    3OL    H14R 5078   1.178   1.278   4.092
    3OL    H14S 5079   1.094   1.132   4.137
    3OL    C115 5080   1.062   1.203   3.925
    3OL    H15R 5081   1.027   1.112   3.875
    3OL    H15S 5082   1.112   1.256   3.844
    3OL    C116 5083   0.935   1.278   3.968
    3OL    H16R 5084   0.976   1.353   4.036
    3OL    H16S 5085   0.871   1.209   4.024
    3OL    C117 5086   0.861   1.335   3.846
    3OL    H17R 5087   0.836   1.262   3.769
    3OL    H17S 5088   0.941   1.393   3.801
    3OL    C118 5089   0.738   1.426   3.866
    3OL    H18R 5090   0.661   1.371   3.920
    3OL    H18S 5091   0.697   1.463   3.772
    3OL    H18T 5092   0.762   1.513   3.928
    1PA    C116 5093   4.431   3.672   3.926
    1PA    H16R 5094   4.403   3.690   3.822
    1PA    H16S 5095   4.491   3.754   3.967
    1PA    H16T 5096   4.339   3.669   3.984
    1PA    C115 5097   4.509   3.539   3.934
    1PA    H15R 5098   4.439   3.467   3.891
    1PA    H15S 5099   4.599   3.553   3.874
    1PA    C114 5100   4.541   3.497   4.078
    1PA    H14R 5101   4.448   3.472   4.129
    1PA    H14S 5102   4.596   3.403   4.080
    1PA    C113 5103   4.602   3.606   4.167
    1PA    H13R 5104   4.680   3.659   4.111
    1PA    H13S 5105   4.528   3.685   4.179
    1PA    C112 5106   4.640   3.554   4.307
    1PA    H12R 5107   4.652   3.634   4.380
    1PA    H12S 5108   4.552   3.498   4.341
    1PA    C111 5109   4.764   3.465   4.304
    1PA    H11R 5110   4.750   3.379   4.238
    1PA    H11S 5111   4.849   3.525   4.269
    1PA    C110 5112   4.795   3.419   4.447
    1PA    H10R 5113   4.697   3.411   4.494
    1PA    H10S 5114   4.829   3.315   4.446
    1PA     C19 5115   4.895   3.509   4.521
    1PA     H9R 5116   4.986   3.515   4.460
    1PA     H9S 5117   4.859   3.611   4.535
    1PA     C18 5118   4.943   3.442   4.651
    1PA     H8R 5119   4.859   3.412   4.713
    1PA     H8S 5120   5.003   3.351   4.640
    1PA     C17 5121   5.032   3.541   4.728
    1PA     H7R 5122   5.088   3.602   4.657
    1PA     H7S 5123   4.958   3.596   4.786
    1PA     C16 5124   5.125   3.474   4.830
    1PA     H6R 5125   5.062   3.428   4.907
    1PA     H6S 5126   5.171   3.386   4.785
    1PA     C15 5127   5.228   3.576   4.879
    1PA     H5R 5128   5.277   3.633   4.800
    1PA     H5S 5129   5.174   3.648   4.941
    1PA     C14 5130   5.313   3.504   4.985
    1PA     H4R 5131   5.256   3.453   5.063
    1PA     H4S 5132   5.365   3.421   4.937
    1PA     C13 5133   5.422   3.600   5.033
    1PA     H3R 5134   5.490   3.631   4.953
    1PA     H3S 5135   5.369   3.692   5.059
    1PA     C12 5136   5.496   3.539   5.154
    1PA     H2R 5137   5.422   3.525   5.233
    1PA     H2S 5138   5.546   3.444   5.135
    2PC     C11 5139   5.598   3.634   5.211
    2PC     O12 5140   5.648   3.732   5.160
    2PC     O11 5141   5.645   3.597   5.331
    2PC      C1 5142   5.755   3.669   5.389
    2PC      HR 5143   5.840   3.671   5.320
    2PC      HS 5144   5.724   3.773   5.405
    2PC      C2 5145   5.798   3.595   5.516
    2PC      HX 5146   5.709   3.597   5.579
    2PC      C3 5147   5.921   3.655   5.585
    2PC      HA 5148   6.000   3.654   5.510
    2PC      HB 5149   5.887   3.756   5.612
    2PC     O31 5150   5.951   3.589   5.709
    2PC     P31 5151   6.067   3.636   5.809
    2PC     O32 5152   6.199   3.645   5.719
    2PC     C31 5153   6.310   3.555   5.737
    2PC     H1A 5154   6.332   3.550   5.844
    2PC     H1B 5155   6.271   3.460   5.698
    2PC     C32 5156   6.428   3.598   5.650
    2PC     H2A 5157   6.394   3.627   5.550
    2PC     H2B 5158   6.474   3.681   5.704
    2PC     N31 5159   6.528   3.491   5.622
    2PC     C33 5160   6.591   3.444   5.750
    2PC     H3A 5161   6.528   3.378   5.810
    2PC     H3B 5162   6.681   3.390   5.724
    2PC     H3C 5163   6.626   3.531   5.806
    2PC     C34 5164   6.481   3.366   5.553
    2PC     H4A 5165   6.431   3.304   5.627
    2PC     H4B 5166   6.414   3.404   5.475
    2PC     H4C 5167   6.562   3.306   5.512
    2PC     C35 5168   6.644   3.549   5.546
    2PC     H5A 5169   6.708   3.592   5.623
    2PC     H5B 5170   6.605   3.637   5.495
    2PC     H5C 5171   6.692   3.471   5.486
    2PC     O33 5172   6.026   3.757   5.883
    2PC     O34 5173   6.092   3.526   5.904
    2PC     O21 5174   5.814   3.457   5.478
    2PC     C21 5175   5.909   3.424   5.389
    2PC     O22 5176   5.979   3.501   5.327
    3OL     C12 5177   5.906   3.275   5.361
    3OL     H2R 5178   5.802   3.241   5.351
    3OL     H2S 5179   5.949   3.223   5.446
    3OL     C13 5180   5.979   3.235   5.232
    3OL     H3R 5181   5.992   3.127   5.226
    3OL     H3S 5182   6.074   3.288   5.229
    3OL     C14 5183   5.892   3.282   5.114
    3OL     H4R 5184   5.871   3.388   5.126
    3OL     H4S 5185   5.798   3.226   5.125
    3OL     C15 5186   5.961   3.251   4.981
    3OL     H5R 5187   5.991   3.146   4.976
    3OL     H5S 5188   6.049   3.314   4.969
    3OL     C16 5189   5.868   3.290   4.866
    3OL     H6R 5190   5.856   3.399   4.870
    3OL     H6S 5191   5.766   3.251   4.861
    3OL     C17 5192   5.938   3.276   4.730
    3OL     H7R 5193   5.965   3.171   4.715
    3OL     H7S 5194   6.035   3.325   4.721
    3OL     C18 5195   5.839   3.294   4.615
    3OL     H8R 5196   5.741   3.250   4.635
    3OL     H8S 5197   5.877   3.250   4.522
    3OL     C19 5198   5.812   3.440   4.591
    3OL     H9R 5199   5.896   3.494   4.549
    3OL    C110 5200   5.698   3.503   4.617
    3OL    H10R 5201   5.698   3.604   4.576
    3OL    C111 5202   5.570   3.445   4.669
    3OL    H11R 5203   5.571   3.501   4.763
    3OL    H11S 5204   5.566   3.341   4.705
    3OL    C112 5205   5.444   3.481   4.589
    3OL    H12R 5206   5.408   3.584   4.602
    3OL    H12S 5207   5.359   3.422   4.625
    3OL    C113 5208   5.463   3.469   4.438
    3OL    H13R 5209   5.524   3.381   4.415
    3OL    H13S 5210   5.515   3.553   4.391
    3OL    C114 5211   5.330   3.447   4.365
    3OL    H14R 5212   5.274   3.541   4.362
    3OL    H14S 5213   5.259   3.388   4.423
    3OL    C115 5214   5.353   3.397   4.222
    3OL    H15R 5215   5.395   3.296   4.227
    3OL    H15S 5216   5.427   3.464   4.177
    3OL    C116 5217   5.216   3.383   4.154
    3OL    H16R 5218   5.158   3.315   4.217
    3OL    H16S 5219   5.233   3.351   4.051
    3OL    C117 5220   5.139   3.516   4.143
    3OL    H17R 5221   5.210   3.590   4.106
    3OL    H17S 5222   5.111   3.552   4.243
    3OL    C118 5223   5.025   3.506   4.041
    3OL    H18R 5224   4.985   3.608   4.046
    3OL    H18S 5225   4.954   3.424   4.051
    3OL    H18T 5226   5.061   3.495   3.939
    1PA    C116 5227   3.339  -1.366   4.112
    1PA    H16R 5228   3.427  -1.359   4.047
    1PA    H16S 5229   3.257  -1.333   4.049
    1PA    H16T 5230   3.332  -1.472   4.139
    1PA    C115 5231   3.346  -1.285   4.242
    1PA    H15R 5232   3.420  -1.321   4.314
    1PA    H15S 5233   3.365  -1.180   4.220
    1PA    C114 5234   3.214  -1.292   4.320
    1PA    H14R 5235   3.128  -1.253   4.263
    1PA    H14S 5236   3.189  -1.398   4.328
    1PA    C113 5237   3.211  -1.217   4.454
    1PA    H13R 5238   3.110  -1.224   4.493
    1PA    H13S 5239   3.272  -1.271   4.527
    1PA    C112 5240   3.251  -1.069   4.450
    1PA    H12R 5241   3.357  -1.072   4.424
    1PA    H12S 5242   3.194  -1.024   4.369
    1PA    C111 5243   3.229  -0.999   4.586
    1PA    H11R 5244   3.121  -0.990   4.596
    1PA    H11S 5245   3.268  -1.058   4.669
    1PA    C110 5246   3.303  -0.865   4.583
    1PA    H10R 5247   3.406  -0.891   4.559
    1PA    H10S 5248   3.253  -0.799   4.512
    1PA     C19 5249   3.308  -0.801   4.723
    1PA     H9R 5250   3.363  -0.861   4.796
    1PA     H9S 5251   3.364  -0.708   4.707
    1PA     C18 5252   3.172  -0.770   4.785
    1PA     H8R 5253   3.115  -0.724   4.705
    1PA     H8S 5254   3.116  -0.861   4.809
    1PA     C17 5255   3.193  -0.672   4.902
    1PA     H7R 5256   3.230  -0.736   4.983
    1PA     H7S 5257   3.272  -0.598   4.887
    1PA     C16 5258   3.057  -0.614   4.945
    1PA     H6R 5259   3.006  -0.566   4.862
    1PA     H6S 5260   2.994  -0.691   4.990
    1PA     C15 5261   3.080  -0.507   5.052
    1PA     H5R 5262   3.106  -0.560   5.144
    1PA     H5S 5263   3.162  -0.438   5.028
    1PA     C14 5264   2.951  -0.428   5.077
    1PA     H4R 5265   2.922  -0.367   4.991
    1PA     H4S 5266   2.868  -0.498   5.089
    1PA     C13 5267   2.959  -0.334   5.198
    1PA     H3R 5268   2.865  -0.315   5.250
    1PA     H3S 5269   3.021  -0.382   5.275
    1PA     C12 5270   3.026  -0.202   5.159
    1PA     H2R 5271   3.131  -0.221   5.135
    1PA     H2S 5272   2.979  -0.160   5.070
    2PC     C11 5273   3.010  -0.102   5.271
    2PC     O12 5274   2.905  -0.054   5.307
    2PC     O11 5275   3.128  -0.082   5.332
    2PC      C1 5276   3.130   0.006   5.446
    2PC      HR 5277   3.072   0.096   5.424
    2PC      HS 5278   3.092  -0.045   5.535
    2PC      C2 5279   3.275   0.052   5.465
    2PC      HX 5280   3.351  -0.027   5.462
    2PC      C3 5281   3.296   0.143   5.586
    2PC      HA 5282   3.304   0.083   5.677
    2PC      HB 5283   3.386   0.204   5.583
    2PC     O31 5284   3.182   0.228   5.611
    2PC     P31 5285   3.167   0.312   5.747
    2PC     O32 5286   3.257   0.441   5.717
    2PC     C31 5287   3.273   0.545   5.816
    2PC     H1A 5288   3.178   0.575   5.862
    2PC     H1B 5289   3.337   0.503   5.894
    2PC     C32 5290   3.336   0.670   5.754
    2PC     H2A 5291   3.423   0.642   5.695
    2PC     H2B 5292   3.269   0.717   5.682
    2PC     N31 5293   3.384   0.779   5.846
    2PC     C33 5294   3.429   0.889   5.755
    2PC     H3A 5295   3.492   0.842   5.679
    2PC     H3B 5296   3.343   0.939   5.711
    2PC     H3C 5297   3.490   0.965   5.805
    2PC     C34 5298   3.272   0.826   5.934
    2PC     H4A 5299   3.181   0.838   5.876
    2PC     H4B 5300   3.256   0.745   6.006
    2PC     H4C 5301   3.299   0.917   5.986
    2PC     C35 5302   3.504   0.741   5.926
    2PC     H5A 5303   3.477   0.657   5.990
    2PC     H5B 5304   3.534   0.830   5.983
    2PC     H5C 5305   3.588   0.724   5.859
    2PC     O33 5306   3.025   0.350   5.766
    2PC     O34 5307   3.216   0.235   5.863
    2PC     O21 5308   3.311   0.139   5.356
    2PC     C21 5309   3.441   0.168   5.338
    2PC     O22 5310   3.541   0.117   5.384
    3OL     C12 5311   3.454   0.287   5.247
    3OL     H2R 5312   3.534   0.356   5.275
    3OL     H2S 5313   3.365   0.349   5.260
    3OL     C13 5314   3.479   0.246   5.101
    3OL     H3R 5315   3.404   0.177   5.061
    3OL     H3S 5316   3.571   0.189   5.092
    3OL     C14 5317   3.478   0.372   5.013
    3OL     H4R 5318   3.557   0.436   5.053
    3OL     H4S 5319   3.384   0.425   5.033
    3OL     C15 5320   3.503   0.333   4.866
    3OL     H5R 5321   3.433   0.257   4.830
    3OL     H5S 5322   3.597   0.281   4.882
    3OL     C16 5323   3.505   0.455   4.774
    3OL     H6R 5324   3.571   0.523   4.828
    3OL     H6S 5325   3.409   0.507   4.773
    3OL     C17 5326   3.546   0.433   4.628
    3OL     H7R 5327   3.468   0.393   4.563
    3OL     H7S 5328   3.628   0.363   4.612
    3OL     C18 5329   3.585   0.567   4.563
    3OL     H8R 5330   3.659   0.619   4.625
    3OL     H8S 5331   3.496   0.630   4.560
    3OL     C19 5332   3.631   0.532   4.424
    3OL     H9R 5333   3.579   0.453   4.372
    3OL    C110 5334   3.743   0.576   4.368
    3OL    H10R 5335   3.768   0.548   4.267
    3OL    C111 5336   3.824   0.688   4.429
    3OL    H11R 5337   3.774   0.732   4.516
    3OL    H11S 5338   3.847   0.760   4.351
    3OL    C112 5339   3.955   0.642   4.493
    3OL    H12R 5340   4.019   0.604   4.412
    3OL    H12S 5341   3.934   0.559   4.561
    3OL    C113 5342   4.025   0.756   4.568
    3OL    H13R 5343   3.974   0.790   4.659
    3OL    H13S 5344   4.050   0.842   4.506
    3OL    C114 5345   4.158   0.701   4.623
    3OL    H14R 5346   4.227   0.679   4.541
    3OL    H14S 5347   4.150   0.610   4.683
    3OL    C115 5348   4.232   0.805   4.708
    3OL    H15R 5349   4.162   0.873   4.758
    3OL    H15S 5350   4.295   0.854   4.634
    3OL    C116 5351   4.321   0.744   4.818
    3OL    H16R 5352   4.412   0.696   4.783
    3OL    H16S 5353   4.262   0.668   4.870
    3OL    C117 5354   4.367   0.840   4.929
    3OL    H17R 5355   4.450   0.798   4.986
    3OL    H17S 5356   4.283   0.846   4.999
    3OL    C118 5357   4.408   0.982   4.887
    3OL    H18R 5358   4.488   0.976   4.813
    3OL    H18S 5359   4.443   1.044   4.970
    3OL    H18T 5360   4.332   1.043   4.839
    1PA    C116 5361   4.355   3.506   3.286
    1PA    H16R 5362   4.328   3.401   3.298
    1PA    H16S 5363   4.444   3.528   3.345
    1PA    H16T 5364   4.371   3.521   3.179
    1PA    C115 5365   4.244   3.595   3.343
    1PA    H15R 5366   4.294   3.692   3.349
    1PA    H15S 5367   4.158   3.592   3.275
    1PA    C114 5368   4.205   3.553   3.485
    1PA    H14R 5369   4.173   3.449   3.491
    1PA    H14S 5370   4.299   3.557   3.541
    1PA    C113 5371   4.099   3.646   3.547
    1PA    H13R 5372   4.130   3.750   3.532
    1PA    H13S 5373   4.004   3.636   3.494
    1PA    C112 5374   4.063   3.610   3.691
    1PA    H12R 5375   4.024   3.508   3.686
    1PA    H12S 5376   4.155   3.610   3.751
    1PA    C111 5377   3.967   3.710   3.755
    1PA    H11R 5378   4.002   3.813   3.743
    1PA    H11S 5379   3.873   3.698   3.700
    1PA    C110 5380   3.943   3.664   3.900
    1PA    H10R 5381   3.893   3.567   3.905
    1PA    H10S 5382   4.035   3.648   3.958
    1PA     C19 5383   3.859   3.771   3.971
    1PA     H9R 5384   3.903   3.871   3.972
    1PA     H9S 5385   3.769   3.788   3.911
    1PA     C18 5386   3.825   3.753   4.119
    1PA     H8R 5387   3.774   3.658   4.139
    1PA     H8S 5388   3.915   3.760   4.180
    1PA     C17 5389   3.736   3.871   4.163
    1PA     H7R 5390   3.790   3.959   4.128
    1PA     H7S 5391   3.637   3.868   4.119
    1PA     C16 5392   3.733   3.890   4.315
    1PA     H6R 5393   3.834   3.868   4.352
    1PA     H6S 5394   3.707   3.994   4.338
    1PA     C15 5395   3.627   3.803   4.384
    1PA     H5R 5396   3.536   3.801   4.324
    1PA     H5S 5397   3.649   3.696   4.380
    1PA     C14 5398   3.600   3.863   4.522
    1PA     H4R 5399   3.611   3.972   4.521
    1PA     H4S 5400   3.498   3.841   4.555
    1PA     C13 5401   3.699   3.817   4.630
    1PA     H3R 5402   3.681   3.711   4.648
    1PA     H3S 5403   3.798   3.829   4.583
    1PA     C12 5404   3.688   3.889   4.764
    1PA     H2R 5405   3.717   3.994   4.750
    1PA     H2S 5406   3.584   3.875   4.794
    2PC     C11 5407   3.773   3.838   4.878
    2PC     O12 5408   3.803   3.897   4.980
    2PC     O11 5409   3.830   3.719   4.855
    2PC      C1 5410   3.910   3.656   4.957
    2PC      HR 5411   3.964   3.570   4.917
    2PC      HS 5412   3.998   3.719   4.973
    2PC      C2 5413   3.833   3.619   5.084
    2PC      HX 5414   3.784   3.707   5.125
    2PC      C3 5415   3.932   3.570   5.191
    2PC      HA 5416   4.007   3.649   5.198
    2PC      HB 5417   3.870   3.553   5.279
    2PC     O31 5418   3.991   3.445   5.149
    2PC     P31 5419   4.073   3.354   5.252
    2PC     O32 5420   3.972   3.336   5.376
    2PC     C31 5421   3.878   3.228   5.387
    2PC     H1A 5422   3.824   3.209   5.294
    2PC     H1B 5423   3.925   3.141   5.435
    2PC     C32 5424   3.762   3.263   5.482
    2PC     H2A 5425   3.703   3.342   5.435
    2PC     H2B 5426   3.696   3.177   5.492
    2PC     N31 5427   3.796   3.323   5.615
    2PC     C33 5428   3.914   3.255   5.678
    2PC     H3A 5429   3.926   3.267   5.786
    2PC     H3B 5430   3.896   3.149   5.663
    2PC     H3C 5431   4.006   3.289   5.630
    2PC     C34 5432   3.817   3.470   5.600
    2PC     H4A 5433   3.736   3.521   5.547
    2PC     H4B 5434   3.838   3.508   5.700
    2PC     H4C 5435   3.909   3.481   5.544
    2PC     C35 5436   3.678   3.299   5.706
    2PC     H5A 5437   3.592   3.363   5.683
    2PC     H5B 5438   3.704   3.319   5.810
    2PC     H5C 5439   3.649   3.195   5.702
    2PC     O33 5440   4.104   3.219   5.199
    2PC     O34 5441   4.202   3.403   5.304
    2PC     O21 5442   3.731   3.523   5.051
    2PC     C21 5443   3.650   3.476   5.147
    2PC     O22 5444   3.620   3.531   5.251
    3OL     C12 5445   3.565   3.360   5.100
    3OL     H2R 5446   3.463   3.395   5.080
    3OL     H2S 5447   3.556   3.291   5.184
    3OL     C13 5448   3.628   3.278   4.987
    3OL     H3R 5449   3.719   3.230   5.023
    3OL     H3S 5450   3.663   3.353   4.915
    3OL     C14 5451   3.531   3.179   4.920
    3OL     H4R 5452   3.438   3.225   4.886
    3OL     H4S 5453   3.509   3.100   4.992
    3OL     C15 5454   3.599   3.116   4.798
    3OL     H5R 5455   3.694   3.067   4.821
    3OL     H5S 5456   3.619   3.191   4.722
    3OL     C16 5457   3.496   3.021   4.736
    3OL     H6R 5458   3.417   3.067   4.676
    3OL     H6S 5459   3.450   2.959   4.814
    3OL     C17 5460   3.565   2.932   4.632
    3OL     H7R 5461   3.645   2.867   4.669
    3OL     H7S 5462   3.599   3.000   4.553
    3OL     C18 5463   3.461   2.843   4.563
    3OL     H8R 5464   3.370   2.898   4.541
    3OL     H8S 5465   3.446   2.756   4.628
    3OL     C19 5466   3.518   2.789   4.434
    3OL     H9R 5467   3.605   2.725   4.445
    3OL    C110 5468   3.487   2.834   4.313
    3OL    H10R 5469   3.545   2.789   4.233
    3OL    C111 5470   3.389   2.945   4.287
    3OL    H11R 5471   3.449   3.036   4.294
    3OL    H11S 5472   3.308   2.953   4.360
    3OL    C112 5473   3.322   2.931   4.150
    3OL    H12R 5474   3.248   3.008   4.128
    3OL    H12S 5475   3.273   2.833   4.159
    3OL    C113 5476   3.425   2.922   4.037
    3OL    H13R 5477   3.484   2.831   4.042
    3OL    H13S 5478   3.488   3.012   4.040
    3OL    C114 5479   3.361   2.903   3.899
    3OL    H14R 5480   3.320   2.802   3.892
    3OL    H14S 5481   3.439   2.912   3.823
    3OL    C115 5482   3.254   3.009   3.871
    3OL    H15R 5483   3.288   3.104   3.913
    3OL    H15S 5484   3.160   2.983   3.921
    3OL    C116 5485   3.225   3.044   3.724
    3OL    H16R 5486   3.311   3.068   3.663
    3OL    H16S 5487   3.147   3.120   3.715
    3OL    C117 5488   3.149   2.927   3.660
    3OL    H17R 5489   3.056   2.910   3.715
    3OL    H17S 5490   3.208   2.835   3.665
    3OL    C118 5491   3.117   2.960   3.514
    3OL    H18R 5492   3.063   3.050   3.484
    3OL    H18S 5493   3.058   2.885   3.461
    3OL    H18T 5494   3.211   2.975   3.461
    1PA    C116 5495  -0.038   2.761   4.152
    1PA    H16R 5496  -0.084   2.845   4.204
    1PA    H16S 5497   0.004   2.693   4.227
    1PA    H16T 5498  -0.115   2.704   4.100
    1PA    C115 5499   0.071   2.808   4.055
    1PA    H15R 5500   0.123   2.719   4.021
    1PA    H15S 5501   0.028   2.845   3.962
    1PA    C114 5502   0.173   2.908   4.110
    1PA    H14R 5503   0.215   2.877   4.206
    1PA    H14S 5504   0.251   2.922   4.035
    1PA    C113 5505   0.112   3.048   4.132
    1PA    H13R 5506   0.086   3.067   4.028
    1PA    H13S 5507   0.014   3.038   4.180
    1PA    C112 5508   0.214   3.143   4.195
    1PA    H12R 5509   0.303   3.132   4.132
    1PA    H12S 5510   0.173   3.242   4.173
    1PA    C111 5511   0.226   3.113   4.345
    1PA    H11R 5512   0.131   3.091   4.393
    1PA    H11S 5513   0.287   3.024   4.356
    1PA    C110 5514   0.306   3.227   4.412
    1PA    H10R 5515   0.399   3.252   4.362
    1PA    H10S 5516   0.241   3.314   4.413
    1PA     C19 5517   0.334   3.189   4.558
    1PA     H9R 5518   0.240   3.175   4.613
    1PA     H9S 5519   0.377   3.089   4.554
    1PA     C18 5520   0.422   3.291   4.631
    1PA     H8R 5521   0.505   3.316   4.565
    1PA     H8S 5522   0.365   3.383   4.646
    1PA     C17 5523   0.484   3.241   4.763
    1PA     H7R 5524   0.409   3.206   4.834
    1PA     H7S 5525   0.538   3.150   4.738
    1PA     C16 5526   0.576   3.344   4.829
    1PA     H6R 5527   0.665   3.350   4.766
    1PA     H6S 5528   0.531   3.444   4.831
    1PA     C15 5529   0.618   3.301   4.970
    1PA     H5R 5530   0.666   3.389   5.014
    1PA     H5S 5531   0.528   3.262   5.019
    1PA     C14 5532   0.714   3.182   4.963
    1PA     H4R 5533   0.668   3.092   4.922
    1PA     H4S 5534   0.799   3.204   4.898
    1PA     C13 5535   0.769   3.145   5.102
    1PA     H3R 5536   0.830   3.227   5.141
    1PA     H3S 5537   0.677   3.105   5.146
    1PA     C12 5538   0.859   3.021   5.108
    1PA     H2R 5539   0.830   2.947   5.034
    1PA     H2S 5540   0.959   3.057   5.084
    2PC     C11 5541   0.860   2.952   5.242
    2PC     O12 5542   0.773   2.952   5.327
    2PC     O11 5543   0.972   2.880   5.261
    2PC      C1 5544   0.995   2.823   5.392
    2PC      HR 5545   1.104   2.812   5.395
    2PC      HS 5546   0.960   2.893   5.469
    2PC      C2 5547   0.932   2.684   5.406
    2PC      HX 5548   0.826   2.682   5.378
    2PC      C3 5549   0.917   2.645   5.554
    2PC      HA 5550   1.001   2.592   5.599
    2PC      HB 5551   0.892   2.739   5.606
    2PC     O31 5552   0.801   2.560   5.569
    2PC     P31 5553   0.763   2.500   5.713
    2PC     O32 5554   0.730   2.637   5.788
    2PC     C31 5555   0.652   2.632   5.909
    2PC     H1A 5556   0.666   2.535   5.956
    2PC     H1B 5557   0.690   2.713   5.972
    2PC     C32 5558   0.506   2.659   5.867
    2PC     H2A 5559   0.484   2.582   5.793
    2PC     H2B 5560   0.426   2.647   5.940
    2PC     N31 5561   0.477   2.794   5.809
    2PC     C33 5562   0.519   2.896   5.910
    2PC     H3A 5563   0.628   2.888   5.906
    2PC     H3B 5564   0.480   2.993   5.878
    2PC     H3C 5565   0.475   2.869   6.006
    2PC     C34 5566   0.544   2.813   5.677
    2PC     H4A 5567   0.524   2.908   5.627
    2PC     H4B 5568   0.649   2.822   5.704
    2PC     H4C 5569   0.512   2.726   5.619
    2PC     C35 5570   0.330   2.804   5.780
    2PC     H5A 5571   0.306   2.724   5.711
    2PC     H5B 5572   0.314   2.895   5.722
    2PC     H5C 5573   0.268   2.800   5.870
    2PC     O33 5574   0.652   2.403   5.723
    2PC     O34 5575   0.881   2.440   5.779
    2PC     O21 5576   1.016   2.592   5.335
    2PC     C21 5577   0.981   2.548   5.213
    2PC     O22 5578   0.883   2.586   5.153
    3OL     C12 5579   1.091   2.459   5.158
    3OL     H2R 5580   1.114   2.388   5.237
    3OL     H2S 5581   1.180   2.521   5.143
    3OL     C13 5582   1.062   2.399   5.020
    3OL     H3R 5583   1.094   2.474   4.948
    3OL     H3S 5584   0.955   2.381   5.013
    3OL     C14 5585   1.136   2.267   4.997
    3OL     H4R 5586   1.093   2.193   5.064
    3OL     H4S 5587   1.241   2.275   5.026
    3OL     C15 5588   1.131   2.222   4.850
    3OL     H5R 5589   1.035   2.248   4.806
    3OL     H5S 5590   1.155   2.116   4.844
    3OL     C16 5591   1.243   2.282   4.763
    3OL     H6R 5592   1.329   2.290   4.829
    3OL     H6S 5593   1.210   2.383   4.740
    3OL     C17 5594   1.277   2.193   4.642
    3OL     H7R 5595   1.183   2.179   4.588
    3OL     H7S 5596   1.308   2.098   4.684
    3OL     C18 5597   1.396   2.251   4.564
    3OL     H8R 5598   1.434   2.183   4.488
    3OL     H8S 5599   1.483   2.266   4.627
    3OL     C19 5600   1.362   2.390   4.515
    3OL     H9R 5601   1.290   2.449   4.570
    3OL    C110 5602   1.409   2.456   4.410
    3OL    H10R 5603   1.374   2.557   4.391
    3OL    C111 5604   1.527   2.415   4.326
    3OL    H11R 5605   1.569   2.321   4.363
    3OL    H11S 5606   1.612   2.484   4.333
    3OL    C112 5607   1.486   2.405   4.178
    3OL    H12R 5608   1.388   2.362   4.161
    3OL    H12S 5609   1.556   2.342   4.123
    3OL    C113 5610   1.484   2.543   4.110
    3OL    H13R 5611   1.586   2.581   4.102
    3OL    H13S 5612   1.411   2.615   4.147
    3OL    C114 5613   1.453   2.523   3.961
    3OL    H14R 5614   1.356   2.474   3.955
    3OL    H14S 5615   1.532   2.455   3.928
    3OL    C115 5616   1.456   2.650   3.875
    3OL    H15R 5617   1.558   2.689   3.876
    3OL    H15S 5618   1.397   2.720   3.935
    3OL    C116 5619   1.397   2.627   3.735
    3OL    H16R 5620   1.299   2.584   3.757
    3OL    H16S 5621   1.442   2.551   3.671
    3OL    C117 5622   1.373   2.767   3.675
    3OL    H17R 5623   1.460   2.831   3.687
    3OL    H17S 5624   1.292   2.824   3.720
    3OL    C118 5625   1.345   2.753   3.525
    3OL    H18R 5626   1.337   2.855   3.487
    3OL    H18S 5627   1.250   2.700   3.513
    3OL    H18T 5628   1.424   2.706   3.467
    1PA    C116 5629   1.935   2.486   4.091
    1PA    H16R 5630   1.865   2.546   4.033
    1PA    H16S 5631   1.974   2.412   4.021
    1PA    H16T 5632   2.022   2.547   4.119
    1PA    C115 5633   1.875   2.417   4.214
    1PA    H15R 5634   1.836   2.493   4.281
    1PA    H15S 5635   1.786   2.360   4.185
    1PA    C114 5636   1.976   2.327   4.286
    1PA    H14R 5637   2.064   2.377   4.328
    1PA    H14S 5638   1.932   2.277   4.373
    1PA    C113 5639   2.028   2.213   4.199
    1PA    H13R 5640   2.104   2.254   4.132
    1PA    H13S 5641   2.081   2.144   4.265
    1PA    C112 5642   1.933   2.131   4.111
    1PA    H12R 5643   1.884   2.191   4.034
    1PA    H12S 5644   1.995   2.076   4.040
    1PA    C111 5645   1.828   2.054   4.192
    1PA    H11R 5646   1.891   2.003   4.266
    1PA    H11S 5647   1.765   2.126   4.245
    1PA    C110 5648   1.748   1.947   4.116
    1PA    H10R 5649   1.812   1.921   4.031
    1PA    H10S 5650   1.733   1.854   4.170
    1PA     C19 5651   1.620   1.997   4.047
    1PA     H9R 5652   1.631   2.102   4.020
    1PA     H9S 5653   1.597   1.935   3.960
    1PA     C18 5654   1.514   1.976   4.156
    1PA     H8R 5655   1.525   1.872   4.187
    1PA     H8S 5656   1.541   2.032   4.246
    1PA     C17 5657   1.374   2.007   4.100
    1PA     H7R 5658   1.365   2.111   4.067
    1PA     H7S 5659   1.359   1.939   4.017
    1PA     C16 5660   1.270   1.998   4.212
    1PA     H6R 5661   1.255   2.097   4.257
    1PA     H6S 5662   1.172   1.978   4.169
    1PA     C15 5663   1.303   1.911   4.334
    1PA     H5R 5664   1.332   1.809   4.307
    1PA     H5S 5665   1.383   1.954   4.394
    1PA     C14 5666   1.183   1.897   4.429
    1PA     H4R 5667   1.146   1.997   4.454
    1PA     H4S 5668   1.099   1.842   4.385
    1PA     C13 5669   1.232   1.817   4.550
    1PA     H3R 5670   1.259   1.717   4.516
    1PA     H3S 5671   1.326   1.866   4.576
    1PA     C12 5672   1.130   1.808   4.665
    1PA     H2R 5673   1.073   1.899   4.685
    1PA     H2S 5674   1.072   1.719   4.637
    2PC     C11 5675   1.201   1.780   4.795
    2PC     O12 5676   1.210   1.859   4.886
    2PC     O11 5677   1.253   1.656   4.791
    2PC      C1 5678   1.298   1.595   4.913
    2PC      HR 5679   1.385   1.648   4.952
    2PC      HS 5680   1.219   1.591   4.988
    2PC      C2 5681   1.356   1.456   4.882
    2PC      HX 5682   1.276   1.390   4.846
    2PC      C3 5683   1.415   1.390   5.007
    2PC      HA 5684   1.332   1.348   5.065
    2PC      HB 5685   1.474   1.300   4.990
    2PC     O31 5686   1.493   1.480   5.088
    2PC     P31 5687   1.573   1.431   5.218
    2PC     O32 5688   1.465   1.427   5.337
    2PC     C31 5689   1.454   1.541   5.424
    2PC     H1A 5690   1.374   1.519   5.496
    2PC     H1B 5691   1.545   1.548   5.485
    2PC     C32 5692   1.414   1.665   5.343
    2PC     H2A 5693   1.505   1.705   5.297
    2PC     H2B 5694   1.348   1.644   5.260
    2PC     N31 5695   1.359   1.783   5.418
    2PC     C33 5696   1.228   1.758   5.486
    2PC     H3A 5697   1.142   1.753   5.419
    2PC     H3B 5698   1.224   1.677   5.558
    2PC     H3C 5699   1.216   1.849   5.545
    2PC     C34 5700   1.455   1.834   5.522
    2PC     H4A 5701   1.550   1.862   5.476
    2PC     H4B 5702   1.416   1.927   5.564
    2PC     H4C 5703   1.462   1.752   5.593
    2PC     C35 5704   1.339   1.894   5.319
    2PC     H5A 5705   1.275   1.969   5.366
    2PC     H5B 5706   1.284   1.847   5.237
    2PC     H5C 5707   1.429   1.947   5.287
    2PC     O33 5708   1.642   1.303   5.188
    2PC     O34 5709   1.680   1.531   5.238
    2PC     O21 5710   1.463   1.482   4.788
    2PC     C21 5711   1.518   1.388   4.710
    2PC     O22 5712   1.508   1.269   4.728
    3OL     C12 5713   1.607   1.450   4.604
    3OL     H2R 5714   1.708   1.410   4.606
    3OL     H2S 5715   1.616   1.555   4.634
    3OL     C13 5716   1.554   1.437   4.461
    3OL     H3R 5717   1.445   1.422   4.464
    3OL     H3S 5718   1.591   1.353   4.401
    3OL     C14 5719   1.587   1.556   4.370
    3OL     H4R 5720   1.694   1.574   4.358
    3OL     H4S 5721   1.562   1.645   4.427
    3OL     C15 5722   1.511   1.556   4.237
    3OL     H5R 5723   1.506   1.657   4.197
    3OL     H5S 5724   1.411   1.520   4.261
    3OL     C16 5725   1.586   1.470   4.134
    3OL     H6R 5726   1.587   1.370   4.178
    3OL     H6S 5727   1.684   1.514   4.116
    3OL     C17 5728   1.501   1.468   4.006
    3OL     H7R 5729   1.504   1.576   3.986
    3OL     H7S 5730   1.396   1.443   4.023
    3OL     C18 5731   1.574   1.378   3.906
    3OL     H8R 5732   1.591   1.282   3.954
    3OL     H8S 5733   1.679   1.401   3.886
    3OL     C19 5734   1.497   1.347   3.780
    3OL     H9R 5735   1.395   1.313   3.797
    3OL    C110 5736   1.545   1.362   3.657
    3OL    H10R 5737   1.476   1.327   3.581
    3OL    C111 5738   1.683   1.397   3.608
    3OL    H11R 5739   1.744   1.318   3.652
    3OL    H11S 5740   1.705   1.492   3.658
    3OL    C112 5741   1.694   1.411   3.455
    3OL    H12R 5742   1.681   1.312   3.411
    3OL    H12S 5743   1.798   1.440   3.440
    3OL    C113 5744   1.596   1.510   3.391
    3OL    H13R 5745   1.619   1.603   3.444
    3OL    H13S 5746   1.490   1.487   3.404
    3OL    C114 5747   1.611   1.528   3.239
    3OL    H14R 5748   1.542   1.608   3.211
    3OL    H14S 5749   1.586   1.433   3.192
    3OL    C115 5750   1.756   1.564   3.206
    3OL    H15R 5751   1.824   1.479   3.220
    3OL    H15S 5752   1.789   1.650   3.264
    3OL    C116 5753   1.766   1.585   3.054
    3OL    H16R 5754   1.713   1.513   2.992
    3OL    H16S 5755   1.869   1.563   3.026
    3OL    C117 5756   1.730   1.726   3.005
    3OL    H17R 5757   1.791   1.794   3.066
    3OL    H17S 5758   1.627   1.739   3.039
    3OL    C118 5759   1.768   1.749   2.858
    3OL    H18R 5760   1.706   1.683   2.797
    3OL    H18S 5761   1.874   1.723   2.849
    3OL    H18T 5762   1.757   1.853   2.826
    1PA    C116 5763   5.175   7.190   4.258
    1PA    H16R 5764   5.255   7.250   4.302
    1PA    H16S 5765   5.091   7.182   4.327
    1PA    H16T 5766   5.137   7.255   4.179
    1PA    C115 5767   5.222   7.051   4.210
    1PA    H15R 5768   5.136   7.007   4.159
    1PA    H15S 5769   5.294   7.058   4.129
    1PA    C114 5770   5.274   6.965   4.325
    1PA    H14R 5771   5.286   6.864   4.285
    1PA    H14S 5772   5.376   6.999   4.343
    1PA    C113 5773   5.198   6.966   4.459
    1PA    H13R 5774   5.190   7.068   4.496
    1PA    H13S 5775   5.099   6.923   4.440
    1PA    C112 5776   5.271   6.882   4.565
    1PA    H12R 5777   5.379   6.895   4.574
    1PA    H12S 5778   5.222   6.906   4.659
    1PA    C111 5779   5.248   6.732   4.541
    1PA    H11R 5780   5.141   6.710   4.534
    1PA    H11S 5781   5.292   6.708   4.444
    1PA    C110 5782   5.310   6.653   4.657
    1PA    H10R 5783   5.416   6.679   4.654
    1PA    H10S 5784   5.269   6.682   4.755
    1PA     C19 5785   5.303   6.501   4.638
    1PA     H9R 5786   5.199   6.468   4.643
    1PA     H9S 5787   5.345   6.473   4.541
    1PA     C18 5788   5.393   6.437   4.744
    1PA     H8R 5789   5.399   6.328   4.733
    1PA     H8S 5790   5.495   6.475   4.752
    1PA     C17 5791   5.334   6.449   4.886
    1PA     H7R 5792   5.330   6.556   4.909
    1PA     H7S 5793   5.233   6.408   4.879
    1PA     C16 5794   5.419   6.381   4.994
    1PA     H6R 5795   5.347   6.372   5.077
    1PA     H6S 5796   5.440   6.278   4.965
    1PA     C15 5797   5.540   6.463   5.041
    1PA     H5R 5798   5.617   6.469   4.963
    1PA     H5S 5799   5.505   6.561   5.073
    1PA     C14 5800   5.604   6.413   5.171
    1PA     H4R 5801   5.525   6.401   5.246
    1PA     H4S 5802   5.646   6.315   5.148
    1PA     C13 5803   5.720   6.497   5.224
    1PA     H3R 5804   5.799   6.518   5.151
    1PA     H3S 5805   5.683   6.593   5.263
    1PA     C12 5806   5.776   6.430   5.350
    1PA     H2R 5807   5.788   6.324   5.330
    1PA     H2S 5808   5.875   6.459   5.386
    2PC     C11 5809   5.690   6.451   5.472
    2PC     O12 5810   5.663   6.559   5.520
    2PC     O11 5811   5.645   6.335   5.523
    2PC      C1 5812   5.555   6.345   5.634
    2PC      HR 5813   5.536   6.244   5.670
    2PC      HS 5814   5.604   6.402   5.714
    2PC      C2 5815   5.417   6.401   5.598
    2PC      HX 5816   5.433   6.493   5.542
    2PC      C3 5817   5.324   6.422   5.719
    2PC      HA 5818   5.373   6.490   5.790
    2PC      HB 5819   5.229   6.465   5.689
    2PC     O31 5820   5.290   6.299   5.785
    2PC     P31 5821   5.174   6.292   5.895
    2PC     O32 5822   5.038   6.297   5.809
    2PC     C31 5823   4.933   6.201   5.828
    2PC     H1A 5824   4.985   6.105   5.834
    2PC     H1B 5825   4.898   6.223   5.929
    2PC     C32 5826   4.830   6.197   5.714
    2PC     H2A 5827   4.871   6.129   5.639
    2PC     H2B 5828   4.740   6.148   5.751
    2PC     N31 5829   4.785   6.326   5.653
    2PC     C33 5830   4.667   6.284   5.570
    2PC     H3A 5831   4.721   6.213   5.507
    2PC     H3B 5832   4.588   6.227   5.618
    2PC     H3C 5833   4.632   6.371   5.514
    2PC     C34 5834   4.731   6.423   5.754
    2PC     H4A 5835   4.811   6.452   5.823
    2PC     H4B 5836   4.696   6.506   5.692
    2PC     H4C 5837   4.653   6.374   5.812
    2PC     C35 5838   4.883   6.385   5.557
    2PC     H5A 5839   4.944   6.302   5.521
    2PC     H5B 5840   4.955   6.455   5.601
    2PC     H5C 5841   4.831   6.439   5.478
    2PC     O33 5842   5.174   6.170   5.980
    2PC     O34 5843   5.178   6.395   6.000
    2PC     O21 5844   5.359   6.298   5.516
    2PC     C21 5845   5.282   6.338   5.414
    2PC     O22 5846   5.237   6.449   5.397
    3OL     C12 5847   5.256   6.228   5.313
    3OL     H2R 5848   5.264   6.131   5.363
    3OL     H2S 5849   5.336   6.238   5.238
    3OL     C13 5850   5.124   6.236   5.236
    3OL     H3R 5851   5.098   6.327   5.182
    3OL     H3S 5852   5.048   6.225   5.314
    3OL     C14 5853   5.109   6.116   5.140
    3OL     H4R 5854   5.003   6.089   5.131
    3OL     H4S 5855   5.158   6.032   5.188
    3OL     C15 5856   5.169   6.143   5.002
    3OL     H5R 5857   5.275   6.168   5.009
    3OL     H5S 5858   5.118   6.222   4.946
    3OL     C16 5859   5.141   6.017   4.919
    3OL     H6R 5860   5.033   6.008   4.907
    3OL     H6S 5861   5.183   5.925   4.960
    3OL     C17 5862   5.204   6.041   4.781
    3OL     H7R 5863   5.311   6.059   4.791
    3OL     H7S 5864   5.148   6.120   4.731
    3OL     C18 5865   5.195   5.917   4.691
    3OL     H8R 5866   5.093   5.918   4.654
    3OL     H8S 5867   5.198   5.826   4.751
    3OL     C19 5868   5.301   5.919   4.583
    3OL     H9R 5869   5.293   5.994   4.505
    3OL    C110 5870   5.402   5.834   4.590
    3OL    H10R 5871   5.479   5.849   4.515
    3OL    C111 5872   5.425   5.721   4.688
    3OL    H11R 5873   5.333   5.663   4.696
    3OL    H11S 5874   5.454   5.758   4.786
    3OL    C112 5875   5.540   5.631   4.640
    3OL    H12R 5876   5.549   5.554   4.717
    3OL    H12S 5877   5.624   5.700   4.635
    3OL    C113 5878   5.511   5.564   4.505
    3OL    H13R 5879   5.464   5.630   4.432
    3OL    H13S 5880   5.446   5.479   4.528
    3OL    C114 5881   5.639   5.505   4.444
    3OL    H14R 5882   5.694   5.435   4.507
    3OL    H14S 5883   5.705   5.590   4.422
    3OL    C115 5884   5.606   5.441   4.309
    3OL    H15R 5885   5.578   5.523   4.243
    3OL    H15S 5886   5.515   5.381   4.322
    3OL    C116 5887   5.717   5.351   4.254
    3OL    H16R 5888   5.811   5.406   4.242
    3OL    H16S 5889   5.694   5.327   4.150
    3OL    C117 5890   5.733   5.219   4.330
    3OL    H17R 5891   5.642   5.177   4.374
    3OL    H17S 5892   5.793   5.241   4.419
    3OL    C118 5893   5.807   5.113   4.247
    3OL    H18R 5894   5.785   5.130   4.141
    3OL    H18S 5895   5.798   5.012   4.288
    3OL    H18T 5896   5.912   5.142   4.252
    1PA    C116 5897   2.448   1.314   4.865
    1PA    H16R 5898   2.364   1.245   4.875
    1PA    H16S 5899   2.457   1.369   4.959
    1PA    H16T 5900   2.539   1.258   4.841
    1PA    C115 5901   2.420   1.404   4.744
    1PA    H15R 5902   2.492   1.487   4.751
    1PA    H15S 5903   2.436   1.344   4.654
    1PA    C114 5904   2.276   1.458   4.750
    1PA    H14R 5905   2.213   1.374   4.720
    1PA    H14S 5906   2.248   1.492   4.850
    1PA    C113 5907   2.250   1.565   4.643
    1PA    H13R 5908   2.312   1.652   4.665
    1PA    H13S 5909   2.281   1.523   4.548
    1PA    C112 5910   2.105   1.616   4.648
    1PA    H12R 5911   2.034   1.536   4.628
    1PA    H12S 5912   2.092   1.663   4.746
    1PA    C111 5913   2.085   1.717   4.534
    1PA    H11R 5914   2.142   1.809   4.551
    1PA    H11S 5915   2.124   1.667   4.445
    1PA    C110 5916   1.938   1.752   4.511
    1PA    H10R 5917   1.929   1.809   4.418
    1PA    H10S 5918   1.884   1.657   4.502
    1PA     C19 5919   1.874   1.847   4.613
    1PA     H9R 5920   1.873   1.802   4.712
    1PA     H9S 5921   1.917   1.947   4.625
    1PA     C18 5922   1.732   1.881   4.566
    1PA     H8R 5923   1.732   1.930   4.469
    1PA     H8S 5924   1.679   1.786   4.552
    1PA     C17 5925   1.644   1.967   4.658
    1PA     H7R 5926   1.700   2.059   4.677
    1PA     H7S 5927   1.551   1.988   4.607
    1PA     C16 5928   1.630   1.907   4.799
    1PA     H6R 5929   1.588   1.807   4.783
    1PA     H6S 5930   1.724   1.895   4.853
    1PA     C15 5931   1.538   1.988   4.891
    1PA     H5R 5932   1.458   2.037   4.835
    1PA     H5S 5933   1.497   1.929   4.974
    1PA     C14 5934   1.620   2.098   4.959
    1PA     H4R 5935   1.693   2.052   5.026
    1PA     H4S 5936   1.681   2.161   4.894
    1PA     C13 5937   1.538   2.194   5.047
    1PA     H3R 5938   1.470   2.244   4.977
    1PA     H3S 5939   1.478   2.141   5.121
    1PA     C12 5940   1.619   2.307   5.112
    1PA     H2R 5941   1.696   2.266   5.177
    1PA     H2S 5942   1.666   2.381   5.048
    2PC     C11 5943   1.531   2.389   5.203
    2PC     O12 5944   1.411   2.406   5.198
    2PC     O11 5945   1.600   2.446   5.303
    2PC      C1 5946   1.552   2.527   5.412
    2PC      HR 5947   1.503   2.611   5.363
    2PC      HS 5948   1.493   2.460   5.475
    2PC      C2 5949   1.674   2.581   5.488
    2PC      HX 5950   1.730   2.500   5.536
    2PC      C3 5951   1.629   2.670   5.605
    2PC      HA 5952   1.638   2.777   5.580
    2PC      HB 5953   1.525   2.659   5.634
    2PC     O31 5954   1.728   2.668   5.709
    2PC     P31 5955   1.721   2.555   5.822
    2PC     O32 5956   1.819   2.456   5.744
    2PC     C31 5957   1.873   2.346   5.821
    2PC     H1A 5958   1.897   2.390   5.918
    2PC     H1B 5959   1.793   2.274   5.839
    2PC     C32 5960   1.993   2.280   5.753
    2PC     H2A 5961   2.035   2.202   5.815
    2PC     H2B 5962   1.960   2.243   5.655
    2PC     N31 5963   2.111   2.363   5.709
    2PC     C33 5964   2.158   2.447   5.824
    2PC     H3A 5965   2.184   2.385   5.909
    2PC     H3B 5966   2.236   2.515   5.790
    2PC     H3C 5967   2.081   2.517   5.856
    2PC     C34 5968   2.221   2.274   5.661
    2PC     H4A 5969   2.197   2.224   5.567
    2PC     H4B 5970   2.316   2.327   5.672
    2PC     H4C 5971   2.229   2.188   5.728
    2PC     C35 5972   2.071   2.451   5.595
    2PC     H5A 5973   1.986   2.518   5.611
    2PC     H5B 5974   2.036   2.388   5.513
    2PC     H5C 5975   2.162   2.510   5.582
    2PC     O33 5976   1.781   2.613   5.945
    2PC     O34 5977   1.589   2.495   5.854
    2PC     O21 5978   1.758   2.665   5.407
    2PC     C21 5979   1.862   2.609   5.344
    2PC     O22 5980   1.883   2.490   5.348
    3OL     C12 5981   1.943   2.706   5.262
    3OL     H2R 5982   1.950   2.806   5.306
    3OL     H2S 5983   1.887   2.716   5.169
    3OL     C13 5984   2.084   2.651   5.236
    3OL     H3R 5985   2.063   2.552   5.194
    3OL     H3S 5986   2.127   2.646   5.336
    3OL     C14 5987   2.173   2.738   5.146
    3OL     H4R 5988   2.277   2.705   5.148
    3OL     H4S 5989   2.166   2.843   5.174
    3OL     C15 5990   2.135   2.714   4.999
    3OL     H5R 5991   2.026   2.711   4.991
    3OL     H5S 5992   2.164   2.613   4.969
    3OL     C16 5993   2.198   2.817   4.905
    3OL     H6R 5994   2.304   2.823   4.930
    3OL     H6S 5995   2.156   2.917   4.920
    3OL     C17 5996   2.177   2.793   4.755
    3OL     H7R 5997   2.225   2.697   4.735
    3OL     H7S 5998   2.240   2.868   4.706
    3OL     C18 5999   2.031   2.806   4.710
    3OL     H8R 6000   1.986   2.901   4.739
    3OL     H8S 6001   1.988   2.718   4.760
    3OL     C19 6002   2.028   2.758   4.567
    3OL     H9R 6003   2.047   2.652   4.555
    3OL    C110 6004   2.007   2.832   4.459
    3OL    H10R 6005   2.005   2.782   4.363
    3OL    C111 6006   2.021   2.983   4.453
    3OL    H11R 6007   2.096   3.013   4.380
    3OL    H11S 6008   2.034   3.030   4.550
    3OL    C112 6009   1.882   3.028   4.405
    3OL    H12R 6010   1.820   3.026   4.495
    3OL    H12S 6011   1.835   2.966   4.329
    3OL    C113 6012   1.882   3.170   4.346
    3OL    H13R 6013   1.959   3.179   4.270
    3OL    H13S 6014   1.919   3.236   4.424
    3OL    C114 6015   1.742   3.212   4.298
    3OL    H14R 6016   1.678   3.172   4.377
    3OL    H14S 6017   1.722   3.165   4.201
    3OL    C115 6018   1.742   3.364   4.280
    3OL    H15R 6019   1.816   3.384   4.203
    3OL    H15S 6020   1.771   3.405   4.378
    3OL    C116 6021   1.596   3.393   4.245
    3OL    H16R 6022   1.524   3.368   4.323
    3OL    H16S 6023   1.577   3.328   4.159
    3OL    C117 6024   1.568   3.539   4.207
    3OL    H17R 6025   1.470   3.525   4.161
    3OL    H17S 6026   1.635   3.579   4.132
    3OL    C118 6027   1.558   3.623   4.335
    3OL    H18R 6028   1.502   3.579   4.418
    3OL    H18S 6029   1.501   3.710   4.304
    3OL    H18T 6030   1.654   3.659   4.374
    1PA    C116 6031   2.841   3.865   4.021
    1PA    H16R 6032   2.893   3.925   3.947
    1PA    H16S 6033   2.733   3.854   4.009
    1PA    H16T 6034   2.878   3.762   4.013
    1PA    C115 6035   2.855   3.929   4.159
    1PA    H15R 6036   2.807   3.858   4.228
    1PA    H15S 6037   2.959   3.937   4.192
    1PA    C114 6038   2.789   4.067   4.162
    1PA    H14R 6039   2.838   4.141   4.098
    1PA    H14S 6040   2.692   4.049   4.115
    1PA    C113 6041   2.794   4.132   4.302
    1PA    H13R 6042   2.759   4.059   4.376
    1PA    H13S 6043   2.896   4.166   4.318
    1PA    C112 6044   2.706   4.258   4.302
    1PA    H12R 6045   2.764   4.320   4.233
    1PA    H12S 6046   2.610   4.246   4.252
    1PA    C111 6047   2.683   4.334   4.433
    1PA    H11R 6048   2.767   4.402   4.445
    1PA    H11S 6049   2.604   4.409   4.424
    1PA    C110 6050   2.649   4.239   4.549
    1PA    H10R 6051   2.742   4.188   4.575
    1PA    H10S 6052   2.628   4.310   4.629
    1PA     C19 6053   2.522   4.158   4.518
    1PA     H9R 6054   2.437   4.226   4.511
    1PA     H9S 6055   2.533   4.106   4.423
    1PA     C18 6056   2.494   4.052   4.626
    1PA     H8R 6057   2.430   3.972   4.589
    1PA     H8S 6058   2.584   4.003   4.662
    1PA     C17 6059   2.422   4.109   4.749
    1PA     H7R 6060   2.492   4.188   4.776
    1PA     H7S 6061   2.323   4.149   4.727
    1PA     C16 6062   2.396   4.016   4.869
    1PA     H6R 6063   2.327   3.939   4.836
    1PA     H6S 6064   2.484   3.957   4.895
    1PA     C15 6065   2.348   4.081   4.999
    1PA     H5R 6066   2.428   4.152   5.025
    1PA     H5S 6067   2.259   4.141   4.979
    1PA     C14 6068   2.326   3.978   5.111
    1PA     H4R 6069   2.240   3.913   5.091
    1PA     H4S 6070   2.416   3.917   5.112
    1PA     C13 6071   2.303   4.038   5.250
    1PA     H3R 6072   2.279   3.961   5.324
    1PA     H3S 6073   2.391   4.094   5.281
    1PA     C12 6074   2.175   4.123   5.256
    1PA     H2R 6075   2.188   4.214   5.197
    1PA     H2S 6076   2.093   4.065   5.213
    2PC     C11 6077   2.127   4.160   5.394
    2PC     O12 6078   2.197   4.148   5.493
    2PC     O11 6079   2.000   4.201   5.397
    2PC      C1 6080   1.949   4.251   5.522
    2PC      HR 6081   1.846   4.287   5.524
    2PC      HS 6082   1.955   4.168   5.592
    2PC      C2 6083   2.026   4.377   5.566
    2PC      HX 6084   2.134   4.359   5.572
    2PC      C3 6085   1.970   4.413   5.704
    2PC      HA 6086   1.868   4.449   5.691
    2PC      HB 6087   1.954   4.318   5.756
    2PC     O31 6088   2.050   4.507   5.780
    2PC     P31 6089   2.191   4.451   5.831
    2PC     O32 6090   2.296   4.511   5.727
    2PC     C31 6091   2.395   4.604   5.775
    2PC     H1A 6092   2.350   4.686   5.832
    2PC     H1B 6093   2.476   4.546   5.818
    2PC     C32 6094   2.448   4.668   5.646
    2PC     H2A 6095   2.539   4.725   5.661
    2PC     H2B 6096   2.453   4.592   5.567
    2PC     N31 6097   2.367   4.773   5.575
    2PC     C33 6098   2.222   4.736   5.565
    2PC     H3A 6099   2.224   4.656   5.491
    2PC     H3B 6100   2.183   4.699   5.660
    2PC     H3C 6101   2.171   4.825   5.528
    2PC     C34 6102   2.386   4.901   5.650
    2PC     H4A 6103   2.492   4.922   5.638
    2PC     H4B 6104   2.318   4.978   5.611
    2PC     H4C 6105   2.362   4.885   5.755
    2PC     C35 6106   2.422   4.798   5.438
    2PC     H5A 6107   2.348   4.839   5.368
    2PC     H5B 6108   2.449   4.699   5.401
    2PC     H5C 6109   2.514   4.855   5.447
    2PC     O33 6110   2.229   4.492   5.968
    2PC     O34 6111   2.203   4.305   5.850
    2PC     O21 6112   1.992   4.487   5.480
    2PC     C21 6113   2.069   4.510   5.372
    2PC     O22 6114   2.165   4.445   5.334
    3OL     C12 6115   2.029   4.633   5.296
    3OL     H2R 6116   2.014   4.717   5.364
    3OL     H2S 6117   1.942   4.599   5.239
    3OL     C13 6118   2.139   4.681   5.200
    3OL     H3R 6119   2.137   4.609   5.118
    3OL     H3S 6120   2.238   4.679   5.247
    3OL     C14 6121   2.120   4.825   5.151
    3OL     H4R 6122   2.138   4.894   5.234
    3OL     H4S 6123   2.015   4.822   5.120
    3OL     C15 6124   2.203   4.864   5.028
    3OL     H5R 6125   2.196   4.783   4.955
    3OL     H5S 6126   2.309   4.867   5.051
    3OL     C16 6127   2.147   4.994   4.968
    3OL     H6R 6128   2.040   4.988   4.953
    3OL     H6S 6129   2.195   5.007   4.871
    3OL     C17 6130   2.186   5.117   5.052
    3OL     H7R 6131   2.294   5.121   5.068
    3OL     H7S 6132   2.142   5.119   5.152
    3OL     C18 6133   2.143   5.242   4.973
    3OL     H8R 6134   2.152   5.328   5.039
    3OL     H8S 6135   2.034   5.244   4.960
    3OL     C19 6136   2.220   5.272   4.847
    3OL     H9R 6137   2.322   5.304   4.869
    3OL    C110 6138   2.174   5.265   4.723
    3OL    H10R 6139   2.247   5.289   4.646
    3OL    C111 6140   2.027   5.258   4.690
    3OL    H11R 6141   1.989   5.359   4.703
    3OL    H11S 6142   1.966   5.204   4.762
    3OL    C112 6143   2.001   5.199   4.551
    3OL    H12R 6144   1.900   5.211   4.511
    3OL    H12S 6145   2.023   5.092   4.551
    3OL    C113 6146   2.092   5.266   4.447
    3OL    H13R 6147   2.123   5.368   4.473
    3OL    H13S 6148   2.033   5.283   4.357
    3OL    C114 6149   2.218   5.187   4.411
    3OL    H14R 6150   2.190   5.083   4.389
    3OL    H14S 6151   2.298   5.192   4.486
    3OL    C115 6152   2.292   5.236   4.286
    3OL    H15R 6153   2.312   5.343   4.297
    3OL    H15S 6154   2.209   5.233   4.214
    3OL    C116 6155   2.412   5.147   4.252
    3OL    H16R 6156   2.403   5.038   4.254
    3OL    H16S 6157   2.494   5.176   4.319
    3OL    C117 6158   2.477   5.184   4.118
    3OL    H17R 6159   2.511   5.287   4.132
    3OL    H17S 6160   2.396   5.187   4.045
    3OL    C118 6161   2.577   5.079   4.068
    3OL    H18R 6162   2.531   4.980   4.057
    3OL    H18S 6163   2.670   5.092   4.123
    3OL    H18T 6164   2.592   5.108   3.964
    1PA    C116 6165   4.742   1.857   3.703
    1PA    H16R 6166   4.638   1.888   3.705
    1PA    H16S 6167   4.783   1.854   3.602
    1PA    H16T 6168   4.804   1.927   3.759
    1PA    C115 6169   4.745   1.720   3.772
    1PA    H15R 6170   4.702   1.646   3.704
    1PA    H15S 6171   4.846   1.684   3.794
    1PA    C114 6172   4.684   1.725   3.913
    1PA    H14R 6173   4.754   1.770   3.984
    1PA    H14S 6174   4.594   1.786   3.900
    1PA    C113 6175   4.659   1.585   3.969
    1PA    H13R 6176   4.596   1.528   3.900
    1PA    H13S 6177   4.757   1.535   3.973
    1PA    C112 6178   4.601   1.578   4.111
    1PA    H12R 6179   4.673   1.617   4.183
    1PA    H12S 6180   4.526   1.657   4.113
    1PA    C111 6181   4.551   1.436   4.143
    1PA    H11R 6182   4.482   1.398   4.068
    1PA    H11S 6183   4.631   1.362   4.138
    1PA    C110 6184   4.466   1.443   4.270
    1PA    H10R 6185   4.377   1.503   4.250
    1PA    H10S 6186   4.414   1.348   4.283
    1PA     C19 6187   4.541   1.480   4.399
    1PA     H9R 6188   4.634   1.423   4.408
    1PA     H9S 6189   4.558   1.588   4.391
    1PA     C18 6190   4.456   1.450   4.523
    1PA     H8R 6191   4.358   1.498   4.514
    1PA     H8S 6192   4.435   1.343   4.521
    1PA     C17 6193   4.525   1.482   4.656
    1PA     H7R 6194   4.620   1.429   4.655
    1PA     H7S 6195   4.539   1.590   4.665
    1PA     C16 6196   4.438   1.441   4.776
    1PA     H6R 6197   4.342   1.493   4.780
    1PA     H6S 6198   4.415   1.335   4.772
    1PA     C15 6199   4.518   1.470   4.904
    1PA     H5R 6200   4.606   1.406   4.893
    1PA     H5S 6201   4.551   1.574   4.909
    1PA     C14 6202   4.438   1.438   5.031
    1PA     H4R 6203   4.368   1.521   5.045
    1PA     H4S 6204   4.390   1.341   5.034
    1PA     C13 6205   4.538   1.449   5.148
    1PA     H3R 6206   4.616   1.375   5.131
    1PA     H3S 6207   4.582   1.548   5.138
    1PA     C12 6208   4.466   1.440   5.284
    1PA     H2R 6209   4.386   1.512   5.298
    1PA     H2S 6210   4.431   1.337   5.300
    2PC     C11 6211   4.578   1.465   5.382
    2PC     O12 6212   4.592   1.572   5.438
    2PC     O11 6213   4.664   1.362   5.392
    2PC      C1 6214   4.759   1.367   5.500
    2PC      HR 6215   4.826   1.451   5.477
    2PC      HS 6216   4.701   1.385   5.591
    2PC      C2 6217   4.845   1.241   5.516
    2PC      HX 6218   4.773   1.159   5.505
    2PC      C3 6219   4.905   1.230   5.656
    2PC      HA 6220   4.954   1.325   5.681
    2PC      HB 6221   4.822   1.216   5.727
    2PC     O31 6222   5.006   1.128   5.658
    2PC     P31 6223   5.061   1.073   5.798
    2PC     O32 6224   4.959   0.956   5.837
    2PC     C31 6225   4.990   0.871   5.949
    2PC     H1A 6226   5.065   0.796   5.924
    2PC     H1B 6227   5.011   0.934   6.036
    2PC     C32 6228   4.863   0.790   5.981
    2PC     H2A 6229   4.807   0.776   5.889
    2PC     H2B 6230   4.888   0.687   6.005
    2PC     N31 6231   4.757   0.838   6.076
    2PC     C33 6232   4.640   0.745   6.070
    2PC     H3A 6233   4.683   0.649   6.095
    2PC     H3B 6234   4.561   0.759   6.145
    2PC     H3C 6235   4.605   0.756   5.967
    2PC     C34 6236   4.813   0.849   6.214
    2PC     H4A 6237   4.748   0.900   6.285
    2PC     H4B 6238   4.836   0.750   6.254
    2PC     H4C 6239   4.907   0.904   6.203
    2PC     C35 6240   4.693   0.969   6.041
    2PC     H5A 6241   4.764   1.052   6.043
    2PC     H5B 6242   4.615   0.992   6.114
    2PC     H5C 6243   4.660   0.964   5.937
    2PC     O33 6244   5.205   1.045   5.782
    2PC     O34 6245   5.058   1.178   5.903
    2PC     O21 6246   4.945   1.239   5.412
    2PC     C21 6247   5.036   1.337   5.398
    2PC     O22 6248   5.049   1.436   5.467
    3OL     C12 6249   5.109   1.316   5.268
    3OL     H2R 6250   5.106   1.208   5.258
    3OL     H2S 6251   5.212   1.345   5.291
    3OL     C13 6252   5.025   1.386   5.161
    3OL     H3R 6253   5.017   1.494   5.178
    3OL     H3S 6254   4.921   1.353   5.157
    3OL     C14 6255   5.090   1.367   5.023
    3OL     H4R 6256   5.092   1.260   4.998
    3OL     H4S 6257   5.189   1.408   5.038
    3OL     C15 6258   5.015   1.450   4.918
    3OL     H5R 6259   5.018   1.557   4.940
    3OL     H5S 6260   4.917   1.404   4.907
    3OL     C16 6261   5.071   1.435   4.775
    3OL     H6R 6262   5.076   1.327   4.761
    3OL     H6S 6263   5.167   1.485   4.763
    3OL     C17 6264   4.985   1.494   4.663
    3OL     H7R 6265   4.970   1.601   4.682
    3OL     H7S 6266   4.892   1.439   4.675
    3OL     C18 6267   5.042   1.468   4.523
    3OL     H8R 6268   5.088   1.369   4.526
    3OL     H8S 6269   5.125   1.534   4.494
    3OL     C19 6270   4.935   1.470   4.416
    3OL     H9R 6271   4.868   1.385   4.408
    3OL    C110 6272   4.903   1.574   4.341
    3OL    H10R 6273   4.834   1.553   4.260
    3OL    C111 6274   4.959   1.713   4.359
    3OL    H11R 6275   4.984   1.743   4.461
    3OL    H11S 6276   4.882   1.785   4.331
    3OL    C112 6277   5.083   1.730   4.270
    3OL    H12R 6278   5.148   1.649   4.302
    3OL    H12S 6279   5.151   1.813   4.290
    3OL    C113 6280   5.050   1.711   4.121
    3OL    H13R 6281   4.963   1.772   4.095
    3OL    H13S 6282   5.019   1.611   4.088
    3OL    C114 6283   5.166   1.744   4.026
    3OL    H14R 6284   5.226   1.825   4.068
    3OL    H14S 6285   5.116   1.766   3.932
    3OL    C115 6286   5.272   1.633   4.021
    3OL    H15R 6287   5.215   1.541   4.013
    3OL    H15S 6288   5.326   1.632   4.116
    3OL    C116 6289   5.370   1.646   3.904
    3OL    H16R 6290   5.312   1.661   3.813
    3OL    H16S 6291   5.427   1.552   3.900
    3OL    C117 6292   5.469   1.763   3.909
    3OL    H17R 6293   5.505   1.787   4.009
    3OL    H17S 6294   5.409   1.844   3.867
    3OL    C118 6295   5.591   1.753   3.817
    3OL    H18R 6296   5.557   1.750   3.713
    3OL    H18S 6297   5.641   1.659   3.842
    3OL    H18T 6298   5.665   1.833   3.828
    1PA    C116 6299   6.789   0.788   3.961
    1PA    H16R 6300   6.784   0.896   3.979
    1PA    H16S 6301   6.768   0.764   3.856
    1PA    H16T 6302   6.887   0.764   4.002
    1PA    C115 6303   6.691   0.716   4.055
    1PA    H15R 6304   6.609   0.788   4.059
    1PA    H15S 6305   6.658   0.615   4.033
    1PA    C114 6306   6.737   0.707   4.201
    1PA    H14R 6307   6.833   0.658   4.214
    1PA    H14S 6308   6.764   0.807   4.236
    1PA    C113 6309   6.626   0.662   4.297
    1PA    H13R 6310   6.589   0.562   4.270
    1PA    H13S 6311   6.668   0.648   4.397
    1PA    C112 6312   6.513   0.765   4.306
    1PA    H12R 6313   6.553   0.864   4.329
    1PA    H12S 6314   6.464   0.766   4.208
    1PA    C111 6315   6.408   0.714   4.406
    1PA    H11R 6316   6.466   0.700   4.498
    1PA    H11S 6317   6.345   0.803   4.418
    1PA    C110 6318   6.335   0.583   4.373
    1PA    H10R 6319   6.289   0.616   4.279
    1PA    H10S 6320   6.407   0.504   4.353
    1PA     C19 6321   6.232   0.552   4.482
    1PA     H9R 6322   6.160   0.634   4.474
    1PA     H9S 6323   6.176   0.460   4.462
    1PA     C18 6324   6.285   0.539   4.626
    1PA     H8R 6325   6.364   0.465   4.638
    1PA     H8S 6326   6.332   0.635   4.646
    1PA     C17 6327   6.181   0.521   4.737
    1PA     H7R 6328   6.096   0.587   4.718
    1PA     H7S 6329   6.144   0.419   4.727
    1PA     C16 6330   6.251   0.525   4.873
    1PA     H6R 6331   6.319   0.439   4.880
    1PA     H6S 6332   6.312   0.613   4.891
    1PA     C15 6333   6.159   0.520   4.995
    1PA     H5R 6334   6.202   0.556   5.089
    1PA     H5S 6335   6.077   0.585   4.964
    1PA     C14 6336   6.103   0.382   5.032
    1PA     H4R 6337   6.014   0.388   5.094
    1PA     H4S 6338   6.077   0.330   4.939
    1PA     C13 6339   6.207   0.291   5.098
    1PA     H3R 6340   6.179   0.185   5.097
    1PA     H3S 6341   6.302   0.301   5.044
    1PA     C12 6342   6.239   0.330   5.243
    1PA     H2R 6343   6.330   0.273   5.263
    1PA     H2S 6344   6.274   0.434   5.244
    2PC     C11 6345   6.129   0.287   5.336
    2PC     O12 6346   6.122   0.167   5.353
    2PC     O11 6347   6.070   0.379   5.414
    2PC      C1 6348   5.968   0.335   5.506
    2PC      HR 6349   5.875   0.309   5.455
    2PC      HS 6350   6.000   0.248   5.564
    2PC      C2 6351   5.943   0.456   5.598
    2PC      HX 6352   6.033   0.472   5.658
    2PC      C3 6353   5.828   0.434   5.696
    2PC      HA 6354   5.735   0.437   5.639
    2PC      HB 6355   5.838   0.337   5.745
    2PC     O31 6356   5.834   0.536   5.797
    2PC     P31 6357   5.727   0.527   5.916
    2PC     O32 6358   5.812   0.481   6.043
    2PC     C31 6359   5.861   0.347   6.061
    2PC     H1A 6360   5.792   0.270   6.024
    2PC     H1B 6361   5.959   0.330   6.016
    2PC     C32 6362   5.877   0.313   6.210
    2PC     H2A 6363   5.922   0.215   6.228
    2PC     H2B 6364   5.940   0.395   6.247
    2PC     N31 6365   5.748   0.314   6.286
    2PC     C33 6366   5.784   0.301   6.431
    2PC     H3A 6367   5.822   0.199   6.440
    2PC     H3B 6368   5.846   0.380   6.475
    2PC     H3C 6369   5.694   0.309   6.491
    2PC     C34 6370   5.669   0.442   6.281
    2PC     H4A 6371   5.738   0.523   6.259
    2PC     H4B 6372   5.610   0.438   6.189
    2PC     H4C 6373   5.606   0.457   6.369
    2PC     C35 6374   5.663   0.194   6.258
    2PC     H5A 6375   5.611   0.167   6.351
    2PC     H5B 6376   5.715   0.108   6.217
    2PC     H5C 6377   5.581   0.215   6.189
    2PC     O33 6378   5.663   0.660   5.930
    2PC     O34 6379   5.622   0.430   5.877
    2PC     O21 6380   5.922   0.576   5.522
    2PC     C21 6381   5.820   0.595   5.437
    2PC     O22 6382   5.733   0.512   5.419
    3OL     C12 6383   5.840   0.723   5.360
    3OL     H2R 6384   5.948   0.735   5.344
    3OL     H2S 6385   5.806   0.806   5.423
    3OL     C13 6386   5.789   0.720   5.215
    3OL     H3R 6387   5.684   0.696   5.230
    3OL     H3S 6388   5.835   0.651   5.144
    3OL     C14 6389   5.797   0.863   5.160
    3OL     H4R 6390   5.901   0.894   5.145
    3OL     H4S 6391   5.767   0.930   5.241
    3OL     C15 6392   5.733   0.889   5.023
    3OL     H5R 6393   5.704   0.993   5.009
    3OL     H5S 6394   5.640   0.832   5.027
    3OL     C16 6395   5.824   0.845   4.908
    3OL     H6R 6396   5.867   0.745   4.908
    3OL     H6S 6397   5.902   0.921   4.894
    3OL     C17 6398   5.750   0.855   4.774
    3OL     H7R 6399   5.745   0.961   4.745
    3OL     H7S 6400   5.647   0.817   4.780
    3OL     C18 6401   5.822   0.798   4.651
    3OL     H8R 6402   5.844   0.693   4.670
    3OL     H8S 6403   5.916   0.851   4.634
    3OL     C19 6404   5.735   0.833   4.533
    3OL     H9R 6405   5.656   0.907   4.543
    3OL    C110 6406   5.731   0.765   4.419
    3OL    H10R 6407   5.651   0.787   4.348
    3OL    C111 6408   5.830   0.663   4.372
    3OL    H11R 6409   5.766   0.574   4.367
    3OL    H11S 6410   5.908   0.651   4.447
    3OL    C112 6411   5.879   0.678   4.227
    3OL    H12R 6412   5.931   0.773   4.209
    3OL    H12S 6413   5.789   0.691   4.166
    3OL    C113 6414   5.963   0.558   4.181
    3OL    H13R 6415   5.901   0.469   4.188
    3OL    H13S 6416   6.053   0.541   4.240
    3OL    C114 6417   6.005   0.563   4.034
    3OL    H14R 6418   5.924   0.587   3.965
    3OL    H14S 6419   6.033   0.459   4.018
    3OL    C115 6420   6.129   0.650   4.007
    3OL    H15R 6421   6.215   0.615   4.064
    3OL    H15S 6422   6.116   0.756   4.030
    3OL    C116 6423   6.174   0.644   3.860
    3OL    H16R 6424   6.236   0.731   3.838
    3OL    H16S 6425   6.086   0.653   3.796
    3OL    C117 6426   6.257   0.521   3.823
    3OL    H17R 6427   6.205   0.427   3.844
    3OL    H17S 6428   6.346   0.517   3.886
    3OL    C118 6429   6.286   0.511   3.672
    3OL    H18R 6430   6.299   0.405   3.649
    3OL    H18S 6431   6.370   0.574   3.641
    3OL    H18T 6432   6.197   0.534   3.612
    1PA    C116 6433   3.366  -0.849   3.926
    1PA    H16R 6434   3.351  -0.956   3.908
    1PA    H16S 6435   3.473  -0.832   3.935
    1PA    H16T 6436   3.336  -0.799   3.834
    1PA    C115 6437   3.296  -0.786   4.047
    1PA    H15R 6438   3.190  -0.809   4.035
    1PA    H15S 6439   3.331  -0.820   4.145
    1PA    C114 6440   3.303  -0.633   4.038
    1PA    H14R 6441   3.400  -0.594   4.007
    1PA    H14S 6442   3.236  -0.601   3.958
    1PA    C113 6443   3.243  -0.555   4.156
    1PA    H13R 6444   3.224  -0.452   4.125
    1PA    H13S 6445   3.148  -0.601   4.184
    1PA    C112 6446   3.332  -0.564   4.282
    1PA    H12R 6447   3.326  -0.662   4.329
    1PA    H12S 6448   3.437  -0.559   4.255
    1PA    C111 6449   3.289  -0.462   4.388
    1PA    H11R 6450   3.376  -0.425   4.442
    1PA    H11S 6451   3.257  -0.369   4.341
    1PA    C110 6452   3.185  -0.512   4.490
    1PA    H10R 6453   3.107  -0.576   4.449
    1PA    H10S 6454   3.245  -0.569   4.561
    1PA     C19 6455   3.121  -0.394   4.564
    1PA     H9R 6456   3.104  -0.309   4.498
    1PA     H9S 6457   3.029  -0.430   4.611
    1PA     C18 6458   3.218  -0.345   4.672
    1PA     H8R 6459   3.250  -0.435   4.725
    1PA     H8S 6460   3.311  -0.307   4.628
    1PA     C17 6461   3.159  -0.238   4.764
    1PA     H7R 6462   3.059  -0.269   4.794
    1PA     H7S 6463   3.224  -0.234   4.852
    1PA     C16 6464   3.150  -0.100   4.697
    1PA     H6R 6465   3.253  -0.066   4.683
    1PA     H6S 6466   3.103  -0.102   4.598
    1PA     C15 6467   3.064  -0.006   4.782
    1PA     H5R 6468   3.029   0.075   4.717
    1PA     H5S 6469   2.975  -0.058   4.817
    1PA     C14 6470   3.141   0.053   4.902
    1PA     H4R 6471   3.168  -0.020   4.978
    1PA     H4S 6472   3.239   0.090   4.873
    1PA     C13 6473   3.051   0.150   4.980
    1PA     H3R 6474   3.024   0.241   4.926
    1PA     H3S 6475   2.957   0.099   5.004
    1PA     C12 6476   3.120   0.197   5.109
    1PA     H2R 6477   3.161   0.108   5.159
    1PA     H2S 6478   3.203   0.263   5.083
    2PC     C11 6479   3.030   0.286   5.190
    2PC     O12 6480   2.909   0.296   5.181
    2PC     O11 6481   3.092   0.372   5.272
    2PC      C1 6482   3.006   0.451   5.355
    2PC      HR 6483   2.934   0.511   5.297
    2PC      HS 6484   2.944   0.381   5.411
    2PC      C2 6485   3.093   0.543   5.442
    2PC      HX 6486   3.171   0.479   5.483
    2PC      C3 6487   3.002   0.617   5.541
    2PC      HA 6488   2.924   0.666   5.482
    2PC      HB 6489   2.955   0.543   5.606
    2PC     O31 6490   3.077   0.723   5.603
    2PC     P31 6491   2.994   0.823   5.696
    2PC     O32 6492   2.990   0.744   5.835
    2PC     C31 6493   2.863   0.699   5.886
    2PC     H1A 6494   2.777   0.766   5.880
    2PC     H1B 6495   2.832   0.607   5.835
    2PC     C32 6496   2.904   0.659   6.029
    2PC     H2A 6497   2.955   0.563   6.027
    2PC     H2B 6498   2.975   0.735   6.064
    2PC     N31 6499   2.795   0.649   6.131
    2PC     C33 6500   2.828   0.573   6.256
    2PC     H3A 6501   2.865   0.473   6.232
    2PC     H3B 6502   2.902   0.631   6.311
    2PC     H3C 6503   2.742   0.564   6.322
    2PC     C34 6504   2.755   0.780   6.191
    2PC     H4A 6505   2.685   0.763   6.273
    2PC     H4B 6506   2.842   0.830   6.236
    2PC     H4C 6507   2.718   0.852   6.119
    2PC     C35 6508   2.675   0.584   6.068
    2PC     H5A 6509   2.703   0.488   6.025
    2PC     H5B 6510   2.618   0.641   5.994
    2PC     H5C 6511   2.601   0.574   6.147
    2PC     O33 6512   3.044   0.962   5.710
    2PC     O34 6513   2.856   0.851   5.649
    2PC     O21 6514   3.152   0.639   5.353
    2PC     C21 6515   3.273   0.697   5.366
    2PC     O22 6516   3.358   0.658   5.443
    3OL     C12 6517   3.285   0.815   5.273
    3OL     H2R 6518   3.360   0.888   5.307
    3OL     H2S 6519   3.187   0.863   5.276
    3OL     C13 6520   3.337   0.765   5.138
    3OL     H3R 6521   3.266   0.688   5.107
    3OL     H3S 6522   3.435   0.720   5.159
    3OL     C14 6523   3.343   0.862   5.020
    3OL     H4R 6524   3.385   0.953   5.063
    3OL     H4S 6525   3.242   0.881   4.982
    3OL     C15 6526   3.435   0.816   4.906
    3OL     H5R 6527   3.410   0.712   4.882
    3OL     H5S 6528   3.539   0.813   4.937
    3OL     C16 6529   3.426   0.900   4.778
    3OL     H6R 6530   3.516   0.884   4.720
    3OL     H6S 6531   3.425   1.007   4.800
    3OL     C17 6532   3.301   0.873   4.693
    3OL     H7R 6533   3.219   0.897   4.762
    3OL     H7S 6534   3.299   0.767   4.665
    3OL     C18 6535   3.292   0.957   4.565
    3OL     H8R 6536   3.381   0.923   4.513
    3OL     H8S 6537   3.289   1.064   4.582
    3OL     C19 6538   3.167   0.924   4.487
    3OL     H9R 6539   3.093   1.004   4.489
    3OL    C110 6540   3.145   0.818   4.410
    3OL    H10R 6541   3.052   0.801   4.355
    3OL    C111 6542   3.248   0.711   4.390
    3OL    H11R 6543   3.244   0.630   4.463
    3OL    H11S 6544   3.351   0.749   4.394
    3OL    C112 6545   3.215   0.653   4.252
    3OL    H12R 6546   3.214   0.735   4.180
    3OL    H12S 6547   3.118   0.603   4.264
    3OL    C113 6548   3.326   0.560   4.202
    3OL    H13R 6549   3.338   0.472   4.266
    3OL    H13S 6550   3.420   0.615   4.199
    3OL    C114 6551   3.292   0.514   4.059
    3OL    H14R 6552   3.282   0.600   3.993
    3OL    H14S 6553   3.197   0.460   4.055
    3OL    C115 6554   3.400   0.420   4.003
    3OL    H15R 6555   3.418   0.346   4.080
    3OL    H15S 6556   3.500   0.464   3.990
    3OL    C116 6557   3.371   0.351   3.869
    3OL    H16R 6558   3.350   0.423   3.789
    3OL    H16S 6559   3.282   0.288   3.873
    3OL    C117 6560   3.485   0.258   3.827
    3OL    H17R 6561   3.524   0.190   3.904
    3OL    H17S 6562   3.573   0.319   3.805
    3OL    C118 6563   3.435   0.171   3.711
    3OL    H18R 6564   3.360   0.101   3.749
    3OL    H18S 6565   3.518   0.113   3.668
    3OL    H18T 6566   3.396   0.237   3.634
    1PA    C116 6567   4.035   3.457   4.275
    1PA    H16R 6568   4.004   3.385   4.198
    1PA    H16S 6569   3.983   3.552   4.265
    1PA    H16T 6570   4.007   3.413   4.371
    1PA    C115 6571   4.188   3.464   4.275
    1PA    H15R 6572   4.233   3.370   4.306
    1PA    H15S 6573   4.219   3.497   4.176
    1PA    C114 6574   4.235   3.563   4.383
    1PA    H14R 6575   4.159   3.566   4.461
    1PA    H14S 6576   4.333   3.528   4.415
    1PA    C113 6577   4.246   3.704   4.323
    1PA    H13R 6578   4.311   3.709   4.235
    1PA    H13S 6579   4.156   3.762   4.298
    1PA    C112 6580   4.317   3.796   4.423
    1PA    H12R 6581   4.258   3.801   4.514
    1PA    H12S 6582   4.411   3.747   4.447
    1PA    C111 6583   4.358   3.937   4.377
    1PA    H11R 6584   4.411   3.939   4.282
    1PA    H11S 6585   4.268   3.997   4.360
    1PA    C110 6586   4.431   4.019   4.485
    1PA    H10R 6587   4.360   4.064   4.555
    1PA    H10S 6588   4.505   3.966   4.545
    1PA     C19 6589   4.500   4.136   4.414
    1PA     H9R 6590   4.590   4.082   4.384
    1PA     H9S 6591   4.454   4.179   4.325
    1PA     C18 6592   4.549   4.246   4.510
    1PA     H8R 6593   4.585   4.202   4.603
    1PA     H8S 6594   4.636   4.287   4.457
    1PA     C17 6595   4.440   4.351   4.536
    1PA     H7R 6596   4.398   4.403   4.450
    1PA     H7S 6597   4.358   4.303   4.589
    1PA     C16 6598   4.493   4.464   4.626
    1PA     H6R 6599   4.553   4.423   4.708
    1PA     H6S 6600   4.560   4.531   4.572
    1PA     C15 6601   4.377   4.546   4.683
    1PA     H5R 6602   4.341   4.603   4.597
    1PA     H5S 6603   4.295   4.481   4.715
    1PA     C14 6604   4.428   4.642   4.791
    1PA     H4R 6605   4.452   4.597   4.887
    1PA     H4S 6606   4.521   4.681   4.750
    1PA     C13 6607   4.320   4.749   4.819
    1PA     H3R 6608   4.302   4.801   4.726
    1PA     H3S 6609   4.232   4.699   4.860
    1PA     C12 6610   4.375   4.847   4.924
    1PA     H2R 6611   4.473   4.888   4.897
    1PA     H2S 6612   4.305   4.929   4.942
    2PC     C11 6613   4.396   4.786   5.060
    2PC     O12 6614   4.499   4.799   5.124
    2PC     O11 6615   4.294   4.705   5.093
    2PC      C1 6616   4.309   4.624   5.211
    2PC      HR 6617   4.391   4.552   5.198
    2PC      HS 6618   4.338   4.691   5.292
    2PC      C2 6619   4.183   4.539   5.231
    2PC      HX 6620   4.103   4.608   5.204
    2PC      C3 6621   4.158   4.493   5.375
    2PC      HA 6622   4.192   4.567   5.449
    2PC      HB 6623   4.052   4.467   5.383
    2PC     O31 6624   4.234   4.370   5.384
    2PC     P31 6625   4.251   4.295   5.524
    2PC     O32 6626   4.100   4.288   5.576
    2PC     C31 6627   4.022   4.183   5.517
    2PC     H1A 6628   4.030   4.184   5.408
    2PC     H1B 6629   4.052   4.088   5.563
    2PC     C32 6630   3.874   4.204   5.552
    2PC     H2A 6631   3.835   4.303   5.527
    2PC     H2B 6632   3.809   4.137   5.495
    2PC     N31 6633   3.835   4.189   5.696
    2PC     C33 6634   3.891   4.294   5.787
    2PC     H3A 6635   4.000   4.295   5.780
    2PC     H3B 6636   3.853   4.390   5.752
    2PC     H3C 6637   3.876   4.277   5.894
    2PC     C34 6638   3.686   4.202   5.701
    2PC     H4A 6639   3.653   4.208   5.805
    2PC     H4B 6640   3.654   4.292   5.648
    2PC     H4C 6641   3.652   4.113   5.647
    2PC     C35 6642   3.871   4.053   5.746
    2PC     H5A 6643   3.819   3.971   5.696
    2PC     H5B 6644   3.844   4.047   5.851
    2PC     H5C 6645   3.979   4.036   5.751
    2PC     O33 6646   4.331   4.170   5.525
    2PC     O34 6647   4.329   4.374   5.622
    2PC     O21 6648   4.188   4.431   5.136
    2PC     C21 6649   4.072   4.370   5.108
    2PC     O22 6650   3.968   4.383   5.170
    3OL     C12 6651   4.079   4.278   4.989
    3OL     H2R 6652   4.117   4.178   5.009
    3OL     H2S 6653   4.144   4.321   4.912
    3OL     C13 6654   3.941   4.265   4.925
    3OL     H3R 6655   3.902   4.361   4.891
    3OL     H3S 6656   3.874   4.217   4.997
    3OL     C14 6657   3.942   4.176   4.801
    3OL     H4R 6658   3.841   4.150   4.769
    3OL     H4S 6659   3.987   4.081   4.830
    3OL     C15 6660   4.012   4.230   4.675
    3OL     H5R 6661   4.119   4.243   4.692
    3OL     H5S 6662   3.972   4.329   4.652
    3OL     C16 6663   3.993   4.132   4.558
    3OL     H6R 6664   3.887   4.123   4.533
    3OL     H6S 6665   4.035   4.036   4.588
    3OL     C17 6666   4.082   4.166   4.438
    3OL     H7R 6667   4.066   4.086   4.365
    3OL     H7S 6668   4.184   4.144   4.469
    3OL     C18 6669   4.063   4.308   4.381
    3OL     H8R 6670   4.103   4.378   4.454
    3OL     H8S 6671   3.956   4.331   4.373
    3OL     C19 6672   4.149   4.318   4.258
    3OL     H9R 6673   4.247   4.274   4.272
    3OL    C110 6674   4.116   4.360   4.137
    3OL    H10R 6675   4.197   4.358   4.064
    3OL    C111 6676   3.987   4.419   4.088
    3OL    H11R 6677   3.906   4.404   4.160
    3OL    H11S 6678   3.970   4.352   4.003
    3OL    C112 6679   4.019   4.563   4.046
    3OL    H12R 6680   4.086   4.565   3.960
    3OL    H12S 6681   4.073   4.615   4.125
    3OL    C113 6682   3.893   4.648   4.021
    3OL    H13R 6683   3.897   4.751   4.055
    3OL    H13S 6684   3.816   4.605   4.084
    3OL    C114 6685   3.840   4.653   3.877
    3OL    H14R 6686   3.811   4.550   3.853
    3OL    H14S 6687   3.916   4.695   3.811
    3OL    C115 6688   3.716   4.743   3.867
    3OL    H15R 6689   3.698   4.762   3.761
    3OL    H15S 6690   3.738   4.839   3.915
    3OL    C116 6691   3.598   4.664   3.924
    3OL    H16R 6692   3.603   4.661   4.033
    3OL    H16S 6693   3.604   4.565   3.880
    3OL    C117 6694   3.469   4.740   3.891
    3OL    H17R 6695   3.474   4.766   3.785
    3OL    H17S 6696   3.449   4.826   3.954
    3OL    C118 6697   3.353   4.643   3.918
    3OL    H18R 6698   3.334   4.642   4.026
    3OL    H18S 6699   3.363   4.545   3.872
    3OL    H18T 6700   3.259   4.688   3.886
    1PA    C116 6701   2.589   6.082   3.589
    1PA    H16R 6702   2.669   6.008   3.580
    1PA    H16S 6703   2.613   6.175   3.537
    1PA    H16T 6704   2.500   6.045   3.537
    1PA    C115 6705   2.558   6.109   3.737
    1PA    H15R 6706   2.639   6.162   3.787
    1PA    H15S 6707   2.460   6.157   3.744
    1PA    C114 6708   2.532   5.978   3.813
    1PA    H14R 6709   2.451   5.924   3.764
    1PA    H14S 6710   2.619   5.913   3.803
    1PA    C113 6711   2.499   6.000   3.961
    1PA    H13R 6712   2.588   6.039   4.011
    1PA    H13S 6713   2.415   6.070   3.958
    1PA    C112 6714   2.443   5.869   4.018
    1PA    H12R 6715   2.358   5.832   3.961
    1PA    H12S 6716   2.515   5.787   4.019
    1PA    C111 6717   2.392   5.897   4.160
    1PA    H11R 6718   2.462   5.958   4.218
    1PA    H11S 6719   2.308   5.966   4.150
    1PA    C110 6720   2.349   5.772   4.239
    1PA    H10R 6721   2.281   5.707   4.183
    1PA    H10S 6722   2.438   5.719   4.273
    1PA     C19 6723   2.262   5.818   4.357
    1PA     H9R 6724   2.307   5.904   4.408
    1PA     H9S 6725   2.164   5.858   4.332
    1PA     C18 6726   2.224   5.708   4.457
    1PA     H8R 6727   2.148   5.752   4.522
    1PA     H8S 6728   2.186   5.618   4.408
    1PA     C17 6729   2.336   5.674   4.556
    1PA     H7R 6730   2.415   5.620   4.504
    1PA     H7S 6731   2.385   5.765   4.590
    1PA     C16 6732   2.294   5.584   4.674
    1PA     H6R 6733   2.228   5.503   4.642
    1PA     H6S 6734   2.393   5.545   4.699
    1PA     C15 6735   2.242   5.673   4.787
    1PA     H5R 6736   2.308   5.753   4.819
    1PA     H5S 6737   2.152   5.727   4.755
    1PA     C14 6738   2.206   5.590   4.911
    1PA     H4R 6739   2.132   5.516   4.882
    1PA     H4S 6740   2.295   5.528   4.928
    1PA     C13 6741   2.167   5.669   5.037
    1PA     H3R 6742   2.230   5.757   5.051
    1PA     H3S 6743   2.060   5.694   5.039
    1PA     C12 6744   2.183   5.578   5.159
    1PA     H2R 6745   2.118   5.493   5.135
    1PA     H2S 6746   2.290   5.557   5.153
    2PC     C11 6747   2.130   5.632   5.289
    2PC     O12 6748   2.030   5.701   5.296
    2PC     O11 6749   2.225   5.632   5.383
    2PC      C1 6750   2.201   5.707   5.504
    2PC      HR 6751   2.178   5.812   5.488
    2PC      HS 6752   2.107   5.674   5.549
    2PC      C2 6753   2.316   5.687   5.604
    2PC      HX 6754   2.349   5.584   5.618
    2PC      C3 6755   2.285   5.742   5.744
    2PC      HA 6756   2.230   5.662   5.794
    2PC      HB 6757   2.377   5.756   5.801
    2PC     O31 6758   2.210   5.865   5.743
    2PC     P31 6759   2.206   5.953   5.877
    2PC     O32 6760   2.137   5.855   5.983
    2PC     C31 6761   2.003   5.811   5.957
    2PC     H1A 6762   1.943   5.902   5.943
    2PC     H1B 6763   1.998   5.748   5.868
    2PC     C32 6764   1.954   5.731   6.078
    2PC     H2A 6765   1.863   5.682   6.045
    2PC     H2B 6766   2.013   5.643   6.105
    2PC     N31 6767   1.927   5.809   6.203
    2PC     C33 6768   1.854   5.713   6.292
    2PC     H3A 6769   1.748   5.715   6.267
    2PC     H3B 6770   1.906   5.617   6.283
    2PC     H3C 6771   1.862   5.748   6.394
    2PC     C34 6772   2.058   5.842   6.267
    2PC     H4A 6773   2.102   5.923   6.208
    2PC     H4B 6774   2.030   5.883   6.364
    2PC     H4C 6775   2.113   5.749   6.280
    2PC     C35 6776   1.855   5.938   6.179
    2PC     H5A 6777   1.837   5.994   6.271
    2PC     H5B 6778   1.772   5.924   6.110
    2PC     H5C 6779   1.924   5.999   6.121
    2PC     O33 6780   2.340   5.991   5.927
    2PC     O34 6781   2.131   6.080   5.861
    2PC     O21 6782   2.434   5.758   5.560
    2PC     C21 6783   2.541   5.691   5.515
    2PC     O22 6784   2.564   5.573   5.529
    3OL     C12 6785   2.619   5.772   5.415
    3OL     H2R 6786   2.708   5.711   5.395
    3OL     H2S 6787   2.645   5.865   5.468
    3OL     C13 6788   2.536   5.789   5.288
    3OL     H3R 6789   2.451   5.858   5.291
    3OL     H3S 6790   2.497   5.691   5.260
    3OL     C14 6791   2.619   5.842   5.170
    3OL     H4R 6792   2.704   5.776   5.152
    3OL     H4S 6793   2.669   5.938   5.183
    3OL     C15 6794   2.530   5.852   5.045
    3OL     H5R 6795   2.449   5.924   5.061
    3OL     H5S 6796   2.478   5.760   5.016
    3OL     C16 6797   2.606   5.900   4.921
    3OL     H6R 6798   2.702   5.940   4.953
    3OL     H6S 6799   2.548   5.977   4.870
    3OL     C17 6800   2.648   5.784   4.829
    3OL     H7R 6801   2.556   5.731   4.804
    3OL     H7S 6802   2.701   5.722   4.901
    3OL     C18 6803   2.737   5.851   4.724
    3OL     H8R 6804   2.819   5.909   4.769
    3OL     H8S 6805   2.678   5.919   4.662
    3OL     C19 6806   2.803   5.737   4.652
    3OL     H9R 6807   2.851   5.665   4.718
    3OL    C110 6808   2.825   5.724   4.522
    3OL    H10R 6809   2.886   5.646   4.478
    3OL    C111 6810   2.772   5.827   4.424
    3OL    H11R 6811   2.784   5.927   4.465
    3OL    H11S 6812   2.665   5.813   4.407
    3OL    C112 6813   2.837   5.826   4.285
    3OL    H12R 6814   2.945   5.823   4.302
    3OL    H12S 6815   2.809   5.919   4.234
    3OL    C113 6816   2.798   5.697   4.213
    3OL    H13R 6817   2.729   5.722   4.132
    3OL    H13S 6818   2.750   5.617   4.271
    3OL    C114 6819   2.929   5.632   4.169
    3OL    H14R 6820   2.990   5.606   4.256
    3OL    H14S 6821   2.995   5.711   4.131
    3OL    C115 6822   2.916   5.510   4.077
    3OL    H15R 6823   3.015   5.469   4.058
    3OL    H15S 6824   2.863   5.557   3.994
    3OL    C116 6825   2.828   5.400   4.139
    3OL    H16R 6826   2.837   5.310   4.077
    3OL    H16S 6827   2.724   5.432   4.147
    3OL    C117 6828   2.880   5.362   4.278
    3OL    H17R 6829   2.879   5.448   4.346
    3OL    H17S 6830   2.987   5.337   4.279
    3OL    C118 6831   2.792   5.245   4.324
    3OL    H18R 6832   2.810   5.201   4.423
    3OL    H18S 6833   2.788   5.165   4.250
    3OL    H18T 6834   2.691   5.285   4.339
    1PA    C116 6835   2.127   1.383   4.136
    1PA    H16R 6836   2.191   1.307   4.091
    1PA    H16S 6837   2.177   1.479   4.127
    1PA    H16T 6838   2.049   1.381   4.059
    1PA    C115 6839   2.101   1.352   4.285
    1PA    H15R 6840   2.189   1.301   4.324
    1PA    H15S 6841   2.093   1.441   4.347
    1PA    C114 6842   1.971   1.270   4.281
    1PA    H14R 6843   1.889   1.310   4.220
    1PA    H14S 6844   1.994   1.168   4.251
    1PA    C113 6845   1.912   1.268   4.423
    1PA    H13R 6846   1.987   1.237   4.496
    1PA    H13S 6847   1.874   1.365   4.457
    1PA    C112 6848   1.805   1.160   4.443
    1PA    H12R 6849   1.715   1.197   4.396
    1PA    H12S 6850   1.843   1.073   4.388
    1PA    C111 6851   1.788   1.128   4.592
    1PA    H11R 6852   1.794   1.219   4.653
    1PA    H11S 6853   1.691   1.083   4.615
    1PA    C110 6854   1.886   1.020   4.639
    1PA    H10R 6855   1.992   1.025   4.612
    1PA    H10S 6856   1.882   1.013   4.748
    1PA     C19 6857   1.838   0.885   4.584
    1PA     H9R 6858   1.761   0.903   4.509
    1PA     H9S 6859   1.918   0.831   4.535
    1PA     C18 6860   1.779   0.789   4.689
    1PA     H8R 6861   1.842   0.754   4.771
    1PA     H8S 6862   1.706   0.845   4.747
    1PA     C17 6863   1.714   0.667   4.621
    1PA     H7R 6864   1.644   0.696   4.543
    1PA     H7S 6865   1.782   0.593   4.577
    1PA     C16 6866   1.633   0.587   4.724
    1PA     H6R 6867   1.573   0.651   4.789
    1PA     H6S 6868   1.555   0.541   4.663
    1PA     C15 6869   1.726   0.498   4.807
    1PA     H5R 6870   1.767   0.420   4.743
    1PA     H5S 6871   1.809   0.552   4.853
    1PA     C14 6872   1.641   0.427   4.913
    1PA     H4R 6873   1.548   0.398   4.863
    1PA     H4S 6874   1.683   0.327   4.930
    1PA     C13 6875   1.614   0.502   5.044
    1PA     H3R 6876   1.706   0.539   5.088
    1PA     H3S 6877   1.559   0.594   5.026
    1PA     C12 6878   1.523   0.415   5.133
    1PA     H2R 6879   1.427   0.393   5.086
    1PA     H2S 6880   1.571   0.319   5.156
    2PC     C11 6881   1.496   0.473   5.269
    2PC     O12 6882   1.559   0.563   5.320
    2PC     O11 6883   1.391   0.416   5.329
    2PC      C1 6884   1.361   0.442   5.467
    2PC      HR 6885   1.284   0.372   5.500
    2PC      HS 6886   1.450   0.408   5.521
    2PC      C2 6887   1.324   0.587   5.502
    2PC      HX 6888   1.410   0.650   5.480
    2PC      C3 6889   1.275   0.611   5.646
    2PC      HA 6890   1.188   0.554   5.677
    2PC      HB 6891   1.359   0.576   5.707
    2PC     O31 6892   1.249   0.752   5.655
    2PC     P31 6893   1.254   0.820   5.800
    2PC     O32 6894   1.096   0.831   5.774
    2PC     C31 6895   1.010   0.792   5.882
    2PC     H1A 6896   1.028   0.693   5.923
    2PC     H1B 6897   0.999   0.867   5.961
    2PC     C32 6898   0.876   0.772   5.809
    2PC     H2A 6899   0.839   0.857   5.751
    2PC     H2B 6900   0.900   0.698   5.732
    2PC     N31 6901   0.758   0.712   5.880
    2PC     C33 6902   0.678   0.822   5.942
    2PC     H3A 6903   0.591   0.762   5.971
    2PC     H3B 6904   0.724   0.880   6.022
    2PC     H3C 6905   0.639   0.886   5.862
    2PC     C34 6906   0.665   0.651   5.779
    2PC     H4A 6907   0.587   0.602   5.837
    2PC     H4B 6908   0.609   0.730   5.728
    2PC     H4C 6909   0.723   0.587   5.713
    2PC     C35 6910   0.789   0.614   5.989
    2PC     H5A 6911   0.821   0.524   5.938
    2PC     H5B 6912   0.702   0.594   6.053
    2PC     H5C 6913   0.868   0.655   6.052
    2PC     O33 6914   1.301   0.739   5.915
    2PC     O34 6915   1.338   0.942   5.792
    2PC     O21 6916   1.218   0.629   5.414
    2PC     C21 6917   1.091   0.587   5.424
    2PC     O22 6918   1.042   0.503   5.497
    3OL     C12 6919   1.002   0.667   5.333
    3OL     H2R 6920   1.046   0.755   5.286
    3OL     H2S 6921   0.919   0.704   5.393
    3OL     C13 6922   0.937   0.590   5.217
    3OL     H3R 6923   0.873   0.665   5.169
    3OL     H3S 6924   0.869   0.511   5.248
    3OL     C14 6925   1.036   0.523   5.122
    3OL     H4R 6926   0.970   0.465   5.057
    3OL     H4S 6927   1.092   0.450   5.182
    3OL     C15 6928   1.122   0.615   5.034
    3OL     H5R 6929   1.185   0.680   5.095
    3OL     H5S 6930   1.060   0.681   4.974
    3OL     C16 6931   1.215   0.538   4.938
    3OL     H6R 6932   1.164   0.480   4.861
    3OL     H6S 6933   1.269   0.460   4.993
    3OL     C17 6934   1.310   0.636   4.869
    3OL     H7R 6935   1.382   0.579   4.811
    3OL     H7S 6936   1.371   0.684   4.946
    3OL     C18 6937   1.239   0.727   4.767
    3OL     H8R 6938   1.312   0.794   4.721
    3OL     H8S 6939   1.167   0.795   4.814
    3OL     C19 6940   1.156   0.651   4.667
    3OL     H9R 6941   1.064   0.612   4.710
    3OL    C110 6942   1.190   0.636   4.540
    3OL    H10R 6943   1.135   0.574   4.470
    3OL    C111 6944   1.309   0.700   4.473
    3OL    H11R 6945   1.370   0.757   4.543
    3OL    H11S 6946   1.265   0.776   4.408
    3OL    C112 6947   1.400   0.607   4.392
    3OL    H12R 6948   1.351   0.531   4.330
    3OL    H12S 6949   1.458   0.544   4.460
    3OL    C113 6950   1.495   0.689   4.304
    3OL    H13R 6951   1.525   0.779   4.359
    3OL    H13S 6952   1.441   0.724   4.216
    3OL    C114 6953   1.618   0.612   4.254
    3OL    H14R 6954   1.576   0.537   4.186
    3OL    H14S 6955   1.679   0.579   4.338
    3OL    C115 6956   1.715   0.686   4.161
    3OL    H15R 6957   1.660   0.730   4.077
    3OL    H15S 6958   1.783   0.615   4.114
    3OL    C116 6959   1.792   0.797   4.234
    3OL    H16R 6960   1.855   0.745   4.306
    3OL    H16S 6961   1.723   0.864   4.287
    3OL    C117 6962   1.880   0.874   4.135
    3OL    H17R 6963   1.931   0.810   4.063
    3OL    H17S 6964   1.961   0.903   4.202
    3OL    C118 6965   1.807   0.988   4.063
    3OL    H18R 6966   1.747   1.044   4.134
    3OL    H18S 6967   1.736   0.947   3.991
    3OL    H18T 6968   1.866   1.064   4.012
    1PA    C116 6969   3.720   1.819   3.833
    1PA    H16R 6970   3.807   1.761   3.800
    1PA    H16S 6971   3.739   1.864   3.930
    1PA    H16T 6972   3.704   1.894   3.755
    1PA    C115 6973   3.598   1.727   3.849
    1PA    H15R 6974   3.505   1.778   3.872
    1PA    H15S 6975   3.581   1.677   3.753
    1PA    C114 6976   3.618   1.606   3.942
    1PA    H14R 6977   3.715   1.562   3.921
    1PA    H14S 6978   3.612   1.638   4.046
    1PA    C113 6979   3.505   1.507   3.910
    1PA    H13R 6980   3.410   1.555   3.936
    1PA    H13S 6981   3.491   1.494   3.803
    1PA    C112 6982   3.520   1.371   3.979
    1PA    H12R 6983   3.496   1.292   3.908
    1PA    H12S 6984   3.624   1.349   4.004
    1PA    C111 6985   3.433   1.360   4.105
    1PA    H11R 6986   3.334   1.399   4.078
    1PA    H11S 6987   3.418   1.256   4.135
    1PA    C110 6988   3.492   1.425   4.231
    1PA    H10R 6989   3.590   1.381   4.251
    1PA    H10S 6990   3.498   1.533   4.215
    1PA     C19 6991   3.393   1.405   4.347
    1PA     H9R 6992   3.289   1.427   4.323
    1PA     H9S 6993   3.406   1.303   4.383
    1PA     C18 6994   3.440   1.479   4.473
    1PA     H8R 6995   3.526   1.442   4.529
    1PA     H8S 6996   3.460   1.584   4.447
    1PA     C17 6997   3.331   1.465   4.580
    1PA     H7R 6998   3.232   1.494   4.544
    1PA     H7S 6999   3.326   1.361   4.615
    1PA     C16 7000   3.356   1.554   4.702
    1PA     H6R 7001   3.462   1.551   4.726
    1PA     H6S 7002   3.338   1.658   4.673
    1PA     C15 7003   3.264   1.515   4.818
    1PA     H5R 7004   3.165   1.547   4.785
    1PA     H5S 7005   3.273   1.408   4.841
    1PA     C14 7006   3.303   1.595   4.942
    1PA     H4R 7007   3.411   1.594   4.962
    1PA     H4S 7008   3.278   1.700   4.921
    1PA     C13 7009   3.232   1.542   5.068
    1PA     H3R 7010   3.254   1.437   5.087
    1PA     H3S 7011   3.278   1.590   5.154
    1PA     C12 7012   3.079   1.553   5.066
    1PA     H2R 7013   3.067   1.660   5.051
    1PA     H2S 7014   3.029   1.493   4.989
    2PC     C11 7015   3.014   1.538   5.201
    2PC     O12 7016   3.059   1.485   5.300
    2PC     O11 7017   2.896   1.603   5.202
    2PC      C1 7018   2.813   1.615   5.319
    2PC      HR 7019   2.710   1.644   5.295
    2PC      HS 7020   2.804   1.511   5.351
    2PC      C2 7021   2.866   1.705   5.432
    2PC      HX 7022   2.968   1.674   5.455
    2PC      C3 7023   2.774   1.708   5.555
    2PC      HA 7024   2.675   1.750   5.539
    2PC      HB 7025   2.776   1.606   5.595
    2PC     O31 7026   2.849   1.790   5.647
    2PC     P31 7027   2.885   1.745   5.797
    2PC     O32 7028   2.847   1.884   5.867
    2PC     C31 7029   2.914   1.915   5.990
    2PC     H1A 7030   2.857   1.879   6.076
    2PC     H1B 7031   3.003   1.854   6.002
    2PC     C32 7032   2.920   2.065   6.022
    2PC     H2A 7033   2.996   2.087   6.096
    2PC     H2B 7034   2.949   2.112   5.927
    2PC     N31 7035   2.790   2.132   6.057
    2PC     C33 7036   2.710   2.059   6.161
    2PC     H3A 7037   2.781   2.045   6.242
    2PC     H3B 7038   2.626   2.124   6.187
    2PC     H3C 7039   2.670   1.968   6.116
    2PC     C34 7040   2.825   2.267   6.111
    2PC     H4A 7041   2.735   2.320   6.140
    2PC     H4B 7042   2.901   2.254   6.189
    2PC     H4C 7043   2.868   2.331   6.035
    2PC     C35 7044   2.707   2.150   5.933
    2PC     H5A 7045   2.603   2.179   5.946
    2PC     H5B 7046   2.692   2.058   5.877
    2PC     H5C 7047   2.752   2.238   5.887
    2PC     O33 7048   2.815   1.633   5.863
    2PC     O34 7049   3.032   1.725   5.789
    2PC     O21 7050   2.869   1.838   5.377
    2PC     C21 7051   2.983   1.884   5.323
    2PC     O22 7052   3.086   1.822   5.312
    3OL     C12 7053   2.971   2.030   5.286
    3OL     H2R 7054   3.014   2.091   5.365
    3OL     H2S 7055   2.869   2.068   5.273
    3OL     C13 7056   3.058   2.058   5.162
    3OL     H3R 7057   3.042   1.978   5.090
    3OL     H3S 7058   3.163   2.057   5.192
    3OL     C14 7059   3.030   2.191   5.092
    3OL     H4R 7060   3.113   2.200   5.021
    3OL     H4S 7061   3.043   2.279   5.156
    3OL     C15 7062   2.894   2.197   5.022
    3OL     H5R 7063   2.808   2.236   5.077
    3OL     H5S 7064   2.870   2.093   5.000
    3OL     C16 7065   2.899   2.280   4.892
    3OL     H6R 7066   2.802   2.264   4.844
    3OL     H6S 7067   2.984   2.248   4.832
    3OL     C17 7068   2.913   2.428   4.929
    3OL     H7R 7069   3.012   2.434   4.975
    3OL     H7S 7070   2.838   2.449   5.006
    3OL     C18 7071   2.906   2.516   4.803
    3OL     H8R 7072   2.812   2.570   4.805
    3OL     H8S 7073   2.921   2.455   4.714
    3OL     C19 7074   3.014   2.620   4.820
    3OL     H9R 7075   3.000   2.693   4.899
    3OL    C110 7076   3.126   2.633   4.750
    3OL    H10R 7077   3.185   2.714   4.791
    3OL    C111 7078   3.181   2.540   4.645
    3OL    H11R 7079   3.118   2.451   4.641
    3OL    H11S 7080   3.285   2.519   4.669
    3OL    C112 7081   3.181   2.601   4.504
    3OL    H12R 7082   3.207   2.705   4.524
    3OL    H12S 7083   3.081   2.592   4.459
    3OL    C113 7084   3.286   2.544   4.408
    3OL    H13R 7085   3.387   2.537   4.448
    3OL    H13S 7086   3.293   2.616   4.327
    3OL    C114 7087   3.237   2.406   4.361
    3OL    H14R 7088   3.135   2.425   4.328
    3OL    H14S 7089   3.221   2.344   4.450
    3OL    C115 7090   3.318   2.329   4.256
    3OL    H15R 7091   3.280   2.227   4.256
    3OL    H15S 7092   3.419   2.330   4.298
    3OL    C116 7093   3.314   2.395   4.118
    3OL    H16R 7094   3.349   2.498   4.121
    3OL    H16S 7095   3.206   2.396   4.101
    3OL    C117 7096   3.400   2.310   4.023
    3OL    H17R 7097   3.356   2.210   4.014
    3OL    H17S 7098   3.503   2.281   4.046
    3OL    C118 7099   3.402   2.385   3.889
    3OL    H18R 7100   3.303   2.403   3.848
    3OL    H18S 7101   3.458   2.326   3.817
    3OL    H18T 7102   3.448   2.483   3.903
    1PA    C116 7103   2.944   0.410   3.935
    1PA    H16R 7104   2.921   0.506   3.889
    1PA    H16S 7105   2.873   0.336   3.898
    1PA    H16T 7106   3.049   0.383   3.918
    1PA    C115 7107   2.902   0.427   4.081
    1PA    H15R 7108   2.945   0.344   4.137
    1PA    H15S 7109   2.942   0.518   4.127
    1PA    C114 7110   2.750   0.412   4.098
    1PA    H14R 7111   2.705   0.494   4.042
    1PA    H14S 7112   2.703   0.327   4.048
    1PA    C113 7113   2.715   0.402   4.247
    1PA    H13R 7114   2.752   0.490   4.300
    1PA    H13S 7115   2.608   0.415   4.265
    1PA    C112 7116   2.774   0.276   4.312
    1PA    H12R 7117   2.777   0.196   4.237
    1PA    H12S 7118   2.875   0.305   4.340
    1PA    C111 7119   2.698   0.228   4.436
    1PA    H11R 7120   2.648   0.300   4.502
    1PA    H11S 7121   2.620   0.156   4.411
    1PA    C110 7122   2.800   0.145   4.514
    1PA    H10R 7123   2.868   0.086   4.453
    1PA    H10S 7124   2.869   0.212   4.568
    1PA     C19 7125   2.725   0.057   4.614
    1PA     H9R 7126   2.630   0.023   4.570
    1PA     H9S 7127   2.787  -0.030   4.638
    1PA     C18 7128   2.705   0.140   4.741
    1PA     H8R 7129   2.800   0.187   4.767
    1PA     H8S 7130   2.636   0.222   4.720
    1PA     C17 7131   2.672   0.058   4.867
    1PA     H7R 7132   2.585  -0.008   4.856
    1PA     H7S 7133   2.743  -0.025   4.880
    1PA     C16 7134   2.654   0.152   4.986
    1PA     H6R 7135   2.731   0.230   4.986
    1PA     H6S 7136   2.561   0.205   4.965
    1PA     C15 7137   2.664   0.081   5.122
    1PA     H5R 7138   2.743   0.005   5.117
    1PA     H5S 7139   2.698   0.150   5.198
    1PA     C14 7140   2.529   0.014   5.153
    1PA     H4R 7141   2.508   0.040   5.257
    1PA     H4S 7142   2.441   0.046   5.098
    1PA     C13 7143   2.527  -0.137   5.124
    1PA     H3R 7144   2.547  -0.144   5.017
    1PA     H3S 7145   2.607  -0.190   5.177
    1PA     C12 7146   2.394  -0.202   5.163
    1PA     H2R 7147   2.307  -0.157   5.114
    1PA     H2S 7148   2.387  -0.308   5.138
    2PC     C11 7149   2.374  -0.193   5.312
    2PC     O12 7150   2.447  -0.245   5.395
    2PC     O11 7151   2.255  -0.139   5.342
    2PC      C1 7152   2.206  -0.128   5.477
    2PC      HR 7153   2.098  -0.110   5.470
    2PC      HS 7154   2.228  -0.216   5.537
    2PC      C2 7155   2.270  -0.005   5.543
    2PC      HX 7156   2.379  -0.015   5.552
    2PC      C3 7157   2.210   0.012   5.683
    2PC      HA 7158   2.101   0.021   5.681
    2PC      HB 7159   2.235  -0.076   5.742
    2PC     O31 7160   2.270   0.125   5.748
    2PC     P31 7161   2.271   0.146   5.907
    2PC     O32 7162   2.158   0.259   5.909
    2PC     C31 7163   2.021   0.241   5.868
    2PC     H1A 7164   2.019   0.243   5.759
    2PC     H1B 7165   1.983   0.147   5.908
    2PC     C32 7166   1.935   0.359   5.916
    2PC     H2A 7167   1.839   0.350   5.864
    2PC     H2B 7168   1.913   0.337   6.021
    2PC     N31 7169   2.000   0.494   5.909
    2PC     C33 7170   2.079   0.520   6.033
    2PC     H3A 7171   2.144   0.604   6.008
    2PC     H3B 7172   2.010   0.560   6.108
    2PC     H3C 7173   2.135   0.433   6.066
    2PC     C34 7174   2.069   0.523   5.779
    2PC     H4A 7175   2.007   0.476   5.702
    2PC     H4B 7176   2.089   0.628   5.758
    2PC     H4C 7177   2.165   0.473   5.792
    2PC     C35 7178   1.885   0.589   5.922
    2PC     H5A 7179   1.825   0.559   6.008
    2PC     H5B 7180   1.835   0.579   5.825
    2PC     H5C 7181   1.927   0.689   5.931
    2PC     O33 7182   2.218   0.024   5.972
    2PC     O34 7183   2.399   0.176   5.974
    2PC     O21 7184   2.235   0.116   5.473
    2PC     C21 7185   2.311   0.226   5.486
    2PC     O22 7186   2.417   0.226   5.545
    3OL     C12 7187   2.256   0.356   5.433
    3OL     H2R 7188   2.233   0.427   5.513
    3OL     H2S 7189   2.163   0.322   5.387
    3OL     C13 7190   2.359   0.418   5.338
    3OL     H3R 7191   2.389   0.338   5.270
    3OL     H3S 7192   2.440   0.445   5.406
    3OL     C14 7193   2.312   0.540   5.257
    3OL     H4R 7194   2.276   0.621   5.321
    3OL     H4S 7195   2.223   0.506   5.204
    3OL     C15 7196   2.429   0.590   5.171
    3OL     H5R 7197   2.524   0.579   5.223
    3OL     H5S 7198   2.416   0.696   5.145
    3OL     C16 7199   2.420   0.519   5.035
    3OL     H6R 7200   2.328   0.558   4.991
    3OL     H6S 7201   2.439   0.413   5.050
    3OL     C17 7202   2.541   0.562   4.951
    3OL     H7R 7203   2.635   0.540   5.003
    3OL     H7S 7204   2.539   0.670   4.935
    3OL     C18 7205   2.557   0.496   4.813
    3OL     H8R 7206   2.475   0.541   4.757
    3OL     H8S 7207   2.534   0.390   4.824
    3OL     C19 7208   2.691   0.506   4.745
    3OL     H9R 7209   2.765   0.442   4.792
    3OL    C110 7210   2.731   0.580   4.642
    3OL    H10R 7211   2.832   0.576   4.602
    3OL    C111 7212   2.641   0.679   4.573
    3OL    H11R 7213   2.563   0.713   4.642
    3OL    H11S 7214   2.597   0.632   4.484
    3OL    C112 7215   2.710   0.806   4.521
    3OL    H12R 7216   2.641   0.860   4.455
    3OL    H12S 7217   2.799   0.788   4.461
    3OL    C113 7218   2.754   0.897   4.636
    3OL    H13R 7219   2.843   0.848   4.676
    3OL    H13S 7220   2.677   0.909   4.712
    3OL    C114 7221   2.789   1.036   4.581
    3OL    H14R 7222   2.703   1.078   4.529
    3OL    H14S 7223   2.871   1.014   4.511
    3OL    C115 7224   2.846   1.134   4.685
    3OL    H15R 7225   2.767   1.155   4.757
    3OL    H15S 7226   2.874   1.227   4.635
    3OL    C116 7227   2.963   1.078   4.766
    3OL    H16R 7228   3.049   1.053   4.703
    3OL    H16S 7229   2.936   0.987   4.819
    3OL    C117 7230   3.021   1.173   4.872
    3OL    H17R 7231   3.052   1.268   4.829
    3OL    H17S 7232   3.110   1.134   4.921
    3OL    C118 7233   2.911   1.202   4.974
    3OL    H18R 7234   2.951   1.264   5.055
    3OL    H18S 7235   2.863   1.110   5.010
    3OL    H18T 7236   2.833   1.266   4.931
    1PA    C116 7237   2.264   2.595   3.550
    1PA    H16R 7238   2.192   2.577   3.471
    1PA    H16S 7239   2.359   2.543   3.539
    1PA    H16T 7240   2.284   2.702   3.563
    1PA    C115 7241   2.198   2.532   3.674
    1PA    H15R 7242   2.098   2.576   3.666
    1PA    H15S 7243   2.183   2.424   3.669
    1PA    C114 7244   2.272   2.574   3.801
    1PA    H14R 7245   2.289   2.681   3.787
    1PA    H14S 7246   2.212   2.553   3.889
    1PA    C113 7247   2.404   2.497   3.815
    1PA    H13R 7248   2.376   2.391   3.822
    1PA    H13S 7249   2.463   2.514   3.725
    1PA    C112 7250   2.475   2.539   3.945
    1PA    H12R 7251   2.576   2.497   3.942
    1PA    H12S 7252   2.500   2.645   3.956
    1PA    C111 7253   2.421   2.493   4.081
    1PA    H11R 7254   2.315   2.516   4.089
    1PA    H11S 7255   2.418   2.384   4.074
    1PA    C110 7256   2.500   2.551   4.199
    1PA    H10R 7257   2.605   2.530   4.176
    1PA    H10S 7258   2.497   2.660   4.208
    1PA     C19 7259   2.479   2.478   4.333
    1PA     H9R 7260   2.467   2.370   4.322
    1PA     H9S 7261   2.569   2.492   4.393
    1PA     C18 7262   2.360   2.534   4.412
    1PA     H8R 7263   2.373   2.642   4.428
    1PA     H8S 7264   2.265   2.524   4.359
    1PA     C17 7265   2.331   2.468   4.547
    1PA     H7R 7266   2.228   2.481   4.581
    1PA     H7S 7267   2.343   2.363   4.521
    1PA     C16 7268   2.428   2.514   4.657
    1PA     H6R 7269   2.530   2.486   4.630
    1PA     H6S 7270   2.430   2.623   4.660
    1PA     C15 7271   2.393   2.466   4.799
    1PA     H5R 7272   2.290   2.496   4.822
    1PA     H5S 7273   2.412   2.359   4.810
    1PA     C14 7274   2.498   2.528   4.891
    1PA     H4R 7275   2.597   2.492   4.861
    1PA     H4S 7276   2.492   2.635   4.875
    1PA     C13 7277   2.490   2.495   5.041
    1PA     H3R 7278   2.568   2.548   5.095
    1PA     H3S 7279   2.403   2.543   5.087
    1PA     C12 7280   2.502   2.344   5.068
    1PA     H2R 7281   2.417   2.294   5.022
    1PA     H2S 7282   2.591   2.302   5.020
    2PC     C11 7283   2.494   2.298   5.211
    2PC     O12 7284   2.420   2.352   5.291
    2PC     O11 7285   2.578   2.197   5.237
    2PC      C1 7286   2.603   2.147   5.370
    2PC      HR 7287   2.696   2.090   5.376
    2PC      HS 7288   2.620   2.234   5.433
    2PC      C2 7289   2.495   2.048   5.415
    2PC      HX 7290   2.395   2.090   5.404
    2PC      C3 7291   2.509   2.025   5.567
    2PC      HA 7292   2.603   1.980   5.598
    2PC      HB 7293   2.506   2.122   5.617
    2PC     O31 7294   2.384   1.966   5.607
    2PC     P31 7295   2.367   1.934   5.763
    2PC     O32 7296   2.451   1.801   5.794
    2PC     C31 7297   2.390   1.671   5.783
    2PC     H1A 7298   2.289   1.671   5.825
    2PC     H1B 7299   2.390   1.646   5.677
    2PC     C32 7300   2.476   1.560   5.845
    2PC     H2A 7301   2.431   1.465   5.816
    2PC     H2B 7302   2.574   1.565   5.797
    2PC     N31 7303   2.487   1.552   5.995
    2PC     C33 7304   2.349   1.547   6.051
    2PC     H3A 7305   2.293   1.484   5.981
    2PC     H3B 7306   2.351   1.510   6.154
    2PC     H3C 7307   2.296   1.642   6.038
    2PC     C34 7308   2.572   1.435   6.035
    2PC     H4A 7309   2.603   1.438   6.139
    2PC     H4B 7310   2.519   1.343   6.007
    2PC     H4C 7311   2.659   1.436   5.970
    2PC     C35 7312   2.556   1.677   6.042
    2PC     H5A 7313   2.565   1.661   6.149
    2PC     H5B 7314   2.497   1.766   6.019
    2PC     H5C 7315   2.653   1.693   5.996
    2PC     O33 7316   2.396   2.044   5.858
    2PC     O34 7317   2.221   1.924   5.787
    2PC     O21 7318   2.517   1.923   5.347
    2PC     C21 7319   2.427   1.891   5.252
    2PC     O22 7320   2.327   1.954   5.226
    3OL     C12 7321   2.477   1.781   5.161
    3OL     H2R 7322   2.395   1.733   5.108
    3OL     H2S 7323   2.522   1.701   5.219
    3OL     C13 7324   2.579   1.839   5.062
    3OL     H3R 7325   2.655   1.903   5.108
    3OL     H3S 7326   2.534   1.909   4.992
    3OL     C14 7327   2.639   1.731   4.971
    3OL     H4R 7328   2.567   1.689   4.901
    3OL     H4S 7329   2.682   1.647   5.027
    3OL     C15 7330   2.750   1.786   4.880
    3OL     H5R 7331   2.828   1.819   4.949
    3OL     H5S 7332   2.704   1.867   4.824
    3OL     C16 7333   2.813   1.675   4.795
    3OL     H6R 7334   2.739   1.620   4.737
    3OL     H6S 7335   2.862   1.598   4.854
    3OL     C17 7336   2.917   1.724   4.692
    3OL     H7R 7337   2.864   1.784   4.618
    3OL     H7S 7338   2.952   1.635   4.640
    3OL     C18 7339   3.028   1.807   4.756
    3OL     H8R 7340   3.089   1.748   4.825
    3OL     H8S 7341   2.986   1.889   4.815
    3OL     C19 7342   3.117   1.865   4.649
    3OL     H9R 7343   3.219   1.828   4.646
    3OL    C110 7344   3.086   1.953   4.555
    3OL    H10R 7345   3.158   1.972   4.475
    3OL    C111 7346   2.962   2.038   4.542
    3OL    H11R 7347   2.926   2.065   4.642
    3OL    H11S 7348   2.881   1.980   4.498
    3OL    C112 7349   2.993   2.169   4.468
    3OL    H12R 7350   3.040   2.137   4.374
    3OL    H12S 7351   3.061   2.232   4.525
    3OL    C113 7352   2.860   2.243   4.447
    3OL    H13R 7353   2.882   2.350   4.436
    3OL    H13S 7354   2.801   2.245   4.539
    3OL    C114 7355   2.776   2.201   4.327
    3OL    H14R 7356   2.677   2.247   4.336
    3OL    H14S 7357   2.770   2.093   4.311
    3OL    C115 7358   2.834   2.260   4.198
    3OL    H15R 7359   2.937   2.224   4.191
    3OL    H15S 7360   2.842   2.369   4.199
    3OL    C116 7361   2.762   2.205   4.074
    3OL    H16R 7362   2.660   2.245   4.076
    3OL    H16S 7363   2.761   2.096   4.085
    3OL    C117 7364   2.833   2.246   3.945
    3OL    H17R 7365   2.929   2.194   3.935
    3OL    H17S 7366   2.842   2.353   3.925
    3OL    C118 7367   2.743   2.202   3.828
    3OL    H18R 7368   2.773   2.237   3.729
    3OL    H18S 7369   2.640   2.233   3.849
    3OL    H18T 7370   2.730   2.094   3.819
    1PA    C116 7371   5.244   6.459   4.202
    1PA    H16R 7372   5.340   6.473   4.152
    1PA    H16S 7373   5.186   6.373   4.168
    1PA    H16T 7374   5.267   6.439   4.307
    1PA    C115 7375   5.153   6.583   4.199
    1PA    H15R 7376   5.204   6.670   4.239
    1PA    H15S 7377   5.149   6.612   4.094
    1PA    C114 7378   5.011   6.565   4.254
    1PA    H14R 7379   4.979   6.469   4.211
    1PA    H14S 7380   5.005   6.553   4.362
    1PA    C113 7381   4.926   6.686   4.213
    1PA    H13R 7382   4.985   6.771   4.247
    1PA    H13S 7383   4.905   6.694   4.106
    1PA    C112 7384   4.789   6.681   4.282
    1PA    H12R 7385   4.798   6.705   4.388
    1PA    H12S 7386   4.727   6.751   4.225
    1PA    C111 7387   4.718   6.547   4.257
    1PA    H11R 7388   4.716   6.527   4.150
    1PA    H11S 7389   4.770   6.467   4.309
    1PA    C110 7390   4.574   6.553   4.308
    1PA    H10R 7391   4.578   6.600   4.406
    1PA    H10S 7392   4.511   6.619   4.248
    1PA     C19 7393   4.493   6.423   4.317
    1PA     H9R 7394   4.390   6.438   4.352
    1PA     H9S 7395   4.474   6.393   4.213
    1PA     C18 7396   4.569   6.320   4.401
    1PA     H8R 7397   4.633   6.254   4.341
    1PA     H8S 7398   4.626   6.377   4.475
    1PA     C17 7399   4.481   6.212   4.465
    1PA     H7R 7400   4.390   6.194   4.407
    1PA     H7S 7401   4.542   6.121   4.468
    1PA     C16 7402   4.426   6.254   4.602
    1PA     H6R 7403   4.443   6.361   4.613
    1PA     H6S 7404   4.318   6.244   4.588
    1PA     C15 7405   4.486   6.164   4.711
    1PA     H5R 7406   4.474   6.060   4.683
    1PA     H5S 7407   4.595   6.153   4.708
    1PA     C14 7408   4.441   6.202   4.853
    1PA     H4R 7409   4.472   6.304   4.874
    1PA     H4S 7410   4.333   6.219   4.857
    1PA     C13 7411   4.489   6.113   4.968
    1PA     H3R 7412   4.595   6.088   4.953
    1PA     H3S 7413   4.478   6.174   5.057
    1PA     C12 7414   4.413   5.983   4.999
    1PA     H2R 7415   4.308   5.993   4.974
    1PA     H2S 7416   4.444   5.907   4.926
    2PC     C11 7417   4.426   5.940   5.143
    2PC     O12 7418   4.451   6.012   5.237
    2PC     O11 7419   4.434   5.806   5.153
    2PC      C1 7420   4.452   5.746   5.283
    2PC      HR 7421   4.479   5.642   5.260
    2PC      HS 7422   4.529   5.795   5.343
    2PC      C2 7423   4.324   5.731   5.365
    2PC      HX 7424   4.292   5.832   5.390
    2PC      C3 7425   4.338   5.651   5.495
    2PC      HA 7426   4.367   5.546   5.484
    2PC      HB 7427   4.414   5.695   5.561
    2PC     O31 7428   4.213   5.650   5.567
    2PC     P31 7429   4.215   5.603   5.720
    2PC     O32 7430   4.064   5.618   5.772
    2PC     C31 7431   4.025   5.703   5.882
    2PC     H1A 7432   3.922   5.671   5.898
    2PC     H1B 7433   4.079   5.680   5.974
    2PC     C32 7434   4.038   5.848   5.833
    2PC     H2A 7435   4.029   5.907   5.924
    2PC     H2B 7436   4.138   5.857   5.791
    2PC     N31 7437   3.942   5.901   5.731
    2PC     C33 7438   3.963   5.832   5.600
    2PC     H3A 7439   4.070   5.828   5.580
    2PC     H3B 7440   3.938   5.727   5.617
    2PC     H3C 7441   3.905   5.879   5.520
    2PC     C34 7442   3.801   5.892   5.782
    2PC     H4A 7443   3.744   5.928   5.696
    2PC     H4B 7444   3.774   5.787   5.796
    2PC     H4C 7445   3.784   5.960   5.865
    2PC     C35 7446   3.971   6.048   5.720
    2PC     H5A 7447   3.933   6.097   5.810
    2PC     H5B 7448   3.903   6.083   5.642
    2PC     H5C 7449   4.075   6.068   5.697
    2PC     O33 7450   4.251   5.460   5.710
    2PC     O34 7451   4.317   5.672   5.803
    2PC     O21 7452   4.218   5.671   5.288
    2PC     C21 7453   4.096   5.722   5.265
    2PC     O22 7454   4.057   5.822   5.323
    3OL     C12 7455   4.013   5.635   5.174
    3OL     H2R 7456   3.918   5.683   5.148
    3OL     H2S 7457   3.990   5.546   5.233
    3OL     C13 7458   4.081   5.595   5.042
    3OL     H3R 7459   4.021   5.519   4.993
    3OL     H3S 7460   4.171   5.541   5.074
    3OL     C14 7461   4.101   5.714   4.947
    3OL     H4R 7462   4.169   5.783   4.999
    3OL     H4S 7463   4.002   5.759   4.935
    3OL     C15 7464   4.157   5.676   4.810
    3OL     H5R 7465   4.100   5.599   4.758
    3OL     H5S 7466   4.253   5.628   4.828
    3OL     C16 7467   4.175   5.796   4.716
    3OL     H6R 7468   4.232   5.876   4.766
    3OL     H6S 7469   4.079   5.843   4.695
    3OL     C17 7470   4.250   5.756   4.588
    3OL     H7R 7471   4.209   5.666   4.542
    3OL     H7S 7472   4.348   5.720   4.619
    3OL     C18 7473   4.263   5.867   4.483
    3OL     H8R 7474   4.345   5.841   4.416
    3OL     H8S 7475   4.292   5.963   4.526
    3OL     C19 7476   4.136   5.891   4.406
    3OL     H9R 7477   4.042   5.894   4.460
    3OL    C110 7478   4.130   5.896   4.274
    3OL    H10R 7479   4.033   5.914   4.228
    3OL    C111 7480   4.247   5.882   4.179
    3OL    H11R 7481   4.208   5.879   4.077
    3OL    H11S 7482   4.302   5.788   4.188
    3OL    C112 7483   4.342   6.000   4.199
    3OL    H12R 7484   4.422   5.983   4.271
    3OL    H12S 7485   4.282   6.089   4.217
    3OL    C113 7486   4.420   6.013   4.066
    3OL    H13R 7487   4.357   6.017   3.977
    3OL    H13S 7488   4.488   5.928   4.058
    3OL    C114 7489   4.508   6.138   4.063
    3OL    H14R 7490   4.568   6.151   4.153
    3OL    H14S 7491   4.436   6.221   4.065
    3OL    C115 7492   4.605   6.148   3.945
    3OL    H15R 7493   4.556   6.161   3.848
    3OL    H15S 7494   4.660   6.054   3.939
    3OL    C116 7495   4.705   6.264   3.955
    3OL    H16R 7496   4.712   6.287   4.061
    3OL    H16S 7497   4.662   6.355   3.911
    3OL    C117 7498   4.834   6.234   3.877
    3OL    H17R 7499   4.806   6.200   3.778
    3OL    H17S 7500   4.874   6.140   3.916
    3OL    C118 7501   4.938   6.347   3.890
    3OL    H18R 7502   4.988   6.323   3.984
    3OL    H18S 7503   4.886   6.442   3.902
    3OL    H18T 7504   5.003   6.352   3.803
    1PA    C116 7505   6.152   2.358   4.403
    1PA    H16R 7506   6.079   2.279   4.426
    1PA    H16S 7507   6.198   2.384   4.499
    1PA    H16T 7508   6.232   2.331   4.334
    1PA    C115 7509   6.071   2.478   4.352
    1PA    H15R 7510   6.138   2.553   4.308
    1PA    H15S 7511   6.016   2.432   4.270
    1PA    C114 7512   5.969   2.533   4.453
    1PA    H14R 7513   5.906   2.447   4.478
    1PA    H14S 7514   6.014   2.572   4.544
    1PA    C113 7515   5.885   2.642   4.386
    1PA    H13R 7516   5.947   2.731   4.392
    1PA    H13S 7517   5.858   2.628   4.281
    1PA    C112 7518   5.760   2.666   4.473
    1PA    H12R 7519   5.786   2.658   4.579
    1PA    H12S 7520   5.719   2.767   4.459
    1PA    C111 7521   5.659   2.565   4.417
    1PA    H11R 7522   5.624   2.620   4.330
    1PA    H11S 7523   5.701   2.468   4.389
    1PA    C110 7524   5.547   2.539   4.518
    1PA    H10R 7525   5.471   2.466   4.489
    1PA    H10S 7526   5.591   2.508   4.613
    1PA     C19 7527   5.459   2.663   4.536
    1PA     H9R 7528   5.510   2.744   4.588
    1PA     H9S 7529   5.430   2.704   4.439
    1PA     C18 7530   5.336   2.627   4.621
    1PA     H8R 7531   5.251   2.693   4.601
    1PA     H8S 7532   5.298   2.530   4.588
    1PA     C17 7533   5.354   2.609   4.773
    1PA     H7R 7534   5.263   2.569   4.816
    1PA     H7S 7535   5.425   2.528   4.788
    1PA     C16 7536   5.399   2.737   4.846
    1PA     H6R 7537   5.503   2.761   4.823
    1PA     H6S 7538   5.346   2.828   4.817
    1PA     C15 7539   5.399   2.716   4.998
    1PA     H5R 7540   5.429   2.618   5.035
    1PA     H5S 7541   5.471   2.789   5.038
    1PA     C14 7542   5.259   2.753   5.049
    1PA     H4R 7543   5.233   2.855   5.021
    1PA     H4S 7544   5.190   2.679   5.009
    1PA     C13 7545   5.263   2.728   5.201
    1PA     H3R 7546   5.254   2.622   5.226
    1PA     H3S 7547   5.347   2.776   5.252
    1PA     C12 7548   5.128   2.784   5.248
    1PA     H2R 7549   5.137   2.892   5.231
    1PA     H2S 7550   5.050   2.739   5.187
    2PC     C11 7551   5.093   2.757   5.392
    2PC     O12 7552   5.137   2.828   5.480
    2PC     O11 7553   5.006   2.654   5.397
    2PC      C1 7554   4.969   2.619   5.531
    2PC      HR 7555   4.925   2.519   5.538
    2PC      HS 7556   5.057   2.613   5.596
    2PC      C2 7557   4.866   2.714   5.593
    2PC      HX 7558   4.917   2.811   5.602
    2PC      C3 7559   4.816   2.664   5.729
    2PC      HA 7560   4.766   2.568   5.711
    2PC      HB 7561   4.901   2.651   5.795
    2PC     O31 7562   4.722   2.755   5.789
    2PC     P31 7563   4.782   2.896   5.835
    2PC     O32 7564   4.740   2.986   5.709
    2PC     C31 7565   4.604   3.031   5.696
    2PC     H1A 7566   4.530   2.951   5.683
    2PC     H1B 7567   4.571   3.086   5.785
    2PC     C32 7568   4.604   3.118   5.569
    2PC     H2A 7569   4.657   3.067   5.489
    2PC     H2B 7570   4.503   3.147   5.538
    2PC     N31 7571   4.667   3.254   5.582
    2PC     C33 7572   4.653   3.340   5.460
    2PC     H3A 7573   4.658   3.266   5.380
    2PC     H3B 7574   4.553   3.384   5.458
    2PC     H3C 7575   4.725   3.422   5.460
    2PC     C34 7576   4.611   3.331   5.697
    2PC     H4A 7577   4.621   3.284   5.795
    2PC     H4B 7578   4.669   3.423   5.707
    2PC     H4C 7579   4.506   3.353   5.675
    2PC     C35 7580   4.816   3.245   5.599
    2PC     H5A 7581   4.838   3.175   5.681
    2PC     H5B 7582   4.856   3.342   5.626
    2PC     H5C 7583   4.851   3.221   5.499
    2PC     O33 7584   4.720   2.962   5.952
    2PC     O34 7585   4.925   2.886   5.870
    2PC     O21 7586   4.754   2.718   5.504
    2PC     C21 7587   4.748   2.811   5.407
    2PC     O22 7588   4.831   2.891   5.370
    3OL     C12 7589   4.618   2.802   5.330
    3OL     H2R 7590   4.619   2.882   5.256
    3OL     H2S 7591   4.533   2.824   5.395
    3OL     C13 7592   4.601   2.666   5.261
    3OL     H3R 7593   4.502   2.671   5.215
    3OL     H3S 7594   4.587   2.591   5.339
    3OL     C14 7595   4.716   2.629   5.167
    3OL     H4R 7596   4.706   2.524   5.136
    3OL     H4S 7597   4.814   2.641   5.213
    3OL     C15 7598   4.718   2.714   5.039
    3OL     H5R 7599   4.743   2.819   5.055
    3OL     H5S 7600   4.617   2.712   4.998
    3OL     C16 7601   4.812   2.651   4.936
    3OL     H6R 7602   4.780   2.550   4.911
    3OL     H6S 7603   4.916   2.659   4.968
    3OL     C17 7604   4.814   2.729   4.804
    3OL     H7R 7605   4.847   2.832   4.822
    3OL     H7S 7606   4.718   2.756   4.760
    3OL     C18 7607   4.892   2.658   4.692
    3OL     H8R 7608   4.846   2.563   4.663
    3OL     H8S 7609   4.996   2.650   4.725
    3OL     C19 7610   4.891   2.757   4.578
    3OL     H9R 7611   4.864   2.859   4.603
    3OL    C110 7612   4.923   2.727   4.453
    3OL    H10R 7613   4.917   2.808   4.381
    3OL    C111 7614   4.980   2.596   4.404
    3OL    H11R 7615   4.903   2.534   4.358
    3OL    H11S 7616   5.026   2.540   4.487
    3OL    C112 7617   5.083   2.624   4.294
    3OL    H12R 7618   5.169   2.681   4.331
    3OL    H12S 7619   5.029   2.682   4.219
    3OL    C113 7620   5.145   2.494   4.240
    3OL    H13R 7621   5.070   2.434   4.189
    3OL    H13S 7622   5.189   2.433   4.319
    3OL    C114 7623   5.240   2.507   4.120
    3OL    H14R 7624   5.274   2.406   4.095
    3OL    H14S 7625   5.328   2.566   4.145
    3OL    C115 7626   5.169   2.551   3.991
    3OL    H15R 7627   5.121   2.647   4.011
    3OL    H15S 7628   5.087   2.487   3.961
    3OL    C116 7629   5.263   2.562   3.870
    3OL    H16R 7630   5.204   2.587   3.781
    3OL    H16S 7631   5.290   2.456   3.860
    3OL    C117 7632   5.391   2.644   3.891
    3OL    H17R 7633   5.452   2.630   3.801
    3OL    H17S 7634   5.443   2.606   3.979
    3OL    C118 7635   5.369   2.796   3.893
    3OL    H18R 7636   5.349   2.829   3.995
    3OL    H18S 7637   5.288   2.829   3.829
    3OL    H18T 7638   5.457   2.851   3.860
    1PA    C116 7639   5.673   2.402   3.943
    1PA    H16R 7640   5.609   2.462   3.878
    1PA    H16S 7641   5.725   2.330   3.879
    1PA    H16T 7642   5.746   2.475   3.979
    1PA    C115 7643   5.598   2.337   4.060
    1PA    H15R 7644   5.663   2.266   4.111
    1PA    H15S 7645   5.559   2.411   4.130
    1PA    C114 7646   5.489   2.241   4.010
    1PA    H14R 7647   5.420   2.300   3.949
    1PA    H14S 7648   5.529   2.162   3.947
    1PA    C113 7649   5.422   2.160   4.121
    1PA    H13R 7650   5.371   2.228   4.190
    1PA    H13S 7651   5.347   2.102   4.067
    1PA    C112 7652   5.527   2.069   4.185
    1PA    H12R 7653   5.595   2.033   4.107
    1PA    H12S 7654   5.581   2.132   4.256
    1PA    C111 7655   5.459   1.945   4.245
    1PA    H11R 7656   5.368   1.962   4.303
    1PA    H11S 7657   5.425   1.889   4.158
    1PA    C110 7658   5.554   1.857   4.328
    1PA    H10R 7659   5.643   1.845   4.266
    1PA    H10S 7660   5.577   1.909   4.421
    1PA     C19 7661   5.495   1.721   4.370
    1PA     H9R 7662   5.399   1.747   4.416
    1PA     H9S 7663   5.468   1.656   4.286
    1PA     C18 7664   5.576   1.653   4.481
    1PA     H8R 7665   5.679   1.646   4.448
    1PA     H8S 7666   5.566   1.712   4.572
    1PA     C17 7667   5.525   1.511   4.509
    1PA     H7R 7668   5.418   1.502   4.527
    1PA     H7S 7669   5.537   1.451   4.418
    1PA     C16 7670   5.606   1.465   4.631
    1PA     H6R 7671   5.629   1.547   4.699
    1PA     H6S 7672   5.531   1.414   4.690
    1PA     C15 7673   5.732   1.393   4.580
    1PA     H5R 7674   5.706   1.327   4.497
    1PA     H5S 7675   5.803   1.472   4.556
    1PA     C14 7676   5.795   1.298   4.683
    1PA     H4R 7677   5.738   1.206   4.691
    1PA     H4S 7678   5.893   1.268   4.646
    1PA     C13 7679   5.818   1.357   4.823
    1PA     H3R 7680   5.876   1.450   4.819
    1PA     H3S 7681   5.721   1.375   4.869
    1PA     C12 7682   5.895   1.255   4.907
    1PA     H2R 7683   5.824   1.174   4.920
    1PA     H2S 7684   5.981   1.207   4.860
    2PC     C11 7685   5.943   1.304   5.042
    2PC     O12 7686   5.873   1.377   5.109
    2PC     O11 7687   6.072   1.277   5.069
    2PC      C1 7688   6.119   1.298   5.203
    2PC      HR 7689   6.227   1.290   5.195
    2PC      HS 7690   6.092   1.397   5.241
    2PC      C2 7691   6.092   1.183   5.302
    2PC      HX 7692   6.139   1.207   5.398
    2PC      C3 7693   6.129   1.043   5.252
    2PC      HA 7694   6.079   1.034   5.155
    2PC      HB 7695   6.236   1.025   5.239
    2PC     O31 7696   6.085   0.949   5.352
    2PC     P31 7697   6.152   0.930   5.495
    2PC     O32 7698   6.029   0.909   5.596
    2PC     C31 7699   6.059   0.814   5.699
    2PC     H1A 7700   6.073   0.712   5.662
    2PC     H1B 7701   6.162   0.838   5.729
    2PC     C32 7702   5.942   0.818   5.798
    2PC     H2A 7703   5.848   0.782   5.757
    2PC     H2B 7704   5.965   0.752   5.882
    2PC     N31 7705   5.906   0.954   5.852
    2PC     C33 7706   5.811   1.015   5.753
    2PC     H3A 7707   5.869   1.092   5.703
    2PC     H3B 7708   5.763   0.937   5.694
    2PC     H3C 7709   5.727   1.056   5.808
    2PC     C34 7710   5.834   0.935   5.982
    2PC     H4A 7711   5.903   0.883   6.050
    2PC     H4B 7712   5.806   1.028   6.032
    2PC     H4C 7713   5.748   0.868   5.978
    2PC     C35 7714   6.023   1.043   5.876
    2PC     H5A 7715   6.071   1.016   5.970
    2PC     H5B 7716   5.987   1.145   5.886
    2PC     H5C 7717   6.094   1.034   5.793
    2PC     O33 7718   6.231   0.805   5.492
    2PC     O34 7719   6.237   1.040   5.549
    2PC     O21 7720   5.951   1.177   5.331
    2PC     C21 7721   5.898   1.262   5.419
    2PC     O22 7722   5.967   1.322   5.499
    3OL     C12 7723   5.748   1.243   5.430
    3OL     H2R 7724   5.698   1.332   5.469
    3OL     H2S 7725   5.726   1.164   5.502
    3OL     C13 7726   5.672   1.215   5.300
    3OL     H3R 7727   5.735   1.149   5.240
    3OL     H3S 7728   5.656   1.299   5.231
    3OL     C14 7729   5.534   1.161   5.338
    3OL     H4R 7730   5.461   1.241   5.327
    3OL     H4S 7731   5.536   1.127   5.442
    3OL     C15 7732   5.485   1.042   5.253
    3OL     H5R 7733   5.427   0.983   5.325
    3OL     H5S 7734   5.571   0.989   5.213
    3OL     C16 7735   5.395   1.067   5.132
    3OL     H6R 7736   5.461   1.113   5.058
    3OL     H6S 7737   5.316   1.134   5.169
    3OL     C17 7738   5.342   0.940   5.064
    3OL     H7R 7739   5.284   0.892   5.142
    3OL     H7S 7740   5.424   0.878   5.028
    3OL     C18 7741   5.236   0.974   4.958
    3OL     H8R 7742   5.271   1.058   4.898
    3OL     H8S 7743   5.150   1.020   5.006
    3OL     C19 7744   5.200   0.856   4.871
    3OL     H9R 7745   5.128   0.785   4.911
    3OL    C110 7746   5.243   0.842   4.746
    3OL    H10R 7747   5.205   0.757   4.690
    3OL    C111 7748   5.346   0.927   4.678
    3OL    H11R 7749   5.424   0.864   4.634
    3OL    H11S 7750   5.397   0.989   4.752
    3OL    C112 7751   5.290   1.020   4.569
    3OL    H12R 7752   5.214   1.085   4.613
    3OL    H12S 7753   5.250   0.953   4.493
    3OL    C113 7754   5.404   1.097   4.502
    3OL    H13R 7755   5.477   1.026   4.462
    3OL    H13S 7756   5.465   1.157   4.569
    3OL    C114 7757   5.348   1.189   4.393
    3OL    H14R 7758   5.435   1.241   4.351
    3OL    H14S 7759   5.276   1.259   4.437
    3OL    C115 7760   5.261   1.121   4.286
    3OL    H15R 7761   5.175   1.076   4.335
    3OL    H15S 7762   5.316   1.034   4.251
    3OL    C116 7763   5.208   1.215   4.177
    3OL    H16R 7764   5.294   1.255   4.123
    3OL    H16S 7765   5.154   1.291   4.233
    3OL    C117 7766   5.105   1.144   4.088
    3OL    H17R 7767   5.040   1.081   4.149
    3OL    H17S 7768   5.157   1.078   4.018
    3OL    C118 7769   5.024   1.243   4.004
    3OL    H18R 7770   4.996   1.334   4.058
    3OL    H18S 7771   4.929   1.197   3.976
    3OL    H18T 7772   5.080   1.265   3.913
    1PA    C116 7773   4.040   3.038   4.009
    1PA    H16R 7774   3.965   3.080   3.941
    1PA    H16S 7775   4.005   3.031   4.112
    1PA    H16T 7776   4.059   2.935   3.978
    1PA    C115 7777   4.173   3.113   4.002
    1PA    H15R 7778   4.221   3.122   3.904
    1PA    H15S 7779   4.135   3.212   4.028
    1PA    C114 7780   4.261   3.072   4.122
    1PA    H14R 7781   4.203   3.090   4.213
    1PA    H14S 7782   4.284   2.966   4.118
    1PA    C113 7783   4.391   3.153   4.134
    1PA    H13R 7784   4.453   3.166   4.046
    1PA    H13S 7785   4.365   3.257   4.151
    1PA    C112 7786   4.470   3.108   4.259
    1PA    H12R 7787   4.489   3.001   4.252
    1PA    H12S 7788   4.566   3.159   4.249
    1PA    C111 7789   4.416   3.131   4.401
    1PA    H11R 7790   4.381   3.234   4.412
    1PA    H11S 7791   4.336   3.059   4.418
    1PA    C110 7792   4.533   3.099   4.495
    1PA    H10R 7793   4.569   3.000   4.467
    1PA    H10S 7794   4.616   3.168   4.480
    1PA     C19 7795   4.490   3.097   4.642
    1PA     H9R 7796   4.434   3.184   4.675
    1PA     H9S 7797   4.433   3.006   4.663
    1PA     C18 7798   4.616   3.098   4.731
    1PA     H8R 7799   4.660   2.998   4.732
    1PA     H8S 7800   4.691   3.171   4.703
    1PA     C17 7801   4.584   3.129   4.878
    1PA     H7R 7802   4.537   3.227   4.886
    1PA     H7S 7803   4.515   3.054   4.919
    1PA     C16 7804   4.712   3.117   4.962
    1PA     H6R 7805   4.685   3.066   5.054
    1PA     H6S 7806   4.774   3.039   4.917
    1PA     C15 7807   4.807   3.237   4.972
    1PA     H5R 7808   4.833   3.256   4.868
    1PA     H5S 7809   4.767   3.329   5.016
    1PA     C14 7810   4.931   3.190   5.048
    1PA     H4R 7811   4.979   3.103   5.003
    1PA     H4S 7812   5.005   3.271   5.042
    1PA     C13 7813   4.900   3.157   5.195
    1PA     H3R 7814   4.818   3.218   5.233
    1PA     H3S 7815   4.852   3.059   5.195
    1PA     C12 7816   5.027   3.168   5.279
    1PA     H2R 7817   5.019   3.120   5.377
    1PA     H2S 7818   5.107   3.107   5.235
    2PC     C11 7819   5.075   3.309   5.304
    2PC     O12 7820   5.185   3.350   5.274
    2PC     O11 7821   4.984   3.384   5.367
    2PC      C1 7822   5.034   3.512   5.412
    2PC      HR 7823   4.951   3.547   5.474
    2PC      HS 7824   5.128   3.503   5.467
    2PC      C2 7825   5.061   3.606   5.294
    2PC      HX 7826   5.129   3.559   5.223
    2PC      C3 7827   5.109   3.746   5.335
    2PC      HA 7828   5.218   3.745   5.342
    2PC      HB 7829   5.082   3.822   5.262
    2PC     O31 7830   5.056   3.793   5.460
    2PC     P31 7831   5.113   3.937   5.502
    2PC     O32 7832   5.005   3.979   5.612
    2PC     C31 7833   4.888   4.058   5.587
    2PC     H1A 7834   4.906   4.130   5.506
    2PC     H1B 7835   4.812   3.985   5.556
    2PC     C32 7836   4.860   4.126   5.722
    2PC     H2A 7837   4.950   4.172   5.761
    2PC     H2B 7838   4.781   4.198   5.699
    2PC     N31 7839   4.789   4.044   5.826
    2PC     C33 7840   4.872   3.939   5.892
    2PC     H3A 7841   4.947   3.991   5.953
    2PC     H3B 7842   4.805   3.891   5.964
    2PC     H3C 7843   4.914   3.869   5.820
    2PC     C34 7844   4.743   4.130   5.940
    2PC     H4A 7845   4.668   4.079   6.000
    2PC     H4B 7846   4.833   4.145   6.001
    2PC     H4C 7847   4.706   4.223   5.896
    2PC     C35 7848   4.668   3.983   5.762
    2PC     H5A 7849   4.694   3.908   5.688
    2PC     H5B 7850   4.603   4.059   5.718
    2PC     H5C 7851   4.617   3.931   5.843
    2PC     O33 7852   5.253   3.924   5.550
    2PC     O34 7853   5.121   4.036   5.392
    2PC     O21 7854   4.929   3.615   5.238
    2PC     C21 7855   4.904   3.679   5.122
    2PC     O22 7856   4.985   3.738   5.053
    3OL     C12 7857   4.759   3.672   5.084
    3OL     H2R 7858   4.713   3.768   5.108
    3OL     H2S 7859   4.711   3.597   5.147
    3OL     C13 7860   4.740   3.632   4.937
    3OL     H3R 7861   4.786   3.534   4.920
    3OL     H3S 7862   4.792   3.701   4.869
    3OL     C14 7863   4.593   3.621   4.896
    3OL     H4R 7864   4.556   3.724   4.907
    3OL     H4S 7865   4.530   3.554   4.955
    3OL     C15 7866   4.563   3.582   4.751
    3OL     H5R 7867   4.596   3.480   4.729
    3OL     H5S 7868   4.616   3.649   4.683
    3OL     C16 7869   4.416   3.580   4.706
    3OL     H6R 7870   4.429   3.573   4.598
    3OL     H6S 7871   4.373   3.676   4.736
    3OL     C17 7872   4.332   3.465   4.763
    3OL     H7R 7873   4.332   3.482   4.871
    3OL     H7S 7874   4.392   3.376   4.742
    3OL     C18 7875   4.183   3.457   4.725
    3OL     H8R 7876   4.183   3.441   4.617
    3OL     H8S 7877   4.132   3.552   4.744
    3OL     C19 7878   4.107   3.347   4.796
    3OL     H9R 7879   4.061   3.388   4.885
    3OL    C110 7880   4.092   3.225   4.747
    3OL    H10R 7881   4.035   3.158   4.810
    3OL    C111 7882   4.129   3.176   4.609
    3OL    H11R 7883   4.211   3.104   4.610
    3OL    H11S 7884   4.162   3.262   4.552
    3OL    C112 7885   4.001   3.108   4.558
    3OL    H12R 7886   3.923   3.184   4.557
    3OL    H12S 7887   3.964   3.033   4.628
    3OL    C113 7888   4.011   3.055   4.414
    3OL    H13R 7889   4.108   3.019   4.380
    3OL    H13S 7890   4.015   3.142   4.348
    3OL    C114 7891   3.888   2.974   4.371
    3OL    H14R 7892   3.849   3.007   4.274
    3OL    H14S 7893   3.811   3.002   4.444
    3OL    C115 7894   3.908   2.822   4.367
    3OL    H15R 7895   3.814   2.768   4.378
    3OL    H15S 7896   3.975   2.789   4.446
    3OL    C116 7897   3.980   2.786   4.237
    3OL    H16R 7898   4.083   2.821   4.241
    3OL    H16S 7899   3.927   2.831   4.153
    3OL    C117 7900   4.000   2.635   4.213
    3OL    H17R 7901   4.016   2.624   4.106
    3OL    H17S 7902   3.919   2.573   4.252
    3OL    C118 7903   4.134   2.591   4.274
    3OL    H18R 7904   4.163   2.494   4.234
    3OL    H18S 7905   4.136   2.584   4.383
    3OL    H18T 7906   4.204   2.667   4.239
    1PA    C116 7907   3.507   0.734   3.782
    1PA    H16R 7908   3.544   0.634   3.756
    1PA    H16S 7909   3.536   0.815   3.714
    1PA    H16T 7910   3.399   0.743   3.788
    1PA    C115 7911   3.553   0.760   3.926
    1PA    H15R 7912   3.542   0.668   3.984
    1PA    H15S 7913   3.658   0.791   3.920
    1PA    C114 7914   3.473   0.882   3.973
    1PA    H14R 7915   3.512   0.972   3.925
    1PA    H14S 7916   3.369   0.867   3.945
    1PA    C113 7917   3.484   0.919   4.122
    1PA    H13R 7918   3.388   0.966   4.147
    1PA    H13S 7919   3.466   0.828   4.180
    1PA    C112 7920   3.603   0.997   4.178
    1PA    H12R 7921   3.686   0.937   4.139
    1PA    H12S 7922   3.618   1.094   4.130
    1PA    C111 7923   3.603   0.998   4.331
    1PA    H11R 7924   3.526   1.065   4.372
    1PA    H11S 7925   3.592   0.894   4.363
    1PA    C110 7926   3.735   1.055   4.383
    1PA    H10R 7927   3.820   0.994   4.352
    1PA    H10S 7928   3.735   1.158   4.345
    1PA     C19 7929   3.746   1.071   4.535
    1PA     H9R 7930   3.726   0.975   4.584
    1PA     H9S 7931   3.852   1.091   4.553
    1PA     C18 7932   3.656   1.178   4.598
    1PA     H8R 7933   3.676   1.277   4.557
    1PA     H8S 7934   3.553   1.153   4.575
    1PA     C17 7935   3.680   1.175   4.750
    1PA     H7R 7936   3.643   1.087   4.803
    1PA     H7S 7937   3.786   1.173   4.778
    1PA     C16 7938   3.612   1.295   4.817
    1PA     H6R 7939   3.663   1.381   4.773
    1PA     H6S 7940   3.514   1.306   4.770
    1PA     C15 7941   3.600   1.293   4.970
    1PA     H5R 7942   3.502   1.331   5.003
    1PA     H5S 7943   3.605   1.191   5.007
    1PA     C14 7944   3.700   1.382   5.044
    1PA     H4R 7945   3.793   1.343   5.000
    1PA     H4S 7946   3.699   1.483   5.001
    1PA     C13 7947   3.690   1.382   5.197
    1PA     H3R 7948   3.684   1.282   5.240
    1PA     H3S 7949   3.780   1.423   5.243
    1PA     C12 7950   3.573   1.471   5.241
    1PA     H2R 7951   3.580   1.570   5.194
    1PA     H2S 7952   3.478   1.420   5.225
    2PC     C11 7953   3.587   1.499   5.389
    2PC     O12 7954   3.506   1.459   5.469
    2PC     O11 7955   3.703   1.555   5.426
    2PC      C1 7956   3.743   1.553   5.565
    2PC      HR 7957   3.830   1.617   5.577
    2PC      HS 7958   3.658   1.586   5.625
    2PC      C2 7959   3.773   1.410   5.614
    2PC      HX 7960   3.697   1.335   5.592
    2PC      C3 7961   3.804   1.405   5.764
    2PC      HA 7962   3.706   1.405   5.813
    2PC      HB 7963   3.857   1.311   5.781
    2PC     O31 7964   3.871   1.522   5.812
    2PC     P31 7965   3.947   1.504   5.952
    2PC     O32 7966   4.039   1.634   5.936
    2PC     C31 7967   4.152   1.616   5.850
    2PC     H1A 7968   4.130   1.544   5.771
    2PC     H1B 7969   4.174   1.697   5.780
    2PC     C32 7970   4.272   1.561   5.928
    2PC     H2A 7971   4.229   1.479   5.985
    2PC     H2B 7972   4.349   1.521   5.862
    2PC     N31 7973   4.346   1.650   6.024
    2PC     C33 7974   4.444   1.572   6.106
    2PC     H3A 7975   4.527   1.637   6.136
    2PC     H3B 7976   4.385   1.521   6.182
    2PC     H3C 7977   4.477   1.502   6.029
    2PC     C34 7978   4.408   1.766   5.953
    2PC     H4A 7979   4.489   1.721   5.896
    2PC     H4B 7980   4.335   1.814   5.887
    2PC     H4C 7981   4.445   1.835   6.029
    2PC     C35 7982   4.250   1.717   6.117
    2PC     H5A 7983   4.308   1.783   6.183
    2PC     H5B 7984   4.195   1.641   6.172
    2PC     H5C 7985   4.178   1.780   6.063
    2PC     O33 7986   3.844   1.497   6.059
    2PC     O34 7987   4.024   1.378   5.965
    2PC     O21 7988   3.891   1.372   5.542
    2PC     C21 7989   3.921   1.241   5.533
    2PC     O22 7990   3.876   1.154   5.605
    3OL     C12 7991   4.019   1.216   5.422
    3OL     H2R 7992   4.116   1.194   5.467
    3OL     H2S 7993   4.025   1.304   5.358
    3OL     C13 7994   3.978   1.101   5.330
    3OL     H3R 7995   3.876   1.121   5.293
    3OL     H3S 7996   3.976   1.007   5.385
    3OL     C14 7997   4.072   1.076   5.211
    3OL     H4R 7998   4.172   1.061   5.254
    3OL     H4S 7999   4.081   1.162   5.145
    3OL     C15 8000   4.037   0.962   5.116
    3OL     H5R 8001   4.026   0.873   5.178
    3OL     H5S 8002   4.121   0.947   5.048
    3OL     C16 8003   3.900   0.995   5.055
    3OL     H6R 8004   3.907   1.090   5.002
    3OL     H6S 8005   3.830   1.013   5.137
    3OL     C17 8006   3.871   0.881   4.956
    3OL     H7R 8007   3.952   0.847   4.892
    3OL     H7S 8008   3.786   0.909   4.894
    3OL     C18 8009   3.817   0.760   5.034
    3OL     H8R 8010   3.731   0.787   5.095
    3OL     H8S 8011   3.892   0.719   5.102
    3OL     C19 8012   3.769   0.662   4.930
    3OL     H9R 8013   3.683   0.689   4.869
    3OL    C110 8014   3.815   0.539   4.909
    3OL    H10R 8015   3.781   0.476   4.828
    3OL    C111 8016   3.925   0.470   4.985
    3OL    H11R 8017   3.915   0.506   5.087
    3OL    H11S 8018   4.024   0.495   4.945
    3OL    C112 8019   3.911   0.317   4.983
    3OL    H12R 8020   3.807   0.285   4.999
    3OL    H12S 8021   3.982   0.293   5.062
    3OL    C113 8022   3.967   0.257   4.853
    3OL    H13R 8023   3.917   0.310   4.771
    3OL    H13S 8024   3.919   0.160   4.843
    3OL    C114 8025   4.119   0.237   4.855
    3OL    H14R 8026   4.131   0.165   4.936
    3OL    H14S 8027   4.167   0.334   4.870
    3OL    C115 8028   4.162   0.171   4.724
    3OL    H15R 8029   4.110   0.076   4.706
    3OL    H15S 8030   4.264   0.132   4.732
    3OL    C116 8031   4.141   0.257   4.598
    3OL    H16R 8032   4.171   0.357   4.628
    3OL    H16S 8033   4.035   0.251   4.572
    3OL    C117 8034   4.228   0.216   4.479
    3OL    H17R 8035   4.215   0.108   4.467
    3OL    H17S 8036   4.334   0.231   4.501
    3OL    C118 8037   4.182   0.282   4.348
    3OL    H18R 8038   4.239   0.248   4.262
    3OL    H18S 8039   4.194   0.390   4.360
    3OL    H18T 8040   4.083   0.243   4.324
    1PA    C116 8041   3.433  -0.285   3.831
    1PA    H16R 8042   3.534  -0.246   3.812
    1PA    H16S 8043   3.364  -0.216   3.781
    1PA    H16T 8044   3.433  -0.391   3.806
    1PA    C115 8045   3.385  -0.270   3.976
    1PA    H15R 8046   3.283  -0.307   3.985
    1PA    H15S 8047   3.443  -0.337   4.039
    1PA    C114 8048   3.410  -0.125   4.020
    1PA    H14R 8049   3.518  -0.116   4.022
    1PA    H14S 8050   3.374  -0.049   3.949
    1PA    C113 8051   3.357  -0.110   4.164
    1PA    H13R 8052   3.261  -0.160   4.173
    1PA    H13S 8053   3.425  -0.170   4.224
    1PA    C112 8054   3.349   0.035   4.213
    1PA    H12R 8055   3.448   0.081   4.204
    1PA    H12S 8056   3.284   0.096   4.150
    1PA    C111 8057   3.294   0.046   4.356
    1PA    H11R 8058   3.201  -0.010   4.371
    1PA    H11S 8059   3.376   0.016   4.421
    1PA    C110 8060   3.272   0.196   4.382
    1PA    H10R 8061   3.367   0.250   4.390
    1PA    H10S 8062   3.208   0.232   4.302
    1PA     C19 8063   3.193   0.204   4.514
    1PA     H9R 8064   3.100   0.154   4.486
    1PA     H9S 8065   3.244   0.149   4.593
    1PA     C18 8066   3.167   0.351   4.547
    1PA     H8R 8067   3.248   0.418   4.519
    1PA     H8S 8068   3.078   0.383   4.492
    1PA     C17 8069   3.124   0.372   4.693
    1PA     H7R 8070   3.025   0.332   4.714
    1PA     H7S 8071   3.196   0.325   4.760
    1PA     C16 8072   3.113   0.522   4.722
    1PA     H6R 8073   3.208   0.573   4.703
    1PA     H6S 8074   3.045   0.569   4.650
    1PA     C15 8075   3.069   0.551   4.866
    1PA     H5R 8076   2.991   0.483   4.901
    1PA     H5S 8077   3.159   0.535   4.925
    1PA     C14 8078   3.005   0.690   4.884
    1PA     H4R 8079   3.086   0.764   4.881
    1PA     H4S 8080   2.918   0.696   4.819
    1PA     C13 8081   2.952   0.703   5.027
    1PA     H3R 8082   2.871   0.631   5.043
    1PA     H3S 8083   3.026   0.686   5.105
    1PA     C12 8084   2.893   0.841   5.057
    1PA     H2R 8085   2.970   0.917   5.075
    1PA     H2S 8086   2.829   0.882   4.978
    2PC     C11 8087   2.796   0.843   5.173
    2PC     O12 8088   2.825   0.773   5.268
    2PC     O11 8089   2.692   0.927   5.168
    2PC      C1 8090   2.616   0.938   5.290
    2PC      HR 8091   2.586   0.840   5.330
    2PC      HS 8092   2.670   0.993   5.367
    2PC      C2 8093   2.499   1.028   5.248
    2PC      HX 8094   2.522   1.121   5.196
    2PC      C3 8095   2.412   1.068   5.368
    2PC      HA 8096   2.473   1.135   5.429
    2PC      HB 8097   2.324   1.123   5.334
    2PC     O31 8098   2.365   0.968   5.460
    2PC     P31 8099   2.303   1.029   5.595
    2PC     O32 8100   2.171   1.105   5.548
    2PC     C31 8101   2.059   1.104   5.640
    2PC     H1A 8102   2.018   1.004   5.645
    2PC     H1B 8103   2.084   1.126   5.744
    2PC     C32 8104   1.947   1.204   5.610
    2PC     H2A 8105   1.871   1.205   5.688
    2PC     H2B 8106   1.990   1.304   5.595
    2PC     N31 8107   1.869   1.179   5.484
    2PC     C33 8108   1.751   1.272   5.485
    2PC     H3A 8109   1.692   1.245   5.398
    2PC     H3B 8110   1.705   1.242   5.580
    2PC     H3C 8111   1.785   1.376   5.487
    2PC     C34 8112   1.954   1.210   5.364
    2PC     H4A 8113   2.033   1.134   5.371
    2PC     H4B 8114   1.886   1.186   5.282
    2PC     H4C 8115   1.981   1.315   5.367
    2PC     C35 8116   1.822   1.038   5.495
    2PC     H5A 8117   1.751   1.017   5.415
    2PC     H5B 8118   1.781   1.022   5.595
    2PC     H5C 8119   1.906   0.970   5.479
    2PC     O33 8120   2.276   0.924   5.696
    2PC     O34 8121   2.394   1.125   5.661
    2PC     O21 8122   2.420   0.946   5.160
    2PC     C21 8123   2.315   1.001   5.098
    2PC     O22 8124   2.286   1.119   5.107
    3OL     C12 8125   2.234   0.906   5.014
    3OL     H2R 8126   2.169   0.868   5.092
    3OL     H2S 8127   2.297   0.826   4.973
    3OL     C13 8128   2.145   0.965   4.904
    3OL     H3R 8129   2.101   1.059   4.937
    3OL     H3S 8130   2.059   0.901   4.887
    3OL     C14 8131   2.225   1.002   4.778
    3OL     H4R 8132   2.327   1.034   4.800
    3OL     H4S 8133   2.175   1.079   4.718
    3OL     C15 8134   2.235   0.879   4.687
    3OL     H5R 8135   2.141   0.862   4.635
    3OL     H5S 8136   2.261   0.793   4.750
    3OL     C16 8137   2.350   0.896   4.588
    3OL     H6R 8138   2.367   0.795   4.550
    3OL     H6S 8139   2.436   0.929   4.648
    3OL     C17 8140   2.306   0.993   4.477
    3OL     H7R 8141   2.262   1.083   4.522
    3OL     H7S 8142   2.233   0.941   4.415
    3OL     C18 8143   2.429   1.028   4.392
    3OL     H8R 8144   2.479   0.940   4.350
    3OL     H8S 8145   2.505   1.067   4.460
    3OL     C19 8146   2.402   1.127   4.282
    3OL     H9R 8147   2.350   1.081   4.199
    3OL    C110 8148   2.454   1.248   4.271
    3OL    H10R 8149   2.433   1.302   4.179
    3OL    C111 8150   2.550   1.315   4.366
    3OL    H11R 8151   2.650   1.273   4.360
    3OL    H11S 8152   2.513   1.296   4.467
    3OL    C112 8153   2.549   1.466   4.338
    3OL    H12R 8154   2.444   1.497   4.339
    3OL    H12S 8155   2.592   1.486   4.239
    3OL    C113 8156   2.630   1.541   4.444
    3OL    H13R 8157   2.732   1.505   4.454
    3OL    H13S 8158   2.599   1.533   4.548
    3OL    C114 8159   2.642   1.685   4.392
    3OL    H14R 8160   2.680   1.690   4.290
    3OL    H14S 8161   2.721   1.724   4.457
    3OL    C115 8162   2.513   1.767   4.409
    3OL    H15R 8163   2.498   1.777   4.517
    3OL    H15S 8164   2.429   1.715   4.361
    3OL    C116 8165   2.510   1.903   4.339
    3OL    H16R 8166   2.524   1.874   4.235
    3OL    H16S 8167   2.593   1.966   4.374
    3OL    C117 8168   2.374   1.971   4.361
    3OL    H17R 8169   2.350   1.969   4.468
    3OL    H17S 8170   2.302   1.917   4.299
    3OL    C118 8171   2.379   2.116   4.312
    3OL    H18R 8172   2.462   2.164   4.366
    3OL    H18S 8173   2.288   2.169   4.340
    3OL    H18T 8174   2.385   2.120   4.203
    1PA    C116 8175   5.099   2.244   3.722
    1PA    H16R 8176   5.004   2.201   3.690
    1PA    H16S 8177   5.176   2.219   3.648
    1PA    H16T 8178   5.097   2.351   3.701
    1PA    C115 8179   5.126   2.183   3.861
    1PA    H15R 8180   5.161   2.083   3.836
    1PA    H15S 8181   5.209   2.241   3.900
    1PA    C114 8182   5.004   2.173   3.953
    1PA    H14R 8183   4.938   2.260   3.949
    1PA    H14S 8184   4.939   2.097   3.909
    1PA    C113 8185   5.033   2.133   4.099
    1PA    H13R 8186   5.080   2.035   4.090
    1PA    H13S 8187   5.111   2.189   4.150
    1PA    C112 8188   4.909   2.130   4.190
    1PA    H12R 8189   4.846   2.218   4.179
    1PA    H12S 8190   4.860   2.033   4.181
    1PA    C111 8191   4.956   2.126   4.336
    1PA    H11R 8192   5.023   2.042   4.357
    1PA    H11S 8193   5.021   2.212   4.353
    1PA    C110 8194   4.847   2.131   4.444
    1PA    H10R 8195   4.785   2.044   4.425
    1PA    H10S 8196   4.905   2.121   4.536
    1PA     C19 8197   4.760   2.257   4.435
    1PA     H9R 8198   4.826   2.344   4.445
    1PA     H9S 8199   4.718   2.260   4.334
    1PA     C18 8200   4.652   2.257   4.543
    1PA     H8R 8201   4.591   2.348   4.535
    1PA     H8S 8202   4.579   2.179   4.519
    1PA     C17 8203   4.689   2.245   4.691
    1PA     H7R 8204   4.711   2.140   4.714
    1PA     H7S 8205   4.774   2.311   4.708
    1PA     C16 8206   4.580   2.290   4.790
    1PA     H6R 8207   4.568   2.398   4.778
    1PA     H6S 8208   4.494   2.237   4.751
    1PA     C15 8209   4.605   2.248   4.936
    1PA     H5R 8210   4.611   2.139   4.927
    1PA     H5S 8211   4.701   2.291   4.964
    1PA     C14 8212   4.494   2.303   5.027
    1PA     H4R 8213   4.478   2.411   5.025
    1PA     H4S 8214   4.398   2.261   4.997
    1PA     C13 8215   4.511   2.267   5.176
    1PA     H3R 8216   4.538   2.161   5.182
    1PA     H3S 8217   4.595   2.316   5.225
    1PA     C12 8218   4.385   2.295   5.260
    1PA     H2R 8219   4.347   2.396   5.246
    1PA     H2S 8220   4.309   2.222   5.231
    2PC     C11 8221   4.409   2.274   5.407
    2PC     O12 8222   4.343   2.217   5.491
    2PC     O11 8223   4.521   2.341   5.439
    2PC      C1 8224   4.560   2.347   5.577
    2PC      HR 8225   4.627   2.433   5.589
    2PC      HS 8226   4.477   2.361   5.647
    2PC      C2 8227   4.644   2.224   5.615
    2PC      HX 8228   4.607   2.150   5.543
    2PC      C3 8229   4.625   2.192   5.764
    2PC      HA 8230   4.523   2.157   5.782
    2PC      HB 8231   4.694   2.110   5.785
    2PC     O31 8232   4.658   2.308   5.843
    2PC     P31 8233   4.667   2.293   6.002
    2PC     O32 8234   4.728   2.434   6.047
    2PC     C31 8235   4.871   2.429   6.038
    2PC     H1A 8236   4.923   2.344   6.083
    2PC     H1B 8237   4.897   2.437   5.932
    2PC     C32 8238   4.922   2.559   6.102
    2PC     H2A 8239   5.026   2.568   6.072
    2PC     H2B 8240   4.872   2.645   6.058
    2PC     N31 8241   4.908   2.573   6.251
    2PC     C33 8242   4.996   2.687   6.296
    2PC     H3A 8243   5.093   2.670   6.250
    2PC     H3B 8244   4.942   2.781   6.286
    2PC     H3C 8245   5.006   2.660   6.401
    2PC     C34 8246   4.770   2.606   6.300
    2PC     H4A 8247   4.780   2.648   6.401
    2PC     H4B 8248   4.715   2.666   6.227
    2PC     H4C 8249   4.712   2.516   6.316
    2PC     C35 8250   4.959   2.454   6.327
    2PC     H5A 8251   4.946   2.485   6.431
    2PC     H5B 8252   5.066   2.446   6.306
    2PC     H5C 8253   4.916   2.360   6.294
    2PC     O33 8254   4.537   2.271   6.070
    2PC     O34 8255   4.748   2.174   6.035
    2PC     O21 8256   4.780   2.259   5.588
    2PC     C21 8257   4.867   2.161   5.558
    2PC     O22 8258   4.836   2.044   5.572
    3OL     C12 8259   5.001   2.213   5.511
    3OL     H2R 8260   5.071   2.130   5.503
    3OL     H2S 8261   5.037   2.280   5.589
    3OL     C13 8262   4.995   2.262   5.366
    3OL     H3R 8263   4.927   2.347   5.358
    3OL     H3S 8264   4.951   2.180   5.308
    3OL     C14 8265   5.129   2.306   5.306
    3OL     H4R 8266   5.195   2.220   5.314
    3OL     H4S 8267   5.177   2.382   5.367
    3OL     C15 8268   5.120   2.358   5.161
    3OL     H5R 8269   5.221   2.376   5.125
    3OL     H5S 8270   5.070   2.453   5.144
    3OL     C16 8271   5.068   2.250   5.065
    3OL     H6R 8272   4.973   2.205   5.096
    3OL     H6S 8273   5.139   2.169   5.080
    3OL     C17 8274   5.069   2.303   4.921
    3OL     H7R 8275   5.168   2.349   4.912
    3OL     H7S 8276   5.006   2.392   4.911
    3OL     C18 8277   5.045   2.186   4.825
    3OL     H8R 8278   4.937   2.171   4.817
    3OL     H8S 8279   5.085   2.090   4.856
    3OL     C19 8280   5.108   2.227   4.694
    3OL     H9R 8281   5.047   2.303   4.646
    3OL    C110 8282   5.218   2.181   4.636
    3OL    H10R 8283   5.248   2.222   4.540
    3OL    C111 8284   5.308   2.072   4.690
    3OL    H11R 8285   5.312   2.075   4.799
    3OL    H11S 8286   5.406   2.089   4.646
    3OL    C112 8287   5.265   1.932   4.644
    3OL    H12R 8288   5.299   1.909   4.543
    3OL    H12S 8289   5.156   1.934   4.652
    3OL    C113 8290   5.323   1.816   4.725
    3OL    H13R 8291   5.430   1.803   4.709
    3OL    H13S 8292   5.276   1.722   4.695
    3OL    C114 8293   5.298   1.829   4.876
    3OL    H14R 8294   5.192   1.845   4.900
    3OL    H14S 8295   5.355   1.910   4.922
    3OL    C115 8296   5.334   1.698   4.948
    3OL    H15R 8297   5.287   1.610   4.905
    3OL    H15S 8298   5.303   1.719   5.051
    3OL    C116 8299   5.482   1.659   4.965
    3OL    H16R 8300   5.530   1.735   5.028
    3OL    H16S 8301   5.527   1.648   4.866
    3OL    C117 8302   5.497   1.532   5.049
    3OL    H17R 8303   5.600   1.499   5.061
    3OL    H17S 8304   5.451   1.450   4.992
    3OL    C118 8305   5.435   1.552   5.188
    3OL    H18R 8306   5.444   1.465   5.253
    3OL    H18S 8307   5.330   1.583   5.194
    3OL    H18T 8308   5.501   1.627   5.231
    1PA    C116 8309   2.769   1.622   3.983
    1PA    H16R 8310   2.700   1.615   4.067
    1PA    H16S 8311   2.858   1.566   4.015
    1PA    H16T 8312   2.715   1.575   3.901
    1PA    C115 8313   2.798   1.770   3.954
    1PA    H15R 8314   2.844   1.767   3.855
    1PA    H15S 8315   2.706   1.828   3.951
    1PA    C114 8316   2.898   1.828   4.055
    1PA    H14R 8317   2.916   1.936   4.046
    1PA    H14S 8318   2.861   1.808   4.155
    1PA    C113 8319   3.040   1.773   4.040
    1PA    H13R 8320   3.040   1.664   4.052
    1PA    H13S 8321   3.079   1.796   3.941
    1PA    C112 8322   3.131   1.836   4.146
    1PA    H12R 8323   3.116   1.944   4.139
    1PA    H12S 8324   3.105   1.801   4.247
    1PA    C111 8325   3.277   1.793   4.128
    1PA    H11R 8326   3.280   1.685   4.114
    1PA    H11S 8327   3.305   1.838   4.032
    1PA    C110 8328   3.374   1.818   4.244
    1PA    H10R 8329   3.318   1.839   4.335
    1PA    H10S 8330   3.432   1.725   4.254
    1PA     C19 8331   3.462   1.941   4.218
    1PA     H9R 8332   3.505   1.944   4.118
    1PA     H9S 8333   3.400   2.030   4.224
    1PA     C18 8334   3.578   1.943   4.318
    1PA     H8R 8335   3.635   1.854   4.293
    1PA     H8S 8336   3.647   2.026   4.298
    1PA     C17 8337   3.549   1.957   4.468
    1PA     H7R 8338   3.486   1.879   4.510
    1PA     H7S 8339   3.640   1.958   4.529
    1PA     C16 8340   3.482   2.091   4.504
    1PA     H6R 8341   3.542   2.173   4.466
    1PA     H6S 8342   3.384   2.104   4.458
    1PA     C15 8343   3.461   2.102   4.656
    1PA     H5R 8344   3.423   2.010   4.701
    1PA     H5S 8345   3.559   2.108   4.704
    1PA     C14 8346   3.366   2.219   4.685
    1PA     H4R 8347   3.406   2.313   4.647
    1PA     H4S 8348   3.270   2.210   4.635
    1PA     C13 8349   3.332   2.240   4.834
    1PA     H3R 8350   3.251   2.311   4.850
    1PA     H3S 8351   3.289   2.146   4.866
    1PA     C12 8352   3.454   2.292   4.911
    1PA     H2R 8353   3.534   2.217   4.912
    1PA     H2S 8354   3.479   2.387   4.864
    2PC     C11 8355   3.430   2.330   5.055
    2PC     O12 8356   3.319   2.342   5.103
    2PC     O11 8357   3.548   2.345   5.118
    2PC      C1 8358   3.549   2.356   5.261
    2PC      HR 8359   3.653   2.362   5.295
    2PC      HS 8360   3.487   2.436   5.302
    2PC      C2 8361   3.511   2.221   5.324
    2PC      HX 8362   3.411   2.191   5.290
    2PC      C3 8363   3.503   2.224   5.477
    2PC      HA 8364   3.410   2.277   5.499
    2PC      HB 8365   3.511   2.121   5.513
    2PC     O31 8366   3.614   2.303   5.525
    2PC     P31 8367   3.608   2.366   5.672
    2PC     O32 8368   3.693   2.266   5.765
    2PC     C31 8369   3.664   2.126   5.779
    2PC     H1A 8370   3.557   2.113   5.796
    2PC     H1B 8371   3.695   2.073   5.688
    2PC     C32 8372   3.744   2.080   5.902
    2PC     H2A 8373   3.842   2.126   5.885
    2PC     H2B 8374   3.701   2.132   5.987
    2PC     N31 8375   3.765   1.935   5.933
    2PC     C33 8376   3.636   1.889   5.992
    2PC     H3A 8377   3.589   1.959   6.061
    2PC     H3B 8378   3.569   1.878   5.906
    2PC     H3C 8379   3.652   1.796   6.047
    2PC     C34 8380   3.803   1.843   5.821
    2PC     H4A 8381   3.735   1.859   5.737
    2PC     H4B 8382   3.901   1.882   5.794
    2PC     H4C 8383   3.815   1.738   5.850
    2PC     C35 8384   3.872   1.939   6.038
    2PC     H5A 8385   3.971   1.967   6.003
    2PC     H5B 8386   3.879   1.835   6.071
    2PC     H5C 8387   3.843   2.002   6.122
    2PC     O33 8388   3.659   2.504   5.661
    2PC     O34 8389   3.470   2.380   5.722
    2PC     O21 8390   3.602   2.123   5.272
    2PC     C21 8391   3.568   1.993   5.275
    2PC     O22 8392   3.465   1.953   5.327
    3OL     C12 8393   3.645   1.898   5.187
    3OL     H2R 8394   3.618   1.796   5.216
    3OL     H2S 8395   3.753   1.903   5.200
    3OL     C13 8396   3.613   1.915   5.038
    3OL     H3R 8397   3.633   2.019   5.013
    3OL     H3S 8398   3.506   1.900   5.022
    3OL     C14 8399   3.697   1.811   4.962
    3OL     H4R 8400   3.685   1.707   4.992
    3OL     H4S 8401   3.799   1.841   4.983
    3OL     C15 8402   3.665   1.815   4.811
    3OL     H5R 8403   3.692   1.906   4.759
    3OL     H5S 8404   3.557   1.803   4.797
    3OL     C16 8405   3.737   1.698   4.742
    3OL     H6R 8406   3.676   1.614   4.774
    3OL     H6S 8407   3.838   1.686   4.780
    3OL     C17 8408   3.741   1.695   4.588
    3OL     H7R 8409   3.793   1.781   4.546
    3OL     H7S 8410   3.639   1.694   4.550
    3OL     C18 8411   3.821   1.574   4.537
    3OL     H8R 8412   3.793   1.486   4.595
    3OL     H8S 8413   3.924   1.601   4.563
    3OL     C19 8414   3.815   1.555   4.388
    3OL     H9R 8415   3.732   1.492   4.357
    3OL    C110 8416   3.898   1.606   4.298
    3OL    H10R 8417   3.886   1.581   4.193
    3OL    C111 8418   4.015   1.699   4.319
    3OL    H11R 8419   4.100   1.651   4.369
    3OL    H11S 8420   3.974   1.785   4.372
    3OL    C112 8421   4.084   1.755   4.194
    3OL    H12R 8422   4.128   1.668   4.145
    3OL    H12S 8423   4.165   1.820   4.228
    3OL    C113 8424   3.983   1.828   4.103
    3OL    H13R 8425   3.923   1.895   4.166
    3OL    H13S 8426   3.899   1.767   4.069
    3OL    C114 8427   4.044   1.909   3.989
    3OL    H14R 8428   4.124   1.967   4.037
    3OL    H14S 8429   3.981   1.985   3.942
    3OL    C115 8430   4.104   1.823   3.876
    3OL    H15R 8431   4.037   1.741   3.850
    3OL    H15S 8432   4.200   1.777   3.900
    3OL    C116 8433   4.117   1.903   3.746
    3OL    H16R 8434   4.030   1.968   3.736
    3OL    H16S 8435   4.103   1.841   3.657
    3OL    C117 8436   4.242   1.992   3.745
    3OL    H17R 8437   4.326   1.928   3.717
    3OL    H17S 8438   4.266   2.036   3.842
    3OL    C118 8439   4.226   2.099   3.635
    3OL    H18R 8440   4.322   2.151   3.629
    3OL    H18S 8441   4.142   2.168   3.639
    3OL    H18T 8442   4.213   2.047   3.540
    1PA    C116 8443   4.226   0.955   4.178
    1PA    H16R 8444   4.243   0.936   4.285
    1PA    H16S 8445   4.316   0.929   4.122
    1PA    H16T 8446   4.145   0.902   4.129
    1PA    C115 8447   4.198   1.104   4.155
    1PA    H15R 8448   4.288   1.158   4.183
    1PA    H15S 8449   4.180   1.118   4.048
    1PA    C114 8450   4.077   1.162   4.229
    1PA    H14R 8451   4.086   1.267   4.203
    1PA    H14S 8452   3.982   1.132   4.184
    1PA    C113 8453   4.082   1.144   4.382
    1PA    H13R 8454   3.993   1.192   4.423
    1PA    H13S 8455   4.068   1.038   4.402
    1PA    C112 8456   4.212   1.191   4.447
    1PA    H12R 8457   4.295   1.130   4.411
    1PA    H12S 8458   4.225   1.294   4.411
    1PA    C111 8459   4.211   1.183   4.600
    1PA    H11R 8460   4.200   1.077   4.623
    1PA    H11S 8461   4.312   1.207   4.634
    1PA    C110 8462   4.108   1.273   4.670
    1PA    H10R 8463   4.122   1.373   4.626
    1PA    H10S 8464   4.003   1.245   4.653
    1PA     C19 8465   4.122   1.277   4.823
    1PA     H9R 8466   4.068   1.194   4.868
    1PA     H9S 8467   4.227   1.261   4.846
    1PA     C18 8468   4.067   1.413   4.869
    1PA     H8R 8469   4.116   1.493   4.813
    1PA     H8S 8470   3.962   1.415   4.838
    1PA     C17 8471   4.074   1.430   5.021
    1PA     H7R 8472   4.014   1.345   5.054
    1PA     H7S 8473   4.174   1.417   5.063
    1PA     C16 8474   4.005   1.563   5.053
    1PA     H6R 8475   4.068   1.639   5.006
    1PA     H6S 8476   3.907   1.571   5.005
    1PA     C15 8477   3.987   1.593   5.202
    1PA     H5R 8478   3.883   1.616   5.226
    1PA     H5S 8479   4.000   1.500   5.258
    1PA     C14 8480   4.075   1.710   5.247
    1PA     H4R 8481   4.180   1.686   5.233
    1PA     H4S 8482   4.053   1.797   5.185
    1PA     C13 8483   4.053   1.745   5.395
    1PA     H3R 8484   3.946   1.756   5.409
    1PA     H3S 8485   4.084   1.669   5.467
    1PA     C12 8486   4.125   1.874   5.439
    1PA     H2R 8487   4.232   1.863   5.422
    1PA     H2S 8488   4.088   1.957   5.380
    2PC     C11 8489   4.090   1.919   5.578
    2PC     O12 8490   3.978   1.898   5.621
    2PC     O11 8491   4.193   1.970   5.647
    2PC      C1 8492   4.170   2.038   5.772
    2PC      HR 8493   4.075   2.008   5.817
    2PC      HS 8494   4.254   2.035   5.842
    2PC      C2 8495   4.150   2.188   5.753
    2PC      HX 8496   4.248   2.223   5.720
    2PC      C3 8497   4.124   2.268   5.882
    2PC      HA 8498   4.215   2.259   5.942
    2PC      HB 8499   4.106   2.373   5.855
    2PC     O31 8500   4.015   2.218   5.961
    2PC     P31 8501   4.011   2.290   6.104
    2PC     O32 8502   3.937   2.432   6.090
    2PC     C31 8503   3.808   2.430   6.026
    2PC     H1A 8504   3.817   2.367   5.938
    2PC     H1B 8505   3.739   2.370   6.086
    2PC     C32 8506   3.754   2.566   5.977
    2PC     H2A 8507   3.830   2.604   5.909
    2PC     H2B 8508   3.664   2.543   5.920
    2PC     N31 8509   3.723   2.668   6.082
    2PC     C33 8510   3.843   2.755   6.104
    2PC     H3A 8511   3.821   2.834   6.175
    2PC     H3B 8512   3.913   2.679   6.140
    2PC     H3C 8513   3.880   2.802   6.012
    2PC     C34 8514   3.614   2.751   6.022
    2PC     H4A 8515   3.629   2.775   5.917
    2PC     H4B 8516   3.516   2.703   6.032
    2PC     H4C 8517   3.613   2.834   6.094
    2PC     C35 8518   3.664   2.608   6.206
    2PC     H5A 8519   3.632   2.681   6.280
    2PC     H5B 8520   3.738   2.548   6.258
    2PC     H5C 8521   3.577   2.546   6.180
    2PC     O33 8522   3.930   2.208   6.196
    2PC     O34 8523   4.140   2.289   6.177
    2PC     O21 8524   4.045   2.201   5.655
    2PC     C21 8525   4.034   2.312   5.580
    2PC     O22 8526   4.073   2.419   5.625
    3OL     C12 8527   3.954   2.299   5.453
    3OL     H2R 8528   3.869   2.365   5.467
    3OL     H2S 8529   3.927   2.194   5.441
    3OL     C13 8530   4.038   2.349   5.334
    3OL     H3R 8531   4.123   2.280   5.334
    3OL     H3S 8532   4.070   2.453   5.346
    3OL     C14 8533   3.962   2.334   5.202
    3OL     H4R 8534   3.887   2.414   5.204
    3OL     H4S 8535   3.910   2.238   5.194
    3OL     C15 8536   4.053   2.353   5.080
    3OL     H5R 8537   4.140   2.288   5.077
    3OL     H5S 8538   4.087   2.457   5.083
    3OL     C16 8539   3.970   2.339   4.951
    3OL     H6R 8540   3.893   2.416   4.953
    3OL     H6S 8541   3.921   2.244   4.929
    3OL     C17 8542   4.049   2.372   4.823
    3OL     H7R 8543   4.120   2.290   4.812
    3OL     H7S 8544   4.098   2.469   4.836
    3OL     C18 8545   3.967   2.366   4.694
    3OL     H8R 8546   4.024   2.388   4.604
    3OL     H8S 8547   3.892   2.443   4.714
    3OL     C19 8548   3.903   2.232   4.671
    3OL     H9R 8549   3.831   2.188   4.739
    3OL    C110 8550   3.922   2.157   4.563
    3OL    H10R 8551   3.865   2.064   4.565
    3OL    C111 8552   4.009   2.171   4.441
    3OL    H11R 8553   4.039   2.074   4.399
    3OL    H11S 8554   4.089   2.240   4.469
    3OL    C112 8555   3.918   2.235   4.336
    3OL    H12R 8556   3.908   2.340   4.364
    3OL    H12S 8557   3.817   2.195   4.341
    3OL    C113 8558   3.971   2.231   4.192
    3OL    H13R 8559   3.989   2.129   4.158
    3OL    H13S 8560   4.063   2.285   4.167
    3OL    C114 8561   3.866   2.288   4.094
    3OL    H14R 8562   3.845   2.389   4.128
    3OL    H14S 8563   3.778   2.225   4.104
    3OL    C115 8564   3.921   2.293   3.951
    3OL    H15R 8565   3.936   2.191   3.915
    3OL    H15S 8566   4.018   2.343   3.954
    3OL    C116 8567   3.837   2.376   3.853
    3OL    H16R 8568   3.732   2.348   3.855
    3OL    H16S 8569   3.872   2.365   3.750
    3OL    C117 8570   3.850   2.522   3.896
    3OL    H17R 8571   3.954   2.553   3.900
    3OL    H17S 8572   3.791   2.547   3.985
    3OL    C118 8573   3.778   2.609   3.792
    3OL    H18R 8574   3.677   2.628   3.829
    3OL    H18S 8575   3.769   2.567   3.692
    3OL    H18T 8576   3.828   2.706   3.785
    1PA    C116 8577   6.826   4.142   4.449
    1PA    H16R 8578   6.743   4.106   4.510
    1PA    H16S 8579   6.862   4.233   4.499
    1PA    H16T 8580   6.913   4.076   4.454
    1PA    C115 8581   6.781   4.170   4.305
    1PA    H15R 8582   6.698   4.241   4.296
    1PA    H15S 8583   6.870   4.215   4.259
    1PA    C114 8584   6.742   4.047   4.222
    1PA    H14R 8585   6.820   3.977   4.255
    1PA    H14S 8586   6.642   4.021   4.257
    1PA    C113 8587   6.737   4.073   4.071
    1PA    H13R 8588   6.651   4.140   4.058
    1PA    H13S 8589   6.828   4.124   4.039
    1PA    C112 8590   6.724   3.935   4.005
    1PA    H12R 8591   6.799   3.863   4.036
    1PA    H12S 8592   6.629   3.890   4.036
    1PA    C111 8593   6.727   3.945   3.851
    1PA    H11R 8594   6.827   3.956   3.809
    1PA    H11S 8595   6.685   3.852   3.813
    1PA    C110 8596   6.649   4.064   3.795
    1PA    H10R 8597   6.553   4.065   3.847
    1PA    H10S 8598   6.700   4.156   3.825
    1PA     C19 8599   6.636   4.069   3.642
    1PA     H9R 8600   6.735   4.091   3.600
    1PA     H9S 8601   6.605   3.973   3.602
    1PA     C18 8602   6.544   4.184   3.598
    1PA     H8R 8603   6.460   4.197   3.668
    1PA     H8S 8604   6.598   4.278   3.595
    1PA     C17 8605   6.487   4.156   3.458
    1PA     H7R 8606   6.566   4.144   3.383
    1PA     H7S 8607   6.450   4.054   3.468
    1PA     C16 8608   6.372   4.252   3.426
    1PA     H6R 8609   6.299   4.247   3.507
    1PA     H6S 8610   6.424   4.348   3.434
    1PA     C15 8611   6.314   4.210   3.290
    1PA     H5R 8612   6.392   4.233   3.218
    1PA     H5S 8613   6.287   4.105   3.274
    1PA     C14 8614   6.182   4.282   3.258
    1PA     H4R 8615   6.099   4.247   3.320
    1PA     H4S 8616   6.192   4.387   3.288
    1PA     C13 8617   6.124   4.277   3.117
    1PA     H3R 8618   6.126   4.171   3.088
    1PA     H3S 8619   6.020   4.312   3.121
    1PA     C12 8620   6.208   4.351   3.012
    1PA     H2R 8621   6.239   4.449   3.047
    1PA     H2S 8622   6.297   4.294   2.984
    2PC     C11 8623   6.123   4.381   2.891
    2PC     O12 8624   6.131   4.302   2.799
    2PC     O11 8625   6.046   4.490   2.904
    2PC      C1 8626   5.970   4.527   2.787
    2PC      HR 8627   5.950   4.634   2.783
    2PC      HS 8628   6.022   4.493   2.697
    2PC      C2 8629   5.829   4.469   2.793
    2PC      HX 8630   5.817   4.376   2.851
    2PC      C3 8631   5.784   4.442   2.649
    2PC      HA 8632   5.685   4.396   2.645
    2PC      HB 8633   5.849   4.365   2.606
    2PC     O31 8634   5.797   4.562   2.571
    2PC     P31 8635   5.738   4.559   2.423
    2PC     O32 8636   5.666   4.702   2.431
    2PC     C31 8637   5.659   4.788   2.316
    2PC     H1A 8638   5.760   4.823   2.295
    2PC     H1B 8639   5.612   4.737   2.231
    2PC     C32 8640   5.574   4.907   2.362
    2PC     H2A 8641   5.476   4.874   2.397
    2PC     H2B 8642   5.613   4.933   2.460
    2PC     N31 8643   5.566   5.033   2.282
    2PC     C33 8644   5.708   5.076   2.260
    2PC     H3A 8645   5.756   5.021   2.180
    2PC     H3B 8646   5.716   5.183   2.239
    2PC     H3C 8647   5.751   5.062   2.359
    2PC     C34 8648   5.501   5.017   2.148
    2PC     H4A 8649   5.561   4.945   2.092
    2PC     H4B 8650   5.396   4.984   2.147
    2PC     H4C 8651   5.508   5.115   2.101
    2PC     C35 8652   5.487   5.143   2.346
    2PC     H5A 8653   5.519   5.147   2.451
    2PC     H5B 8654   5.379   5.129   2.347
    2PC     H5C 8655   5.509   5.237   2.294
    2PC     O33 8656   5.853   4.552   2.330
    2PC     O34 8657   5.638   4.454   2.395
    2PC     O21 8658   5.737   4.562   2.853
    2PC     C21 8659   5.605   4.539   2.867
    2PC     O22 8660   5.546   4.433   2.858
    3OL     C12 8661   5.538   4.666   2.911
    3OL     H2R 8662   5.510   4.731   2.828
    3OL     H2S 8663   5.601   4.726   2.978
    3OL     C13 8664   5.404   4.634   2.979
    3OL     H3R 8665   5.402   4.561   3.061
    3OL     H3S 8666   5.334   4.605   2.901
    3OL     C14 8667   5.354   4.766   3.041
    3OL     H4R 8668   5.247   4.768   3.062
    3OL     H4S 8669   5.367   4.848   2.970
    3OL     C15 8670   5.419   4.808   3.173
    3OL     H5R 8671   5.525   4.832   3.160
    3OL     H5S 8672   5.418   4.722   3.240
    3OL     C16 8673   5.356   4.928   3.245
    3OL     H6R 8674   5.251   4.919   3.271
    3OL     H6S 8675   5.350   5.007   3.170
    3OL     C17 8676   5.442   4.974   3.364
    3OL     H7R 8677   5.547   4.963   3.338
    3OL     H7S 8678   5.415   4.899   3.438
    3OL     C18 8679   5.394   5.112   3.412
    3OL     H8R 8680   5.290   5.101   3.443
    3OL     H8S 8681   5.395   5.185   3.332
    3OL     C19 8682   5.476   5.170   3.525
    3OL     H9R 8683   5.557   5.105   3.555
    3OL    C110 8684   5.450   5.282   3.590
    3OL    H10R 8685   5.513   5.296   3.677
    3OL    C111 8686   5.334   5.372   3.552
    3OL    H11R 8687   5.267   5.312   3.491
    3OL    H11S 8688   5.383   5.445   3.488
    3OL    C112 8689   5.273   5.434   3.678
    3OL    H12R 8690   5.245   5.361   3.754
    3OL    H12S 8691   5.184   5.488   3.645
    3OL    C113 8692   5.371   5.536   3.738
    3OL    H13R 8693   5.413   5.609   3.669
    3OL    H13S 8694   5.457   5.476   3.769
    3OL    C114 8695   5.308   5.618   3.851
    3OL    H14R 8696   5.381   5.698   3.867
    3OL    H14S 8697   5.304   5.563   3.945
    3OL    C115 8698   5.171   5.683   3.826
    3OL    H15R 8699   5.101   5.600   3.816
    3OL    H15S 8700   5.175   5.748   3.738
    3OL    C116 8701   5.126   5.772   3.943
    3OL    H16R 8702   5.028   5.818   3.928
    3OL    H16S 8703   5.187   5.862   3.939
    3OL    C117 8704   5.121   5.706   4.082
    3OL    H17R 8705   5.148   5.600   4.080
    3OL    H17S 8706   5.024   5.705   4.132
    3OL    C118 8707   5.218   5.774   4.179
    3OL    H18R 8708   5.186   5.878   4.194
    3OL    H18S 8709   5.323   5.776   4.149
    3OL    H18T 8710   5.211   5.732   4.279
    1PA    C116 8711   0.676   4.191   3.723
    1PA    H16R 8712   0.669   4.122   3.807
    1PA    H16S 8713   0.779   4.205   3.691
    1PA    H16T 8714   0.617   4.158   3.636
    1PA    C115 8715   0.628   4.326   3.779
    1PA    H15R 8716   0.524   4.334   3.810
    1PA    H15S 8717   0.673   4.350   3.875
    1PA    C114 8718   0.638   4.446   3.683
    1PA    H14R 8719   0.601   4.536   3.733
    1PA    H14S 8720   0.744   4.463   3.663
    1PA    C113 8721   0.564   4.417   3.553
    1PA    H13R 8722   0.587   4.504   3.491
    1PA    H13S 8723   0.594   4.327   3.498
    1PA    C112 8724   0.412   4.435   3.572
    1PA    H12R 8725   0.379   4.341   3.617
    1PA    H12S 8726   0.389   4.526   3.627
    1PA    C111 8727   0.345   4.448   3.435
    1PA    H11R 8728   0.237   4.444   3.453
    1PA    H11S 8729   0.366   4.537   3.375
    1PA    C110 8730   0.376   4.331   3.341
    1PA    H10R 8731   0.482   4.316   3.322
    1PA    H10S 8732   0.346   4.237   3.389
    1PA     C19 8733   0.299   4.337   3.208
    1PA     H9R 8734   0.191   4.326   3.221
    1PA     H9S 8735   0.326   4.426   3.152
    1PA     C18 8736   0.344   4.221   3.118
    1PA     H8R 8737   0.452   4.208   3.111
    1PA     H8S 8738   0.293   4.138   3.168
    1PA     C17 8739   0.281   4.239   2.979
    1PA     H7R 8740   0.173   4.221   2.982
    1PA     H7S 8741   0.306   4.341   2.950
    1PA     C16 8742   0.335   4.137   2.877
    1PA     H6R 8743   0.438   4.162   2.854
    1PA     H6S 8744   0.325   4.036   2.917
    1PA     C15 8745   0.260   4.146   2.744
    1PA     H5R 8746   0.154   4.155   2.765
    1PA     H5S 8747   0.279   4.245   2.701
    1PA     C14 8748   0.285   4.030   2.647
    1PA     H4R 8749   0.269   3.932   2.693
    1PA     H4S 8750   0.201   4.044   2.579
    1PA     C13 8751   0.417   4.021   2.569
    1PA     H3R 8752   0.505   4.028   2.634
    1PA     H3S 8753   0.415   3.925   2.518
    1PA     C12 8754   0.420   4.128   2.460
    1PA     H2R 8755   0.330   4.113   2.399
    1PA     H2S 8756   0.413   4.232   2.493
    2PC     C11 8757   0.537   4.113   2.366
    2PC     O12 8758   0.592   4.006   2.355
    2PC     O11 8759   0.562   4.225   2.296
    2PC      C1 8760   0.676   4.228   2.209
    2PC      HR 8761   0.765   4.184   2.256
    2PC      HS 8762   0.658   4.167   2.120
    2PC      C2 8763   0.700   4.375   2.171
    2PC      HX 8764   0.614   4.419   2.120
    2PC      C3 8765   0.818   4.384   2.074
    2PC      HA 8766   0.918   4.365   2.113
    2PC      HB 8767   0.794   4.315   1.992
    2PC     O31 8768   0.817   4.514   2.012
    2PC     P31 8769   0.861   4.537   1.860
    2PC     O32 8770   0.729   4.611   1.808
    2PC     C31 8771   0.715   4.751   1.839
    2PC     H1A 8772   0.711   4.779   1.945
    2PC     H1B 8773   0.803   4.797   1.793
    2PC     C32 8774   0.592   4.807   1.768
    2PC     H2A 8775   0.587   4.762   1.669
    2PC     H2B 8776   0.500   4.775   1.817
    2PC     N31 8777   0.591   4.956   1.749
    2PC     C33 8778   0.589   5.023   1.883
    2PC     H3A 8779   0.696   5.039   1.902
    2PC     H3B 8780   0.543   5.121   1.866
    2PC     H3C 8781   0.529   4.962   1.950
    2PC     C34 8782   0.710   5.011   1.677
    2PC     H4A 8783   0.716   4.962   1.580
    2PC     H4B 8784   0.689   5.117   1.673
    2PC     H4C 8785   0.791   4.980   1.744
    2PC     C35 8786   0.471   4.996   1.668
    2PC     H5A 8787   0.459   4.938   1.577
    2PC     H5B 8788   0.472   5.102   1.641
    2PC     H5C 8789   0.382   4.971   1.726
    2PC     O33 8790   0.987   4.610   1.835
    2PC     O34 8791   0.863   4.417   1.774
    2PC     O21 8792   0.735   4.443   2.293
    2PC     C21 8793   0.663   4.544   2.347
    2PC     O22 8794   0.570   4.601   2.296
    3OL     C12 8795   0.696   4.569   2.492
    3OL     H2R 8796   0.779   4.639   2.500
    3OL     H2S 8797   0.728   4.475   2.538
    3OL     C13 8798   0.584   4.628   2.579
    3OL     H3R 8799   0.500   4.558   2.581
    3OL     H3S 8800   0.560   4.723   2.533
    3OL     C14 8801   0.626   4.650   2.725
    3OL     H4R 8802   0.543   4.704   2.771
    3OL     H4S 8803   0.712   4.718   2.732
    3OL     C15 8804   0.663   4.522   2.802
    3OL     H5R 8805   0.757   4.479   2.768
    3OL     H5S 8806   0.581   4.451   2.803
    3OL     C16 8807   0.698   4.547   2.950
    3OL     H6R 8808   0.612   4.598   2.992
    3OL     H6S 8809   0.784   4.613   2.961
    3OL     C17 8810   0.721   4.412   3.019
    3OL     H7R 8811   0.775   4.340   2.957
    3OL     H7S 8812   0.622   4.372   3.041
    3OL     C18 8813   0.782   4.423   3.159
    3OL     H8R 8814   0.883   4.465   3.151
    3OL     H8S 8815   0.780   4.330   3.216
    3OL     C19 8816   0.700   4.512   3.250
    3OL     H9R 8817   0.604   4.473   3.283
    3OL    C110 8818   0.737   4.630   3.295
    3OL    H10R 8819   0.671   4.682   3.364
    3OL    C111 8820   0.866   4.703   3.268
    3OL    H11R 8821   0.843   4.778   3.192
    3OL    H11S 8822   0.941   4.651   3.208
    3OL    C112 8823   0.945   4.754   3.390
    3OL    H12R 8824   0.878   4.827   3.436
    3OL    H12S 8825   1.038   4.803   3.360
    3OL    C113 8826   0.973   4.650   3.499
    3OL    H13R 8827   0.879   4.627   3.550
    3OL    H13S 8828   1.036   4.684   3.581
    3OL    C114 8829   1.047   4.526   3.446
    3OL    H14R 8830   1.136   4.566   3.398
    3OL    H14S 8831   0.976   4.476   3.380
    3OL    C115 8832   1.092   4.444   3.568
    3OL    H15R 8833   1.011   4.414   3.635
    3OL    H15S 8834   1.159   4.498   3.634
    3OL    C116 8835   1.171   4.325   3.511
    3OL    H16R 8836   1.268   4.355   3.472
    3OL    H16S 8837   1.113   4.290   3.425
    3OL    C117 8838   1.191   4.214   3.614
    3OL    H17R 8839   1.110   4.208   3.687
    3OL    H17S 8840   1.278   4.244   3.673
    3OL    C118 8841   1.217   4.081   3.541
    3OL    H18R 8842   1.235   3.999   3.610
    3OL    H18S 8843   1.304   4.093   3.477
    3OL    H18T 8844   1.128   4.059   3.481
    1PA    C116 8845   0.923   6.621   3.842
    1PA    H16R 8846   0.927   6.729   3.857
    1PA    H16S 8847   0.990   6.574   3.915
    1PA    H16T 8848   0.817   6.593   3.839
    1PA    C115 8849   0.981   6.596   3.703
    1PA    H15R 8850   0.921   6.651   3.630
    1PA    H15S 8851   1.081   6.638   3.690
    1PA    C114 8852   0.974   6.446   3.670
    1PA    H14R 8853   1.012   6.402   3.762
    1PA    H14S 8854   0.869   6.420   3.650
    1PA    C113 8855   1.078   6.413   3.562
    1PA    H13R 8856   1.042   6.457   3.468
    1PA    H13S 8857   1.178   6.450   3.586
    1PA    C112 8858   1.093   6.261   3.548
    1PA    H12R 8859   1.114   6.225   3.649
    1PA    H12S 8860   0.995   6.216   3.532
    1PA    C111 8861   1.204   6.221   3.450
    1PA    H11R 8862   1.206   6.291   3.366
    1PA    H11S 8863   1.300   6.236   3.501
    1PA    C110 8864   1.200   6.075   3.404
    1PA    H10R 8865   1.198   6.006   3.489
    1PA    H10S 8866   1.105   6.050   3.356
    1PA     C19 8867   1.313   6.025   3.312
    1PA     H9R 8868   1.398   6.021   3.380
    1PA     H9S 8869   1.280   5.924   3.289
    1PA     C18 8870   1.331   6.111   3.185
    1PA     H8R 8871   1.242   6.134   3.126
    1PA     H8S 8872   1.360   6.209   3.222
    1PA     C17 8873   1.427   6.052   3.081
    1PA     H7R 8874   1.518   6.033   3.138
    1PA     H7S 8875   1.381   5.961   3.043
    1PA     C16 8876   1.448   6.140   2.957
    1PA     H6R 8877   1.352   6.170   2.914
    1PA     H6S 8878   1.483   6.236   2.996
    1PA     C15 8879   1.542   6.071   2.857
    1PA     H5R 8880   1.601   6.013   2.927
    1PA     H5S 8881   1.506   5.990   2.793
    1PA     C14 8882   1.629   6.166   2.773
    1PA     H4R 8883   1.697   6.226   2.834
    1PA     H4S 8884   1.687   6.103   2.705
    1PA     C13 8885   1.539   6.262   2.695
    1PA     H3R 8886   1.453   6.205   2.659
    1PA     H3S 8887   1.493   6.339   2.758
    1PA     C12 8888   1.619   6.340   2.590
    1PA     H2R 8889   1.568   6.433   2.566
    1PA     H2S 8890   1.714   6.371   2.634
    2PC     C11 8891   1.657   6.248   2.477
    2PC     O12 8892   1.579   6.215   2.390
    2PC     O11 8893   1.788   6.220   2.473
    2PC      C1 8894   1.830   6.146   2.357
    2PC      HR 8895   1.764   6.060   2.347
    2PC      HS 8896   1.813   6.202   2.265
    2PC      C2 8897   1.977   6.101   2.361
    2PC      HX 8898   2.034   6.194   2.358
    2PC      C3 8899   2.024   6.012   2.245
    2PC      HA 8900   1.992   6.062   2.154
    2PC      HB 8901   2.132   5.993   2.250
    2PC     O31 8902   1.958   5.885   2.250
    2PC     P31 8903   2.007   5.769   2.151
    2PC     O32 8904   1.913   5.814   2.029
    2PC     C31 8905   1.940   5.756   1.900
    2PC     H1A 8906   1.866   5.807   1.839
    2PC     H1B 8907   2.045   5.783   1.884
    2PC     C32 8908   1.907   5.606   1.895
    2PC     H2A 8909   1.984   5.559   1.957
    2PC     H2B 8910   1.813   5.585   1.946
    2PC     N31 8911   1.905   5.536   1.762
    2PC     C33 8912   2.047   5.504   1.727
    2PC     H3A 8913   2.093   5.595   1.688
    2PC     H3B 8914   2.102   5.465   1.812
    2PC     H3C 8915   2.048   5.428   1.649
    2PC     C34 8916   1.834   5.406   1.783
    2PC     H4A 8917   1.881   5.347   1.862
    2PC     H4B 8918   1.733   5.423   1.820
    2PC     H4C 8919   1.845   5.349   1.691
    2PC     C35 8920   1.852   5.614   1.646
    2PC     H5A 8921   1.748   5.640   1.666
    2PC     H5B 8922   1.845   5.555   1.554
    2PC     H5C 8923   1.906   5.709   1.636
    2PC     O33 8924   2.153   5.775   2.131
    2PC     O34 8925   1.971   5.631   2.192
    2PC     O21 8926   1.995   6.027   2.484
    2PC     C21 8927   2.117   5.989   2.524
    2PC     O22 8928   2.225   6.002   2.470
    3OL     C12 8929   2.109   5.923   2.660
    3OL     H2R 8930   2.138   5.998   2.734
    3OL     H2S 8931   2.173   5.836   2.671
    3OL     C13 8932   1.971   5.868   2.700
    3OL     H3R 8933   1.895   5.946   2.690
    3OL     H3S 8934   1.970   5.829   2.802
    3OL     C14 8935   1.934   5.748   2.612
    3OL     H4R 8936   2.013   5.673   2.619
    3OL     H4S 8937   1.923   5.778   2.508
    3OL     C15 8938   1.805   5.679   2.659
    3OL     H5R 8939   1.811   5.679   2.768
    3OL     H5S 8940   1.812   5.576   2.625
    3OL     C16 8941   1.686   5.757   2.601
    3OL     H6R 8942   1.700   5.766   2.493
    3OL     H6S 8943   1.682   5.854   2.651
    3OL     C17 8944   1.550   5.690   2.622
    3OL     H7R 8945   1.522   5.701   2.727
    3OL     H7S 8946   1.563   5.582   2.622
    3OL     C18 8947   1.437   5.744   2.533
    3OL     H8R 8948   1.465   5.724   2.429
    3OL     H8S 8949   1.420   5.852   2.538
    3OL     C19 8950   1.314   5.668   2.573
    3OL     H9R 8951   1.331   5.560   2.574
    3OL    C110 8952   1.198   5.719   2.611
    3OL    H10R 8953   1.109   5.658   2.627
    3OL    C111 8954   1.164   5.866   2.613
    3OL    H11R 8955   1.068   5.883   2.564
    3OL    H11S 8956   1.246   5.920   2.566
    3OL    C112 8957   1.152   5.915   2.758
    3OL    H12R 8958   1.142   6.023   2.764
    3OL    H12S 8959   1.242   5.885   2.812
    3OL    C113 8960   1.025   5.862   2.826
    3OL    H13R 8961   1.032   5.753   2.831
    3OL    H13S 8962   0.935   5.885   2.769
    3OL    C114 8963   1.021   5.907   2.973
    3OL    H14R 8964   1.015   6.016   2.971
    3OL    H14S 8965   1.114   5.891   3.028
    3OL    C115 8966   0.899   5.855   3.049
    3OL    H15R 8967   0.905   5.749   3.024
    3OL    H15S 8968   0.801   5.896   3.024
    3OL    C116 8969   0.916   5.879   3.200
    3OL    H16R 8970   0.934   5.981   3.235
    3OL    H16S 8971   1.006   5.834   3.240
    3OL    C117 8972   0.803   5.830   3.291
    3OL    H17R 8973   0.770   5.730   3.259
    3OL    H17S 8974   0.729   5.909   3.280
    3OL    C118 8975   0.847   5.837   3.438
    3OL    H18R 8976   0.873   5.937   3.471
    3OL    H18S 8977   0.936   5.775   3.452
    3OL    H18T 8978   0.767   5.796   3.501
    1PA    C116 8979   7.024   4.917   4.166
    1PA    H16R 8980   6.956   4.996   4.196
    1PA    H16S 8981   7.124   4.960   4.173
    1PA    H16T 8982   7.004   4.835   4.235
    1PA    C115 8983   7.001   4.864   4.023
    1PA    H15R 8984   7.100   4.830   3.992
    1PA    H15S 8985   6.925   4.786   4.025
    1PA    C114 8986   6.942   4.979   3.941
    1PA    H14R 8987   6.840   4.999   3.974
    1PA    H14S 8988   7.003   5.068   3.953
    1PA    C113 8989   6.942   4.940   3.792
    1PA    H13R 8990   6.962   5.033   3.737
    1PA    H13S 8991   7.022   4.870   3.768
    1PA    C112 8992   6.809   4.881   3.746
    1PA    H12R 8993   6.775   4.794   3.803
    1PA    H12S 8994   6.725   4.950   3.750
    1PA    C111 8995   6.817   4.810   3.610
    1PA    H11R 8996   6.901   4.740   3.607
    1PA    H11S 8997   6.733   4.740   3.610
    1PA    C110 8998   6.806   4.893   3.481
    1PA    H10R 8999   6.717   4.957   3.488
    1PA    H10S 9000   6.895   4.955   3.469
    1PA     C19 9001   6.797   4.793   3.365
    1PA     H9R 9002   6.883   4.725   3.363
    1PA     H9S 9003   6.705   4.736   3.373
    1PA     C18 9004   6.777   4.875   3.237
    1PA     H8R 9005   6.692   4.943   3.241
    1PA     H8S 9006   6.867   4.936   3.229
    1PA     C17 9007   6.774   4.782   3.114
    1PA     H7R 9008   6.877   4.750   3.097
    1PA     H7S 9009   6.701   4.705   3.138
    1PA     C16 9010   6.736   4.866   2.991
    1PA     H6R 9011   6.695   4.788   2.927
    1PA     H6S 9012   6.656   4.937   3.011
    1PA     C15 9013   6.862   4.933   2.935
    1PA     H5R 9014   6.903   5.001   3.010
    1PA     H5S 9015   6.941   4.861   2.914
    1PA     C14 9016   6.827   5.010   2.806
    1PA     H4R 9017   6.772   5.101   2.832
    1PA     H4S 9018   6.915   5.055   2.759
    1PA     C13 9019   6.770   4.918   2.697
    1PA     H3R 9020   6.851   4.845   2.689
    1PA     H3S 9021   6.675   4.874   2.728
    1PA     C12 9022   6.739   4.999   2.571
    1PA     H2R 9023   6.676   5.086   2.593
    1PA     H2S 9024   6.837   5.035   2.540
    2PC     C11 9025   6.678   4.912   2.463
    2PC     O12 9026   6.694   4.792   2.458
    2PC     O11 9027   6.595   4.979   2.382
    2PC      C1 9028   6.552   4.921   2.257
    2PC      HR 9029   6.511   4.997   2.191
    2PC      HS 9030   6.648   4.881   2.224
    2PC      C2 9031   6.454   4.804   2.266
    2PC      HX 9032   6.486   4.729   2.339
    2PC      C3 9033   6.452   4.737   2.128
    2PC      HA 9034   6.400   4.813   2.069
    2PC      HB 9035   6.559   4.726   2.111
    2PC     O31 9036   6.388   4.609   2.132
    2PC     P31 9037   6.346   4.537   1.995
    2PC     O32 9038   6.250   4.422   2.052
    2PC     C31 9039   6.123   4.464   2.107
    2PC     H1A 9040   6.145   4.524   2.195
    2PC     H1B 9041   6.062   4.524   2.040
    2PC     C32 9042   6.049   4.343   2.166
    2PC     H2A 9043   6.125   4.290   2.224
    2PC     H2B 9044   5.971   4.368   2.238
    2PC     N31 9045   5.984   4.247   2.071
    2PC     C33 9046   6.084   4.163   1.998
    2PC     H3A 9047   6.120   4.219   1.912
    2PC     H3B 9048   6.163   4.137   2.069
    2PC     H3C 9049   6.030   4.080   1.952
    2PC     C34 9050   5.898   4.159   2.156
    2PC     H4A 9051   5.846   4.223   2.227
    2PC     H4B 9052   5.830   4.101   2.093
    2PC     H4C 9053   5.965   4.086   2.202
    2PC     C35 9054   5.897   4.313   1.969
    2PC     H5A 9055   5.952   4.377   1.900
    2PC     H5B 9056   5.823   4.371   2.025
    2PC     H5C 9057   5.839   4.243   1.908
    2PC     O33 9058   6.269   4.621   1.901
    2PC     O34 9059   6.464   4.472   1.933
    2PC     O21 9060   6.325   4.861   2.296
    2PC     C21 9061   6.231   4.779   2.346
    2PC     O22 9062   6.250   4.662   2.372
    3OL     C12 9063   6.106   4.853   2.385
    3OL     H2R 9064   6.027   4.796   2.337
    3OL     H2S 9065   6.108   4.953   2.340
    3OL     C13 9066   6.081   4.859   2.537
    3OL     H3R 9067   6.168   4.906   2.583
    3OL     H3S 9068   6.078   4.755   2.569
    3OL     C14 9069   5.957   4.944   2.570
    3OL     H4R 9070   5.873   4.912   2.508
    3OL     H4S 9071   5.981   5.045   2.535
    3OL     C15 9072   5.921   4.934   2.719
    3OL     H5R 9073   6.002   4.941   2.792
    3OL     H5S 9074   5.875   4.837   2.738
    3OL     C16 9075   5.819   5.038   2.766
    3OL     H6R 9076   5.850   5.142   2.757
    3OL     H6S 9077   5.804   5.014   2.872
    3OL     C17 9078   5.691   5.024   2.684
    3OL     H7R 9079   5.664   4.918   2.677
    3OL     H7S 9080   5.695   5.061   2.581
    3OL     C18 9081   5.584   5.109   2.753
    3OL     H8R 9082   5.485   5.088   2.712
    3OL     H8S 9083   5.602   5.216   2.736
    3OL     C19 9084   5.563   5.086   2.901
    3OL     H9R 9085   5.543   4.985   2.937
    3OL    C110 9086   5.561   5.170   3.003
    3OL    H10R 9087   5.558   5.128   3.104
    3OL    C111 9088   5.569   5.320   3.007
    3OL    H11R 9089   5.466   5.346   3.031
    3OL    H11S 9090   5.591   5.355   2.906
    3OL    C112 9091   5.675   5.379   3.101
    3OL    H12R 9092   5.775   5.381   3.055
    3OL    H12S 9093   5.686   5.315   3.189
    3OL    C113 9094   5.657   5.524   3.148
    3OL    H13R 9095   5.641   5.590   3.063
    3OL    H13S 9096   5.748   5.562   3.195
    3OL    C114 9097   5.557   5.526   3.265
    3OL    H14R 9098   5.583   5.445   3.334
    3OL    H14S 9099   5.462   5.489   3.224
    3OL    C115 9100   5.532   5.663   3.328
    3OL    H15R 9101   5.427   5.677   3.358
    3OL    H15S 9102   5.557   5.748   3.264
    3OL    C116 9103   5.620   5.688   3.451
    3OL    H16R 9104   5.724   5.678   3.419
    3OL    H16S 9105   5.606   5.600   3.514
    3OL    C117 9106   5.602   5.821   3.524
    3OL    H17R 9107   5.677   5.820   3.603
    3OL    H17S 9108   5.506   5.832   3.575
    3OL    C118 9109   5.614   5.947   3.437
    3OL    H18R 9110   5.652   6.034   3.492
    3OL    H18S 9111   5.516   5.968   3.393
    3OL    H18T 9112   5.678   5.927   3.351
    1PA    C116 9113   0.951   4.060   3.220
    1PA    H16R 9114   1.035   4.080   3.152
    1PA    H16S 9115   0.958   4.138   3.295
    1PA    H16T 9116   0.854   4.066   3.170
    1PA    C115 9117   0.959   3.927   3.296
    1PA    H15R 9118   0.949   3.845   3.224
    1PA    H15S 9119   1.058   3.937   3.342
    1PA    C114 9120   0.847   3.928   3.401
    1PA    H14R 9121   0.886   3.860   3.477
    1PA    H14S 9122   0.824   4.028   3.438
    1PA    C113 9123   0.715   3.868   3.352
    1PA    H13R 9124   0.673   3.910   3.261
    1PA    H13S 9125   0.732   3.760   3.351
    1PA    C112 9126   0.602   3.888   3.455
    1PA    H12R 9127   0.634   3.852   3.553
    1PA    H12S 9128   0.584   3.995   3.470
    1PA    C111 9129   0.468   3.822   3.423
    1PA    H11R 9130   0.477   3.716   3.397
    1PA    H11S 9131   0.407   3.810   3.513
    1PA    C110 9132   0.393   3.896   3.312
    1PA    H10R 9133   0.388   4.003   3.335
    1PA    H10S 9134   0.440   3.880   3.215
    1PA     C19 9135   0.247   3.847   3.312
    1PA     H9R 9136   0.254   3.739   3.300
    1PA     H9S 9137   0.203   3.863   3.411
    1PA     C18 9138   0.145   3.893   3.207
    1PA     H8R 9139   0.120   3.994   3.241
    1PA     H8S 9140   0.207   3.908   3.118
    1PA     C17 9141   0.026   3.799   3.184
    1PA     H7R 9142   0.055   3.709   3.130
    1PA     H7S 9143  -0.008   3.760   3.280
    1PA     C16 9144  -0.085   3.858   3.095
    1PA     H6R 9145  -0.180   3.813   3.123
    1PA     H6S 9146  -0.095   3.961   3.130
    1PA     C15 9147  -0.063   3.858   2.944
    1PA     H5R 9148   0.030   3.913   2.928
    1PA     H5S 9149  -0.050   3.753   2.916
    1PA     C14 9150  -0.173   3.931   2.866
    1PA     H4R 9151  -0.268   3.879   2.883
    1PA     H4S 9152  -0.190   4.031   2.907
    1PA     C13 9153  -0.148   3.948   2.716
    1PA     H3R 9154  -0.220   4.013   2.665
    1PA     H3S 9155  -0.046   3.985   2.705
    1PA     C12 9156  -0.160   3.810   2.650
    1PA     H2R 9157  -0.082   3.754   2.703
    1PA     H2S 9158  -0.250   3.751   2.669
    2PC     C11 9159  -0.122   3.808   2.504
    2PC     O12 9160  -0.205   3.794   2.418
    2PC     O11 9161   0.010   3.826   2.481
    2PC      C1 9162   0.072   3.810   2.353
    2PC      HR 9163   0.179   3.831   2.365
    2PC      HS 9164   0.062   3.707   2.320
    2PC      C2 9165   0.013   3.902   2.244
    2PC      HX 9166  -0.087   3.867   2.219
    2PC      C3 9167   0.092   3.903   2.112
    2PC      HA 9168   0.103   3.801   2.074
    2PC      HB 9169   0.040   3.961   2.036
    2PC     O31 9170   0.229   3.945   2.123
    2PC     P31 9171   0.315   3.923   1.990
    2PC     O32 9172   0.324   4.071   1.928
    2PC     C31 9173   0.317   4.079   1.785
    2PC     H1A 9174   0.399   4.015   1.750
    2PC     H1B 9175   0.221   4.033   1.760
    2PC     C32 9176   0.326   4.225   1.737
    2PC     H2A 9177   0.291   4.219   1.633
    2PC     H2B 9178   0.256   4.284   1.796
    2PC     N31 9179   0.459   4.293   1.742
    2PC     C33 9180   0.427   4.434   1.704
    2PC     H3A 9181   0.344   4.460   1.770
    2PC     H3B 9182   0.507   4.505   1.725
    2PC     H3C 9183   0.403   4.440   1.598
    2PC     C34 9184   0.530   4.293   1.874
    2PC     H4A 9185   0.545   4.188   1.898
    2PC     H4B 9186   0.628   4.341   1.865
    2PC     H4C 9187   0.460   4.350   1.936
    2PC     C35 9188   0.545   4.247   1.628
    2PC     H5A 9189   0.483   4.247   1.538
    2PC     H5B 9190   0.594   4.151   1.643
    2PC     H5C 9191   0.630   4.314   1.614
    2PC     O33 9192   0.455   3.882   2.020
    2PC     O34 9193   0.253   3.827   1.896
    2PC     O21 9194   0.022   4.031   2.305
    2PC     C21 9195  -0.025   4.141   2.243
    2PC     O22 9196  -0.062   4.152   2.128
    3OL     C12 9197  -0.040   4.259   2.336
    3OL     H2R 9198  -0.148   4.263   2.353
    3OL     H2S 9199  -0.011   4.349   2.283
    3OL     C13 9200   0.025   4.233   2.473
    3OL     H3R 9201  -0.012   4.141   2.520
    3OL     H3S 9202   0.133   4.224   2.472
    3OL     C14 9203  -0.017   4.342   2.573
    3OL     H4R 9204  -0.009   4.302   2.675
    3OL     H4S 9205  -0.123   4.361   2.555
    3OL     C15 9206   0.074   4.465   2.578
    3OL     H5R 9207   0.065   4.518   2.483
    3OL     H5S 9208   0.178   4.430   2.577
    3OL     C16 9209   0.041   4.558   2.695
    3OL     H6R 9210   0.127   4.625   2.705
    3OL     H6S 9211   0.036   4.505   2.790
    3OL     C17 9212  -0.088   4.640   2.687
    3OL     H7R 9213  -0.170   4.571   2.671
    3OL     H7S 9214  -0.081   4.717   2.609
    3OL     C18 9215  -0.123   4.711   2.819
    3OL     H8R 9216  -0.106   4.651   2.908
    3OL     H8S 9217  -0.230   4.734   2.820
    3OL     C19 9218  -0.052   4.841   2.848
    3OL     H9R 9219   0.007   4.882   2.767
    3OL    C110 9220  -0.045   4.886   2.973
    3OL    H10R 9221   0.019   4.971   2.996
    3OL    C111 9222  -0.118   4.829   3.092
    3OL    H11R 9223  -0.205   4.769   3.064
    3OL    H11S 9224  -0.167   4.919   3.129
    3OL    C112 9225  -0.020   4.775   3.197
    3OL    H12R 9226   0.052   4.849   3.233
    3OL    H12S 9227   0.034   4.688   3.160
    3OL    C113 9228  -0.108   4.722   3.311
    3OL    H13R 9229  -0.156   4.628   3.282
    3OL    H13S 9230  -0.192   4.783   3.344
    3OL    C114 9231  -0.022   4.674   3.429
    3OL    H14R 9232   0.043   4.753   3.468
    3OL    H14S 9233   0.042   4.590   3.401
    3OL    C115 9234  -0.113   4.618   3.539
    3OL    H15R 9235  -0.160   4.529   3.497
    3OL    H15S 9236  -0.190   4.689   3.570
    3OL    C116 9237  -0.028   4.564   3.655
    3OL    H16R 9238   0.055   4.506   3.616
    3OL    H16S 9239  -0.082   4.489   3.714
    3OL    C117 9240   0.018   4.668   3.758
    3OL    H17R 9241   0.088   4.738   3.713
    3OL    H17S 9242   0.074   4.614   3.835
    3OL    C118 9243  -0.094   4.743   3.831
    3OL    H18R 9244  -0.057   4.804   3.914
    3OL    H18S 9245  -0.157   4.664   3.871
    3OL    H18T 9246  -0.151   4.804   3.761
    1PA    C116 9247   6.049   4.152   3.823
    1PA    H16R 9248   6.087   4.254   3.810
    1PA    H16S 9249   6.072   4.115   3.923
    1PA    H16T 9250   5.941   4.154   3.808
    1PA    C115 9251   6.119   4.066   3.717
    1PA    H15R 9252   6.227   4.069   3.732
    1PA    H15S 9253   6.094   3.960   3.729
    1PA    C114 9254   6.071   4.105   3.577
    1PA    H14R 9255   6.041   4.208   3.560
    1PA    H14S 9256   6.148   4.087   3.501
    1PA    C113 9257   5.955   4.009   3.545
    1PA    H13R 9258   5.995   3.908   3.544
    1PA    H13S 9259   5.881   4.019   3.624
    1PA    C112 9260   5.899   4.045   3.406
    1PA    H12R 9261   5.843   4.139   3.415
    1PA    H12S 9262   5.979   4.056   3.332
    1PA    C111 9263   5.805   3.932   3.363
    1PA    H11R 9264   5.851   3.834   3.375
    1PA    H11S 9265   5.724   3.938   3.435
    1PA    C110 9266   5.751   3.954   3.221
    1PA    H10R 9267   5.660   3.895   3.206
    1PA    H10S 9268   5.721   4.059   3.220
    1PA     C19 9269   5.856   3.924   3.113
    1PA     H9R 9270   5.846   3.999   3.035
    1PA     H9S 9271   5.962   3.931   3.139
    1PA     C18 9272   5.837   3.777   3.071
    1PA     H8R 9273   5.854   3.721   3.163
    1PA     H8S 9274   5.737   3.752   3.035
    1PA     C17 9275   5.938   3.737   2.963
    1PA     H7R 9276   5.921   3.802   2.877
    1PA     H7S 9277   6.038   3.758   3.001
    1PA     C16 9278   5.923   3.589   2.928
    1PA     H6R 9279   5.964   3.524   3.006
    1PA     H6S 9280   5.817   3.566   2.912
    1PA     C15 9281   6.003   3.574   2.798
    1PA     H5R 9282   5.960   3.637   2.720
    1PA     H5S 9283   6.105   3.599   2.830
    1PA     C14 9284   5.985   3.429   2.753
    1PA     H4R 9285   6.011   3.356   2.830
    1PA     H4S 9286   5.879   3.411   2.732
    1PA     C13 9287   6.067   3.396   2.627
    1PA     H3R 9288   6.174   3.411   2.638
    1PA     H3S 9289   6.045   3.294   2.596
    1PA     C12 9290   6.020   3.480   2.508
    1PA     H2R 9291   5.911   3.482   2.509
    1PA     H2S 9292   6.061   3.580   2.521
    2PC     C11 9293   6.058   3.428   2.371
    2PC     O12 9294   5.987   3.440   2.273
    2PC     O11 9295   6.186   3.387   2.373
    2PC      C1 9296   6.239   3.339   2.248
    2PC      HR 9297   6.211   3.234   2.236
    2PC      HS 9298   6.180   3.379   2.165
    2PC      C2 9299   6.390   3.366   2.235
    2PC      HX 9300   6.418   3.467   2.265
    2PC      C3 9301   6.428   3.325   2.092
    2PC      HA 9302   6.372   3.383   2.018
    2PC      HB 9303   6.536   3.330   2.077
    2PC     O31 9304   6.401   3.185   2.075
    2PC     P31 9305   6.438   3.104   1.942
    2PC     O32 9306   6.596   3.122   1.920
    2PC     C31 9307   6.650   3.210   1.820
    2PC     H1A 9308   6.609   3.310   1.840
    2PC     H1B 9309   6.759   3.207   1.825
    2PC     C32 9310   6.614   3.150   1.684
    2PC     H2A 9311   6.520   3.095   1.690
    2PC     H2B 9312   6.608   3.228   1.608
    2PC     N31 9313   6.698   3.039   1.628
    2PC     C33 9314   6.723   2.927   1.725
    2PC     H3A 9315   6.630   2.876   1.748
    2PC     H3B 9316   6.792   2.857   1.678
    2PC     H3C 9317   6.760   2.964   1.821
    2PC     C34 9318   6.623   2.987   1.509
    2PC     H4A 9319   6.612   3.060   1.429
    2PC     H4B 9320   6.684   2.904   1.473
    2PC     H4C 9321   6.529   2.952   1.552
    2PC     C35 9322   6.833   3.081   1.579
    2PC     H5A 9323   6.826   3.154   1.498
    2PC     H5B 9324   6.886   2.996   1.535
    2PC     H5C 9325   6.885   3.122   1.665
    2PC     O33 9326   6.403   2.960   1.950
    2PC     O34 9327   6.357   3.130   1.821
    2PC     O21 9328   6.461   3.279   2.325
    2PC     C21 9329   6.591   3.295   2.355
    2PC     O22 9330   6.654   3.388   2.308
    3OL     C12 9331   6.639   3.181   2.441
    3OL     H2R 9332   6.748   3.174   2.436
    3OL     H2S 9333   6.591   3.091   2.405
    3OL     C13 9334   6.606   3.196   2.591
    3OL     H3R 9335   6.643   3.296   2.615
    3OL     H3S 9336   6.663   3.117   2.641
    3OL     C14 9337   6.457   3.178   2.619
    3OL     H4R 9338   6.435   3.078   2.581
    3OL     H4S 9339   6.402   3.256   2.566
    3OL     C15 9340   6.427   3.179   2.770
    3OL     H5R 9341   6.511   3.139   2.828
    3OL     H5S 9342   6.337   3.122   2.794
    3OL     C16 9343   6.420   3.323   2.822
    3OL     H6R 9344   6.348   3.374   2.759
    3OL     H6S 9345   6.521   3.365   2.820
    3OL     C17 9346   6.354   3.307   2.960
    3OL     H7R 9347   6.397   3.221   3.011
    3OL     H7S 9348   6.252   3.270   2.947
    3OL     C18 9349   6.367   3.433   3.047
    3OL     H8R 9350   6.328   3.515   2.986
    3OL     H8S 9351   6.472   3.461   3.060
    3OL     C19 9352   6.299   3.418   3.180
    3OL     H9R 9353   6.193   3.442   3.183
    3OL    C110 9354   6.362   3.389   3.293
    3OL    H10R 9355   6.291   3.393   3.375
    3OL    C111 9356   6.505   3.344   3.310
    3OL    H11R 9357   6.545   3.327   3.209
    3OL    H11S 9358   6.513   3.252   3.368
    3OL    C112 9359   6.575   3.460   3.382
    3OL    H12R 9360   6.516   3.487   3.470
    3OL    H12S 9361   6.594   3.547   3.318
    3OL    C113 9362   6.707   3.426   3.453
    3OL    H13R 9363   6.708   3.332   3.508
    3OL    H13S 9364   6.737   3.498   3.530
    3OL    C114 9365   6.823   3.419   3.353
    3OL    H14R 9366   6.907   3.394   3.419
    3OL    H14S 9367   6.850   3.516   3.311
    3OL    C115 9368   6.826   3.318   3.238
    3OL    H15R 9369   6.749   3.358   3.172
    3OL    H15S 9370   6.810   3.216   3.274
    3OL    C116 9371   6.961   3.329   3.166
    3OL    H16R 9372   7.051   3.308   3.225
    3OL    H16S 9373   6.967   3.428   3.122
    3OL    C117 9374   6.962   3.217   3.061
    3OL    H17R 9375   6.957   3.125   3.118
    3OL    H17S 9376   7.059   3.226   3.012
    3OL    C118 9377   6.854   3.228   2.952
    3OL    H18R 9378   6.875   3.161   2.869
    3OL    H18S 9379   6.856   3.333   2.920
    3OL    H18T 9380   6.752   3.198   2.978
    1PA    C116 9381   1.819   4.974   4.272
    1PA    H16R 9382   1.889   4.891   4.260
    1PA    H16S 9383   1.735   4.938   4.332
    1PA    H16T 9384   1.879   5.053   4.317
    1PA    C115 9385   1.787   5.024   4.130
    1PA    H15R 9386   1.877   5.078   4.101
    1PA    H15S 9387   1.784   4.936   4.065
    1PA    C114 9388   1.663   5.114   4.130
    1PA    H14R 9389   1.577   5.052   4.156
    1PA    H14S 9390   1.667   5.199   4.198
    1PA    C113 9391   1.655   5.174   3.989
    1PA    H13R 9392   1.569   5.242   3.985
    1PA    H13S 9393   1.746   5.230   3.969
    1PA    C112 9394   1.632   5.077   3.872
    1PA    H12R 9395   1.652   5.126   3.776
    1PA    H12S 9396   1.700   4.992   3.879
    1PA    C111 9397   1.485   5.033   3.874
    1PA    H11R 9398   1.454   4.971   3.958
    1PA    H11S 9399   1.413   5.115   3.873
    1PA    C110 9400   1.467   4.948   3.748
    1PA    H10R 9401   1.558   4.892   3.726
    1PA    H10S 9402   1.384   4.877   3.760
    1PA     C19 9403   1.438   5.036   3.626
    1PA     H9R 9404   1.362   5.110   3.654
    1PA     H9S 9405   1.524   5.098   3.598
    1PA     C18 9406   1.387   4.959   3.503
    1PA     H8R 9407   1.437   4.862   3.500
    1PA     H8S 9408   1.279   4.944   3.514
    1PA     C17 9409   1.402   5.038   3.372
    1PA     H7R 9410   1.333   5.121   3.388
    1PA     H7S 9411   1.504   5.074   3.361
    1PA     C16 9412   1.363   4.950   3.252
    1PA     H6R 9413   1.426   4.861   3.247
    1PA     H6S 9414   1.257   4.924   3.252
    1PA     C15 9415   1.394   5.035   3.128
    1PA     H5R 9416   1.345   5.133   3.126
    1PA     H5S 9417   1.501   5.054   3.119
    1PA     C14 9418   1.355   4.967   2.997
    1PA     H4R 9419   1.393   4.865   2.987
    1PA     H4S 9420   1.247   4.954   2.996
    1PA     C13 9421   1.396   5.048   2.873
    1PA     H3R 9422   1.370   5.153   2.886
    1PA     H3S 9423   1.503   5.048   2.853
    1PA     C12 9424   1.328   4.985   2.750
    1PA     H2R 9425   1.339   4.876   2.747
    1PA     H2S 9426   1.220   4.995   2.745
    2PC     C11 9427   1.392   5.036   2.623
    2PC     O12 9428   1.472   5.128   2.623
    2PC     O11 9429   1.352   4.967   2.515
    2PC      C1 9430   1.401   5.016   2.389
    2PC      HR 9431   1.404   5.125   2.382
    2PC      HS 9432   1.505   4.984   2.384
    2PC      C2 9433   1.322   4.951   2.275
    2PC      HX 9434   1.308   4.846   2.302
    2PC      C3 9435   1.398   4.963   2.142
    2PC      HA 9436   1.414   5.068   2.117
    2PC      HB 9437   1.495   4.913   2.153
    2PC     O31 9438   1.333   4.886   2.040
    2PC     P31 9439   1.401   4.891   1.895
    2PC     O32 9440   1.390   5.049   1.868
    2PC     C31 9441   1.263   5.116   1.861
    2PC     H1A 9442   1.207   5.068   1.780
    2PC     H1B 9443   1.196   5.104   1.947
    2PC     C32 9444   1.295   5.263   1.831
    2PC     H2A 9445   1.201   5.317   1.815
    2PC     H2B 9446   1.336   5.295   1.927
    2PC     N31 9447   1.387   5.302   1.720
    2PC     C33 9448   1.389   5.208   1.603
    2PC     H3A 9449   1.467   5.245   1.535
    2PC     H3B 9450   1.415   5.109   1.641
    2PC     H3C 9451   1.296   5.205   1.546
    2PC     C34 9452   1.349   5.437   1.668
    2PC     H4A 9453   1.241   5.441   1.657
    2PC     H4B 9454   1.366   5.515   1.743
    2PC     H4C 9455   1.397   5.455   1.571
    2PC     C35 9456   1.528   5.313   1.771
    2PC     H5A 9457   1.538   5.394   1.843
    2PC     H5B 9458   1.595   5.327   1.686
    2PC     H5C 9459   1.546   5.221   1.827
    2PC     O33 9460   1.542   4.847   1.886
    2PC     O34 9461   1.328   4.814   1.792
    2PC     O21 9462   1.191   5.008   2.262
    2PC     C21 9463   1.170   5.138   2.233
    2PC     O22 9464   1.256   5.214   2.196
    3OL     C12 9465   1.028   5.178   2.265
    3OL     H2R 9466   0.979   5.089   2.307
    3OL     H2S 9467   0.978   5.215   2.176
    3OL     C13 9468   1.030   5.284   2.375
    3OL     H3R 9469   0.929   5.301   2.414
    3OL     H3S 9470   1.075   5.376   2.335
    3OL     C14 9471   1.120   5.250   2.495
    3OL     H4R 9472   1.224   5.244   2.463
    3OL     H4S 9473   1.098   5.149   2.530
    3OL     C15 9474   1.100   5.357   2.603
    3OL     H5R 9475   0.995   5.381   2.618
    3OL     H5S 9476   1.147   5.449   2.569
    3OL     C16 9477   1.151   5.316   2.742
    3OL     H6R 9478   1.255   5.282   2.743
    3OL     H6S 9479   1.089   5.233   2.776
    3OL     C17 9480   1.153   5.440   2.833
    3OL     H7R 9481   1.055   5.486   2.824
    3OL     H7S 9482   1.217   5.518   2.790
    3OL     C18 9483   1.173   5.412   2.982
    3OL     H8R 9484   1.277   5.379   2.990
    3OL     H8S 9485   1.095   5.342   3.014
    3OL     C19 9486   1.156   5.532   3.071
    3OL     H9R 9487   1.057   5.545   3.113
    3OL    C110 9488   1.246   5.627   3.095
    3OL    H10R 9489   1.216   5.696   3.174
    3OL    C111 9490   1.383   5.642   3.035
    3OL    H11R 9491   1.398   5.735   2.980
    3OL    H11S 9492   1.402   5.560   2.965
    3OL    C112 9493   1.490   5.625   3.143
    3OL    H12R 9494   1.494   5.522   3.178
    3OL    H12S 9495   1.459   5.673   3.236
    3OL    C113 9496   1.627   5.684   3.105
    3OL    H13R 9497   1.628   5.781   3.056
    3OL    H13S 9498   1.672   5.619   3.030
    3OL    C114 9499   1.713   5.701   3.231
    3OL    H14R 9500   1.788   5.622   3.239
    3OL    H14S 9501   1.648   5.704   3.319
    3OL    C115 9502   1.791   5.833   3.231
    3OL    H15R 9503   1.839   5.853   3.327
    3OL    H15S 9504   1.715   5.911   3.215
    3OL    C116 9505   1.894   5.852   3.119
    3OL    H16R 9506   1.835   5.850   3.027
    3OL    H16S 9507   1.974   5.779   3.111
    3OL    C117 9508   1.965   5.988   3.133
    3OL    H17R 9509   2.024   5.980   3.225
    3OL    H17S 9510   1.900   6.076   3.127
    3OL    C118 9511   2.064   6.005   3.017
    3OL    H18R 9512   2.119   5.915   2.989
    3OL    H18S 9513   2.139   6.077   3.049
    3OL    H18T 9514   2.020   6.055   2.930
    1PA    C116 9515   2.379   3.245   3.700
    1PA    H16R 9516   2.407   3.185   3.613
    1PA    H16S 9517   2.469   3.267   3.758
    1PA    H16T 9518   2.361   3.349   3.671
    1PA    C115 9519   2.274   3.178   3.789
    1PA    H15R 9520   2.303   3.075   3.811
    1PA    H15S 9521   2.263   3.217   3.891
    1PA    C114 9522   2.142   3.160   3.714
    1PA    H14R 9523   2.154   3.107   3.619
    1PA    H14S 9524   2.075   3.107   3.782
    1PA    C113 9525   2.073   3.293   3.680
    1PA    H13R 9526   2.078   3.349   3.773
    1PA    H13S 9527   2.136   3.345   3.607
    1PA    C112 9528   1.933   3.288   3.618
    1PA    H12R 9529   1.917   3.214   3.539
    1PA    H12S 9530   1.873   3.252   3.701
    1PA    C111 9531   1.887   3.432   3.590
    1PA    H11R 9532   1.779   3.432   3.605
    1PA    H11S 9533   1.924   3.497   3.669
    1PA    C110 9534   1.921   3.483   3.450
    1PA    H10R 9535   2.029   3.502   3.447
    1PA    H10S 9536   1.894   3.411   3.373
    1PA     C19 9537   1.855   3.621   3.428
    1PA     H9R 9538   1.749   3.616   3.402
    1PA     H9S 9539   1.870   3.675   3.522
    1PA     C18 9540   1.929   3.693   3.315
    1PA     H8R 9541   1.902   3.799   3.314
    1PA     H8S 9542   2.037   3.689   3.332
    1PA     C17 9543   1.909   3.625   3.179
    1PA     H7R 9544   1.961   3.529   3.181
    1PA     H7S 9545   1.804   3.603   3.158
    1PA     C16 9546   1.974   3.704   3.065
    1PA     H6R 9547   2.077   3.728   3.090
    1PA     H6S 9548   1.990   3.639   2.979
    1PA     C15 9549   1.897   3.832   3.028
    1PA     H5R 9550   1.845   3.873   3.115
    1PA     H5S 9551   1.974   3.910   3.020
    1PA     C14 9552   1.809   3.831   2.903
    1PA     H4R 9553   1.740   3.746   2.903
    1PA     H4S 9554   1.740   3.915   2.899
    1PA     C13 9555   1.892   3.822   2.774
    1PA     H3R 9556   1.981   3.759   2.778
    1PA     H3S 9557   1.829   3.785   2.692
    1PA     C12 9558   1.938   3.963   2.735
    1PA     H2R 9559   1.860   4.040   2.734
    1PA     H2S 9560   2.013   3.985   2.810
    2PC     C11 9561   2.007   3.971   2.602
    2PC     O12 9562   1.955   3.932   2.500
    2PC     O11 9563   2.132   4.022   2.613
    2PC      C1 9564   2.217   4.030   2.497
    2PC      HR 9565   2.319   4.030   2.534
    2PC      HS 9566   2.214   3.938   2.438
    2PC      C2 9567   2.174   4.156   2.420
    2PC      HX 9568   2.072   4.146   2.382
    2PC      C3 9569   2.281   4.172   2.311
    2PC      HA 9570   2.386   4.178   2.342
    2PC      HB 9571   2.276   4.078   2.256
    2PC     O31 9572   2.243   4.281   2.226
    2PC     P31 9573   2.359   4.369   2.159
    2PC     O32 9574   2.447   4.428   2.279
    2PC     C31 9575   2.589   4.430   2.257
    2PC     H1A 9576   2.616   4.324   2.250
    2PC     H1B 9577   2.606   4.476   2.160
    2PC     C32 9578   2.667   4.508   2.364
    2PC     H2A 9579   2.675   4.456   2.460
    2PC     H2B 9580   2.768   4.511   2.323
    2PC     N31 9581   2.619   4.641   2.413
    2PC     C33 9582   2.515   4.624   2.518
    2PC     H3A 9583   2.550   4.549   2.589
    2PC     H3B 9584   2.512   4.725   2.558
    2PC     H3C 9585   2.424   4.597   2.464
    2PC     C34 9586   2.738   4.713   2.471
    2PC     H4A 9587   2.766   4.666   2.565
    2PC     H4B 9588   2.824   4.712   2.404
    2PC     H4C 9589   2.718   4.819   2.488
    2PC     C35 9590   2.568   4.727   2.300
    2PC     H5A 9591   2.498   4.674   2.235
    2PC     H5B 9592   2.654   4.753   2.239
    2PC     H5C 9593   2.522   4.816   2.343
    2PC     O33 9594   2.431   4.297   2.051
    2PC     O34 9595   2.296   4.476   2.079
    2PC     O21 9596   2.191   4.276   2.498
    2PC     C21 9597   2.087   4.312   2.575
    2PC     O22 9598   1.979   4.258   2.566
    3OL     C12 9599   2.121   4.431   2.660
    3OL     H2R 9600   2.223   4.409   2.692
    3OL     H2S 9601   2.069   4.430   2.757
    3OL     C13 9602   2.108   4.553   2.567
    3OL     H3R 9603   2.002   4.567   2.545
    3OL     H3S 9604   2.176   4.544   2.482
    3OL     C14 9605   2.164   4.671   2.647
    3OL     H4R 9606   2.253   4.710   2.597
    3OL     H4S 9607   2.186   4.642   2.750
    3OL     C15 9608   2.067   4.790   2.661
    3OL     H5R 9609   1.984   4.741   2.713
    3OL     H5S 9610   2.035   4.832   2.566
    3OL     C16 9611   2.122   4.899   2.753
    3OL     H6R 9612   2.223   4.919   2.718
    3OL     H6S 9613   2.123   4.870   2.858
    3OL     C17 9614   2.032   5.021   2.726
    3OL     H7R 9615   1.929   5.008   2.757
    3OL     H7S 9616   2.019   5.032   2.618
    3OL     C18 9617   2.098   5.145   2.789
    3OL     H8R 9618   2.189   5.176   2.737
    3OL     H8S 9619   2.115   5.130   2.895
    3OL     C19 9620   2.006   5.265   2.780
    3OL     H9R 9621   2.035   5.338   2.705
    3OL    C110 9622   1.897   5.294   2.848
    3OL    H10R 9623   1.853   5.393   2.834
    3OL    C111 9624   1.814   5.216   2.947
    3OL    H11R 9625   1.827   5.108   2.932
    3OL    H11S 9626   1.709   5.242   2.941
    3OL    C112 9627   1.868   5.237   3.089
    3OL    H12R 9628   1.837   5.336   3.123
    3OL    H12S 9629   1.977   5.244   3.098
    3OL    C113 9630   1.829   5.129   3.190
    3OL    H13R 9631   1.871   5.036   3.149
    3OL    H13S 9632   1.720   5.134   3.189
    3OL    C114 9633   1.883   5.153   3.332
    3OL    H14R 9634   1.846   5.249   3.367
    3OL    H14S 9635   1.992   5.160   3.327
    3OL    C115 9636   1.849   5.042   3.432
    3OL    H15R 9637   1.896   4.947   3.407
    3OL    H15S 9638   1.742   5.019   3.432
    3OL    C116 9639   1.880   5.086   3.576
    3OL    H16R 9640   1.811   5.155   3.625
    3OL    H16S 9641   1.976   5.138   3.584
    3OL    C117 9642   1.889   4.965   3.670
    3OL    H17R 9643   1.923   4.876   3.618
    3OL    H17S 9644   1.791   4.934   3.708
    3OL    C118 9645   1.977   4.994   3.793
    3OL    H18R 9646   1.964   4.913   3.865
    3OL    H18S 9647   1.932   5.082   3.840
    3OL    H18T 9648   2.078   5.014   3.758
    1PA    C116 9649   6.858   5.665   3.667
    1PA    H16R 9650   6.897   5.623   3.761
    1PA    H16S 9651   6.901   5.761   3.638
    1PA    H16T 9652   6.885   5.598   3.585
    1PA    C115 9653   6.705   5.676   3.663
    1PA    H15R 9654   6.655   5.579   3.664
    1PA    H15S 9655   6.667   5.742   3.742
    1PA    C114 9656   6.669   5.738   3.527
    1PA    H14R 9657   6.562   5.758   3.534
    1PA    H14S 9658   6.729   5.828   3.516
    1PA    C113 9659   6.707   5.641   3.415
    1PA    H13R 9660   6.814   5.622   3.409
    1PA    H13S 9661   6.657   5.547   3.438
    1PA    C112 9662   6.655   5.700   3.283
    1PA    H12R 9663   6.691   5.624   3.213
    1PA    H12S 9664   6.547   5.712   3.278
    1PA    C111 9665   6.700   5.844   3.255
    1PA    H11R 9666   6.634   5.889   3.181
    1PA    H11S 9667   6.680   5.902   3.345
    1PA    C110 9668   6.846   5.870   3.216
    1PA    H10R 9669   6.863   5.978   3.217
    1PA    H10S 9670   6.914   5.828   3.291
    1PA     C19 9671   6.888   5.816   3.079
    1PA     H9R 9672   6.995   5.833   3.063
    1PA     H9S 9673   6.884   5.707   3.078
    1PA     C18 9674   6.809   5.881   2.965
    1PA     H8R 9675   6.710   5.838   2.977
    1PA     H8S 9676   6.795   5.988   2.982
    1PA     C17 9677   6.864   5.849   2.825
    1PA     H7R 9678   6.967   5.882   2.810
    1PA     H7S 9679   6.866   5.744   2.798
    1PA     C16 9680   6.765   5.907   2.722
    1PA     H6R 9681   6.665   5.868   2.743
    1PA     H6S 9682   6.762   6.016   2.731
    1PA     C15 9683   6.797   5.869   2.577
    1PA     H5R 9684   6.899   5.894   2.546
    1PA     H5S 9685   6.794   5.760   2.571
    1PA     C14 9686   6.702   5.933   2.475
    1PA     H4R 9687   6.598   5.915   2.502
    1PA     H4S 9688   6.715   6.041   2.464
    1PA     C13 9689   6.726   5.872   2.336
    1PA     H3R 9690   6.708   5.949   2.260
    1PA     H3S 9691   6.830   5.844   2.317
    1PA     C12 9692   6.629   5.757   2.304
    1PA     H2R 9693   6.630   5.680   2.382
    1PA     H2S 9694   6.528   5.798   2.292
    2PC     C11 9695   6.665   5.680   2.180
    2PC     O12 9696   6.768   5.707   2.120
    2PC     O11 9697   6.581   5.580   2.149
    2PC      C1 9698   6.616   5.490   2.043
    2PC      HR 9699   6.663   5.546   1.961
    2PC      HS 9700   6.694   5.419   2.072
    2PC      C2 9701   6.483   5.420   2.012
    2PC      HX 9702   6.484   5.337   1.941
    2PC      C3 9703   6.372   5.518   1.973
    2PC      HA 9704   6.310   5.547   2.058
    2PC      HB 9705   6.421   5.607   1.931
    2PC     O31 9706   6.279   5.451   1.886
    2PC     P31 9707   6.299   5.476   1.729
    2PC     O32 9708   6.396   5.352   1.696
    2PC     C31 9709   6.391   5.301   1.562
    2PC     H1A 9710   6.296   5.247   1.551
    2PC     H1B 9711   6.407   5.385   1.494
    2PC     C32 9712   6.505   5.200   1.558
    2PC     H2A 9713   6.599   5.251   1.580
    2PC     H2B 9714   6.490   5.127   1.637
    2PC     N31 9715   6.522   5.123   1.430
    2PC     C33 9716   6.566   5.220   1.325
    2PC     H3A 9717   6.491   5.298   1.307
    2PC     H3B 9718   6.663   5.260   1.353
    2PC     H3C 9719   6.578   5.165   1.231
    2PC     C34 9720   6.623   5.014   1.448
    2PC     H4A 9721   6.630   4.955   1.356
    2PC     H4B 9722   6.722   5.060   1.455
    2PC     H4C 9723   6.611   4.955   1.539
    2PC     C35 9724   6.394   5.056   1.392
    2PC     H5A 9725   6.315   5.124   1.361
    2PC     H5B 9726   6.357   4.988   1.470
    2PC     H5C 9727   6.401   5.007   1.295
    2PC     O33 9728   6.170   5.465   1.658
    2PC     O34 9729   6.362   5.606   1.699
    2PC     O21 9730   6.449   5.367   2.142
    2PC     C21 9731   6.364   5.264   2.147
    2PC     O22 9732   6.338   5.196   2.049
    3OL     C12 9733   6.325   5.222   2.286
    3OL     H2R 9734   6.309   5.114   2.291
    3OL     H2S 9735   6.226   5.264   2.308
    3OL     C13 9736   6.431   5.269   2.386
    3OL     H3R 9737   6.437   5.378   2.394
    3OL     H3S 9738   6.528   5.234   2.352
    3OL     C14 9739   6.405   5.204   2.523
    3OL     H4R 9740   6.501   5.189   2.573
    3OL     H4S 9741   6.370   5.103   2.502
    3OL     C15 9742   6.306   5.277   2.615
    3OL     H5R 9743   6.210   5.290   2.566
    3OL     H5S 9744   6.339   5.378   2.643
    3OL     C16 9745   6.284   5.196   2.743
    3OL     H6R 9746   6.376   5.183   2.800
    3OL     H6S 9747   6.248   5.096   2.716
    3OL     C17 9748   6.178   5.256   2.836
    3OL     H7R 9749   6.080   5.266   2.789
    3OL     H7S 9750   6.209   5.359   2.858
    3OL     C18 9751   6.167   5.170   2.963
    3OL     H8R 9752   6.270   5.139   2.984
    3OL     H8S 9753   6.108   5.081   2.939
    3OL     C19 9754   6.115   5.248   3.081
    3OL     H9R 9755   6.171   5.337   3.108
    3OL    C110 9756   6.018   5.205   3.160
    3OL    H10R 9757   5.982   5.263   3.245
    3OL    C111 9758   5.936   5.081   3.136
    3OL    H11R 9759   5.989   5.009   3.073
    3OL    H11S 9760   5.840   5.117   3.099
    3OL    C112 9761   5.898   5.020   3.271
    3OL    H12R 9762   5.833   5.089   3.326
    3OL    H12S 9763   5.991   5.007   3.327
    3OL    C113 9764   5.828   4.883   3.268
    3OL    H13R 9765   5.744   4.876   3.199
    3OL    H13S 9766   5.789   4.869   3.369
    3OL    C114 9767   5.932   4.772   3.248
    3OL    H14R 9768   5.998   4.759   3.334
    3OL    H14S 9769   5.990   4.804   3.161
    3OL    C115 9770   5.863   4.638   3.216
    3OL    H15R 9771   5.916   4.579   3.140
    3OL    H15S 9772   5.763   4.651   3.174
    3OL    C116 9773   5.845   4.551   3.341
    3OL    H16R 9774   5.796   4.614   3.415
    3OL    H16S 9775   5.944   4.513   3.368
    3OL    C117 9776   5.747   4.437   3.312
    3OL    H17R 9777   5.768   4.361   3.388
    3OL    H17S 9778   5.767   4.401   3.211
    3OL    C118 9779   5.603   4.488   3.323
    3OL    H18R 9780   5.528   4.411   3.303
    3OL    H18S 9781   5.598   4.572   3.253
    3OL    H18T 9782   5.580   4.524   3.423
    1PA    C116 9783   6.352   5.593   3.709
    1PA    H16R 9784   6.301   5.497   3.699
    1PA    H16S 9785   6.427   5.590   3.788
    1PA    H16T 9786   6.411   5.612   3.619
    1PA    C115 9787   6.249   5.705   3.726
    1PA    H15R 9788   6.171   5.682   3.653
    1PA    H15S 9789   6.191   5.694   3.817
    1PA    C114 9790   6.296   5.851   3.717
    1PA    H14R 9791   6.220   5.916   3.760
    1PA    H14S 9792   6.379   5.858   3.788
    1PA    C113 9793   6.314   5.895   3.571
    1PA    H13R 9794   6.384   5.822   3.530
    1PA    H13S 9795   6.221   5.892   3.515
    1PA    C112 9796   6.361   6.041   3.557
    1PA    H12R 9797   6.293   6.110   3.606
    1PA    H12S 9798   6.455   6.052   3.611
    1PA    C111 9799   6.390   6.067   3.409
    1PA    H11R 9800   6.451   6.157   3.402
    1PA    H11S 9801   6.443   5.986   3.358
    1PA    C110 9802   6.260   6.096   3.332
    1PA    H10R 9803   6.190   6.012   3.330
    1PA    H10S 9804   6.209   6.184   3.373
    1PA     C19 9805   6.291   6.130   3.186
    1PA     H9R 9806   6.332   6.039   3.141
    1PA     H9S 9807   6.197   6.154   3.136
    1PA     C18 9808   6.385   6.249   3.163
    1PA     H8R 9809   6.348   6.348   3.189
    1PA     H8S 9810   6.484   6.224   3.202
    1PA     C17 9811   6.404   6.275   3.013
    1PA     H7R 9812   6.305   6.252   2.972
    1PA     H7S 9813   6.416   6.382   2.999
    1PA     C16 9814   6.519   6.196   2.949
    1PA     H6R 9815   6.616   6.219   2.996
    1PA     H6S 9816   6.510   6.089   2.967
    1PA     C15 9817   6.536   6.230   2.800
    1PA     H5R 9818   6.586   6.143   2.757
    1PA     H5S 9819   6.436   6.233   2.755
    1PA     C14 9820   6.620   6.352   2.760
    1PA     H4R 9821   6.569   6.442   2.794
    1PA     H4S 9822   6.712   6.332   2.816
    1PA     C13 9823   6.651   6.358   2.610
    1PA     H3R 9824   6.745   6.409   2.587
    1PA     H3S 9825   6.661   6.255   2.574
    1PA     C12 9826   6.534   6.424   2.535
    1PA     H2R 9827   6.437   6.401   2.578
    1PA     H2S 9828   6.546   6.532   2.529
    2PC     C11 9829   6.506   6.368   2.398
    2PC     O12 9830   6.575   6.284   2.345
    2PC     O11 9831   6.397   6.426   2.344
    2PC      C1 9832   6.365   6.404   2.205
    2PC      HR 9833   6.288   6.472   2.168
    2PC      HS 9834   6.459   6.433   2.158
    2PC      C2 9835   6.328   6.259   2.169
    2PC      HX 9836   6.400   6.190   2.214
    2PC      C3 9837   6.307   6.250   2.017
    2PC      HA 9838   6.402   6.257   1.963
    2PC      HB 9839   6.254   6.156   2.000
    2PC     O31 9840   6.224   6.361   1.976
    2PC     P31 9841   6.184   6.379   1.822
    2PC     O32 9842   6.042   6.306   1.839
    2PC     C31 9843   5.969   6.273   1.720
    2PC     H1A 9844   5.944   6.360   1.659
    2PC     H1B 9845   6.022   6.214   1.645
    2PC     C32 9846   5.845   6.190   1.756
    2PC     H2A 9847   5.782   6.255   1.817
    2PC     H2B 9848   5.785   6.161   1.669
    2PC     N31 9849   5.861   6.063   1.834
    2PC     C33 9850   5.923   6.081   1.969
    2PC     H3A 9851   6.030   6.103   1.963
    2PC     H3B 9852   5.865   6.152   2.027
    2PC     H3C 9853   5.912   5.980   2.008
    2PC     C34 9854   5.733   5.989   1.861
    2PC     H4A 9855   5.679   5.959   1.771
    2PC     H4B 9856   5.739   5.895   1.915
    2PC     H4C 9857   5.675   6.052   1.929
    2PC     C35 9858   5.940   5.960   1.759
    2PC     H5A 9859   6.044   5.971   1.791
    2PC     H5B 9860   5.932   5.983   1.653
    2PC     H5C 9861   5.911   5.858   1.785
    2PC     O33 9862   6.162   6.523   1.793
    2PC     O34 9863   6.255   6.316   1.709
    2PC     O21 9864   6.203   6.232   2.233
    2PC     C21 9865   6.142   6.112   2.231
    2PC     O22 9866   6.192   6.015   2.177
    3OL     C12 9867   6.014   6.107   2.310
    3OL     H2R 9868   5.955   6.023   2.272
    3OL     H2S 9869   5.958   6.197   2.285
    3OL     C13 9870   6.053   6.078   2.456
    3OL     H3R 9871   6.118   5.991   2.461
    3OL     H3S 9872   5.961   6.052   2.510
    3OL     C14 9873   6.115   6.202   2.520
    3OL     H4R 9874   6.052   6.291   2.521
    3OL     H4S 9875   6.212   6.225   2.476
    3OL     C15 9876   6.143   6.161   2.665
    3OL     H5R 9877   6.244   6.197   2.690
    3OL     H5S 9878   6.148   6.052   2.678
    3OL     C16 9879   6.036   6.209   2.764
    3OL     H6R 9880   6.062   6.159   2.857
    3OL     H6S 9881   5.934   6.182   2.733
    3OL     C17 9882   6.039   6.359   2.796
    3OL     H7R 9883   5.984   6.419   2.723
    3OL     H7S 9884   6.145   6.386   2.797
    3OL     C18 9885   5.977   6.374   2.935
    3OL     H8R 9886   5.991   6.472   2.981
    3OL     H8S 9887   6.027   6.306   3.004
    3OL     C19 9888   5.831   6.339   2.918
    3OL     H9R 9889   5.789   6.361   2.820
    3OL    C110 9890   5.756   6.286   3.013
    3OL    H10R 9891   5.655   6.258   2.984
    3OL    C111 9892   5.806   6.237   3.146
    3OL    H11R 9893   5.722   6.229   3.215
    3OL    H11S 9894   5.871   6.311   3.193
    3OL    C112 9895   5.865   6.095   3.139
    3OL    H12R 9896   5.882   6.040   3.231
    3OL    H12S 9897   5.966   6.117   3.102
    3OL    C113 9898   5.785   6.008   3.041
    3OL    H13R 9899   5.783   6.061   2.946
    3OL    H13S 9900   5.679   6.003   3.068
    3OL    C114 9901   5.850   5.869   3.035
    3OL    H14R 9902   5.824   5.808   3.122
    3OL    H14S 9903   5.958   5.877   3.017
    3OL    C115 9904   5.791   5.801   2.911
    3OL    H15R 9905   5.796   5.867   2.824
    3OL    H15S 9906   5.683   5.795   2.924
    3OL    C116 9907   5.854   5.662   2.893
    3OL    H16R 9908   5.854   5.610   2.989
    3OL    H16S 9909   5.960   5.680   2.869
    3OL    C117 9910   5.781   5.576   2.790
    3OL    H17R 9911   5.760   5.621   2.692
    3OL    H17S 9912   5.687   5.545   2.838
    3OL    C118 9913   5.870   5.455   2.758
    3OL    H18R 9914   5.809   5.379   2.708
    3OL    H18S 9915   5.897   5.399   2.848
    3OL    H18T 9916   5.957   5.488   2.702
    1PA    C116 9917   0.317   0.512   3.701
    1PA    H16R 9918   0.283   0.615   3.687
    1PA    H16S 9919   0.360   0.496   3.800
    1PA    H16T 9920   0.239   0.440   3.677
    1PA    C115 9921   0.436   0.492   3.606
    1PA    H15R 9922   0.423   0.543   3.511
    1PA    H15S 9923   0.519   0.549   3.648
    1PA    C114 9924   0.486   0.348   3.590
    1PA    H14R 9925   0.479   0.311   3.693
    1PA    H14S 9926   0.418   0.280   3.538
    1PA    C113 9927   0.627   0.326   3.532
    1PA    H13R 9928   0.697   0.371   3.602
    1PA    H13S 9929   0.656   0.222   3.519
    1PA    C112 9930   0.644   0.395   3.396
    1PA    H12R 9931   0.581   0.353   3.318
    1PA    H12S 9932   0.635   0.503   3.411
    1PA    C111 9933   0.786   0.372   3.343
    1PA    H11R 9934   0.857   0.374   3.426
    1PA    H11S 9935   0.800   0.268   3.312
    1PA    C110 9936   0.830   0.461   3.226
    1PA    H10R 9937   0.772   0.423   3.141
    1PA    H10S 9938   0.793   0.563   3.235
    1PA     C19 9939   0.978   0.442   3.190
    1PA     H9R 9940   1.039   0.466   3.278
    1PA     H9S 9941   0.995   0.341   3.152
    1PA     C18 9942   1.008   0.552   3.088
    1PA     H8R 9943   0.947   0.536   2.998
    1PA     H8S 9944   0.977   0.649   3.129
    1PA     C17 9945   1.155   0.548   3.046
    1PA     H7R 9946   1.216   0.589   3.127
    1PA     H7S 9947   1.201   0.450   3.029
    1PA     C16 9948   1.190   0.622   2.916
    1PA     H6R 9949   1.146   0.722   2.922
    1PA     H6S 9950   1.299   0.622   2.929
    1PA     C15 9951   1.146   0.550   2.787
    1PA     H5R 9952   1.168   0.443   2.789
    1PA     H5S 9953   1.038   0.552   2.772
    1PA     C14 9954   1.239   0.606   2.679
    1PA     H4R 9955   1.209   0.711   2.668
    1PA     H4S 9956   1.345   0.601   2.703
    1PA     C13 9957   1.220   0.534   2.545
    1PA     H3R 9958   1.115   0.527   2.515
    1PA     H3S 9959   1.260   0.600   2.468
    1PA     C12 9960   1.274   0.390   2.541
    1PA     H2R 9961   1.377   0.380   2.576
    1PA     H2S 9962   1.224   0.337   2.622
    2PC     C11 9963   1.241   0.313   2.415
    2PC     O12 9964   1.159   0.350   2.334
    2PC     O11 9965   1.318   0.204   2.398
    2PC      C1 9966   1.306   0.128   2.276
    2PC      HR 9967   1.201   0.131   2.246
    2PC      HS 9968   1.376   0.178   2.208
    2PC      C2 9969   1.358  -0.014   2.300
    2PC      HX 9970   1.447  -0.010   2.363
    2PC      C3 9971   1.378  -0.081   2.163
    2PC      HA 9972   1.448  -0.031   2.096
    2PC      HB 9973   1.417  -0.181   2.187
    2PC     O31 9974   1.250  -0.098   2.099
    2PC     P31 9975   1.212  -0.231   2.019
    2PC     O32 9976   1.285  -0.178   1.886
    2PC     C31 9977   1.259  -0.226   1.753
    2PC     H1A 9978   1.260  -0.335   1.756
    2PC     H1B 9979   1.158  -0.192   1.729
    2PC     C32 9980   1.358  -0.166   1.652
    2PC     H2A 9981   1.316  -0.169   1.551
    2PC     H2B 9982   1.369  -0.065   1.690
    2PC     N31 9983   1.494  -0.230   1.643
    2PC     C33 9984   1.558  -0.189   1.514
    2PC     H3A 9985   1.515  -0.236   1.425
    2PC     H3B 9986   1.546  -0.081   1.520
    2PC     H3C 9987   1.661  -0.222   1.526
    2PC     C34 9988   1.574  -0.185   1.761
    2PC     H4A 9989   1.578  -0.076   1.764
    2PC     H4B 9990   1.527  -0.207   1.857
    2PC     H4C 9991   1.678  -0.219   1.760
    2PC     C35 9992   1.468  -0.377   1.642
    2PC     H5A 9993   1.409  -0.402   1.555
    2PC     H5B 9994   1.424  -0.404   1.739
    2PC     H5C 9995   1.566  -0.427   1.643
    2PC     O33 9996   1.277  -0.348   2.083
    2PC     O34 9997   1.066  -0.257   2.016
    2PC     O21 9998   1.262  -0.087   2.379
    2PC     C21 9999   1.250  -0.065   2.511
    2PC     O2210000   1.303   0.025   2.573
    3OL     C1210001   1.155  -0.163   2.575
    3OL     H2R10002   1.213  -0.248   2.611
    3OL     H2S10003   1.091  -0.204   2.497
    3OL     C1310004   1.075  -0.095   2.687
    3OL     H3R10005   0.978  -0.145   2.691
    3OL     H3S10006   1.067   0.010   2.657
    3OL     C1410007   1.138  -0.117   2.825
    3OL     H4R10008   1.240  -0.084   2.848
    3OL     H4S10009   1.134  -0.222   2.854
    3OL     C1510010   1.051  -0.026   2.914
    3OL     H5R10011   0.945  -0.049   2.901
    3OL     H5S10012   1.067   0.077   2.881
    3OL     C1610013   1.078  -0.036   3.064
    3OL     H6R10014   1.174   0.012   3.085
    3OL     H6S10015   1.089  -0.139   3.100
    3OL     C1710016   0.973   0.042   3.144
    3OL     H7R10017   0.961   0.146   3.112
    3OL     H7S10018   1.007   0.056   3.247
    3OL     C1810019   0.831  -0.012   3.157
    3OL     H8R10020   0.775   0.005   3.065
    3OL     H8S10021   0.782   0.038   3.240
    3OL     C1910022   0.841  -0.160   3.185
    3OL     H9R10023   0.922  -0.197   3.247
    3OL    C11010024   0.758  -0.246   3.128
    3OL    H10R10025   0.768  -0.353   3.147
    3OL    C11110026   0.640  -0.211   3.041
    3OL    H11R10027   0.630  -0.107   3.010
    3OL    H11S10028   0.551  -0.234   3.099
    3OL    C11210029   0.640  -0.281   2.904
    3OL    H12R10030   0.548  -0.262   2.848
    3OL    H12S10031   0.640  -0.388   2.923
    3OL    C11310032   0.759  -0.235   2.820
    3OL    H13R10033   0.852  -0.259   2.872
    3OL    H13S10034   0.757  -0.127   2.809
    3OL    C11410035   0.761  -0.311   2.686
    3OL    H14R10036   0.714  -0.408   2.703
    3OL    H14S10037   0.859  -0.338   2.646
    3OL    C11510038   0.684  -0.222   2.588
    3OL    H15R10039   0.735  -0.126   2.576
    3OL    H15S10040   0.581  -0.207   2.623
    3OL    C11610041   0.683  -0.278   2.445
    3OL    H16R10042   0.646  -0.380   2.437
    3OL    H16S10043   0.787  -0.275   2.412
    3OL    C11710044   0.607  -0.186   2.348
    3OL    H17R10045   0.663  -0.197   2.255
    3OL    H17S10046   0.617  -0.079   2.370
    3OL    C11810047   0.461  -0.222   2.321
    3OL    H18R10048   0.411  -0.157   2.249
    3OL    H18S10049   0.454  -0.331   2.313
    3OL    H18T10050   0.409  -0.202   2.415
    1PA    C11610051   0.715   5.393   3.756
    1PA    H16R10052   0.701   5.290   3.790
    1PA    H16S10053   0.680   5.460   3.835
    1PA    H16T10054   0.658   5.410   3.664
    1PA    C11510055   0.865   5.401   3.726
    1PA    H15R10056   0.901   5.505   3.727
    1PA    H15S10057   0.919   5.344   3.801
    1PA    C11410058   0.910   5.337   3.594
    1PA    H14R10059   0.889   5.230   3.579
    1PA    H14S10060   0.850   5.386   3.516
    1PA    C11310061   1.059   5.348   3.559
    1PA    H13R10062   1.085   5.452   3.578
    1PA    H13S10063   1.119   5.286   3.626
    1PA    C11210064   1.091   5.315   3.413
    1PA    H12R10065   1.050   5.387   3.341
    1PA    H12S10066   1.199   5.320   3.403
    1PA    C11110067   1.066   5.169   3.372
    1PA    H11R10068   1.127   5.150   3.284
    1PA    H11S10069   1.088   5.104   3.457
    1PA    C11010070   0.923   5.150   3.319
    1PA    H10R10071   0.857   5.094   3.385
    1PA    H10S10072   0.869   5.244   3.308
    1PA     C1910073   0.930   5.073   3.187
    1PA     H9R10074   0.988   5.133   3.117
    1PA     H9S10075   0.988   4.981   3.201
    1PA     C1810076   0.793   5.049   3.124
    1PA     H8R10077   0.730   4.997   3.197
    1PA     H8S10078   0.742   5.145   3.121
    1PA     C1710079   0.799   4.996   2.980
    1PA     H7R10080   0.874   4.917   2.979
    1PA     H7S10081   0.703   4.947   2.961
    1PA     C1610082   0.827   5.106   2.877
    1PA     H6R10083   0.760   5.191   2.892
    1PA     H6S10084   0.928   5.144   2.897
    1PA     C1510085   0.811   5.054   2.733
    1PA     H5R10086   0.717   5.000   2.725
    1PA     H5S10087   0.807   5.146   2.674
    1PA     C1410088   0.929   4.970   2.684
    1PA     H4R10089   1.024   5.024   2.692
    1PA     H4S10090   0.945   4.889   2.755
    1PA     C1310091   0.904   4.912   2.544
    1PA     H3R10092   0.814   4.852   2.558
    1PA     H3S10093   0.882   4.989   2.469
    1PA     C1210094   1.023   4.830   2.492
    1PA     H2R10095   1.120   4.881   2.497
    1PA     H2S10096   1.034   4.740   2.552
    2PC     C1110097   0.997   4.779   2.352
    2PC     O1210098   0.893   4.772   2.289
    2PC     O1110099   1.108   4.723   2.302
    2PC      C110100   1.096   4.613   2.209
    2PC      HR10101   1.042   4.534   2.261
    2PC      HS10102   1.041   4.641   2.118
    2PC      C210103   1.241   4.580   2.168
    2PC      HX10104   1.292   4.674   2.145
    2PC      C310105   1.257   4.489   2.045
    2PC      HA10106   1.209   4.391   2.050
    2PC      HB10107   1.206   4.533   1.959
    2PC     O3110108   1.395   4.471   2.011
    2PC     P3110109   1.438   4.377   1.888
    2PC     O3210110   1.542   4.284   1.966
    2PC     C3110111   1.654   4.347   2.031
    2PC     H1A10112   1.690   4.436   1.979
    2PC     H1B10113   1.624   4.384   2.130
    2PC     C3210114   1.769   4.246   2.047
    2PC     H2A10115   1.840   4.285   2.120
    2PC     H2B10116   1.737   4.154   2.096
    2PC     N3110117   1.843   4.213   1.921
    2PC     C3310118   1.914   4.334   1.868
    2PC     H3A10119   1.836   4.410   1.862
    2PC     H3B10120   1.987   4.366   1.943
    2PC     H3C10121   1.962   4.307   1.774
    2PC     C3410122   1.956   4.118   1.948
    2PC     H4A10123   2.006   4.091   1.855
    2PC     H4B10124   2.026   4.165   2.017
    2PC     H4C10125   1.910   4.027   1.988
    2PC     C3510126   1.748   4.146   1.826
    2PC     H5A10127   1.711   4.060   1.881
    2PC     H5B10128   1.797   4.122   1.732
    2PC     H5C10129   1.669   4.219   1.807
    2PC     O3310130   1.332   4.292   1.830
    2PC     O3410131   1.508   4.452   1.781
    2PC     O2110132   1.311   4.531   2.284
    2PC     C2110133   1.441   4.556   2.303
    2PC     O2210134   1.502   4.624   2.222
    3OL     C1210135   1.509   4.506   2.428
    3OL     H2R10136   1.612   4.476   2.408
    3OL     H2S10137   1.458   4.419   2.470
    3OL     C1310138   1.512   4.620   2.531
    3OL     H3R10139   1.409   4.649   2.555
    3OL     H3S10140   1.553   4.711   2.486
    3OL     C1410141   1.595   4.586   2.655
    3OL     H4R10142   1.700   4.572   2.627
    3OL     H4S10143   1.561   4.489   2.691
    3OL     C1510144   1.596   4.697   2.761
    3OL     H5R10145   1.495   4.706   2.802
    3OL     H5S10146   1.635   4.784   2.707
    3OL     C1610147   1.694   4.657   2.872
    3OL     H6R10148   1.789   4.631   2.825
    3OL     H6S10149   1.659   4.572   2.931
    3OL     C1710150   1.707   4.771   2.974
    3OL     H7R10151   1.614   4.794   3.027
    3OL     H7S10152   1.745   4.867   2.939
    3OL     C1810153   1.790   4.712   3.089
    3OL     H8R10154   1.743   4.628   3.141
    3OL     H8S10155   1.783   4.789   3.166
    3OL     C1910156   1.932   4.682   3.047
    3OL     H9R10157   1.995   4.765   3.017
    3OL    C11010158   1.992   4.564   3.053
    3OL    H10R10159   2.096   4.550   3.024
    3OL    C11110160   1.916   4.434   3.055
    3OL    H11R10161   1.973   4.379   2.979
    3OL    H11S10162   1.813   4.453   3.027
    3OL    C11210163   1.922   4.366   3.192
    3OL    H12R10164   1.914   4.439   3.273
    3OL    H12S10165   2.022   4.323   3.200
    3OL    C11310166   1.825   4.248   3.213
    3OL    H13R10167   1.841   4.182   3.128
    3OL    H13S10168   1.726   4.293   3.200
    3OL    C11410169   1.830   4.177   3.349
    3OL    H14R10170   1.826   4.261   3.417
    3OL    H14S10171   1.928   4.131   3.365
    3OL    C11510172   1.709   4.087   3.375
    3OL    H15R10173   1.697   4.018   3.291
    3OL    H15S10174   1.618   4.147   3.377
    3OL    C11610175   1.722   4.017   3.512
    3OL    H16R10176   1.809   3.954   3.532
    3OL    H16S10177   1.636   3.950   3.516
    3OL    C11710178   1.707   4.103   3.637
    3OL    H17R10179   1.602   4.132   3.649
    3OL    H17S10180   1.768   4.193   3.648
    3OL    C11810181   1.738   4.017   3.760
    3OL    H18R10182   1.738   4.083   3.847
    3OL    H18S10183   1.842   3.986   3.743
    3OL    H18T10184   1.661   3.940   3.774
    1PA    C11610185   5.865   3.606   4.188
    1PA    H16R10186   5.958   3.549   4.178
    1PA    H16S10187   5.820   3.565   4.278
    1PA    H16T10188   5.885   3.713   4.193
    1PA    C11510189   5.786   3.572   4.061
    1PA    H15R10190   5.793   3.465   4.042
    1PA    H15S10191   5.680   3.597   4.058
    1PA    C11410192   5.861   3.640   3.945
    1PA    H14R10193   5.881   3.744   3.970
    1PA    H14S10194   5.952   3.581   3.938
    1PA    C11310195   5.784   3.620   3.813
    1PA    H13R10196   5.847   3.650   3.729
    1PA    H13S10197   5.745   3.520   3.798
    1PA    C11210198   5.669   3.721   3.798
    1PA    H12R10199   5.586   3.684   3.858
    1PA    H12S10200   5.693   3.824   3.827
    1PA    C11110201   5.633   3.750   3.651
    1PA    H11R10202   5.575   3.842   3.648
    1PA    H11S10203   5.729   3.762   3.599
    1PA    C11010204   5.557   3.629   3.596
    1PA    H10R10205   5.621   3.541   3.585
    1PA    H10S10206   5.470   3.608   3.657
    1PA     C1910207   5.515   3.655   3.451
    1PA     H9R10208   5.467   3.754   3.453
    1PA     H9S10209   5.601   3.671   3.385
    1PA     C1810210   5.416   3.545   3.409
    1PA     H8R10211   5.342   3.515   3.484
    1PA     H8S10212   5.364   3.586   3.323
    1PA     C1710213   5.485   3.412   3.376
    1PA     H7R10214   5.516   3.365   3.470
    1PA     H7S10215   5.422   3.334   3.334
    1PA     C1610216   5.616   3.418   3.296
    1PA     H6R10217   5.687   3.464   3.366
    1PA     H6S10218   5.660   3.319   3.288
    1PA     C1510219   5.597   3.485   3.160
    1PA     H5R10220   5.533   3.574   3.162
    1PA     H5S10221   5.696   3.520   3.128
    1PA     C1410222   5.541   3.394   3.050
    1PA     H4R10223   5.450   3.350   3.093
    1PA     H4S10224   5.523   3.456   2.962
    1PA     C1310225   5.629   3.272   3.020
    1PA     H3R10226   5.722   3.307   2.976
    1PA     H3S10227   5.664   3.219   3.109
    1PA     C1210228   5.560   3.171   2.927
    1PA     H2R10229   5.615   3.076   2.926
    1PA     H2S10230   5.464   3.152   2.974
    2PC     C1110231   5.534   3.211   2.784
    2PC     O1210232   5.439   3.172   2.719
    2PC     O1110233   5.632   3.285   2.730
    2PC      C110234   5.628   3.330   2.593
    2PC      HR10235   5.530   3.343   2.546
    2PC      HS10236   5.681   3.425   2.586
    2PC      C210237   5.707   3.228   2.510
    2PC      HX10238   5.797   3.206   2.568
    2PC      C310239   5.717   3.263   2.361
    2PC      HA10240   5.740   3.369   2.349
    2PC      HB10241   5.785   3.191   2.315
    2PC     O3110242   5.588   3.243   2.301
    2PC     P3110243   5.582   3.235   2.141
    2PC     O3210244   5.640   3.087   2.120
    2PC     C3110245   5.772   3.063   2.067
    2PC     H1A10246   5.841   3.107   2.140
    2PC     H1B10247   5.788   2.955   2.067
    2PC     C3210248   5.804   3.118   1.928
    2PC     H2A10249   5.765   3.054   1.848
    2PC     H2B10250   5.755   3.210   1.897
    2PC     N3110251   5.948   3.131   1.887
    2PC     C3310252   5.946   3.198   1.753
    2PC     H3A10253   5.901   3.296   1.773
    2PC     H3B10254   6.046   3.184   1.712
    2PC     H3C10255   5.881   3.146   1.682
    2PC     C3410256   6.035   3.200   1.987
    2PC     H4A10257   6.063   3.134   2.069
    2PC     H4B10258   6.129   3.228   1.939
    2PC     H4C10259   5.991   3.290   2.031
    2PC     C3510260   6.010   2.995   1.873
    2PC     H5A10261   6.115   3.013   1.847
    2PC     H5B10262   5.962   2.938   1.794
    2PC     H5C10263   6.017   2.948   1.972
    2PC     O3310264   5.444   3.233   2.088
    2PC     O3410265   5.658   3.341   2.071
    2PC     O2110266   5.643   3.102   2.538
    2PC     C2110267   5.702   2.984   2.514
    2PC     O2210268   5.814   2.976   2.468
    3OL     C1210269   5.622   2.859   2.540
    3OL     H2R10270   5.679   2.789   2.601
    3OL     H2S10271   5.608   2.803   2.447
    3OL     C1310272   5.493   2.875   2.621
    3OL     H3R10273   5.431   2.956   2.582
    3OL     H3S10274   5.516   2.894   2.726
    3OL     C1410275   5.407   2.748   2.609
    3OL     H4R10276   5.472   2.665   2.640
    3OL     H4S10277   5.385   2.733   2.503
    3OL     C1510278   5.273   2.752   2.684
    3OL     H5R10279   5.212   2.672   2.641
    3OL     H5S10280   5.211   2.833   2.645
    3OL     C1610281   5.282   2.752   2.837
    3OL     H6R10282   5.187   2.766   2.887
    3OL     H6S10283   5.349   2.830   2.873
    3OL     C1710284   5.321   2.614   2.893
    3OL     H7R10285   5.335   2.618   3.001
    3OL     H7S10286   5.407   2.581   2.834
    3OL     C1810287   5.204   2.515   2.884
    3OL     H8R10288   5.179   2.496   2.779
    3OL     H8S10289   5.121   2.562   2.937
    3OL     C1910290   5.238   2.385   2.953
    3OL     H9R10291   5.273   2.305   2.888
    3OL    C11010292   5.250   2.361   3.082
    3OL    H10R10293   5.286   2.260   3.103
    3OL    C11110294   5.221   2.469   3.183
    3OL    H11R10295   5.125   2.520   3.171
    3OL    H11S10296   5.296   2.548   3.179
    3OL    C11210297   5.232   2.406   3.323
    3OL    H12R10298   5.296   2.317   3.322
    3OL    H12S10299   5.133   2.375   3.357
    3OL    C11310300   5.295   2.513   3.413
    3OL    H13R10301   5.391   2.549   3.376
    3OL    H13S10302   5.332   2.467   3.505
    3OL    C11410303   5.204   2.631   3.448
    3OL    H14R10304   5.127   2.581   3.508
    3OL    H14S10305   5.164   2.666   3.352
    3OL    C11510306   5.282   2.740   3.523
    3OL    H15R10307   5.341   2.692   3.602
    3OL    H15S10308   5.217   2.805   3.581
    3OL    C11610309   5.373   2.827   3.436
    3OL    H16R10310   5.437   2.764   3.374
    3OL    H16S10311   5.431   2.889   3.505
    3OL    C11710312   5.296   2.929   3.350
    3OL    H17R10313   5.233   2.993   3.412
    3OL    H17S10314   5.242   2.893   3.262
    3OL    C11810315   5.400   3.030   3.301
    3OL    H18R10316   5.455   2.987   3.218
    3OL    H18S10317   5.474   3.056   3.377
    3OL    H18T10318   5.354   3.118   3.255
    1PA    C11610319   0.572   3.153   3.825
    1PA    H16R10320   0.582   3.258   3.855
    1PA    H16S10321   0.620   3.132   3.729
    1PA    H16T10322   0.611   3.088   3.903
    1PA    C11510323   0.422   3.122   3.829
    1PA    H15R10324   0.384   3.094   3.928
    1PA    H15S10325   0.364   3.203   3.785
    1PA    C11410326   0.388   2.994   3.752
    1PA    H14R10327   0.439   2.902   3.781
    1PA    H14S10328   0.283   2.972   3.772
    1PA    C11310329   0.388   3.020   3.601
    1PA    H13R10330   0.320   3.103   3.579
    1PA    H13S10331   0.488   3.047   3.568
    1PA    C11210332   0.345   2.894   3.524
    1PA    H12R10333   0.414   2.809   3.532
    1PA    H12S10334   0.248   2.871   3.567
    1PA    C11110335   0.333   2.925   3.374
    1PA    H11R10336   0.269   3.012   3.359
    1PA    H11S10337   0.428   2.948   3.326
    1PA    C11010338   0.272   2.804   3.302
    1PA    H10R10339   0.329   2.712   3.318
    1PA    H10S10340   0.174   2.799   3.350
    1PA     C1910341   0.257   2.819   3.150
    1PA     H9R10342   0.340   2.884   3.121
    1PA     H9S10343   0.281   2.722   3.106
    1PA     C1810344   0.120   2.860   3.095
    1PA     H8R10345   0.036   2.813   3.147
    1PA     H8S10346   0.102   2.967   3.111
    1PA     C1710347   0.103   2.827   2.946
    1PA     H7R10348   0.013   2.885   2.925
    1PA     H7S10349   0.194   2.863   2.897
    1PA     C1610350   0.084   2.676   2.930
    1PA     H6R10351   0.165   2.625   2.982
    1PA     H6S10352  -0.014   2.661   2.975
    1PA     C1510353   0.074   2.626   2.785
    1PA     H5R10354  -0.030   2.635   2.754
    1PA     H5S10355   0.136   2.683   2.716
    1PA     C1410356   0.107   2.477   2.767
    1PA     H4R10357   0.207   2.460   2.808
    1PA     H4S10358   0.044   2.409   2.823
    1PA     C1310359   0.095   2.435   2.620
    1PA     H3R10360   0.063   2.331   2.613
    1PA     H3S10361   0.022   2.493   2.563
    1PA     C1210362   0.228   2.437   2.543
    1PA     H2R10363   0.274   2.536   2.538
    1PA     H2S10364   0.300   2.375   2.596
    2PC     C1110365   0.212   2.384   2.403
    2PC     O1210366   0.110   2.341   2.352
    2PC     O1110367   0.334   2.375   2.347
    2PC      C110368   0.345   2.328   2.211
    2PC      HR10369   0.309   2.225   2.210
    2PC      HS10370   0.285   2.404   2.161
    2PC      C210371   0.491   2.337   2.164
    2PC      HX10372   0.538   2.423   2.212
    2PC      C310373   0.490   2.335   2.011
    2PC      HA10374   0.425   2.410   1.967
    2PC      HB10375   0.586   2.367   1.969
    2PC     O3110376   0.444   2.203   1.975
    2PC     P3110377   0.443   2.153   1.823
    2PC     O3210378   0.442   1.994   1.836
    2PC     C3110379   0.451   1.924   1.711
    2PC     H1A10380   0.526   1.974   1.649
    2PC     H1B10381   0.489   1.823   1.731
    2PC     C3210382   0.325   1.910   1.624
    2PC     H2A10383   0.300   2.012   1.594
    2PC     H2B10384   0.351   1.863   1.529
    2PC     N3110385   0.208   1.838   1.684
    2PC     C3310386   0.242   1.696   1.720
    2PC     H3A10387   0.151   1.647   1.754
    2PC     H3B10388   0.269   1.648   1.625
    2PC     H3C10389   0.321   1.703   1.795
    2PC     C3410390   0.148   1.902   1.805
    2PC     H4A10391   0.157   2.010   1.797
    2PC     H4B10392   0.045   1.865   1.801
    2PC     H4C10393   0.211   1.854   1.881
    2PC     C3510394   0.108   1.838   1.572
    2PC     H5A10395   0.019   1.776   1.587
    2PC     H5B10396   0.153   1.789   1.485
    2PC     H5C10397   0.085   1.941   1.546
    2PC     O3310398   0.321   2.197   1.751
    2PC     O3410399   0.551   2.198   1.732
    2PC     O2110400   0.569   2.223   2.205
    2PC     C2110401   0.700   2.213   2.181
    2PC     O2210402   0.770   2.302   2.137
    3OL     C1210403   0.765   2.083   2.222
    3OL     H2R10404   0.872   2.102   2.224
    3OL     H2S10405   0.745   2.011   2.142
    3OL     C1310406   0.707   2.032   2.355
    3OL     H3R10407   0.605   1.996   2.338
    3OL     H3S10408   0.708   2.124   2.415
    3OL     C1410409   0.797   1.928   2.422
    3OL     H4R10410   0.889   1.978   2.452
    3OL     H4S10411   0.817   1.846   2.353
    3OL     C1510412   0.733   1.872   2.550
    3OL     H5R10413   0.803   1.797   2.586
    3OL     H5S10414   0.638   1.828   2.517
    3OL     C1610415   0.705   1.978   2.657
    3OL     H6R10416   0.633   2.053   2.622
    3OL     H6S10417   0.796   2.027   2.691
    3OL     C1710418   0.633   1.916   2.777
    3OL     H7R10419   0.688   1.836   2.827
    3OL     H7S10420   0.545   1.873   2.730
    3OL     C1810421   0.592   2.022   2.881
    3OL     H8R10422   0.537   1.977   2.963
    3OL     H8S10423   0.531   2.093   2.825
    3OL     C1910424   0.707   2.091   2.949
    3OL     H9R10425   0.798   2.032   2.951
    3OL    C11010426   0.691   2.200   3.022
    3OL    H10R10427   0.770   2.247   3.080
    3OL    C11110428   0.559   2.267   3.047
    3OL    H11R10429   0.554   2.277   3.155
    3OL    H11S10430   0.472   2.211   3.013
    3OL    C11210431   0.553   2.412   2.995
    3OL    H12R10432   0.460   2.457   3.031
    3OL    H12S10433   0.555   2.400   2.886
    3OL    C11310434   0.672   2.506   3.015
    3OL    H13R10435   0.769   2.460   2.998
    3OL    H13S10436   0.672   2.535   3.120
    3OL    C11410437   0.673   2.632   2.928
    3OL    H14R10438   0.653   2.597   2.827
    3OL    H14S10439   0.769   2.684   2.930
    3OL    C11510440   0.567   2.735   2.970
    3OL    H15R10441   0.555   2.741   3.078
    3OL    H15S10442   0.472   2.698   2.931
    3OL    C11610443   0.584   2.880   2.921
    3OL    H16R10444   0.673   2.926   2.965
    3OL    H16S10445   0.505   2.944   2.960
    3OL    C11710446   0.576   2.901   2.769
    3OL    H17R10447   0.649   2.844   2.712
    3OL    H17S10448   0.590   3.007   2.750
    3OL    C11810449   0.433   2.869   2.722
    3OL    H18R10450   0.363   2.938   2.769
    3OL    H18S10451   0.410   2.764   2.738
    3OL    H18T10452   0.431   2.895   2.616
    1PA    C11610453   5.938   4.576   3.733
    1PA    H16R10454   5.947   4.467   3.726
    1PA    H16S10455   6.039   4.617   3.739
    1PA    H16T10456   5.891   4.622   3.646
    1PA    C11510457   5.863   4.609   3.863
    1PA    H15R10458   5.884   4.542   3.946
    1PA    H15S10459   5.900   4.710   3.883
    1PA    C11410460   5.717   4.623   3.816
    1PA    H14R10461   5.675   4.693   3.887
    1PA    H14S10462   5.710   4.670   3.718
    1PA    C11310463   5.629   4.498   3.835
    1PA    H13R10464   5.648   4.445   3.928
    1PA    H13S10465   5.523   4.524   3.832
    1PA    C11210466   5.653   4.406   3.714
    1PA    H12R10467   5.631   4.450   3.616
    1PA    H12S10468   5.752   4.362   3.709
    1PA    C11110469   5.547   4.295   3.713
    1PA    H11R10470   5.568   4.233   3.801
    1PA    H11S10471   5.448   4.335   3.736
    1PA    C11010472   5.549   4.212   3.584
    1PA    H10R10473   5.527   4.282   3.503
    1PA    H10S10474   5.650   4.171   3.570
    1PA     C1910475   5.438   4.106   3.591
    1PA     H9R10476   5.467   4.040   3.672
    1PA     H9S10477   5.340   4.153   3.603
    1PA     C1810478   5.427   4.030   3.458
    1PA     H8R10479   5.531   4.015   3.427
    1PA     H8S10480   5.373   3.936   3.467
    1PA     C1710481   5.349   4.104   3.347
    1PA     H7R10482   5.241   4.091   3.353
    1PA     H7S10483   5.361   4.211   3.360
    1PA     C1610484   5.408   4.077   3.208
    1PA     H6R10485   5.367   4.151   3.140
    1PA     H6S10486   5.515   4.098   3.219
    1PA     C1510487   5.397   3.931   3.164
    1PA     H5R10488   5.444   3.862   3.234
    1PA     H5S10489   5.291   3.907   3.173
    1PA     C1410490   5.452   3.908   3.022
    1PA     H4R10491   5.544   3.963   3.006
    1PA     H4S10492   5.469   3.805   2.990
    1PA     C1310493   5.357   3.960   2.912
    1PA     H3R10494   5.252   3.934   2.924
    1PA     H3S10495   5.363   4.069   2.909
    1PA     C1210496   5.405   3.921   2.772
    1PA     H2R10497   5.512   3.941   2.763
    1PA     H2S10498   5.402   3.813   2.752
    2PC     C1110499   5.332   3.990   2.660
    2PC     O1210500   5.237   4.066   2.672
    2PC     O1110501   5.393   3.969   2.542
    2PC      C110502   5.343   4.018   2.416
    2PC      HR10503   5.249   4.068   2.440
    2PC      HS10504   5.410   4.092   2.372
    2PC      C210505   5.305   3.900   2.327
    2PC      HX10506   5.367   3.811   2.342
    2PC      C310507   5.306   3.923   2.175
    2PC      HA10508   5.407   3.900   2.140
    2PC      HB10509   5.225   3.859   2.141
    2PC     O3110510   5.273   4.060   2.143
    2PC     P3110511   5.191   4.088   2.008
    2PC     O3210512   5.251   4.226   1.954
    2PC     C3110513   5.298   4.226   1.818
    2PC     H1A10514   5.382   4.156   1.805
    2PC     H1B10515   5.219   4.194   1.749
    2PC     C3210516   5.346   4.367   1.781
    2PC     H2A10517   5.379   4.414   1.874
    2PC     H2B10518   5.429   4.360   1.710
    2PC     N3110519   5.241   4.462   1.734
    2PC     C3310520   5.121   4.464   1.824
    2PC     H3A10521   5.052   4.541   1.791
    2PC     H3B10522   5.079   4.363   1.832
    2PC     H3C10523   5.171   4.498   1.915
    2PC     C3410524   5.296   4.602   1.737
    2PC     H4A10525   5.372   4.609   1.659
    2PC     H4B10526   5.215   4.670   1.709
    2PC     H4C10527   5.346   4.610   1.833
    2PC     C3510528   5.214   4.436   1.589
    2PC     H5A10529   5.141   4.509   1.552
    2PC     H5B10530   5.170   4.336   1.587
    2PC     H5C10531   5.304   4.441   1.528
    2PC     O3310532   5.213   3.989   1.900
    2PC     O3410533   5.045   4.070   2.028
    2PC     O2110534   5.171   3.857   2.355
    2PC     C2110535   5.139   3.775   2.456
    2PC     O2210536   5.223   3.707   2.512
    3OL     C1210537   4.991   3.763   2.482
    3OL     H2R10538   4.950   3.662   2.489
    3OL     H2S10539   4.935   3.839   2.427
    3OL     C1310540   4.979   3.822   2.623
    3OL     H3R10541   4.870   3.828   2.630
    3OL     H3S10542   5.020   3.921   2.643
    3OL     C1410543   5.003   3.724   2.739
    3OL     H4R10544   5.112   3.712   2.743
    3OL     H4S10545   4.953   3.630   2.717
    3OL     C1510546   4.965   3.788   2.874
    3OL     H5R10547   4.869   3.838   2.866
    3OL     H5S10548   5.028   3.875   2.889
    3OL     C1610549   4.973   3.695   2.996
    3OL     H6R10550   4.906   3.610   2.980
    3OL     H6S10551   4.936   3.763   3.073
    3OL     C1710552   5.114   3.643   3.026
    3OL     H7R10553   5.187   3.724   3.037
    3OL     H7S10554   5.132   3.580   2.939
    3OL     C1810555   5.131   3.550   3.147
    3OL     H8R10556   5.112   3.608   3.238
    3OL     H8S10557   5.235   3.516   3.142
    3OL     C1910558   5.054   3.421   3.141
    3OL     H9R10559   5.017   3.398   3.042
    3OL    C11010560   5.008   3.352   3.244
    3OL    H10R10561   4.947   3.267   3.213
    3OL    C11110562   5.032   3.386   3.389
    3OL    H11R10563   4.947   3.419   3.447
    3OL    H11S10564   5.100   3.471   3.398
    3OL    C11210565   5.082   3.263   3.467
    3OL    H12R10566   5.180   3.235   3.427
    3OL    H12S10567   5.016   3.179   3.446
    3OL    C11310568   5.084   3.276   3.620
    3OL    H13R10569   4.982   3.295   3.653
    3OL    H13S10570   5.147   3.361   3.646
    3OL    C11410571   5.149   3.154   3.687
    3OL    H14R10572   5.112   3.062   3.640
    3OL    H14S10573   5.123   3.171   3.792
    3OL    C11510574   5.301   3.140   3.668
    3OL    H15R10575   5.343   3.176   3.574
    3OL    H15S10576   5.316   3.032   3.675
    3OL    C11610577   5.383   3.199   3.783
    3OL    H16R10578   5.480   3.155   3.757
    3OL    H16S10579   5.355   3.154   3.879
    3OL    C11710580   5.397   3.351   3.792
    3OL    H17R10581   5.308   3.407   3.821
    3OL    H17S10582   5.431   3.393   3.697
    3OL    C11810583   5.498   3.381   3.904
    3OL    H18R10584   5.596   3.342   3.875
    3OL    H18S10585   5.460   3.326   3.990
    3OL    H18T10586   5.497   3.489   3.919
    1PA    C11610587   1.787   4.502   3.782
    1PA    H16R10588   1.747   4.543   3.874
    1PA    H16S10589   1.852   4.565   3.721
    1PA    H16T10590   1.839   4.410   3.811
    1PA    C11510591   1.674   4.453   3.689
    1PA    H15R10592   1.713   4.392   3.607
    1PA    H15S10593   1.613   4.386   3.750
    1PA    C11410594   1.595   4.572   3.632
    1PA    H14R10595   1.487   4.561   3.642
    1PA    H14S10596   1.614   4.668   3.681
    1PA    C11310597   1.631   4.608   3.488
    1PA    H13R10598   1.589   4.707   3.467
    1PA    H13S10599   1.740   4.606   3.476
    1PA    C11210600   1.563   4.513   3.389
    1PA    H12R10601   1.643   4.487   3.320
    1PA    H12S10602   1.527   4.423   3.439
    1PA    C11110603   1.448   4.584   3.315
    1PA    H11R10604   1.374   4.622   3.386
    1PA    H11S10605   1.489   4.671   3.264
    1PA    C11010606   1.382   4.501   3.204
    1PA    H10R10607   1.465   4.474   3.138
    1PA    H10S10608   1.323   4.417   3.241
    1PA     C1910609   1.282   4.583   3.122
    1PA     H9R10610   1.194   4.615   3.178
    1PA     H9S10611   1.328   4.670   3.077
    1PA     C1810612   1.222   4.494   3.013
    1PA     H8R10613   1.308   4.489   2.945
    1PA     H8S10614   1.200   4.395   3.055
    1PA     C1710615   1.099   4.556   2.946
    1PA     H7R10616   1.032   4.476   2.914
    1PA     H7S10617   1.047   4.624   3.014
    1PA     C1610618   1.133   4.630   2.815
    1PA     H6R10619   1.043   4.675   2.772
    1PA     H6S10620   1.207   4.707   2.838
    1PA     C1510621   1.185   4.531   2.710
    1PA     H5R10622   1.230   4.587   2.628
    1PA     H5S10623   1.271   4.473   2.744
    1PA     C1410624   1.083   4.438   2.642
    1PA     H4R10625   1.037   4.371   2.715
    1PA     H4S10626   1.004   4.500   2.600
    1PA     C1310627   1.145   4.351   2.533
    1PA     H3R10628   1.191   4.412   2.455
    1PA     H3S10629   1.225   4.291   2.578
    1PA     C1210630   1.037   4.267   2.464
    1PA     H2R10631   1.000   4.206   2.547
    1PA     H2S10632   0.948   4.323   2.435
    2PC     C1110633   1.071   4.184   2.342
    2PC     O1210634   0.987   4.143   2.265
    2PC     O1110635   1.203   4.169   2.324
    2PC      C110636   1.241   4.074   2.222
    2PC      HR10637   1.212   3.972   2.246
    2PC      HS10638   1.193   4.089   2.125
    2PC      C210639   1.392   4.095   2.202
    2PC      HX10640   1.410   4.202   2.192
    2PC      C310641   1.435   4.028   2.071
    2PC      HA10642   1.399   4.097   1.995
    2PC      HB10643   1.544   4.030   2.081
    2PC     O3110644   1.382   3.896   2.051
    2PC     P3110645   1.442   3.820   1.923
    2PC     O3210646   1.387   3.921   1.812
    2PC     C3110647   1.248   3.916   1.773
    2PC     H1A10648   1.223   3.818   1.734
    2PC     H1B10649   1.191   3.940   1.863
    2PC     C3210650   1.228   4.021   1.663
    2PC     H2A10651   1.120   4.039   1.664
    2PC     H2B10652   1.276   4.114   1.692
    2PC     N3110653   1.272   3.998   1.522
    2PC     C3310654   1.222   4.109   1.434
    2PC     H3A10655   1.281   4.199   1.455
    2PC     H3B10656   1.224   4.087   1.328
    2PC     H3C10657   1.122   4.129   1.473
    2PC     C3410658   1.420   3.982   1.503
    2PC     H4A10659   1.440   3.951   1.400
    2PC     H4B10660   1.473   4.074   1.526
    2PC     H4C10661   1.461   3.903   1.566
    2PC     C3510662   1.217   3.864   1.486
    2PC     H5A10663   1.208   3.852   1.378
    2PC     H5B10664   1.116   3.864   1.527
    2PC     H5C10665   1.278   3.787   1.533
    2PC     O3310666   1.589   3.824   1.933
    2PC     O3410667   1.406   3.676   1.922
    2PC     O2110668   1.454   4.047   2.323
    2PC     C2110669   1.562   4.115   2.362
    2PC     O2210670   1.618   4.202   2.299
    3OL     C1210671   1.608   4.070   2.499
    3OL     H2R10672   1.712   4.103   2.507
    3OL     H2S10673   1.608   3.960   2.500
    3OL     C1310674   1.521   4.133   2.608
    3OL     H3R10675   1.419   4.093   2.604
    3OL     H3S10676   1.503   4.240   2.596
    3OL     C1410677   1.578   4.110   2.748
    3OL     H4R10678   1.675   4.161   2.754
    3OL     H4S10679   1.585   4.001   2.747
    3OL     C1510680   1.481   4.156   2.858
    3OL     H5R10681   1.390   4.098   2.844
    3OL     H5S10682   1.444   4.259   2.859
    3OL     C1610683   1.541   4.121   2.995
    3OL     H6R10684   1.627   4.186   3.013
    3OL     H6S10685   1.586   4.022   2.992
    3OL     C1710686   1.444   4.141   3.113
    3OL     H7R10687   1.360   4.203   3.082
    3OL     H7S10688   1.496   4.185   3.199
    3OL     C1810689   1.391   4.007   3.165
    3OL     H8R10690   1.304   4.028   3.228
    3OL     H8S10691   1.472   3.946   3.206
    3OL     C1910692   1.335   3.927   3.050
    3OL     H9R10693   1.273   3.984   2.982
    3OL    C11010694   1.359   3.800   3.020
    3OL    H10R10695   1.324   3.762   2.924
    3OL    C11110696   1.423   3.689   3.099
    3OL    H11R10697   1.493   3.723   3.176
    3OL    H11S10698   1.473   3.621   3.029
    3OL    C11210699   1.326   3.602   3.179
    3OL    H12R10700   1.379   3.525   3.236
    3OL    H12S10701   1.257   3.550   3.112
    3OL    C11310702   1.235   3.683   3.272
    3OL    H13R10703   1.159   3.613   3.309
    3OL    H13S10704   1.184   3.758   3.211
    3OL    C11410705   1.312   3.743   3.390
    3OL    H14R10706   1.243   3.810   3.440
    3OL    H14S10707   1.393   3.809   3.357
    3OL    C11510708   1.359   3.637   3.490
    3OL    H15R10709   1.429   3.569   3.441
    3OL    H15S10710   1.270   3.583   3.521
    3OL    C11610711   1.425   3.710   3.608
    3OL    H16R10712   1.375   3.804   3.631
    3OL    H16S10713   1.521   3.753   3.578
    3OL    C11710714   1.441   3.618   3.729
    3OL    H17R10715   1.485   3.523   3.695
    3OL    H17S10716   1.351   3.584   3.781
    3OL    C11810717   1.536   3.675   3.836
    3OL    H18R10718   1.497   3.767   3.880
    3OL    H18S10719   1.630   3.702   3.789
    3OL    H18T10720   1.557   3.605   3.917
    1PA    C11610721   0.017   1.193   3.305
    1PA    H16R10722   0.026   1.245   3.401
    1PA    H16S10723  -0.044   1.107   3.333
    1PA    H16T10724  -0.047   1.247   3.235
    1PA    C11510725   0.156   1.158   3.252
    1PA    H15R10726   0.223   1.105   3.320
    1PA    H15S10727   0.140   1.086   3.171
    1PA    C11410728   0.224   1.283   3.194
    1PA    H14R10729   0.160   1.345   3.130
    1PA    H14S10730   0.258   1.349   3.274
    1PA    C11310731   0.349   1.247   3.113
    1PA    H13R10732   0.417   1.328   3.088
    1PA    H13S10733   0.404   1.179   3.178
    1PA    C11210734   0.328   1.177   2.977
    1PA    H12R10735   0.288   1.076   2.985
    1PA    H12S10736   0.252   1.233   2.922
    1PA    C11110737   0.456   1.182   2.893
    1PA    H11R10738   0.481   1.284   2.864
    1PA    H11S10739   0.535   1.149   2.961
    1PA    C11010740   0.436   1.105   2.762
    1PA    H10R10741   0.438   0.999   2.788
    1PA    H10S10742   0.343   1.134   2.713
    1PA     C1910743   0.545   1.143   2.661
    1PA     H9R10744   0.553   1.251   2.645
    1PA     H9S10745   0.648   1.118   2.688
    1PA     C1810746   0.517   1.084   2.522
    1PA     H8R10747   0.418   1.120   2.493
    1PA     H8S10748   0.581   1.127   2.445
    1PA     C1710749   0.532   0.933   2.500
    1PA     H7R10750   0.568   0.919   2.398
    1PA     H7S10751   0.610   0.891   2.564
    1PA     C1610752   0.397   0.861   2.515
    1PA     H6R10753   0.364   0.847   2.618
    1PA     H6S10754   0.320   0.917   2.461
    1PA     C1510755   0.408   0.715   2.468
    1PA     H5R10756   0.449   0.727   2.368
    1PA     H5S10757   0.473   0.658   2.534
    1PA     C1410758   0.270   0.649   2.451
    1PA     H4R10759   0.193   0.719   2.419
    1PA     H4S10760   0.284   0.587   2.362
    1PA     C1310761   0.217   0.571   2.572
    1PA     H3R10762   0.207   0.639   2.657
    1PA     H3S10763   0.117   0.534   2.547
    1PA     C1210764   0.292   0.444   2.615
    1PA     H2R10765   0.395   0.471   2.637
    1PA     H2S10766   0.247   0.411   2.709
    2PC     C1110767   0.297   0.330   2.517
    2PC     O1210768   0.211   0.317   2.432
    2PC     O1110769   0.398   0.243   2.531
    2PC      C110770   0.435   0.156   2.422
    2PC      HR10771   0.514   0.093   2.463
    2PC      HS10772   0.347   0.097   2.395
    2PC      C210773   0.494   0.242   2.309
    2PC      HX10774   0.455   0.343   2.323
    2PC      C310775   0.443   0.205   2.169
    2PC      HA10776   0.333   0.204   2.169
    2PC      HB10777   0.486   0.281   2.105
    2PC     O3110778   0.497   0.079   2.125
    2PC     P3110779   0.480   0.035   1.972
    2PC     O3210780   0.463  -0.123   1.986
    2PC     C3110781   0.545  -0.202   1.897
    2PC     H1A10782   0.639  -0.149   1.885
    2PC     H1B10783   0.559  -0.296   1.951
    2PC     C3210784   0.463  -0.218   1.768
    2PC     H2A10785   0.390  -0.299   1.776
    2PC     H2B10786   0.401  -0.131   1.749
    2PC     N3110787   0.538  -0.232   1.639
    2PC     C3310788   0.649  -0.133   1.620
    2PC     H3A10789   0.728  -0.149   1.693
    2PC     H3B10790   0.691  -0.150   1.521
    2PC     H3C10791   0.613  -0.031   1.628
    2PC     C3410792   0.615  -0.359   1.638
    2PC     H4A10793   0.647  -0.390   1.538
    2PC     H4B10794   0.710  -0.355   1.693
    2PC     H4C10795   0.556  -0.442   1.676
    2PC     C3510796   0.450  -0.227   1.517
    2PC     H5A10797   0.416  -0.125   1.497
    2PC     H5B10798   0.354  -0.272   1.542
    2PC     H5C10799   0.495  -0.287   1.437
    2PC     O3310800   0.359   0.097   1.912
    2PC     O3410801   0.585   0.077   1.876
    2PC     O2110802   0.637   0.250   2.319
    2PC     C2110803   0.701   0.346   2.388
    2PC     O2210804   0.642   0.447   2.420
    3OL     C1210805   0.845   0.319   2.424
    3OL     H2R10806   0.888   0.413   2.459
    3OL     H2S10807   0.886   0.282   2.330
    3OL     C1310808   0.868   0.205   2.524
    3OL     H3R10809   0.970   0.168   2.516
    3OL     H3S10810   0.802   0.125   2.490
    3OL     C1410811   0.824   0.253   2.664
    3OL     H4R10812   0.820   0.361   2.678
    3OL     H4S10813   0.895   0.211   2.736
    3OL     C1510814   0.677   0.217   2.692
    3OL     H5R10815   0.669   0.110   2.669
    3OL     H5S10816   0.602   0.279   2.643
    3OL     C1610817   0.644   0.221   2.842
    3OL     H6R10818   0.666   0.320   2.881
    3OL     H6S10819   0.709   0.146   2.887
    3OL     C1710820   0.500   0.189   2.885
    3OL     H7R10821   0.494   0.081   2.875
    3OL     H7S10822   0.428   0.237   2.818
    3OL     C1810823   0.477   0.224   3.033
    3OL     H8R10824   0.502   0.330   3.045
    3OL     H8S10825   0.537   0.171   3.106
    3OL     C1910826   0.331   0.197   3.057
    3OL     H9R10827   0.264   0.243   2.985
    3OL    C11010828   0.284   0.118   3.152
    3OL    H10R10829   0.177   0.098   3.162
    3OL    C11110830   0.359   0.064   3.272
    3OL    H11R10831   0.330   0.113   3.365
    3OL    H11S10832   0.467   0.078   3.263
    3OL    C11210833   0.328  -0.084   3.296
    3OL    H12R10834   0.373  -0.155   3.226
    3OL    H12S10835   0.219  -0.094   3.295
    3OL    C11310836   0.375  -0.134   3.434
    3OL    H13R10837   0.324  -0.228   3.458
    3OL    H13S10838   0.350  -0.062   3.512
    3OL    C11410839   0.525  -0.167   3.431
    3OL    H14R10840   0.581  -0.078   3.404
    3OL    H14S10841   0.544  -0.244   3.356
    3OL    C11510842   0.569  -0.209   3.571
    3OL    H15R10843   0.516  -0.298   3.607
    3OL    H15S10844   0.538  -0.133   3.644
    3OL    C11610845   0.720  -0.235   3.580
    3OL    H16R10846   0.770  -0.143   3.547
    3OL    H16S10847   0.761  -0.316   3.520
    3OL    C11710848   0.754  -0.265   3.726
    3OL    H17R10849   0.675  -0.220   3.787
    3OL    H17S10850   0.848  -0.214   3.748
    3OL    C11810851   0.770  -0.413   3.762
    3OL    H18R10852   0.861  -0.453   3.716
    3OL    H18S10853   0.679  -0.461   3.726
    3OL    H18T10854   0.774  -0.431   3.870
    1PA    C11610855  -0.510   3.263   3.861
    1PA    H16R10856  -0.536   3.369   3.858
    1PA    H16S10857  -0.466   3.231   3.956
    1PA    H16T10858  -0.602   3.209   3.840
    1PA    C11510859  -0.409   3.230   3.749
    1PA    H15R10860  -0.322   3.295   3.762
    1PA    H15S10861  -0.384   3.125   3.764
    1PA    C11410862  -0.473   3.254   3.612
    1PA    H14R10863  -0.572   3.206   3.614
    1PA    H14S10864  -0.490   3.360   3.591
    1PA    C11310865  -0.391   3.187   3.502
    1PA    H13R10866  -0.292   3.232   3.487
    1PA    H13S10867  -0.368   3.085   3.531
    1PA    C11210868  -0.463   3.192   3.366
    1PA    H12R10869  -0.556   3.135   3.377
    1PA    H12S10870  -0.485   3.295   3.337
    1PA    C11110871  -0.389   3.128   3.248
    1PA    H11R10872  -0.312   3.194   3.207
    1PA    H11S10873  -0.347   3.032   3.279
    1PA    C11010874  -0.490   3.096   3.137
    1PA    H10R10875  -0.576   3.034   3.163
    1PA    H10S10876  -0.541   3.189   3.109
    1PA     C1910877  -0.436   3.021   3.015
    1PA     H9R10878  -0.336   3.062   2.996
    1PA     H9S10879  -0.414   2.916   3.035
    1PA     C1810880  -0.529   3.028   2.893
    1PA     H8R10881  -0.631   2.999   2.918
    1PA     H8S10882  -0.528   3.136   2.876
    1PA     C1710883  -0.479   2.944   2.774
    1PA     H7R10884  -0.470   2.840   2.803
    1PA     H7S10885  -0.546   2.960   2.689
    1PA     C1610886  -0.345   2.997   2.721
    1PA     H6R10887  -0.360   3.103   2.699
    1PA     H6S10888  -0.269   2.976   2.796
    1PA     C1510889  -0.306   2.925   2.591
    1PA     H5R10890  -0.395   2.895   2.536
    1PA     H5S10891  -0.252   2.996   2.529
    1PA     C1410892  -0.228   2.797   2.623
    1PA     H4R10893  -0.153   2.804   2.702
    1PA     H4S10894  -0.304   2.734   2.670
    1PA     C1310895  -0.164   2.746   2.493
    1PA     H3R10896  -0.139   2.639   2.494
    1PA     H3S10897  -0.242   2.747   2.416
    1PA     C1210898  -0.040   2.823   2.448
    1PA     H2R10899  -0.062   2.928   2.432
    1PA     H2S10900   0.039   2.819   2.524
    2PC     C1110901   0.022   2.772   2.320
    2PC     O1210902  -0.033   2.754   2.213
    2PC     O1110903   0.155   2.762   2.326
    2PC      C110904   0.219   2.755   2.197
    2PC      HR10905   0.213   2.655   2.155
    2PC      HS10906   0.184   2.826   2.122
    2PC      C210907   0.366   2.796   2.213
    2PC      HX10908   0.373   2.896   2.257
    2PC      C310909   0.445   2.799   2.081
    2PC      HA10910   0.403   2.871   2.011
    2PC      HB10911   0.540   2.851   2.102
    2PC     O3110912   0.483   2.673   2.023
    2PC     P3110913   0.566   2.687   1.887
    2PC     O3210914   0.702   2.613   1.929
    2PC     C3110915   0.809   2.684   1.993
    2PC     H1A10916   0.835   2.769   1.929
    2PC     H1B10917   0.769   2.728   2.085
    2PC     C3210918   0.920   2.584   2.029
    2PC     H2A10919   1.007   2.632   2.074
    2PC     H2B10920   0.881   2.515   2.104
    2PC     N3110921   0.972   2.506   1.912
    2PC     C3310922   0.879   2.408   1.847
    2PC     H3A10923   0.794   2.460   1.804
    2PC     H3B10924   0.932   2.340   1.780
    2PC     H3C10925   0.838   2.347   1.928
    2PC     C3410926   1.019   2.604   1.809
    2PC     H4A10927   1.065   2.534   1.739
    2PC     H4B10928   0.946   2.674   1.770
    2PC     H4C10929   1.097   2.664   1.857
    2PC     C3510930   1.098   2.439   1.959
    2PC     H5A10931   1.076   2.379   2.048
    2PC     H5B10932   1.177   2.509   1.986
    2PC     H5C10933   1.138   2.368   1.886
    2PC     O3310934   0.505   2.621   1.769
    2PC     O3410935   0.604   2.822   1.841
    2PC     O2110936   0.419   2.694   2.299
    2PC     C2110937   0.547   2.692   2.339
    2PC     O2210938   0.633   2.767   2.298
    3OL     C1210939   0.564   2.578   2.437
    3OL     H2R10940   0.544   2.482   2.388
    3OL     H2S10941   0.501   2.575   2.526
    3OL     C1310942   0.703   2.578   2.501
    3OL     H3R10943   0.702   2.660   2.573
    3OL     H3S10944   0.788   2.594   2.434
    3OL     C1410945   0.725   2.441   2.566
    3OL     H4R10946   0.729   2.369   2.485
    3OL     H4S10947   0.652   2.408   2.640
    3OL     C1510948   0.865   2.448   2.628
    3OL     H5R10949   0.862   2.497   2.726
    3OL     H5S10950   0.934   2.496   2.559
    3OL     C1610951   0.916   2.307   2.664
    3OL     H6R10952   0.913   2.249   2.571
    3OL     H6S10953   0.846   2.257   2.731
    3OL     C1710954   1.057   2.303   2.722
    3OL     H7R10955   1.117   2.390   2.693
    3OL     H7S10956   1.101   2.213   2.680
    3OL     C1810957   1.063   2.287   2.875
    3OL     H8R10958   0.997   2.203   2.897
    3OL     H8S10959   1.029   2.382   2.917
    3OL     C1910960   1.201   2.252   2.922
    3OL     H9R10961   1.262   2.219   2.838
    3OL    C11010962   1.256   2.285   3.038
    3OL    H10R10963   1.363   2.269   3.052
    3OL    C11110964   1.177   2.331   3.158
    3OL    H11R10965   1.205   2.255   3.231
    3OL    H11S10966   1.069   2.328   3.147
    3OL    C11210967   1.226   2.467   3.211
    3OL    H12R10968   1.334   2.473   3.198
    3OL    H12S10969   1.207   2.477   3.318
    3OL    C11310970   1.174   2.597   3.148
    3OL    H13R10971   1.180   2.579   3.040
    3OL    H13S10972   1.244   2.677   3.174
    3OL    C11410973   1.033   2.623   3.203
    3OL    H14R10974   1.029   2.609   3.311
    3OL    H14S10975   0.964   2.553   3.155
    3OL    C11510976   1.003   2.769   3.166
    3OL    H15R10977   0.956   2.767   3.068
    3OL    H15S10978   1.096   2.826   3.171
    3OL    C11610979   0.903   2.829   3.266
    3OL    H16R10980   0.934   2.817   3.370
    3OL    H16S10981   0.809   2.773   3.263
    3OL    C11710982   0.851   2.972   3.242
    3OL    H17R10983   0.847   2.994   3.135
    3OL    H17S10984   0.909   3.041   3.304
    3OL    C11810985   0.706   2.967   3.294
    3OL    H18R10986   0.643   2.889   3.250
    3OL    H18S10987   0.655   3.059   3.268
    3OL    H18T10988   0.708   2.951   3.402
    1PA    C11610989  -0.280   5.203   4.007
    1PA    H16R10990  -0.346   5.284   4.038
    1PA    H16S10991  -0.191   5.221   4.067
    1PA    H16T10992  -0.315   5.105   4.041
    1PA    C11510993  -0.244   5.220   3.859
    1PA    H15R10994  -0.331   5.204   3.796
    1PA    H15S10995  -0.202   5.320   3.845
    1PA    C11410996  -0.134   5.116   3.831
    1PA    H14R10997  -0.041   5.141   3.884
    1PA    H14S10998  -0.178   5.020   3.855
    1PA    C11310999  -0.091   5.122   3.684
    1PA    H13R11000  -0.062   5.225   3.660
    1PA    H13S11001  -0.005   5.055   3.677
    1PA    C11211002  -0.191   5.073   3.579
    1PA    H12R11003  -0.233   4.975   3.601
    1PA    H12S11004  -0.276   5.143   3.576
    1PA    C11111005  -0.122   5.062   3.442
    1PA    H11R11006  -0.040   4.990   3.439
    1PA    H11S11007  -0.194   5.015   3.374
    1PA    C11011008  -0.076   5.196   3.385
    1PA    H10R11009  -0.164   5.253   3.356
    1PA    H10S11010  -0.019   5.242   3.467
    1PA     C1911011   0.009   5.169   3.260
    1PA     H9R11012   0.102   5.127   3.299
    1PA     H9S11013  -0.035   5.098   3.190
    1PA     C1811014   0.042   5.297   3.183
    1PA     H8R11015  -0.051   5.331   3.136
    1PA     H8S11016   0.089   5.373   3.245
    1PA     C1711017   0.136   5.267   3.065
    1PA     H7R11018   0.229   5.225   3.104
    1PA     H7S11019   0.090   5.192   3.001
    1PA     C1611020   0.169   5.393   2.983
    1PA     H6R11021   0.080   5.456   2.971
    1PA     H6S11022   0.231   5.456   3.047
    1PA     C1511023   0.221   5.363   2.842
    1PA     H5R11024   0.314   5.308   2.856
    1PA     H5S11025   0.154   5.298   2.785
    1PA     C1411026   0.251   5.489   2.760
    1PA     H4R11027   0.162   5.552   2.773
    1PA     H4S11028   0.338   5.545   2.793
    1PA     C1311029   0.277   5.455   2.612
    1PA     H3R11030   0.202   5.386   2.571
    1PA     H3S11031   0.275   5.550   2.558
    1PA     C1211032   0.421   5.403   2.603
    1PA     H2R11033   0.485   5.491   2.614
    1PA     H2S11034   0.431   5.332   2.685
    2PC     C1111035   0.441   5.337   2.469
    2PC     O1211036   0.353   5.311   2.390
    2PC     O1111037   0.571   5.314   2.442
    2PC      C111038   0.620   5.289   2.309
    2PC      HR11039   0.729   5.286   2.317
    2PC      HS11040   0.595   5.186   2.283
    2PC      C211041   0.578   5.402   2.213
    2PC      HX11042   0.472   5.397   2.187
    2PC      C311043   0.639   5.414   2.073
    2PC      HA11044   0.566   5.377   2.002
    2PC      HB11045   0.654   5.518   2.043
    2PC     O3111046   0.755   5.332   2.051
    2PC     P3111047   0.852   5.358   1.926
    2PC     O3211048   0.980   5.425   1.995
    2PC     C3111049   0.987   5.565   2.027
    2PC     H1A11050   0.997   5.620   1.934
    2PC     H1B11051   0.900   5.593   2.086
    2PC     C3211052   1.115   5.603   2.104
    2PC     H2A11053   1.111   5.545   2.197
    2PC     H2B11054   1.202   5.588   2.040
    2PC     N3111055   1.120   5.746   2.147
    2PC     C3311056   1.081   5.849   2.045
    2PC     H3A11057   0.974   5.855   2.025
    2PC     H3B11058   1.122   5.945   2.076
    2PC     H3C11059   1.126   5.828   1.948
    2PC     C3411060   1.020   5.772   2.255
    2PC     H4A11061   1.010   5.699   2.336
    2PC     H4B11062   1.029   5.873   2.296
    2PC     H4C11063   0.923   5.774   2.204
    2PC     C3511064   1.259   5.777   2.192
    2PC     H5A11065   1.265   5.875   2.239
    2PC     H5B11066   1.310   5.782   2.095
    2PC     H5C11067   1.299   5.700   2.258
    2PC     O3311068   0.895   5.233   1.860
    2PC     O3411069   0.822   5.443   1.809
    2PC     O2111070   0.602   5.532   2.271
    2PC     C2111071   0.722   5.577   2.310
    2PC     O2211072   0.828   5.521   2.294
    3OL     C1211073   0.719   5.709   2.384
    3OL     H2R11074   0.619   5.749   2.400
    3OL     H2S11075   0.777   5.778   2.322
    3OL     C1311076   0.787   5.711   2.521
    3OL     H3R11077   0.796   5.813   2.559
    3OL     H3S11078   0.887   5.667   2.511
    3OL     C1411079   0.700   5.627   2.615
    3OL     H4R11080   0.687   5.534   2.559
    3OL     H4S11081   0.603   5.675   2.630
    3OL     C1511082   0.768   5.598   2.749
    3OL     H5R11083   0.802   5.688   2.800
    3OL     H5S11084   0.850   5.526   2.744
    3OL     C1611085   0.671   5.535   2.849
    3OL     H6R11086   0.618   5.457   2.794
    3OL     H6S11087   0.600   5.614   2.874
    3OL     C1711088   0.746   5.491   2.976
    3OL     H7R11089   0.818   5.568   3.004
    3OL     H7S11090   0.801   5.401   2.951
    3OL     C1811091   0.656   5.467   3.098
    3OL     H8R11092   0.614   5.566   3.117
    3OL     H8S11093   0.715   5.426   3.180
    3OL     C1911094   0.551   5.368   3.056
    3OL     H9R11095   0.526   5.368   2.950
    3OL    C11011096   0.500   5.266   3.123
    3OL    H10R11097   0.425   5.201   3.077
    3OL    C11111098   0.529   5.240   3.269
    3OL    H11R11099   0.592   5.319   3.310
    3OL    H11S11100   0.567   5.138   3.280
    3OL    C11211101   0.401   5.240   3.353
    3OL    H12R11102   0.349   5.147   3.329
    3OL    H12S11103   0.350   5.324   3.305
    3OL    C11311104   0.419   5.268   3.503
    3OL    H13R11105   0.464   5.366   3.520
    3OL    H13S11106   0.492   5.200   3.547
    3OL    C11411107   0.289   5.268   3.584
    3OL    H14R11108   0.234   5.174   3.583
    3OL    H14S11109   0.216   5.337   3.542
    3OL    C11511110   0.330   5.296   3.729
    3OL    H15R11111   0.400   5.380   3.730
    3OL    H15S11112   0.385   5.209   3.767
    3OL    C11611113   0.206   5.319   3.817
    3OL    H16R11114   0.150   5.226   3.824
    3OL    H16S11115   0.150   5.395   3.762
    3OL    C11711116   0.253   5.369   3.954
    3OL    H17R11117   0.236   5.476   3.957
    3OL    H17S11118   0.360   5.355   3.968
    3OL    C11811119   0.182   5.301   4.073
    3OL    H18R11120   0.075   5.297   4.054
    3OL    H18S11121   0.200   5.367   4.158
    3OL    H18T11122   0.219   5.199   4.088
    1PA    C11611123   0.169   3.604   2.689
    1PA    H16R11124   0.188   3.688   2.621
    1PA    H16S11125   0.060   3.592   2.696
    1PA    H16T11126   0.210   3.523   2.628
    1PA    C11511127   0.228   3.628   2.828
    1PA    H15R11128   0.170   3.710   2.873
    1PA    H15S11129   0.224   3.537   2.888
    1PA    C11411130   0.375   3.669   2.824
    1PA    H14R11131   0.434   3.580   2.801
    1PA    H14S11132   0.392   3.742   2.744
    1PA    C11311133   0.431   3.726   2.955
    1PA    H13R11134   0.375   3.815   2.985
    1PA    H13S11135   0.404   3.657   3.035
    1PA    C11211136   0.581   3.756   2.946
    1PA    H12R11137   0.622   3.740   3.046
    1PA    H12S11138   0.638   3.696   2.875
    1PA    C11111139   0.602   3.906   2.921
    1PA    H11R11140   0.571   3.920   2.817
    1PA    H11S11141   0.554   3.973   2.992
    1PA    C11011142   0.748   3.955   2.924
    1PA    H10R11143   0.759   4.061   2.946
    1PA    H10S11144   0.809   3.903   2.998
    1PA     C1911145   0.824   3.931   2.793
    1PA     H9R11146   0.831   3.824   2.773
    1PA     H9S11147   0.765   3.977   2.713
    1PA     C1811148   0.959   4.004   2.797
    1PA     H8R11149   0.937   4.111   2.802
    1PA     H8S11150   1.011   3.984   2.891
    1PA     C1711151   1.048   3.965   2.679
    1PA     H7R11152   0.988   3.975   2.588
    1PA     H7S11153   1.131   4.037   2.685
    1PA     C1611154   1.095   3.819   2.676
    1PA     H6R11155   1.135   3.802   2.776
    1PA     H6S11156   1.004   3.761   2.660
    1PA     C1511157   1.190   3.792   2.558
    1PA     H5R11158   1.143   3.721   2.489
    1PA     H5S11159   1.217   3.881   2.503
    1PA     C1411160   1.322   3.730   2.607
    1PA     H4R11161   1.380   3.804   2.662
    1PA     H4S11162   1.296   3.651   2.679
    1PA     C1311163   1.395   3.675   2.484
    1PA     H3R11164   1.337   3.589   2.451
    1PA     H3S11165   1.414   3.749   2.406
    1PA     C1211166   1.534   3.640   2.540
    1PA     H2R11167   1.577   3.706   2.615
    1PA     H2S11168   1.505   3.552   2.598
    2PC     C1111169   1.622   3.596   2.426
    2PC     O1211170   1.583   3.572   2.314
    2PC     O1111171   1.747   3.573   2.472
    2PC      C111172   1.844   3.547   2.369
    2PC      HR11173   1.861   3.441   2.348
    2PC      HS11174   1.823   3.593   2.273
    2PC      C211175   1.978   3.610   2.410
    2PC      HX11176   1.943   3.706   2.450
    2PC      C311177   2.073   3.622   2.290
    2PC      HA11178   2.038   3.701   2.222
    2PC      HB11179   2.170   3.659   2.322
    2PC     O3111180   2.097   3.498   2.221
    2PC     P3111181   2.193   3.499   2.093
    2PC     O3211182   2.110   3.380   2.025
    2PC     C3111183   2.159   3.331   1.899
    2PC     H1A11184   2.174   3.414   1.828
    2PC     H1B11185   2.257   3.288   1.921
    2PC     C3211186   2.056   3.223   1.862
    2PC     H2A11187   2.053   3.146   1.939
    2PC     H2B11188   1.962   3.277   1.844
    2PC     N3111189   2.076   3.155   1.730
    2PC     C3311190   1.959   3.066   1.700
    2PC     H3A11191   1.985   2.992   1.624
    2PC     H3B11192   1.928   3.013   1.789
    2PC     H3C11193   1.878   3.129   1.663
    2PC     C3411194   2.085   3.267   1.631
    2PC     H4A11195   2.012   3.347   1.648
    2PC     H4B11196   2.186   3.306   1.646
    2PC     H4C11197   2.071   3.225   1.531
    2PC     C3511198   2.202   3.074   1.738
    2PC     H5A11199   2.178   2.997   1.811
    2PC     H5B11200   2.284   3.140   1.767
    2PC     H5C11201   2.228   3.020   1.647
    2PC     O3311202   2.178   3.630   2.025
    2PC     O3411203   2.329   3.452   2.126
    2PC     O2111204   2.032   3.530   2.517
    2PC     C2111205   2.135   3.568   2.595
    2PC     O2211206   2.185   3.679   2.584
    3OL     C1211207   2.162   3.473   2.709
    3OL     H2R11208   2.160   3.370   2.671
    3OL     H2S11209   2.088   3.486   2.788
    3OL     C1311210   2.307   3.494   2.754
    3OL     H3R11211   2.318   3.591   2.803
    3OL     H3S11212   2.378   3.493   2.670
    3OL     C1411213   2.353   3.390   2.856
    3OL     H4R11214   2.372   3.299   2.798
    3OL     H4S11215   2.281   3.374   2.936
    3OL     C1511216   2.494   3.424   2.908
    3OL     H5R11217   2.553   3.454   2.821
    3OL     H5S11218   2.549   3.340   2.952
    3OL     C1611219   2.488   3.535   3.014
    3OL     H6R11220   2.412   3.610   2.993
    3OL     H6S11221   2.588   3.579   3.021
    3OL     C1711222   2.446   3.484   3.153
    3OL     H7R11223   2.524   3.412   3.179
    3OL     H7S11224   2.348   3.435   3.145
    3OL     C1811225   2.442   3.601   3.252
    3OL     H8R11226   2.370   3.680   3.230
    3OL     H8S11227   2.536   3.656   3.252
    3OL     C1911228   2.412   3.558   3.393
    3OL     H9R11229   2.306   3.548   3.417
    3OL    C11011230   2.505   3.543   3.486
    3OL    H10R11231   2.486   3.520   3.591
    3OL    C11111232   2.651   3.567   3.456
    3OL    H11R11233   2.667   3.674   3.440
    3OL    H11S11234   2.685   3.509   3.370
    3OL    C11211235   2.752   3.536   3.567
    3OL    H12R11236   2.742   3.613   3.644
    3OL    H12S11237   2.856   3.541   3.531
    3OL    C11311238   2.732   3.395   3.622
    3OL    H13R11239   2.720   3.330   3.534
    3OL    H13S11240   2.643   3.382   3.683
    3OL    C11411241   2.852   3.341   3.702
    3OL    H14R11242   2.896   3.415   3.770
    3OL    H14S11243   2.933   3.324   3.630
    3OL    C11511244   2.823   3.225   3.798
    3OL    H15R11245   2.765   3.263   3.882
    3OL    H15S11246   2.912   3.190   3.851
    3OL    C11611247   2.751   3.110   3.726
    3OL    H16R11248   2.808   3.075   3.640
    3OL    H16S11249   2.662   3.160   3.686
    3OL    C11711250   2.730   2.989   3.818
    3OL    H17R11251   2.678   3.029   3.905
    3OL    H17S11252   2.824   2.949   3.855
    3OL    C11811253   2.644   2.885   3.745
    3OL    H18R11254   2.699   2.846   3.659
    3OL    H18S11255   2.543   2.916   3.720
    3OL    H18T11256   2.630   2.798   3.810
    1PA    C11611257   2.663   1.731   3.643
    1PA    H16R11258   2.596   1.652   3.678
    1PA    H16S11259   2.641   1.808   3.717
    1PA    H16T11260   2.768   1.707   3.666
    1PA    C11511261   2.652   1.791   3.503
    1PA    H15R11262   2.575   1.868   3.503
    1PA    H15S11263   2.745   1.846   3.484
    1PA    C11411264   2.636   1.680   3.397
    1PA    H14R11265   2.722   1.614   3.389
    1PA    H14S11266   2.547   1.623   3.423
    1PA    C11311267   2.639   1.750   3.260
    1PA    H13R11268   2.603   1.684   3.182
    1PA    H13S11269   2.576   1.839   3.257
    1PA    C11211270   2.776   1.802   3.213
    1PA    H12R11271   2.827   1.869   3.282
    1PA    H12S11272   2.844   1.716   3.211
    1PA    C11111273   2.773   1.880   3.081
    1PA    H11R11274   2.712   1.822   3.011
    1PA    H11S11275   2.717   1.971   3.101
    1PA    C11011276   2.910   1.914   3.022
    1PA    H10R11277   2.962   1.964   3.104
    1PA    H10S11278   2.967   1.823   3.000
    1PA     C1911279   2.896   2.011   2.903
    1PA     H9R11280   2.843   1.954   2.827
    1PA     H9S11281   2.834   2.099   2.924
    1PA     C1811282   3.032   2.040   2.838
    1PA     H8R11283   3.099   2.083   2.913
    1PA     H8S11284   3.071   1.940   2.817
    1PA     C1711285   3.017   2.123   2.709
    1PA     H7R11286   3.110   2.131   2.653
    1PA     H7S11287   2.941   2.078   2.644
    1PA     C1611288   2.970   2.265   2.742
    1PA     H6R11289   2.870   2.264   2.786
    1PA     H6S11290   3.041   2.303   2.816
    1PA     C1511291   2.977   2.351   2.615
    1PA     H5R11292   3.082   2.362   2.585
    1PA     H5S11293   2.927   2.314   2.525
    1PA     C1411294   2.914   2.487   2.649
    1PA     H4R11295   2.815   2.453   2.680
    1PA     H4S11296   2.978   2.530   2.726
    1PA     C1311297   2.891   2.582   2.530
    1PA     H3R11298   2.989   2.611   2.491
    1PA     H3S11299   2.833   2.526   2.456
    1PA     C1211300   2.808   2.704   2.572
    1PA     H2R11301   2.717   2.671   2.622
    1PA     H2S11302   2.869   2.771   2.633
    2PC     C1111303   2.775   2.780   2.447
    2PC     O1211304   2.670   2.768   2.387
    2PC     O1111305   2.880   2.852   2.405
    2PC      C111306   2.867   2.947   2.298
    2PC      HR11307   2.960   3.003   2.286
    2PC      HS11308   2.842   2.890   2.207
    2PC      C211309   2.759   3.052   2.326
    2PC      HX11310   2.669   3.002   2.363
    2PC      C311311   2.733   3.121   2.191
    2PC      HA11312   2.719   3.048   2.111
    2PC      HB11313   2.647   3.188   2.196
    2PC     O3111314   2.848   3.198   2.153
    2PC     P3111315   2.846   3.276   2.013
    2PC     O3211316   2.742   3.394   2.043
    2PC     C3111317   2.778   3.495   2.138
    2PC     H1A11318   2.796   3.449   2.236
    2PC     H1B11319   2.869   3.545   2.103
    2PC     C3211320   2.663   3.597   2.151
    2PC     H2A11321   2.579   3.541   2.192
    2PC     H2B11322   2.693   3.673   2.223
    2PC     N3111323   2.611   3.669   2.031
    2PC     C3311324   2.725   3.755   1.985
    2PC     H3A11325   2.794   3.687   1.936
    2PC     H3B11326   2.683   3.828   1.915
    2PC     H3C11327   2.774   3.805   2.069
    2PC     C3411328   2.567   3.577   1.921
    2PC     H4A11329   2.642   3.514   1.873
    2PC     H4B11330   2.486   3.515   1.961
    2PC     H4C11331   2.526   3.639   1.841
    2PC     C3511332   2.496   3.755   2.077
    2PC     H5A11333   2.534   3.798   2.169
    2PC     H5B11334   2.415   3.684   2.093
    2PC     H5C11335   2.458   3.821   1.999
    2PC     O3311336   2.980   3.313   1.961
    2PC     O3411337   2.805   3.188   1.901
    2PC     O2111338   2.803   3.153   2.419
    2PC     C2111339   2.717   3.237   2.478
    2PC     O2211340   2.598   3.236   2.452
    3OL     C1211341   2.773   3.332   2.581
    3OL     H2R11342   2.880   3.311   2.586
    3OL     H2S11343   2.737   3.294   2.677
    3OL     C1311344   2.743   3.481   2.562
    3OL     H3R11345   2.635   3.499   2.561
    3OL     H3S11346   2.781   3.516   2.466
    3OL     C1411347   2.796   3.557   2.684
    3OL     H4R11348   2.903   3.535   2.692
    3OL     H4S11349   2.757   3.508   2.774
    3OL     C1511350   2.756   3.705   2.690
    3OL     H5R11351   2.647   3.713   2.693
    3OL     H5S11352   2.783   3.763   2.601
    3OL     C1611353   2.815   3.770   2.816
    3OL     H6R11354   2.731   3.775   2.886
    3OL     H6S11355   2.833   3.877   2.801
    3OL     C1711356   2.933   3.696   2.882
    3OL     H7R11357   3.006   3.682   2.802
    3OL     H7S11358   2.900   3.596   2.911
    3OL     C1811359   2.990   3.776   3.000
    3OL     H8R11360   2.985   3.882   2.976
    3OL     H8S11361   3.096   3.748   3.007
    3OL     C1911362   2.912   3.730   3.120
    3OL     H9R11363   2.889   3.625   3.109
    3OL    C11011364   2.871   3.798   3.226
    3OL    H10R11365   2.811   3.745   3.300
    3OL    C11111366   2.897   3.941   3.265
    3OL    H11R11367   2.802   3.993   3.249
    3OL    H11S11368   2.977   3.975   3.199
    3OL    C11211369   2.954   3.948   3.407
    3OL    H12R11370   3.047   3.893   3.421
    3OL    H12S11371   2.875   3.905   3.468
    3OL    C11311372   2.979   4.094   3.449
    3OL    H13R11373   2.989   4.085   3.557
    3OL    H13S11374   2.897   4.165   3.435
    3OL    C11411375   3.119   4.138   3.403
    3OL    H14R11376   3.114   4.172   3.299
    3OL    H14S11377   3.183   4.050   3.410
    3OL    C11511378   3.177   4.252   3.488
    3OL    H15R11379   3.200   4.209   3.586
    3OL    H15S11380   3.113   4.338   3.509
    3OL    C11611381   3.308   4.299   3.424
    3OL    H16R11382   3.288   4.335   3.323
    3OL    H16S11383   3.378   4.216   3.412
    3OL    C11711384   3.374   4.401   3.518
    3OL    H17R11385   3.298   4.465   3.563
    3OL    H17S11386   3.433   4.473   3.460
    3OL    C11811387   3.469   4.332   3.617
    3OL    H18R11388   3.543   4.268   3.568
    3OL    H18S11389   3.408   4.257   3.668
    3OL    H18T11390   3.511   4.392   3.697
    1PA    C11611391   4.703   5.802   3.838
    1PA    H16R11392   4.771   5.720   3.812
    1PA    H16S11393   4.697   5.791   3.947
    1PA    H16T11394   4.748   5.898   3.812
    1PA    C11511395   4.568   5.786   3.768
    1PA    H15R11396   4.536   5.683   3.783
    1PA    H15S11397   4.486   5.846   3.809
    1PA    C11411398   4.580   5.786   3.615
    1PA    H14R11399   4.646   5.866   3.579
    1PA    H14S11400   4.638   5.696   3.593
    1PA    C11311401   4.440   5.790   3.551
    1PA    H13R11402   4.378   5.705   3.580
    1PA    H13S11403   4.393   5.882   3.586
    1PA    C11211404   4.449   5.792   3.398
    1PA    H12R11405   4.493   5.882   3.355
    1PA    H12S11406   4.513   5.712   3.362
    1PA    C11111407   4.311   5.771   3.334
    1PA    H11R11408   4.270   5.671   3.349
    1PA    H11S11409   4.238   5.842   3.372
    1PA    C11011410   4.318   5.806   3.184
    1PA    H10R11411   4.334   5.913   3.166
    1PA    H10S11412   4.402   5.755   3.138
    1PA     C1911413   4.187   5.771   3.112
    1PA     H9R11414   4.171   5.664   3.123
    1PA     H9S11415   4.095   5.818   3.148
    1PA     C1811416   4.184   5.797   2.960
    1PA     H8R11417   4.082   5.774   2.928
    1PA     H8S11418   4.204   5.903   2.943
    1PA     C1711419   4.280   5.719   2.870
    1PA     H7R11420   4.380   5.720   2.913
    1PA     H7S11421   4.257   5.612   2.869
    1PA     C1611422   4.280   5.770   2.725
    1PA     H6R11423   4.176   5.771   2.693
    1PA     H6S11424   4.309   5.876   2.724
    1PA     C1511425   4.373   5.687   2.635
    1PA     H5R11426   4.476   5.701   2.668
    1PA     H5S11427   4.336   5.585   2.648
    1PA     C1411428   4.373   5.725   2.486
    1PA     H4R11429   4.416   5.648   2.422
    1PA     H4S11430   4.270   5.746   2.456
    1PA     C1311431   4.456   5.852   2.463
    1PA     H3R11432   4.437   5.880   2.359
    1PA     H3S11433   4.424   5.944   2.513
    1PA     C1211434   4.608   5.836   2.481
    1PA     H2R11435   4.657   5.934   2.473
    1PA     H2S11436   4.621   5.814   2.587
    2PC     C1111437   4.672   5.735   2.389
    2PC     O1211438   4.690   5.752   2.270
    2PC     O1111439   4.699   5.621   2.456
    2PC      C111440   4.757   5.510   2.385
    2PC      HR11441   4.712   5.497   2.287
    2PC      HS11442   4.862   5.537   2.370
    2PC      C211443   4.735   5.385   2.472
    2PC      HX11444   4.790   5.404   2.564
    2PC      C311445   4.797   5.261   2.406
    2PC      HA11446   4.906   5.260   2.420
    2PC      HB11447   4.761   5.167   2.448
    2PC     O3111448   4.788   5.270   2.263
    2PC     P3111449   4.872   5.176   2.164
    2PC     O3211450   4.755   5.092   2.094
    2PC     C3111451   4.740   4.955   2.135
    2PC     H1A11452   4.742   4.966   2.244
    2PC     H1B11453   4.647   4.915   2.095
    2PC     C3211454   4.855   4.868   2.084
    2PC     H2A11455   4.840   4.854   1.976
    2PC     H2B11456   4.951   4.913   2.110
    2PC     N3111457   4.868   4.727   2.131
    2PC     C3311458   4.991   4.660   2.077
    2PC     H3A11459   4.989   4.689   1.972
    2PC     H3B11460   5.072   4.709   2.131
    2PC     H3C11461   4.998   4.553   2.095
    2PC     C3411462   4.871   4.709   2.280
    2PC     H4A11463   4.954   4.757   2.331
    2PC     H4B11464   4.784   4.759   2.324
    2PC     H4C11465   4.860   4.601   2.293
    2PC     C3511466   4.743   4.661   2.082
    2PC     H5A11467   4.656   4.693   2.140
    2PC     H5B11468   4.750   4.555   2.104
    2PC     H5C11469   4.737   4.682   1.975
    2PC     O3311470   4.961   5.257   2.077
    2PC     O3411471   4.971   5.104   2.248
    2PC     O2111472   4.595   5.359   2.491
    2PC     C2111473   4.560   5.282   2.595
    2PC     O2211474   4.642   5.232   2.670
    3OL     C1211475   4.413   5.267   2.622
    3OL     H2R11476   4.377   5.221   2.529
    3OL     H2S11477   4.374   5.367   2.644
    3OL     C1311478   4.371   5.175   2.737
    3OL     H3R11479   4.402   5.216   2.833
    3OL     H3S11480   4.405   5.071   2.734
    3OL     C1411481   4.217   5.174   2.736
    3OL     H4R11482   4.177   5.133   2.643
    3OL     H4S11483   4.182   5.277   2.730
    3OL     C1511484   4.153   5.099   2.854
    3OL     H5R11485   4.225   5.025   2.890
    3OL     H5S11486   4.067   5.041   2.820
    3OL     C1611487   4.101   5.199   2.958
    3OL     H6R11488   4.015   5.255   2.920
    3OL     H6S11489   4.182   5.270   2.973
    3OL     C1711490   4.073   5.143   3.098
    3OL     H7R11491   4.167   5.100   3.133
    3OL     H7S11492   4.010   5.056   3.084
    3OL     C1811493   4.022   5.251   3.194
    3OL     H8R11494   3.988   5.213   3.291
    3OL     H8S11495   3.937   5.295   3.141
    3OL     C1911496   4.121   5.359   3.230
    3OL     H9R11497   4.143   5.426   3.147
    3OL    C11011498   4.169   5.382   3.351
    3OL    H10R11499   4.227   5.473   3.365
    3OL    C11111500   4.133   5.317   3.482
    3OL    H11R11501   4.141   5.212   3.455
    3OL    H11S11502   4.035   5.345   3.521
    3OL    C11211503   4.239   5.352   3.587
    3OL    H12R11504   4.338   5.367   3.541
    3OL    H12S11505   4.244   5.264   3.650
    3OL    C11311506   4.204   5.475   3.671
    3OL    H13R11507   4.103   5.462   3.710
    3OL    H13S11508   4.192   5.562   3.605
    3OL    C11411509   4.307   5.492   3.784
    3OL    H14R11510   4.388   5.557   3.750
    3OL    H14S11511   4.361   5.400   3.807
    3OL    C11511512   4.254   5.553   3.915
    3OL    H15R11513   4.218   5.654   3.895
    3OL    H15S11514   4.339   5.558   3.984
    3OL    C11611515   4.141   5.466   3.972
    3OL    H16R11516   4.182   5.365   3.964
    3OL    H16S11517   4.057   5.474   3.903
    3OL    C11711518   4.097   5.509   4.113
    3OL    H17R11519   4.016   5.448   4.151
    3OL    H17S11520   4.062   5.613   4.110
    3OL    C11811521   4.207   5.499   4.219
    3OL    H18R11522   4.301   5.540   4.180
    3OL    H18S11523   4.202   5.392   4.238
    3OL    H18T11524   4.178   5.546   4.313
    1PA    C11611525   2.183   3.526   4.080
    1PA    H16R11526   2.173   3.471   4.174
    1PA    H16S11527   2.269   3.593   4.085
    1PA    H16T11528   2.201   3.455   3.998
    1PA    C11511529   2.051   3.597   4.050
    1PA    H15R11530   1.976   3.519   4.040
    1PA    H15S11531   2.023   3.653   4.140
    1PA    C11411532   2.052   3.697   3.933
    1PA    H14R11533   1.955   3.722   3.891
    1PA    H14S11534   2.090   3.791   3.974
    1PA    C11311535   2.140   3.656   3.814
    1PA    H13R11536   2.243   3.629   3.840
    1PA    H13S11537   2.103   3.559   3.782
    1PA    C11211538   2.118   3.751   3.696
    1PA    H12R11539   2.190   3.712   3.624
    1PA    H12S11540   2.015   3.746   3.658
    1PA    C11111541   2.176   3.890   3.725
    1PA    H11R11542   2.121   3.938   3.807
    1PA    H11S11543   2.282   3.888   3.749
    1PA    C11011544   2.165   3.983   3.603
    1PA    H10R11545   2.066   3.986   3.556
    1PA    H10S11546   2.172   4.085   3.642
    1PA     C1911547   2.265   3.953   3.491
    1PA     H9R11548   2.354   3.909   3.537
    1PA     H9S11549   2.228   3.876   3.423
    1PA     C1811550   2.313   4.078   3.416
    1PA     H8R11551   2.222   4.135   3.397
    1PA     H8S11552   2.383   4.134   3.479
    1PA     C1711553   2.382   4.046   3.282
    1PA     H7R11554   2.411   4.143   3.241
    1PA     H7S11555   2.471   3.984   3.296
    1PA     C1611556   2.293   3.981   3.175
    1PA     H6R11557   2.234   3.896   3.211
    1PA     H6S11558   2.213   4.055   3.167
    1PA     C1511559   2.363   3.942   3.044
    1PA     H5R11560   2.466   3.910   3.061
    1PA     H5S11561   2.311   3.854   3.006
    1PA     C1411562   2.370   4.056   2.942
    1PA     H4R11563   2.272   4.094   2.913
    1PA     H4S11564   2.423   4.137   2.993
    1PA     C1311565   2.455   4.017   2.821
    1PA     H3R11566   2.550   3.970   2.846
    1PA     H3S11567   2.410   3.943   2.755
    1PA     C1211568   2.502   4.138   2.738
    1PA     H2R11569   2.414   4.193   2.704
    1PA     H2S11570   2.546   4.203   2.814
    2PC     C1111571   2.608   4.114   2.633
    2PC     O1211572   2.578   4.141   2.518
    2PC     O1111573   2.721   4.054   2.673
    2PC      C111574   2.829   4.057   2.578
    2PC      HR11575   2.910   3.993   2.614
    2PC      HS11576   2.801   4.011   2.483
    2PC      C211577   2.885   4.199   2.565
    2PC      HX11578   2.803   4.271   2.564
    2PC      C311579   2.951   4.220   2.428
    2PC      HA11580   3.059   4.209   2.443
    2PC      HB11581   2.923   4.145   2.353
    2PC     O3111582   2.925   4.352   2.378
    2PC     P3111583   3.044   4.405   2.285
    2PC     O3211584   3.042   4.310   2.155
    2PC     C3111585   3.100   4.367   2.037
    2PC     H1A11586   3.030   4.441   1.998
    2PC     H1B11587   3.195   4.415   2.062
    2PC     C3211588   3.115   4.261   1.927
    2PC     H2A11589   3.153   4.313   1.839
    2PC     H2B11590   3.184   4.181   1.955
    2PC     N3111591   2.990   4.190   1.883
    2PC     C3311592   2.942   4.089   1.983
    2PC     H3A11593   2.888   4.134   2.066
    2PC     H3B11594   2.893   4.010   1.926
    2PC     H3C11595   3.033   4.042   2.023
    2PC     C3411596   2.879   4.285   1.850
    2PC     H4A11597   2.920   4.371   1.799
    2PC     H4B11598   2.806   4.230   1.790
    2PC     H4C11599   2.842   4.317   1.948
    2PC     C3511600   3.025   4.117   1.756
    2PC     H5A11601   3.090   4.185   1.702
    2PC     H5B11602   2.941   4.092   1.691
    2PC     H5C11603   3.074   4.024   1.785
    2PC     O3311604   2.994   4.539   2.249
    2PC     O3411605   3.170   4.416   2.361
    2PC     O2111606   2.982   4.232   2.666
    2PC     C2111607   2.941   4.270   2.789
    2PC     O2211608   2.829   4.266   2.834
    3OL     C1211609   3.057   4.312   2.875
    3OL     H2R11610   3.113   4.385   2.816
    3OL     H2S11611   3.121   4.226   2.897
    3OL     C1311612   3.008   4.369   3.009
    3OL     H3R11613   2.963   4.286   3.064
    3OL     H3S11614   2.931   4.446   3.001
    3OL     C1411615   3.120   4.423   3.099
    3OL     H4R11616   3.170   4.504   3.046
    3OL     H4S11617   3.200   4.353   3.121
    3OL     C1511618   3.058   4.474   3.230
    3OL     H5R11619   3.129   4.486   3.313
    3OL     H5S11620   2.990   4.396   3.264
    3OL     C1611621   2.980   4.605   3.210
    3OL     H6R11622   2.889   4.578   3.155
    3OL     H6S11623   3.056   4.666   3.161
    3OL     C1711624   2.933   4.661   3.345
    3OL     H7R11625   3.016   4.720   3.386
    3OL     H7S11626   2.897   4.586   3.416
    3OL     C1811627   2.817   4.758   3.323
    3OL     H8R11628   2.729   4.701   3.292
    3OL     H8S11629   2.845   4.834   3.250
    3OL     C1911630   2.792   4.832   3.453
    3OL     H9R11631   2.880   4.891   3.475
    3OL    C11011632   2.684   4.839   3.529
    3OL    H10R11633   2.700   4.887   3.625
    3OL    C11111634   2.551   4.776   3.496
    3OL    H11R11635   2.515   4.712   3.578
    3OL    H11S11636   2.547   4.709   3.409
    3OL    C11211637   2.451   4.889   3.467
    3OL    H12R11638   2.371   4.829   3.422
    3OL    H12S11639   2.493   4.964   3.399
    3OL    C11311640   2.399   4.952   3.596
    3OL    H13R11641   2.450   4.910   3.683
    3OL    H13S11642   2.293   4.924   3.599
    3OL    C11411643   2.426   5.103   3.588
    3OL    H14R11644   2.362   5.149   3.663
    3OL    H14S11645   2.394   5.135   3.489
    3OL    C11511646   2.572   5.146   3.611
    3OL    H15R11647   2.639   5.113   3.533
    3OL    H15S11648   2.618   5.091   3.693
    3OL    C11611649   2.593   5.295   3.645
    3OL    H16R11650   2.512   5.352   3.601
    3OL    H16S11651   2.690   5.327   3.607
    3OL    C11711652   2.578   5.330   3.794
    3OL    H17R11653   2.654   5.275   3.851
    3OL    H17S11654   2.480   5.295   3.827
    3OL    C11811655   2.595   5.480   3.819
    3OL    H18R11656   2.603   5.492   3.928
    3OL    H18S11657   2.513   5.543   3.783
    3OL    H18T11658   2.688   5.520   3.778
    1PA    C11611659   5.737   5.528   3.812
    1PA    H16R11660   5.714   5.450   3.885
    1PA    H16S11661   5.658   5.535   3.738
    1PA    H16T11662   5.732   5.622   3.867
    1PA    C11511663   5.879   5.520   3.755
    1PA    H15R11664   5.910   5.620   3.722
    1PA    H15S11665   5.951   5.485   3.830
    1PA    C11411666   5.884   5.420   3.638
    1PA    H14R11667   5.856   5.325   3.685
    1PA    H14S11668   5.798   5.446   3.576
    1PA    C11311669   6.013   5.412   3.556
    1PA    H13R11670   6.103   5.436   3.613
    1PA    H13S11671   6.016   5.311   3.515
    1PA    C11211672   6.001   5.506   3.435
    1PA    H12R11673   5.918   5.473   3.372
    1PA    H12S11674   5.975   5.603   3.478
    1PA    C11111675   6.131   5.515   3.354
    1PA    H11R11676   6.212   5.543   3.421
    1PA    H11S11677   6.161   5.420   3.310
    1PA    C11011678   6.122   5.615   3.238
    1PA    H10R11679   6.040   5.596   3.168
    1PA    H10S11680   6.092   5.709   3.286
    1PA     C1911681   6.252   5.632   3.159
    1PA     H9R11682   6.315   5.700   3.217
    1PA     H9S11683   6.297   5.537   3.130
    1PA     C1811684   6.235   5.712   3.028
    1PA     H8R11685   6.185   5.643   2.960
    1PA     H8S11686   6.167   5.794   3.050
    1PA     C1711687   6.361   5.770   2.962
    1PA     H7R11688   6.414   5.838   3.029
    1PA     H7S11689   6.422   5.683   2.937
    1PA     C1611690   6.334   5.843   2.830
    1PA     H6R11691   6.272   5.933   2.841
    1PA     H6S11692   6.431   5.880   2.797
    1PA     C1511693   6.280   5.741   2.730
    1PA     H5R11694   6.314   5.638   2.745
    1PA     H5S11695   6.171   5.735   2.731
    1PA     C1411696   6.318   5.779   2.586
    1PA     H4R11697   6.273   5.875   2.558
    1PA     H4S11698   6.426   5.788   2.572
    1PA     C1311699   6.251   5.674   2.497
    1PA     H3R11700   6.308   5.581   2.501
    1PA     H3S11701   6.148   5.655   2.527
    1PA     C1211702   6.241   5.719   2.350
    1PA     H2R11703   6.204   5.822   2.356
    1PA     H2S11704   6.339   5.725   2.302
    2PC     C1111705   6.148   5.635   2.266
    2PC     O1211706   6.107   5.524   2.296
    2PC     O1111707   6.106   5.702   2.158
    2PC      C111708   6.005   5.649   2.071
    2PC      HR11709   5.978   5.712   1.986
    2PC      HS11710   6.034   5.554   2.026
    2PC      C211711   5.874   5.617   2.144
    2PC      HX11712   5.890   5.537   2.217
    2PC      C311713   5.766   5.561   2.051
    2PC      HA11714   5.800   5.472   1.998
    2PC      HB11715   5.674   5.549   2.108
    2PC     O3111716   5.736   5.656   1.947
    2PC     P3111717   5.671   5.604   1.810
    2PC     O3211718   5.527   5.675   1.806
    2PC     C3111719   5.443   5.672   1.922
    2PC     H1A11720   5.426   5.568   1.952
    2PC     H1B11721   5.483   5.728   2.007
    2PC     C3211722   5.308   5.733   1.882
    2PC     H2A11723   5.241   5.735   1.968
    2PC     H2B11724   5.318   5.838   1.854
    2PC     N3111725   5.227   5.660   1.779
    2PC     C3311726   5.207   5.515   1.812
    2PC     H3A11727   5.300   5.475   1.853
    2PC     H3B11728   5.134   5.515   1.893
    2PC     H3C11729   5.169   5.463   1.724
    2PC     C3411730   5.095   5.728   1.760
    2PC     H4A11731   5.056   5.707   1.660
    2PC     H4B11732   5.027   5.686   1.834
    2PC     H4C11733   5.105   5.836   1.772
    2PC     C3511734   5.303   5.664   1.650
    2PC     H5A11735   5.375   5.583   1.642
    2PC     H5B11736   5.360   5.757   1.641
    2PC     H5C11737   5.242   5.661   1.559
    2PC     O3311738   5.755   5.618   1.689
    2PC     O3411739   5.631   5.461   1.818
    2PC     O2111740   5.826   5.733   2.215
    2PC     C2111741   5.719   5.728   2.296
    2PC     O2211742   5.678   5.622   2.340
    3OL     C1211743   5.662   5.863   2.331
    3OL     H2R11744   5.564   5.881   2.286
    3OL     H2S11745   5.727   5.932   2.277
    3OL     C1311746   5.651   5.900   2.479
    3OL     H3R11747   5.747   5.879   2.528
    3OL     H3S11748   5.580   5.828   2.522
    3OL     C1411749   5.604   6.044   2.502
    3OL     H4R11750   5.506   6.052   2.456
    3OL     H4S11751   5.671   6.112   2.447
    3OL     C1511752   5.600   6.086   2.649
    3OL     H5R11753   5.702   6.081   2.688
    3OL     H5S11754   5.549   6.018   2.718
    3OL     C1611755   5.550   6.231   2.652
    3OL     H6R11756   5.533   6.265   2.754
    3OL     H6S11757   5.454   6.243   2.601
    3OL     C1711758   5.649   6.330   2.590
    3OL     H7R11759   5.646   6.323   2.481
    3OL     H7S11760   5.752   6.310   2.621
    3OL     C1811761   5.603   6.472   2.624
    3OL     H8R11762   5.594   6.483   2.733
    3OL     H8S11763   5.504   6.499   2.586
    3OL     C1911764   5.705   6.563   2.561
    3OL     H9R11765   5.683   6.565   2.454
    3OL    C11011766   5.790   6.646   2.620
    3OL    H10R11767   5.841   6.715   2.553
    3OL    C11111768   5.840   6.653   2.762
    3OL    H11R11769   5.946   6.662   2.786
    3OL    H11S11770   5.805   6.563   2.814
    3OL    C11211771   5.788   6.779   2.833
    3OL    H12R11772   5.682   6.791   2.810
    3OL    H12S11773   5.846   6.863   2.792
    3OL    C11311774   5.800   6.767   2.985
    3OL    H13R11775   5.797   6.861   3.040
    3OL    H13S11776   5.900   6.727   3.003
    3OL    C11411777   5.702   6.671   3.054
    3OL    H14R11778   5.723   6.579   2.999
    3OL    H14S11779   5.599   6.704   3.042
    3OL    C11511780   5.741   6.660   3.202
    3OL    H15R11781   5.742   6.759   3.248
    3OL    H15S11782   5.836   6.606   3.201
    3OL    C11611783   5.640   6.576   3.283
    3OL    H16R11784   5.689   6.536   3.372
    3OL    H16S11785   5.606   6.497   3.216
    3OL    C11711786   5.516   6.652   3.330
    3OL    H17R11787   5.469   6.674   3.235
    3OL    H17S11788   5.552   6.739   3.386
    3OL    C11811789   5.427   6.566   3.421
    3OL    H18R11790   5.482   6.518   3.502
    3OL    H18S11791   5.380   6.486   3.364
    3OL    H18T11792   5.341   6.624   3.457
    1PA    C11611793   4.438   5.034   3.445
    1PA    H16R11794   4.478   4.937   3.414
    1PA    H16S11795   4.330   5.033   3.460
    1PA    H16T11796   4.488   5.088   3.526
    1PA    C11511797   4.463   5.114   3.317
    1PA    H15R11798   4.441   5.060   3.225
    1PA    H15S11799   4.401   5.204   3.317
    1PA    C11411800   4.607   5.163   3.294
    1PA    H14R11801   4.674   5.098   3.350
    1PA    H14S11802   4.629   5.150   3.188
    1PA    C11311803   4.634   5.307   3.339
    1PA    H13R11804   4.619   5.317   3.447
    1PA    H13S11805   4.740   5.329   3.327
    1PA    C11211806   4.562   5.413   3.254
    1PA    H12R11807   4.458   5.420   3.287
    1PA    H12S11808   4.597   5.515   3.269
    1PA    C11111809   4.568   5.394   3.101
    1PA    H11R11810   4.544   5.293   3.068
    1PA    H11S11811   4.475   5.447   3.077
    1PA    C11011812   4.681   5.464   3.025
    1PA    H10R11813   4.698   5.559   3.076
    1PA    H10S11814   4.771   5.403   3.034
    1PA     C1911815   4.632   5.488   2.881
    1PA     H9R11816   4.604   5.388   2.847
    1PA     H9S11817   4.544   5.552   2.881
    1PA     C1811818   4.752   5.536   2.799
    1PA     H8R11819   4.837   5.468   2.790
    1PA     H8S11820   4.714   5.546   2.697
    1PA     C1711821   4.799   5.675   2.844
    1PA     H7R11822   4.712   5.741   2.845
    1PA     H7S11823   4.832   5.668   2.947
    1PA     C1611824   4.910   5.738   2.758
    1PA     H6R11825   4.998   5.673   2.761
    1PA     H6S11826   4.888   5.744   2.651
    1PA     C1511827   4.940   5.883   2.797
    1PA     H5R11828   4.858   5.950   2.770
    1PA     H5S11829   4.947   5.893   2.905
    1PA     C1411830   5.074   5.928   2.737
    1PA     H4R11831   5.113   6.002   2.807
    1PA     H4S11832   5.146   5.847   2.724
    1PA     C1311833   5.067   5.990   2.597
    1PA     H3R11834   5.026   5.921   2.522
    1PA     H3S11835   4.995   6.073   2.603
    1PA     C1211836   5.194   6.056   2.542
    1PA     H2R11837   5.231   6.125   2.618
    1PA     H2S11838   5.275   5.982   2.535
    2PC     C1111839   5.185   6.114   2.403
    2PC     O1211840   5.272   6.183   2.354
    2PC     O1111841   5.064   6.106   2.346
    2PC      C111842   5.038   6.170   2.219
    2PC      HR11843   5.040   6.278   2.239
    2PC      HS11844   5.106   6.144   2.138
    2PC      C211845   4.900   6.133   2.165
    2PC      HX11846   4.887   6.026   2.187
    2PC      C311847   4.893   6.164   2.015
    2PC      HA11848   4.952   6.093   1.956
    2PC      HB11849   4.788   6.153   1.989
    2PC     O3111850   4.946   6.294   1.984
    2PC     P3111851   4.977   6.352   1.837
    2PC     O3211852   4.940   6.507   1.847
    2PC     C3111853   4.802   6.548   1.837
    2PC     H1A11854   4.786   6.569   1.731
    2PC     H1B11855   4.730   6.467   1.855
    2PC     C3211856   4.767   6.663   1.932
    2PC     H2A11857   4.816   6.756   1.901
    2PC     H2B11858   4.659   6.671   1.921
    2PC     N3111859   4.787   6.655   2.080
    2PC     C3311860   4.927   6.675   2.129
    2PC     H3A11861   4.992   6.590   2.112
    2PC     H3B11862   4.971   6.765   2.086
    2PC     H3C11863   4.928   6.700   2.236
    2PC     C3411864   4.713   6.767   2.146
    2PC     H4A11865   4.723   6.764   2.255
    2PC     H4B11866   4.755   6.855   2.097
    2PC     H4C11867   4.608   6.762   2.119
    2PC     C3511868   4.740   6.523   2.134
    2PC     H5A11869   4.769   6.520   2.239
    2PC     H5B11870   4.802   6.448   2.084
    2PC     H5C11871   4.633   6.500   2.124
    2PC     O3311872   5.119   6.334   1.799
    2PC     O3411873   4.895   6.287   1.732
    2PC     O2111874   4.802   6.212   2.234
    2PC     C2111875   4.681   6.156   2.253
    2PC     O2211876   4.630   6.071   2.183
    3OL     C1211877   4.589   6.233   2.345
    3OL     H2R11878   4.532   6.158   2.400
    3OL     H2S11879   4.536   6.299   2.275
    3OL     C1311880   4.673   6.312   2.446
    3OL     H3R11881   4.742   6.382   2.398
    3OL     H3S11882   4.738   6.248   2.504
    3OL     C1411883   4.579   6.392   2.538
    3OL     H4R11884   4.505   6.329   2.589
    3OL     H4S11885   4.525   6.471   2.486
    3OL     C1511886   4.655   6.474   2.643
    3OL     H5R11887   4.735   6.533   2.598
    3OL     H5S11888   4.702   6.401   2.709
    3OL     C1611889   4.563   6.569   2.720
    3OL     H6R11890   4.466   6.522   2.741
    3OL     H6S11891   4.538   6.661   2.666
    3OL     C1711892   4.628   6.599   2.856
    3OL     H7R11893   4.730   6.636   2.843
    3OL     H7S11894   4.631   6.502   2.906
    3OL     C1811895   4.553   6.696   2.948
    3OL     H8R11896   4.446   6.674   2.952
    3OL     H8S11897   4.555   6.803   2.925
    3OL     C1911898   4.598   6.670   3.089
    3OL     H9R11899   4.703   6.691   3.105
    3OL    C11011900   4.530   6.613   3.188
    3OL    H10R11901   4.577   6.596   3.284
    3OL    C11111902   4.395   6.544   3.187
    3OL    H11R11903   4.392   6.440   3.219
    3OL    H11S11904   4.349   6.547   3.088
    3OL    C11211905   4.301   6.628   3.275
    3OL    H12R11906   4.196   6.600   3.270
    3OL    H12S11907   4.306   6.735   3.256
    3OL    C11311908   4.343   6.634   3.423
    3OL    H13R11909   4.435   6.693   3.427
    3OL    H13S11910   4.372   6.536   3.461
    3OL    C11411911   4.240   6.692   3.521
    3OL    H14R11912   4.145   6.638   3.516
    3OL    H14S11913   4.220   6.795   3.488
    3OL    C11511914   4.267   6.698   3.672
    3OL    H15R11915   4.175   6.733   3.719
    3OL    H15S11916   4.331   6.783   3.693
    3OL    C11611917   4.299   6.564   3.739
    3OL    H16R11918   4.389   6.518   3.697
    3OL    H16S11919   4.219   6.494   3.712
    3OL    C11711920   4.319   6.570   3.891
    3OL    H17R11921   4.233   6.611   3.946
    3OL    H17S11922   4.400   6.639   3.916
    3OL    C11811923   4.343   6.427   3.942
    3OL    H18R11924   4.418   6.382   3.876
    3OL    H18S11925   4.252   6.366   3.937
    3OL    H18T11926   4.392   6.431   4.039
    1PA    C11611927   1.986  -0.055   3.755
    1PA    H16R11928   1.981  -0.017   3.857
    1PA    H16S11929   1.953  -0.160   3.754
    1PA    H16T11930   1.918  -0.001   3.689
    1PA    C11511931   2.130  -0.049   3.702
    1PA    H15R11932   2.158   0.056   3.705
    1PA    H15S11933   2.189  -0.101   3.777
    1PA    C11411934   2.154  -0.120   3.569
    1PA    H14R11935   2.140  -0.228   3.581
    1PA    H14S11936   2.079  -0.092   3.495
    1PA    C11311937   2.298  -0.096   3.521
    1PA    H13R11938   2.371  -0.089   3.602
    1PA    H13S11939   2.324  -0.183   3.461
    1PA    C11211940   2.310   0.034   3.441
    1PA    H12R11941   2.220   0.051   3.381
    1PA    H12S11942   2.326   0.120   3.507
    1PA    C11111943   2.425   0.014   3.342
    1PA    H11R11944   2.408  -0.083   3.296
    1PA    H11S11945   2.411   0.084   3.259
    1PA    C11011946   2.568   0.034   3.395
    1PA    H10R11947   2.594   0.126   3.448
    1PA    H10S11948   2.589  -0.035   3.476
    1PA     C1911949   2.667  -0.015   3.288
    1PA     H9R11950   2.765  -0.042   3.329
    1PA     H9S11951   2.625  -0.111   3.257
    1PA     C1811952   2.682   0.073   3.163
    1PA     H8R11953   2.651   0.170   3.201
    1PA     H8S11954   2.789   0.075   3.140
    1PA     C1711955   2.592   0.018   3.052
    1PA     H7R11956   2.641  -0.072   3.013
    1PA     H7S11957   2.487  -0.007   3.068
    1PA     C1611958   2.589   0.120   2.937
    1PA     H6R11959   2.687   0.165   2.916
    1PA     H6S11960   2.550   0.075   2.845
    1PA     C1511961   2.494   0.239   2.957
    1PA     H5R11962   2.393   0.203   2.979
    1PA     H5S11963   2.531   0.289   3.047
    1PA     C1411964   2.490   0.340   2.842
    1PA     H4R11965   2.435   0.420   2.891
    1PA     H4S11966   2.591   0.376   2.821
    1PA     C1311967   2.427   0.292   2.710
    1PA     H3R11968   2.491   0.208   2.682
    1PA     H3S11969   2.327   0.259   2.738
    1PA     C1211970   2.428   0.402   2.603
    1PA     H2R11971   2.365   0.488   2.628
    1PA     H2S11972   2.530   0.435   2.583
    2PC     C1111973   2.372   0.353   2.472
    2PC     O1211974   2.318   0.430   2.395
    2PC     O1111975   2.397   0.223   2.451
    2PC      C111976   2.341   0.156   2.336
    2PC      HR11977   2.235   0.179   2.342
    2PC      HS11978   2.382   0.188   2.240
    2PC      C211979   2.365   0.004   2.336
    2PC      HX11980   2.473  -0.016   2.336
    2PC      C311981   2.304  -0.060   2.211
    2PC      HA11982   2.374  -0.043   2.128
    2PC      HB11983   2.276  -0.164   2.230
    2PC     O3111984   2.184   0.014   2.184
    2PC     P3111985   2.091  -0.017   2.057
    2PC     O3211986   2.206  -0.008   1.946
    2PC     C3111987   2.264   0.117   1.905
    2PC     H1A11988   2.191   0.184   1.859
    2PC     H1B11989   2.296   0.172   1.993
    2PC     C3211990   2.385   0.095   1.813
    2PC     H2A11991   2.419   0.193   1.780
    2PC     H2B11992   2.474   0.051   1.859
    2PC     N3111993   2.370   0.029   1.679
    2PC     C3311994   2.496   0.055   1.602
    2PC     H3A11995   2.581   0.045   1.670
    2PC     H3B11996   2.508  -0.025   1.530
    2PC     H3C11997   2.489   0.145   1.542
    2PC     C3411998   2.356  -0.119   1.697
    2PC     H4A11999   2.330  -0.164   1.602
    2PC     H4B12000   2.459  -0.151   1.715
    2PC     H4C12001   2.295  -0.139   1.785
    2PC     C3512002   2.244   0.073   1.610
    2PC     H5A12003   2.238   0.032   1.509
    2PC     H5B12004   2.241   0.182   1.601
    2PC     H5C12005   2.155   0.050   1.669
    2PC     O3312006   2.033  -0.153   2.050
    2PC     O3412007   1.975   0.075   2.044
    2PC     O2112008   2.306  -0.056   2.453
    2PC     C2112009   2.379  -0.083   2.562
    2PC     O2212010   2.498  -0.064   2.576
    3OL     C1212011   2.283  -0.139   2.665
    3OL     H2R12012   2.310  -0.242   2.691
    3OL     H2S12013   2.179  -0.127   2.634
    3OL     C1312014   2.296  -0.053   2.791
    3OL     H3R12015   2.302   0.051   2.759
    3OL     H3S12016   2.394  -0.070   2.836
    3OL     C1412017   2.175  -0.075   2.883
    3OL     H4R12018   2.197  -0.173   2.925
    3OL     H4S12019   2.080  -0.067   2.831
    3OL     C1512020   2.175   0.036   2.989
    3OL     H5R12021   2.165   0.134   2.941
    3OL     H5S12022   2.273   0.034   3.038
    3OL     C1612023   2.071   0.017   3.100
    3OL     H6R12024   2.097   0.085   3.181
    3OL     H6S12025   2.078  -0.089   3.125
    3OL     C1712026   1.937   0.068   3.043
    3OL     H7R12027   1.912   0.031   2.944
    3OL     H7S12028   1.955   0.175   3.035
    3OL     C1812029   1.815   0.042   3.133
    3OL     H8R12030   1.728   0.079   3.078
    3OL     H8S12031   1.826   0.103   3.223
    3OL     C1912032   1.786  -0.104   3.156
    3OL     H9R12033   1.833  -0.174   3.087
    3OL    C11012034   1.740  -0.153   3.270
    3OL    H10R12035   1.744  -0.260   3.289
    3OL    C11112036   1.667  -0.081   3.380
    3OL    H11R12037   1.559  -0.100   3.383
    3OL    H11S12038   1.659   0.023   3.346
    3OL    C11212039   1.732  -0.091   3.519
    3OL    H12R12040   1.837  -0.062   3.519
    3OL    H12S12041   1.724  -0.198   3.538
    3OL    C11312042   1.661  -0.008   3.626
    3OL    H13R12043   1.661   0.097   3.595
    3OL    H13S12044   1.718  -0.006   3.719
    3OL    C11412045   1.516  -0.054   3.650
    3OL    H14R12046   1.520  -0.156   3.688
    3OL    H14S12047   1.457  -0.055   3.558
    3OL    C11512048   1.440   0.041   3.742
    3OL    H15R12049   1.341   0.004   3.769
    3OL    H15S12050   1.430   0.134   3.686
    3OL    C11612051   1.512   0.083   3.871
    3OL    H16R12052   1.449   0.159   3.919
    3OL    H16S12053   1.604   0.138   3.853
    3OL    C11712054   1.542  -0.038   3.960
    3OL    H17R12055   1.644  -0.010   3.988
    3OL    H17S12056   1.535  -0.126   3.896
    3OL    C11812057   1.456  -0.047   4.087
    3OL    H18R12058   1.359  -0.084   4.053
    3OL    H18S12059   1.442   0.052   4.133
    3OL    H18T12060   1.492  -0.124   4.154
    1PA    C11612061   3.656   5.293   4.048
    1PA    H16R12062   3.747   5.242   4.081
    1PA    H16S12063   3.587   5.277   4.131
    1PA    H16T12064   3.697   5.394   4.043
    1PA    C11512065   3.611   5.245   3.909
    1PA    H15R12066   3.621   5.137   3.899
    1PA    H15S12067   3.507   5.272   3.891
    1PA    C11412068   3.690   5.315   3.797
    1PA    H14R12069   3.657   5.419   3.786
    1PA    H14S12070   3.794   5.302   3.828
    1PA    C11312071   3.670   5.252   3.659
    1PA    H13R12072   3.722   5.156   3.653
    1PA    H13S12073   3.566   5.239   3.628
    1PA    C11212074   3.738   5.349   3.562
    1PA    H12R12075   3.671   5.435   3.559
    1PA    H12S12076   3.838   5.380   3.593
    1PA    C11112077   3.742   5.288   3.421
    1PA    H11R12078   3.807   5.355   3.363
    1PA    H11S12079   3.792   5.191   3.418
    1PA    C11012080   3.604   5.264   3.356
    1PA    H10R12081   3.565   5.173   3.401
    1PA    H10S12082   3.541   5.347   3.387
    1PA     C1912083   3.601   5.242   3.204
    1PA     H9R12084   3.501   5.248   3.161
    1PA     H9S12085   3.657   5.331   3.176
    1PA     C1812086   3.664   5.108   3.164
    1PA     H8R12087   3.770   5.107   3.191
    1PA     H8S12088   3.612   5.028   3.217
    1PA     C1712089   3.642   5.083   3.014
    1PA     H7R12090   3.674   4.984   2.982
    1PA     H7S12091   3.535   5.096   2.995
    1PA     C1612092   3.722   5.177   2.922
    1PA     H6R12093   3.697   5.276   2.961
    1PA     H6S12094   3.829   5.155   2.920
    1PA     C1512095   3.681   5.164   2.775
    1PA     H5R12096   3.680   5.059   2.746
    1PA     H5S12097   3.580   5.203   2.761
    1PA     C1412098   3.770   5.255   2.689
    1PA     H4R12099   3.757   5.359   2.718
    1PA     H4S12100   3.873   5.224   2.707
    1PA     C1312101   3.726   5.238   2.543
    1PA     H3R12102   3.721   5.133   2.514
    1PA     H3S12103   3.622   5.271   2.537
    1PA     C1212104   3.819   5.307   2.442
    1PA     H2R12105   3.830   5.411   2.474
    1PA     H2S12106   3.916   5.258   2.446
    2PC     C1112107   3.754   5.303   2.306
    2PC     O1212108   3.747   5.208   2.231
    2PC     O1112109   3.694   5.420   2.278
    2PC      C112110   3.661   5.468   2.146
    2PC      HR12111   3.644   5.575   2.157
    2PC      HS12112   3.746   5.457   2.078
    2PC      C212113   3.532   5.402   2.097
    2PC      HX12114   3.538   5.293   2.096
    2PC      C312115   3.492   5.460   1.961
    2PC      HA12116   3.468   5.566   1.967
    2PC      HB12117   3.571   5.451   1.886
    2PC     O3112118   3.383   5.377   1.915
    2PC     P3112119   3.317   5.419   1.775
    2PC     O3212120   3.329   5.280   1.697
    2PC     C3112121   3.435   5.255   1.603
    2PC     H1A12122   3.457   5.344   1.543
    2PC     H1B12123   3.530   5.244   1.657
    2PC     C3212124   3.416   5.138   1.506
    2PC     H2A12125   3.509   5.136   1.449
    2PC     H2B12126   3.397   5.042   1.556
    2PC     N3112127   3.309   5.152   1.403
    2PC     C3312128   3.318   5.275   1.317
    2PC     H3A12129   3.251   5.262   1.232
    2PC     H3B12130   3.287   5.358   1.381
    2PC     H3C12131   3.423   5.288   1.290
    2PC     C3412132   3.325   5.030   1.317
    2PC     H4A12133   3.327   4.945   1.385
    2PC     H4B12134   3.238   5.035   1.251
    2PC     H4C12135   3.427   5.031   1.277
    2PC     C3512136   3.170   5.143   1.457
    2PC     H5A12137   3.141   5.242   1.494
    2PC     H5B12138   3.166   5.075   1.542
    2PC     H5C12139   3.101   5.122   1.375
    2PC     O3312140   3.177   5.465   1.793
    2PC     O3412141   3.388   5.520   1.693
    2PC     O2112142   3.435   5.432   2.199
    2PC     C2112143   3.346   5.340   2.239
    2PC     O2212144   3.356   5.221   2.216
    3OL     C1212145   3.235   5.396   2.325
    3OL     H2R12146   3.136   5.373   2.286
    3OL     H2S12147   3.247   5.504   2.317
    3OL     C1312148   3.248   5.355   2.472
    3OL     H3R12149   3.251   5.246   2.480
    3OL     H3S12150   3.150   5.378   2.513
    3OL     C1412151   3.358   5.422   2.556
    3OL     H4R12152   3.322   5.525   2.561
    3OL     H4S12153   3.453   5.421   2.502
    3OL     C1512154   3.362   5.371   2.700
    3OL     H5R12155   3.461   5.385   2.743
    3OL     H5S12156   3.340   5.265   2.686
    3OL     C1612157   3.253   5.431   2.790
    3OL     H6R12158   3.158   5.393   2.752
    3OL     H6S12159   3.255   5.540   2.787
    3OL     C1712160   3.277   5.390   2.936
    3OL     H7R12161   3.372   5.430   2.971
    3OL     H7S12162   3.297   5.282   2.934
    3OL     C1812163   3.164   5.428   3.032
    3OL     H8R12164   3.065   5.400   2.997
    3OL     H8S12165   3.168   5.537   3.028
    3OL     C1912166   3.202   5.375   3.168
    3OL     H9R12167   3.248   5.455   3.226
    3OL    C11012168   3.176   5.257   3.221
    3OL    H10R12169   3.193   5.243   3.328
    3OL    C11112170   3.126   5.136   3.146
    3OL    H11R12171   3.195   5.058   3.181
    3OL    H11S12172   3.154   5.149   3.041
    3OL    C11212173   2.980   5.106   3.180
    3OL    H12R12174   2.967   5.115   3.288
    3OL    H12S12175   2.958   5.003   3.149
    3OL    C11312176   2.891   5.217   3.122
    3OL    H13R12177   2.910   5.206   3.015
    3OL    H13S12178   2.917   5.312   3.169
    3OL    C11412179   2.744   5.183   3.150
    3OL    H14R12180   2.728   5.162   3.256
    3OL    H14S12181   2.724   5.090   3.095
    3OL    C11512182   2.639   5.286   3.104
    3OL    H15R12183   2.636   5.295   2.996
    3OL    H15S12184   2.673   5.381   3.147
    3OL    C11612185   2.497   5.266   3.158
    3OL    H16R12186   2.441   5.356   3.132
    3OL    H16S12187   2.505   5.262   3.267
    3OL    C11712188   2.430   5.136   3.111
    3OL    H17R12189   2.491   5.046   3.119
    3OL    H17S12190   2.413   5.137   3.003
    3OL    C11812191   2.296   5.118   3.184
    3OL    H18R12192   2.225   5.190   3.142
    3OL    H18S12193   2.313   5.140   3.289
    3OL    H18T12194   2.253   5.018   3.178
    1PA    C11612195   4.389   2.232   4.245
    1PA    H16R12196   4.284   2.259   4.260
    1PA    H16S12197   4.444   2.320   4.281
    1PA    H16T12198   4.411   2.140   4.298
    1PA    C11512199   4.406   2.214   4.094
    1PA    H15R12200   4.324   2.171   4.036
    1PA    H15S12201   4.420   2.309   4.043
    1PA    C11412202   4.529   2.126   4.065
    1PA    H14R12203   4.611   2.154   4.132
    1PA    H14S12204   4.497   2.025   4.092
    1PA    C11312205   4.585   2.124   3.922
    1PA    H13R12206   4.649   2.036   3.918
    1PA    H13S12207   4.497   2.095   3.864
    1PA    C11212208   4.635   2.256   3.861
    1PA    H12R12209   4.551   2.326   3.860
    1PA    H12S12210   4.722   2.293   3.916
    1PA    C11112211   4.679   2.231   3.716
    1PA    H11R12212   4.780   2.189   3.715
    1PA    H11S12213   4.619   2.154   3.668
    1PA    C11012214   4.668   2.355   3.625
    1PA    H10R12215   4.561   2.377   3.619
    1PA    H10S12216   4.704   2.434   3.690
    1PA     C1912217   4.755   2.340   3.500
    1PA     H9R12218   4.854   2.302   3.527
    1PA     H9S12219   4.713   2.264   3.434
    1PA     C1812220   4.753   2.466   3.412
    1PA     H8R12221   4.648   2.486   3.391
    1PA     H8S12222   4.785   2.544   3.482
    1PA     C1712223   4.843   2.463   3.287
    1PA     H7R12224   4.874   2.566   3.274
    1PA     H7S12225   4.918   2.387   3.311
    1PA     C1612226   4.765   2.431   3.159
    1PA     H6R12227   4.714   2.335   3.172
    1PA     H6S12228   4.685   2.504   3.152
    1PA     C1512229   4.851   2.435   3.032
    1PA     H5R12230   4.888   2.535   3.012
    1PA     H5S12231   4.933   2.363   3.038
    1PA     C1412232   4.758   2.407   2.913
    1PA     H4R12233   4.722   2.304   2.914
    1PA     H4S12234   4.674   2.476   2.921
    1PA     C1312235   4.818   2.436   2.775
    1PA     H3R12236   4.849   2.538   2.752
    1PA     H3S12237   4.913   2.385   2.758
    1PA     C1212238   4.722   2.402   2.660
    1PA     H2R12239   4.684   2.300   2.671
    1PA     H2S12240   4.643   2.477   2.664
    2PC     C1112241   4.791   2.414   2.526
    2PC     O1212242   4.769   2.348   2.426
    2PC     O1112243   4.879   2.515   2.523
    2PC      C112244   4.964   2.540   2.410
    2PC      HR12245   5.058   2.587   2.440
    2PC      HS12246   4.980   2.441   2.367
    2PC      C212247   4.889   2.632   2.314
    2PC      HX12248   4.786   2.598   2.315
    2PC      C312249   4.932   2.628   2.166
    2PC      HA12250   5.033   2.669   2.165
    2PC      HB12251   4.932   2.522   2.139
    2PC     O3112252   4.849   2.715   2.088
    2PC     P3112253   4.858   2.701   1.928
    2PC     O3212254   4.795   2.842   1.885
    2PC     C3112255   4.747   2.852   1.750
    2PC     H1A12256   4.779   2.775   1.680
    2PC     H1B12257   4.638   2.848   1.751
    2PC     C3212258   4.774   2.994   1.698
    2PC     H2A12259   4.722   2.996   1.602
    2PC     H2B12260   4.717   3.067   1.756
    2PC     N3112261   4.915   3.032   1.664
    2PC     C3312262   5.001   3.026   1.786
    2PC     H3A12263   4.952   3.082   1.866
    2PC     H3B12264   5.015   2.921   1.810
    2PC     H3C12265   5.101   3.069   1.773
    2PC     C3412266   4.977   2.955   1.550
    2PC     H4A12267   5.069   3.009   1.525
    2PC     H4B12268   5.001   2.853   1.579
    2PC     H4C12269   4.915   2.958   1.461
    2PC     C3512270   4.928   3.175   1.623
    2PC     H5A12271   4.906   3.183   1.516
    2PC     H5B12272   5.033   3.200   1.638
    2PC     H5C12273   4.857   3.226   1.688
    2PC     O3312274   4.987   2.675   1.860
    2PC     O3412275   4.764   2.597   1.881
    2PC     O2112276   4.909   2.766   2.364
    2PC     C2112277   4.796   2.839   2.366
    2PC     O2212278   4.686   2.791   2.351
    3OL     C1212279   4.826   2.986   2.385
    3OL     H2R12280   4.854   3.025   2.287
    3OL     H2S12281   4.904   2.989   2.461
    3OL     C1312282   4.705   3.072   2.426
    3OL     H3R12283   4.637   3.061   2.342
    3OL     H3S12284   4.732   3.175   2.448
    3OL     C1412285   4.624   3.017   2.544
    3OL     H4R12286   4.605   2.910   2.535
    3OL     H4S12287   4.528   3.069   2.541
    3OL     C1512288   4.695   3.062   2.672
    3OL     H5R12289   4.666   3.166   2.688
    3OL     H5S12290   4.803   3.048   2.665
    3OL     C1612291   4.635   2.975   2.784
    3OL     H6R12292   4.526   2.964   2.785
    3OL     H6S12293   4.658   3.031   2.874
    3OL     C1712294   4.705   2.839   2.786
    3OL     H7R12295   4.814   2.852   2.788
    3OL     H7S12296   4.689   2.787   2.691
    3OL     C1812297   4.656   2.750   2.901
    3OL     H8R12298   4.694   2.796   2.993
    3OL     H8S12299   4.704   2.652   2.892
    3OL     C1912300   4.506   2.743   2.906
    3OL     H9R12301   4.456   2.700   2.819
    3OL    C11012302   4.426   2.781   3.004
    3OL    H10R12303   4.319   2.768   2.989
    3OL    C11112304   4.454   2.853   3.134
    3OL    H11R12305   4.383   2.936   3.130
    3OL    H11S12306   4.548   2.909   3.140
    3OL    C11212307   4.444   2.760   3.255
    3OL    H12R12308   4.518   2.679   3.246
    3OL    H12S12309   4.345   2.715   3.248
    3OL    C11312310   4.456   2.833   3.390
    3OL    H13R12311   4.541   2.900   3.379
    3OL    H13S12312   4.478   2.751   3.459
    3OL    C11412313   4.334   2.921   3.421
    3OL    H14R12314   4.245   2.858   3.432
    3OL    H14S12315   4.313   2.990   3.339
    3OL    C11512316   4.351   3.006   3.548
    3OL    H15R12317   4.382   2.953   3.639
    3OL    H15S12318   4.258   3.060   3.563
    3OL    C11612319   4.456   3.113   3.515
    3OL    H16R12320   4.427   3.149   3.417
    3OL    H16S12321   4.550   3.060   3.498
    3OL    C11712322   4.468   3.213   3.631
    3OL    H17R12323   4.498   3.160   3.722
    3OL    H17S12324   4.374   3.269   3.638
    3OL    C11812325   4.582   3.307   3.591
    3OL    H18R12326   4.587   3.381   3.671
    3OL    H18S12327   4.564   3.365   3.500
    3OL    H18T12328   4.675   3.251   3.580
    1PA    C11612329   5.668   3.146   4.227
    1PA    H16R12330   5.573   3.199   4.243
    1PA    H16S12331   5.749   3.216   4.206
    1PA    H16T12332   5.691   3.099   4.323
    1PA    C11512333   5.658   3.039   4.118
    1PA    H15R12334   5.571   2.974   4.133
    1PA    H15S12335   5.642   3.098   4.027
    1PA    C11412336   5.790   2.964   4.099
    1PA    H14R12337   5.871   3.035   4.079
    1PA    H14S12338   5.820   2.924   4.196
    1PA    C11312339   5.778   2.859   3.988
    1PA    H13R12340   5.860   2.786   3.992
    1PA    H13S12341   5.684   2.806   4.001
    1PA    C11212342   5.786   2.911   3.844
    1PA    H12R12343   5.703   2.978   3.820
    1PA    H12S12344   5.872   2.978   3.831
    1PA    C11112345   5.793   2.797   3.741
    1PA    H11R12346   5.876   2.734   3.774
    1PA    H11S12347   5.694   2.755   3.754
    1PA    C11012348   5.812   2.853   3.599
    1PA    H10R12349   5.755   2.943   3.579
    1PA    H10S12350   5.913   2.888   3.576
    1PA     C1912351   5.772   2.750   3.492
    1PA     H9R12352   5.842   2.667   3.483
    1PA     H9S12353   5.674   2.707   3.515
    1PA     C1812354   5.770   2.817   3.354
    1PA     H8R12355   5.700   2.900   3.357
    1PA     H8S12356   5.863   2.866   3.324
    1PA     C1712357   5.750   2.718   3.238
    1PA     H7R12358   5.845   2.667   3.222
    1PA     H7S12359   5.678   2.643   3.270
    1PA     C1612360   5.703   2.784   3.108
    1PA     H6R12361   5.621   2.850   3.136
    1PA     H6S12362   5.787   2.840   3.065
    1PA     C1512363   5.654   2.683   3.003
    1PA     H5R12364   5.584   2.611   3.048
    1PA     H5S12365   5.612   2.736   2.918
    1PA     C1412366   5.765   2.594   2.945
    1PA     H4R12367   5.839   2.658   2.898
    1PA     H4S12368   5.816   2.535   3.022
    1PA     C1312369   5.719   2.491   2.840
    1PA     H3R12370   5.653   2.544   2.771
    1PA     H3S12371   5.796   2.452   2.773
    1PA     C1212372   5.659   2.366   2.905
    1PA     H2R12373   5.723   2.315   2.978
    1PA     H2S12374   5.570   2.398   2.960
    2PC     C1112375   5.618   2.267   2.800
    2PC     O1212376   5.684   2.166   2.783
    2PC     O1112377   5.502   2.297   2.739
    2PC      C112378   5.456   2.204   2.639
    2PC      HR12379   5.546   2.189   2.578
    2PC      HS12380   5.437   2.110   2.691
    2PC      C212381   5.338   2.251   2.552
    2PC      HX12382   5.352   2.188   2.463
    2PC      C312383   5.343   2.402   2.524
    2PC      HA12384   5.327   2.467   2.610
    2PC      HB12385   5.444   2.427   2.490
    2PC     O3112386   5.260   2.433   2.411
    2PC     P3112387   5.314   2.402   2.264
    2PC     O3212388   5.262   2.533   2.187
    2PC     C3112389   5.313   2.559   2.055
    2PC     H1A12390   5.421   2.549   2.045
    2PC     H1B12391   5.261   2.488   1.990
    2PC     C3212392   5.267   2.704   2.031
    2PC     H2A12393   5.305   2.726   1.931
    2PC     H2B12394   5.159   2.714   2.019
    2PC     N3112395   5.313   2.811   2.124
    2PC     C3312396   5.447   2.792   2.188
    2PC     H3A12397   5.438   2.703   2.250
    2PC     H3B12398   5.523   2.788   2.110
    2PC     H3C12399   5.469   2.872   2.260
    2PC     C3412400   5.318   2.943   2.052
    2PC     H4A12401   5.218   2.976   2.027
    2PC     H4B12402   5.363   3.023   2.112
    2PC     H4C12403   5.379   2.943   1.961
    2PC     C3512404   5.212   2.835   2.233
    2PC     H5A12405   5.259   2.911   2.296
    2PC     H5B12406   5.197   2.742   2.288
    2PC     H5C12407   5.123   2.875   2.184
    2PC     O3312408   5.462   2.395   2.262
    2PC     O3412409   5.261   2.276   2.208
    2PC     O2112410   5.214   2.233   2.623
    2PC     C2112411   5.170   2.108   2.645
    2PC     O2212412   5.226   2.004   2.616
    3OL     C1212413   5.038   2.111   2.718
    3OL     H2R12414   4.973   2.186   2.672
    3OL     H2S12415   5.064   2.144   2.819
    3OL     C1312416   4.972   1.973   2.712
    3OL     H3R12417   5.046   1.901   2.750
    3OL     H3S12418   4.940   1.956   2.609
    3OL     C1412419   4.857   1.975   2.814
    3OL     H4R12420   4.799   1.885   2.791
    3OL     H4S12421   4.791   2.059   2.791
    3OL     C1512422   4.897   1.957   2.961
    3OL     H5R12423   4.967   2.034   2.994
    3OL     H5S12424   4.935   1.857   2.984
    3OL     C1612425   4.774   1.971   3.052
    3OL     H6R12426   4.685   1.920   3.016
    3OL     H6S12427   4.754   2.078   3.065
    3OL     C1712428   4.804   1.933   3.197
    3OL     H7R12429   4.830   1.827   3.206
    3OL     H7S12430   4.717   1.930   3.262
    3OL     C1812431   4.918   2.017   3.256
    3OL     H8R12432   4.886   2.121   3.263
    3OL     H8S12433   5.010   2.004   3.198
    3OL     C1912434   4.939   1.984   3.402
    3OL     H9R12435   4.866   2.011   3.479
    3OL    C11012436   5.033   1.907   3.453
    3OL    H10R12437   5.034   1.877   3.558
    3OL    C11112438   5.160   1.867   3.382
    3OL    H11R12439   5.138   1.835   3.279
    3OL    H11S12440   5.210   1.789   3.440
    3OL    C11212441   5.250   1.990   3.365
    3OL    H12R12442   5.242   2.049   3.457
    3OL    H12S12443   5.211   2.059   3.289
    3OL    C11312444   5.397   1.953   3.339
    3OL    H13R12445   5.394   1.869   3.270
    3OL    H13S12446   5.449   1.918   3.428
    3OL    C11412447   5.470   2.072   3.274
    3OL    H14R12448   5.401   2.130   3.212
    3OL    H14S12449   5.545   2.047   3.199
    3OL    C11512450   5.537   2.162   3.378
    3OL    H15R12451   5.606   2.095   3.430
    3OL    H15S12452   5.472   2.194   3.460
    3OL    C11612453   5.603   2.285   3.314
    3OL    H16R12454   5.523   2.334   3.258
    3OL    H16S12455   5.681   2.250   3.246
    3OL    C11712456   5.671   2.383   3.411
    3OL    H17R12457   5.616   2.399   3.504
    3OL    H17S12458   5.690   2.476   3.356
    3OL    C11812459   5.807   2.333   3.461
    3OL    H18R12460   5.798   2.247   3.527
    3OL    H18S12461   5.860   2.411   3.517
    3OL    H18T12462   5.874   2.311   3.378
    1PA    C11612463   0.973   2.300   3.747
    1PA    H16R12464   0.927   2.215   3.798
    1PA    H16S12465   1.001   2.261   3.649
    1PA    H16T12466   0.901   2.381   3.730
    1PA    C11512467   1.096   2.352   3.823
    1PA    H15R12468   1.167   2.415   3.769
    1PA    H15S12469   1.069   2.413   3.909
    1PA    C11412470   1.169   2.231   3.884
    1PA    H14R12471   1.243   2.276   3.949
    1PA    H14S12472   1.101   2.180   3.953
    1PA    C11312473   1.234   2.139   3.779
    1PA    H13R12474   1.251   2.042   3.825
    1PA    H13S12475   1.174   2.117   3.691
    1PA    C11212476   1.367   2.194   3.727
    1PA    H12R12477   1.355   2.302   3.716
    1PA    H12S12478   1.444   2.172   3.802
    1PA    C11112479   1.399   2.118   3.597
    1PA    H11R12480   1.406   2.010   3.609
    1PA    H11S12481   1.315   2.120   3.527
    1PA    C11012482   1.530   2.169   3.535
    1PA    H10R12483   1.531   2.274   3.505
    1PA    H10S12484   1.613   2.153   3.604
    1PA     C1912485   1.567   2.085   3.412
    1PA     H9R12486   1.566   1.977   3.432
    1PA     H9S12487   1.494   2.101   3.333
    1PA     C1812488   1.706   2.115   3.355
    1PA     H8R12489   1.719   2.223   3.361
    1PA     H8S12490   1.786   2.080   3.421
    1PA     C1712491   1.717   2.082   3.206
    1PA     H7R12492   1.703   1.976   3.186
    1PA     H7S12493   1.641   2.139   3.151
    1PA     C1612494   1.856   2.133   3.167
    1PA     H6R12495   1.876   2.235   3.202
    1PA     H6S12496   1.936   2.067   3.203
    1PA     C1512497   1.873   2.131   3.015
    1PA     H5R12498   1.842   2.032   2.980
    1PA     H5S12499   1.806   2.207   2.974
    1PA     C1412500   2.021   2.145   2.977
    1PA     H4R12501   2.064   2.241   3.005
    1PA     H4S12502   2.076   2.064   3.025
    1PA     C1312503   2.044   2.147   2.825
    1PA     H3R12504   2.150   2.160   2.802
    1PA     H3S12505   2.027   2.043   2.797
    1PA     C1212506   1.951   2.243   2.748
    1PA     H2R12507   1.851   2.205   2.767
    1PA     H2S12508   1.968   2.345   2.783
    2PC     C1112509   1.984   2.239   2.601
    2PC     O1212510   2.096   2.240   2.554
    2PC     O1112511   1.877   2.245   2.521
    2PC      C112512   1.898   2.258   2.379
    2PC      HR12513   1.800   2.281   2.337
    2PC      HS12514   1.964   2.342   2.355
    2PC      C212515   1.941   2.121   2.324
    2PC      HX12516   2.042   2.098   2.359
    2PC      C312517   1.950   2.130   2.171
    2PC      HA12518   1.854   2.147   2.123
    2PC      HB12519   2.019   2.211   2.143
    2PC     O3112520   1.999   2.003   2.125
    2PC     P3112521   1.975   1.966   1.971
    2PC     O3212522   2.068   1.837   1.960
    2PC     C3112523   2.195   1.850   1.894
    2PC     H1A12524   2.185   1.886   1.792
    2PC     H1B12525   2.258   1.921   1.949
    2PC     C3212526   2.264   1.713   1.896
    2PC     H2A12527   2.287   1.690   2.000
    2PC     H2B12528   2.185   1.640   1.875
    2PC     N3112529   2.381   1.686   1.807
    2PC     C3312530   2.428   1.544   1.823
    2PC     H3A12531   2.449   1.534   1.930
    2PC     H3B12532   2.348   1.480   1.787
    2PC     H3C12533   2.518   1.527   1.764
    2PC     C3412534   2.355   1.697   1.659
    2PC     H4A12535   2.277   1.626   1.631
    2PC     H4B12536   2.327   1.799   1.636
    2PC     H4C12537   2.445   1.666   1.605
    2PC     C3512538   2.492   1.780   1.846
    2PC     H5A12539   2.510   1.773   1.953
    2PC     H5B12540   2.469   1.886   1.839
    2PC     H5C12541   2.580   1.769   1.783
    2PC     O3312542   1.833   1.946   1.932
    2PC     O3412543   2.028   2.069   1.879
    2PC     O2112544   1.843   2.027   2.369
    2PC     C2112545   1.846   1.962   2.487
    2PC     O2212546   1.940   1.959   2.563
    3OL     C1212547   1.713   1.895   2.508
    3OL     H2R12548   1.739   1.802   2.560
    3OL     H2S12549   1.660   1.880   2.414
    3OL     C1312550   1.624   1.979   2.602
    3OL     H3R12551   1.676   2.009   2.693
    3OL     H3S12552   1.544   1.911   2.632
    3OL     C1412553   1.565   2.098   2.526
    3OL     H4R12554   1.503   2.066   2.442
    3OL     H4S12555   1.641   2.159   2.478
    3OL     C1512556   1.487   2.205   2.605
    3OL     H5R12557   1.398   2.159   2.648
    3OL     H5S12558   1.450   2.291   2.549
    3OL     C1612559   1.568   2.261   2.722
    3OL     H6R12560   1.659   2.286   2.667
    3OL     H6S12561   1.589   2.188   2.801
    3OL     C1712562   1.507   2.391   2.778
    3OL     H7R12563   1.409   2.373   2.823
    3OL     H7S12564   1.498   2.455   2.690
    3OL     C1812565   1.593   2.457   2.885
    3OL     H8R12566   1.697   2.462   2.853
    3OL     H8S12567   1.587   2.404   2.980
    3OL     C1912568   1.557   2.602   2.907
    3OL     H9R12569   1.524   2.647   2.813
    3OL    C11012570   1.554   2.675   3.017
    3OL    H10R12571   1.512   2.774   3.003
    3OL    C11112572   1.602   2.646   3.157
    3OL    H11R12573   1.525   2.583   3.202
    3OL    H11S12574   1.610   2.743   3.207
    3OL    C11212575   1.727   2.559   3.176
    3OL    H12R12576   1.716   2.452   3.158
    3OL    H12S12577   1.739   2.556   3.285
    3OL    C11312578   1.846   2.620   3.101
    3OL    H13R12579   1.877   2.707   3.160
    3OL    H13S12580   1.830   2.642   2.995
    3OL    C11412581   1.967   2.526   3.109
    3OL    H14R12582   1.931   2.430   3.072
    3OL    H14S12583   1.999   2.510   3.212
    3OL    C11512584   2.089   2.569   3.026
    3OL    H15R12585   2.049   2.595   2.928
    3OL    H15S12586   2.147   2.477   3.013
    3OL    C11612587   2.180   2.677   3.085
    3OL    H16R12588   2.125   2.758   3.133
    3OL    H16S12589   2.243   2.719   3.006
    3OL    C11712590   2.276   2.614   3.186
    3OL    H17R12591   2.336   2.546   3.125
    3OL    H17S12592   2.222   2.546   3.253
    3OL    C11812593   2.369   2.702   3.271
    3OL    H18R12594   2.409   2.787   3.216
    3OL    H18S12595   2.454   2.643   3.303
    3OL    H18T12596   2.320   2.756   3.352
    1PA    C11612597   1.202   1.381   3.540
    1PA    H16R12598   1.292   1.430   3.577
    1PA    H16S12599   1.220   1.347   3.437
    1PA    H16T12600   1.183   1.289   3.596
    1PA    C11512601   1.086   1.480   3.554
    1PA    H15R12602   1.102   1.512   3.657
    1PA    H15S12603   1.102   1.563   3.484
    1PA    C11412604   0.956   1.415   3.506
    1PA    H14R12605   0.954   1.388   3.400
    1PA    H14S12606   0.935   1.327   3.568
    1PA    C11312607   0.850   1.522   3.534
    1PA    H13R12608   0.854   1.540   3.642
    1PA    H13S12609   0.873   1.615   3.482
    1PA    C11212610   0.705   1.484   3.499
    1PA    H12R12611   0.683   1.388   3.546
    1PA    H12S12612   0.649   1.555   3.560
    1PA    C11112613   0.673   1.484   3.349
    1PA    H11R12614   0.754   1.429   3.302
    1PA    H11S12615   0.580   1.427   3.337
    1PA    C11012616   0.654   1.626   3.292
    1PA    H10R12617   0.573   1.680   3.341
    1PA    H10S12618   0.746   1.685   3.299
    1PA     C1912619   0.620   1.610   3.143
    1PA     H9R12620   0.542   1.535   3.137
    1PA     H9S12621   0.576   1.702   3.105
    1PA     C1812622   0.744   1.582   3.058
    1PA     H8R12623   0.820   1.661   3.068
    1PA     H8S12624   0.790   1.491   3.097
    1PA     C1712625   0.703   1.564   2.911
    1PA     H7R12626   0.630   1.483   2.924
    1PA     H7S12627   0.656   1.653   2.868
    1PA     C1612628   0.819   1.517   2.823
    1PA     H6R12629   0.877   1.610   2.816
    1PA     H6S12630   0.882   1.439   2.866
    1PA     C1512631   0.766   1.468   2.687
    1PA     H5R12632   0.727   1.370   2.714
    1PA     H5S12633   0.683   1.534   2.659
    1PA     C1412634   0.880   1.447   2.586
    1PA     H4R12635   0.938   1.539   2.582
    1PA     H4S12636   0.945   1.370   2.626
    1PA     C1312637   0.826   1.414   2.446
    1PA     H3R12638   0.906   1.358   2.397
    1PA     H3S12639   0.741   1.345   2.452
    1PA     C1212640   0.785   1.540   2.369
    1PA     H2R12641   0.695   1.589   2.407
    1PA     H2S12642   0.868   1.611   2.377
    2PC     C1112643   0.765   1.513   2.222
    2PC     O1212644   0.770   1.410   2.159
    2PC     O1112645   0.728   1.629   2.163
    2PC      C112646   0.679   1.612   2.029
    2PC      HR12647   0.746   1.546   1.973
    2PC      HS12648   0.595   1.543   2.035
    2PC      C212649   0.644   1.742   1.956
    2PC      HX12650   0.613   1.726   1.852
    2PC      C312651   0.768   1.830   1.936
    2PC      HA12652   0.744   1.927   1.892
    2PC      HB12653   0.824   1.842   2.029
    2PC     O3112654   0.856   1.777   1.836
    2PC     P3112655   0.817   1.777   1.680
    2PC     O3212656   0.966   1.755   1.624
    2PC     C3112657   1.062   1.862   1.632
    2PC     H1A12658   1.066   1.905   1.732
    2PC     H1B12659   1.163   1.823   1.623
    2PC     C3212660   1.041   1.971   1.526
    2PC     H2A12661   0.937   2.001   1.514
    2PC     H2B12662   1.084   2.065   1.562
    2PC     N3112663   1.085   1.943   1.386
    2PC     C3312664   1.234   1.963   1.378
    2PC     H3A12665   1.260   2.067   1.401
    2PC     H3B12666   1.278   1.893   1.449
    2PC     H3C12667   1.267   1.926   1.281
    2PC     C3412668   1.060   1.800   1.350
    2PC     H4A12669   1.083   1.735   1.435
    2PC     H4B12670   0.952   1.787   1.336
    2PC     H4C12671   1.120   1.782   1.261
    2PC     C3512672   1.020   2.036   1.288
    2PC     H5A12673   1.057   2.013   1.188
    2PC     H5B12674   1.050   2.135   1.323
    2PC     H5C12675   0.911   2.032   1.281
    2PC     O3312676   0.741   1.652   1.657
    2PC     O3412677   0.757   1.907   1.646
    2PC     O2112678   0.562   1.831   2.033
    2PC     C2112679   0.433   1.798   2.047
    2PC     O2212680   0.385   1.697   1.999
    3OL     C1212681   0.355   1.902   2.124
    3OL     H2R12682   0.254   1.907   2.085
    3OL     H2S12683   0.396   2.002   2.104
    3OL     C1312684   0.357   1.858   2.271
    3OL     H3R12685   0.459   1.841   2.303
    3OL     H3S12686   0.296   1.769   2.287
    3OL     C1412687   0.297   1.968   2.360
    3OL     H4R12688   0.192   1.962   2.331
    3OL     H4S12689   0.339   2.063   2.328
    3OL     C1512690   0.305   1.936   2.510
    3OL     H5R12691   0.406   1.939   2.551
    3OL     H5S12692   0.273   1.832   2.522
    3OL     C1612693   0.227   2.035   2.598
    3OL     H6R12694   0.123   2.031   2.567
    3OL     H6S12695   0.261   2.137   2.576
    3OL     C1712696   0.224   2.004   2.748
    3OL     H7R12697   0.327   1.991   2.782
    3OL     H7S12698   0.173   1.909   2.760
    3OL     C1812699   0.153   2.108   2.836
    3OL     H8R12700   0.073   2.157   2.779
    3OL     H8S12701   0.231   2.175   2.872
    3OL     C1912702   0.079   2.049   2.953
    3OL     H9R12703   0.026   1.958   2.925
    3OL    C11012704   0.059   2.104   3.072
    3OL    H10R12705  -0.002   2.053   3.146
    3OL    C11112706   0.110   2.244   3.100
    3OL    H11R12707   0.040   2.314   3.054
    3OL    H11S12708   0.210   2.264   3.060
    3OL    C11212709   0.094   2.286   3.246
    3OL    H12R12710   0.162   2.233   3.313
    3OL    H12S12711  -0.010   2.266   3.273
    3OL    C11312712   0.117   2.433   3.285
    3OL    H13R12713   0.043   2.478   3.219
    3OL    H13S12714   0.219   2.471   3.271
    3OL    C11412715   0.066   2.462   3.427
    3OL    H14R12716  -0.035   2.424   3.441
    3OL    H14S12717   0.069   2.571   3.433
    3OL    C11512718   0.158   2.406   3.537
    3OL    H15R12719   0.261   2.439   3.529
    3OL    H15S12720   0.159   2.297   3.526
    3OL    C11612721   0.108   2.423   3.681
    3OL    H16R12722   0.161   2.351   3.743
    3OL    H16S12723   0.007   2.380   3.685
    3OL    C11712724   0.104   2.566   3.735
    3OL    H17R12725   0.040   2.571   3.824
    3OL    H17S12726   0.050   2.629   3.664
    3OL    C11812727   0.245   2.620   3.760
    3OL    H18R12728   0.239   2.724   3.791
    3OL    H18S12729   0.305   2.609   3.669
    3OL    H18T12730   0.289   2.565   3.843
    1PA    C11612731   0.028  -0.004   3.683
    1PA    H16R12732   0.043  -0.085   3.611
    1PA    H16S12733  -0.045  -0.057   3.745
    1PA    H16T12734   0.113   0.011   3.750
    1PA    C11512735  -0.029   0.124   3.621
    1PA    H15R12736  -0.132   0.111   3.587
    1PA    H15S12737  -0.032   0.201   3.698
    1PA    C11412738   0.063   0.169   3.507
    1PA    H14R12739   0.160   0.166   3.557
    1PA    H14S12740   0.070   0.097   3.425
    1PA    C11312741   0.031   0.307   3.448
    1PA    H13R12742  -0.074   0.313   3.418
    1PA    H13S12743   0.041   0.383   3.526
    1PA    C11212744   0.122   0.336   3.328
    1PA    H12R12745   0.223   0.304   3.354
    1PA    H12S12746   0.083   0.276   3.245
    1PA    C11112747   0.137   0.483   3.287
    1PA    H11R12748   0.043   0.529   3.258
    1PA    H11S12749   0.180   0.544   3.367
    1PA    C11012750   0.231   0.491   3.166
    1PA    H10R12751   0.332   0.462   3.198
    1PA    H10S12752   0.195   0.421   3.090
    1PA     C1912753   0.233   0.632   3.105
    1PA     H9R12754   0.247   0.715   3.174
    1PA     H9S12755   0.331   0.635   3.058
    1PA     C1812756   0.139   0.666   2.989
    1PA     H8R12757   0.157   0.592   2.910
    1PA     H8S12758   0.038   0.663   3.030
    1PA     C1712759   0.165   0.812   2.951
    1PA     H7R12760   0.154   0.872   3.041
    1PA     H7S12761   0.264   0.824   2.906
    1PA     C1612762   0.060   0.852   2.847
    1PA     H6R12763   0.085   0.806   2.751
    1PA     H6S12764  -0.041   0.817   2.869
    1PA     C1512765   0.057   1.002   2.813
    1PA     H5R12766   0.057   1.070   2.897
    1PA     H5S12767   0.153   1.029   2.769
    1PA     C1412768  -0.062   1.037   2.722
    1PA     H4R12769  -0.042   0.988   2.627
    1PA     H4S12770  -0.148   0.989   2.769
    1PA     C1312771  -0.082   1.186   2.689
    1PA     H3R12772  -0.174   1.193   2.630
    1PA     H3S12773  -0.101   1.243   2.779
    1PA     C1212774   0.031   1.242   2.601
    1PA     H2R12775   0.015   1.349   2.594
    1PA     H2S12776   0.130   1.237   2.645
    2PC     C1112777   0.035   1.181   2.463
    2PC     O1212778   0.131   1.110   2.437
    2PC     O1112779  -0.042   1.248   2.377
    2PC      C112780  -0.022   1.230   2.235
    2PC      HR12781   0.008   1.127   2.215
    2PC      HS12782  -0.122   1.243   2.192
    2PC      C212783   0.078   1.334   2.184
    2PC      HX12784   0.035   1.434   2.193
    2PC      C312785   0.097   1.303   2.035
    2PC      HA12786   0.005   1.325   1.979
    2PC      HB12787   0.157   1.382   1.989
    2PC     O3112788   0.146   1.170   2.011
    2PC     P3112789   0.184   1.128   1.862
    2PC     O3212790   0.117   0.983   1.853
    2PC     C3112791   0.205   0.870   1.841
    2PC     H1A12792   0.248   0.881   1.741
    2PC     H1B12793   0.279   0.862   1.921
    2PC     C3212794   0.112   0.748   1.847
    2PC     H2A12795   0.034   0.771   1.774
    2PC     H2B12796   0.171   0.667   1.803
    2PC     N3112797   0.059   0.697   1.977
    2PC     C3312798  -0.031   0.579   1.954
    2PC     H3A12799   0.027   0.492   1.920
    2PC     H3B12800  -0.079   0.556   2.049
    2PC     H3C12801  -0.106   0.606   1.880
    2PC     C3412802   0.169   0.657   2.070
    2PC     H4A12803   0.126   0.658   2.170
    2PC     H4B12804   0.194   0.553   2.047
    2PC     H4C12805   0.246   0.733   2.052
    2PC     C3512806  -0.012   0.807   2.050
    2PC     H5A12807  -0.051   0.766   2.142
    2PC     H5B12808  -0.096   0.846   1.992
    2PC     H5C12809   0.059   0.887   2.072
    2PC     O3312810   0.129   1.216   1.756
    2PC     O3412811   0.331   1.134   1.846
    2PC     O2112812   0.208   1.329   2.245
    2PC     C2112813   0.273   1.446   2.250
    2PC     O2212814   0.225   1.549   2.208
    3OL     C1212815   0.417   1.439   2.296
    3OL     H2R12816   0.470   1.533   2.281
    3OL     H2S12817   0.463   1.352   2.249
    3OL     C1312818   0.425   1.411   2.447
    3OL     H3R12819   0.521   1.367   2.474
    3OL     H3S12820   0.362   1.327   2.477
    3OL     C1412821   0.391   1.537   2.528
    3OL     H4R12822   0.290   1.563   2.494
    3OL     H4S12823   0.469   1.610   2.506
    3OL     C1512824   0.377   1.504   2.677
    3OL     H5R12825   0.461   1.452   2.723
    3OL     H5S12826   0.300   1.427   2.688
    3OL     C1612827   0.332   1.622   2.765
    3OL     H6R12828   0.240   1.666   2.724
    3OL     H6S12829   0.415   1.692   2.762
    3OL     C1712830   0.311   1.572   2.909
    3OL     H7R12831   0.403   1.546   2.962
    3OL     H7S12832   0.234   1.496   2.917
    3OL     C1812833   0.233   1.678   2.988
    3OL     H8R12834   0.125   1.666   2.971
    3OL     H8S12835   0.257   1.778   2.950
    3OL     C1912836   0.228   1.676   3.139
    3OL     H9R12837   0.161   1.604   3.186
    3OL    C11012838   0.280   1.760   3.227
    3OL    H10R12839   0.262   1.736   3.331
    3OL    C11112840   0.344   1.892   3.196
    3OL    H11R12841   0.284   1.935   3.116
    3OL    H11S12842   0.447   1.878   3.160
    3OL    C11212843   0.354   1.991   3.313
    3OL    H12R12844   0.262   2.049   3.321
    3OL    H12S12845   0.432   2.064   3.289
    3OL    C11312846   0.391   1.929   3.449
    3OL    H13R12847   0.495   1.896   3.452
    3OL    H13S12848   0.324   1.849   3.482
    3OL    C11412849   0.387   2.049   3.545
    3OL    H14R12850   0.287   2.092   3.538
    3OL    H14S12851   0.449   2.132   3.513
    3OL    C11512852   0.413   2.002   3.689
    3OL    H15R12853   0.512   1.958   3.695
    3OL    H15S12854   0.349   1.921   3.725
    3OL    C11612855   0.397   2.121   3.785
    3OL    H16R12856   0.383   2.086   3.887
    3OL    H16S12857   0.316   2.190   3.759
    3OL    C11712858   0.530   2.198   3.775
    3OL    H17R12859   0.571   2.203   3.674
    3OL    H17S12860   0.593   2.138   3.840
    3OL    C11812861   0.524   2.337   3.841
    3OL    H18R12862   0.502   2.316   3.946
    3OL    H18S12863   0.445   2.401   3.800
    3OL    H18T12864   0.622   2.384   3.846
    1PA    C11612865   2.178   2.857   4.045
    1PA    H16R12866   2.206   2.954   4.086
    1PA    H16S12867   2.261   2.820   3.984
    1PA    H16T12868   2.172   2.782   4.124
    1PA    C11512869   2.060   2.857   3.947
    1PA    H15R12870   2.095   2.907   3.856
    1PA    H15S12871   2.031   2.759   3.907
    1PA    C11412872   1.933   2.919   4.006
    1PA    H14R12873   1.900   2.843   4.076
    1PA    H14S12874   1.957   3.011   4.059
    1PA    C11312875   1.836   2.933   3.888
    1PA    H13R12876   1.889   2.977   3.803
    1PA    H13S12877   1.787   2.837   3.871
    1PA    C11212878   1.727   3.025   3.945
    1PA    H12R12879   1.674   3.001   4.037
    1PA    H12S12880   1.779   3.117   3.973
    1PA    C11112881   1.620   3.052   3.838
    1PA    H11R12882   1.669   3.110   3.760
    1PA    H11S12883   1.588   2.960   3.787
    1PA    C11012884   1.504   3.138   3.888
    1PA    H10R12885   1.460   3.105   3.982
    1PA    H10S12886   1.563   3.227   3.909
    1PA     C1912887   1.388   3.161   3.790
    1PA     H9R12888   1.336   3.066   3.778
    1PA     H9S12889   1.318   3.229   3.839
    1PA     C1812890   1.446   3.229   3.666
    1PA     H8R12891   1.492   3.323   3.698
    1PA     H8S12892   1.539   3.179   3.639
    1PA     C1712893   1.356   3.267   3.548
    1PA     H7R12894   1.255   3.282   3.588
    1PA     H7S12895   1.385   3.356   3.492
    1PA     C1612896   1.362   3.156   3.443
    1PA     H6R12897   1.467   3.146   3.414
    1PA     H6S12898   1.328   3.058   3.476
    1PA     C1512899   1.279   3.204   3.322
    1PA     H5R12900   1.173   3.207   3.345
    1PA     H5S12901   1.301   3.306   3.290
    1PA     C1412902   1.295   3.104   3.207
    1PA     H4R12903   1.398   3.072   3.194
    1PA     H4S12904   1.250   3.011   3.244
    1PA     C1312905   1.234   3.165   3.080
    1PA     H3R12906   1.134   3.209   3.088
    1PA     H3S12907   1.294   3.248   3.041
    1PA     C1212908   1.223   3.057   2.972
    1PA     H2R12909   1.327   3.028   2.957
    1PA     H2S12910   1.159   2.973   3.001
    2PC     C1112911   1.168   3.117   2.845
    2PC     O1212912   1.097   3.057   2.767
    2PC     O1112913   1.216   3.239   2.815
    2PC      C112914   1.182   3.312   2.696
    2PC      HR12915   1.236   3.407   2.698
    2PC      HS12916   1.211   3.252   2.609
    2PC      C212917   1.033   3.343   2.684
    2PC      HX12918   0.983   3.249   2.658
    2PC      C312919   0.998   3.440   2.570
    2PC      HA12920   0.954   3.531   2.612
    2PC      HB12921   1.089   3.465   2.515
    2PC     O3112922   0.902   3.393   2.474
    2PC     P3112923   0.953   3.283   2.369
    2PC     O3212924   0.857   3.306   2.243
    2PC     C3112925   0.887   3.410   2.147
    2PC     H1A12926   0.859   3.508   2.186
    2PC     H1B12927   0.994   3.406   2.128
    2PC     C3212928   0.810   3.390   2.016
    2PC     H2A12929   0.702   3.379   2.030
    2PC     H2B12930   0.841   3.466   1.944
    2PC     N3112931   0.851   3.273   1.932
    2PC     C3312932   0.756   3.266   1.817
    2PC     H3A12933   0.654   3.271   1.857
    2PC     H3B12934   0.778   3.346   1.747
    2PC     H3C12935   0.782   3.175   1.762
    2PC     C3412936   0.992   3.275   1.881
    2PC     H4A12937   1.012   3.186   1.820
    2PC     H4B12938   0.988   3.367   1.824
    2PC     H4C12939   1.071   3.290   1.955
    2PC     C3512940   0.829   3.144   2.007
    2PC     H5A12941   0.839   3.059   1.940
    2PC     H5B12942   0.724   3.142   2.036
    2PC     H5C12943   0.901   3.133   2.088
    2PC     O3312944   1.099   3.271   2.345
    2PC     O3412945   0.923   3.145   2.413
    2PC     O2112946   0.991   3.395   2.811
    2PC     C2112947   0.865   3.395   2.857
    2PC     O2212948   0.771   3.331   2.814
    3OL     C1212949   0.847   3.476   2.983
    3OL     H2R12950   0.739   3.489   2.992
    3OL     H2S12951   0.891   3.576   2.977
    3OL     C1312952   0.892   3.405   3.111
    3OL     H3R12953   1.000   3.393   3.105
    3OL     H3S12954   0.844   3.307   3.120
    3OL     C1412955   0.868   3.504   3.226
    3OL     H4R12956   0.762   3.527   3.234
    3OL     H4S12957   0.915   3.598   3.197
    3OL     C1512958   0.912   3.440   3.358
    3OL     H5R12959   1.017   3.409   3.352
    3OL     H5S12960   0.843   3.357   3.376
    3OL     C1612961   0.902   3.543   3.471
    3OL     H6R12962   0.802   3.586   3.486
    3OL     H6S12963   0.962   3.630   3.444
    3OL     C1712964   0.944   3.490   3.609
    3OL     H7R12965   0.965   3.569   3.682
    3OL     H7S12966   1.041   3.444   3.591
    3OL     C1812967   0.850   3.385   3.671
    3OL     H8R12968   0.821   3.312   3.595
    3OL     H8S12969   0.757   3.428   3.708
    3OL     C1912970   0.915   3.310   3.784
    3OL     H9R12971   0.917   3.354   3.883
    3OL    C11012972   0.944   3.181   3.786
    3OL    H10R12973   0.959   3.127   3.879
    3OL    C11112974   0.928   3.099   3.660
    3OL    H11R12975   0.985   3.150   3.581
    3OL    H11S12976   0.824   3.106   3.628
    3OL    C11212977   0.969   2.953   3.683
    3OL    H12R12978   1.068   2.959   3.728
    3OL    H12S12979   0.981   2.899   3.589
    3OL    C11312980   0.879   2.882   3.786
    3OL    H13R12981   0.841   2.943   3.868
    3OL    H13S12982   0.926   2.793   3.828
    3OL    C11412983   0.753   2.829   3.717
    3OL    H14R12984   0.708   2.904   3.652
    3OL    H14S12985   0.682   2.802   3.795
    3OL    C11512986   0.777   2.704   3.630
    3OL    H15R12987   0.828   2.626   3.685
    3OL    H15S12988   0.849   2.727   3.550
    3OL    C11612989   0.646   2.646   3.575
    3OL    H16R12990   0.601   2.721   3.510
    3OL    H16S12991   0.576   2.636   3.658
    3OL    C11712992   0.676   2.514   3.503
    3OL    H17R12993   0.694   2.437   3.579
    3OL    H17S12994   0.767   2.521   3.444
    3OL    C11812995   0.571   2.463   3.404
    3OL    H18R12996   0.558   2.540   3.327
    3OL    H18S12997   0.475   2.440   3.452
    3OL    H18T12998   0.600   2.370   3.354
    1PA    C11612999   5.937  -0.292   3.676
    1PA    H16R13000   5.916  -0.371   3.605
    1PA    H16S13001   5.862  -0.315   3.751
    1PA    H16T13002   6.039  -0.317   3.708
    1PA    C11513003   5.934  -0.145   3.632
    1PA    H15R13004   5.832  -0.118   3.604
    1PA    H15S13005   5.955  -0.082   3.719
    1PA    C11413006   6.037  -0.116   3.522
    1PA    H14R13007   6.138  -0.131   3.559
    1PA    H14S13008   6.014  -0.177   3.434
    1PA    C11313009   6.028   0.030   3.474
    1PA    H13R13010   5.926   0.057   3.447
    1PA    H13S13011   6.053   0.089   3.561
    1PA    C11213012   6.127   0.041   3.357
    1PA    H12R13013   6.231   0.025   3.388
    1PA    H12S13014   6.101  -0.032   3.281
    1PA    C11113015   6.122   0.177   3.285
    1PA    H11R13016   6.021   0.203   3.254
    1PA    H11S13017   6.159   0.254   3.352
    1PA    C11013018   6.221   0.172   3.168
    1PA    H10R13019   6.314   0.120   3.193
    1PA    H10S13020   6.169   0.113   3.092
    1PA     C1913021   6.251   0.316   3.124
    1PA     H9R13022   6.159   0.360   3.085
    1PA     H9S13023   6.291   0.379   3.204
    1PA     C1813024   6.351   0.313   3.008
    1PA     H8R13025   6.394   0.411   3.028
    1PA     H8S13026   6.420   0.228   3.006
    1PA     C1713027   6.282   0.317   2.871
    1PA     H7R13028   6.198   0.247   2.866
    1PA     H7S13029   6.240   0.417   2.865
    1PA     C1613030   6.381   0.310   2.753
    1PA     H6R13031   6.445   0.399   2.758
    1PA     H6S13032   6.447   0.223   2.757
    1PA     C1513033   6.311   0.325   2.618
    1PA     H5R13034   6.254   0.418   2.611
    1PA     H5S13035   6.392   0.339   2.547
    1PA     C1413036   6.236   0.198   2.572
    1PA     H4R13037   6.305   0.114   2.568
    1PA     H4S13038   6.158   0.168   2.643
    1PA     C1313039   6.160   0.217   2.440
    1PA     H3R13040   6.086   0.297   2.454
    1PA     H3S13041   6.226   0.258   2.364
    1PA     C1213042   6.080   0.094   2.394
    1PA     H2R13043   6.146   0.009   2.379
    1PA     H2S13044   6.003   0.074   2.469
    2PC     C1113045   6.009   0.126   2.265
    2PC     O1213046   5.997   0.237   2.218
    2PC     O1113047   5.945   0.016   2.220
    2PC      C113048   5.866   0.015   2.100
    2PC      HR13049   5.907   0.082   2.023
    2PC      HS13050   5.867  -0.090   2.071
    2PC      C213051   5.723   0.066   2.123
    2PC      HX13052   5.677   0.003   2.200
    2PC      C313053   5.634   0.058   1.998
    2PC      HA13054   5.652  -0.036   1.945
    2PC      HB13055   5.529   0.079   2.022
    2PC     O3113056   5.672   0.158   1.902
    2PC     P3113057   5.615   0.152   1.753
    2PC     O3213058   5.683   0.289   1.705
    2PC     C3113059   5.600   0.407   1.707
    2PC     H1A13060   5.507   0.383   1.656
    2PC     H1B13061   5.588   0.427   1.814
    2PC     C3213062   5.684   0.519   1.645
    2PC     H2A13063   5.631   0.609   1.675
    2PC     H2B13064   5.787   0.520   1.682
    2PC     N3113065   5.703   0.519   1.496
    2PC     C3313066   5.574   0.527   1.420
    2PC     H3A13067   5.606   0.532   1.316
    2PC     H3B13068   5.501   0.447   1.433
    2PC     H3C13069   5.530   0.620   1.455
    2PC     C3413070   5.784   0.636   1.448
    2PC     H4A13071   5.869   0.636   1.516
    2PC     H4B13072   5.809   0.617   1.344
    2PC     H4C13073   5.736   0.734   1.449
    2PC     C3513074   5.784   0.401   1.451
    2PC     H5A13075   5.786   0.405   1.342
    2PC     H5B13076   5.735   0.310   1.483
    2PC     H5C13077   5.884   0.410   1.494
    2PC     O3313078   5.657   0.028   1.683
    2PC     O3413079   5.469   0.137   1.736
    2PC     O2113080   5.711   0.199   2.176
    2PC     C2113081   5.593   0.232   2.231
    2PC     O2213082   5.517   0.156   2.287
    3OL     C1213083   5.571   0.382   2.227
    3OL     H2R13084   5.463   0.388   2.212
    3OL     H2S13085   5.618   0.431   2.141
    3OL     C1313086   5.612   0.452   2.357
    3OL     H3R13087   5.707   0.417   2.397
    3OL     H3S13088   5.552   0.422   2.443
    3OL     C1413089   5.623   0.603   2.328
    3OL     H4R13090   5.522   0.635   2.301
    3OL     H4S13091   5.688   0.633   2.246
    3OL     C1513092   5.661   0.681   2.455
    3OL     H5R13093   5.593   0.638   2.529
    3OL     H5S13094   5.646   0.788   2.444
    3OL     C1613095   5.809   0.653   2.484
    3OL     H6R13096   5.877   0.660   2.399
    3OL     H6S13097   5.817   0.548   2.514
    3OL     C1713098   5.863   0.742   2.597
    3OL     H7R13099   5.805   0.727   2.688
    3OL     H7S13100   5.857   0.847   2.570
    3OL     C1813101   6.011   0.721   2.635
    3OL     H8R13102   6.040   0.812   2.687
    3OL     H8S13103   6.081   0.713   2.552
    3OL     C1913104   6.013   0.596   2.720
    3OL     H9R13105   5.980   0.519   2.652
    3OL    C11013106   6.057   0.589   2.845
    3OL    H10R13107   6.056   0.492   2.895
    3OL    C11113108   6.113   0.702   2.928
    3OL    H11R13109   6.114   0.797   2.874
    3OL    H11S13110   6.215   0.687   2.965
    3OL    C11213111   6.029   0.717   3.055
    3OL    H12R13112   5.925   0.739   3.028
    3OL    H12S13113   6.066   0.808   3.102
    3OL    C11313114   6.041   0.599   3.153
    3OL    H13R13115   6.145   0.587   3.184
    3OL    H13S13116   6.002   0.517   3.092
    3OL    C11413117   5.945   0.607   3.272
    3OL    H14R13118   5.844   0.628   3.234
    3OL    H14S13119   5.971   0.689   3.340
    3OL    C11513120   5.965   0.481   3.357
    3OL    H15R13121   6.066   0.491   3.397
    3OL    H15S13122   5.965   0.389   3.298
    3OL    C11613123   5.871   0.480   3.478
    3OL    H16R13124   5.764   0.496   3.460
    3OL    H16S13125   5.914   0.556   3.544
    3OL    C11713126   5.881   0.341   3.542
    3OL    H17R13127   5.980   0.296   3.546
    3OL    H17S13128   5.822   0.273   3.480
    3OL    C11813129   5.827   0.336   3.686
    3OL    H18R13130   5.851   0.421   3.749
    3OL    H18S13131   5.857   0.247   3.742
    3OL    H18T13132   5.718   0.331   3.684
    1PA    C11613133   5.663   1.224   4.135
    1PA    H16R13134   5.760   1.233   4.185
    1PA    H16S13135   5.600   1.283   4.201
    1PA    H16T13136   5.666   1.269   4.035
    1PA    C11513137   5.621   1.077   4.136
    1PA    H15R13138   5.624   1.043   4.239
    1PA    H15S13139   5.517   1.068   4.103
    1PA    C11413140   5.724   1.000   4.051
    1PA    H14R13141   5.814   0.997   4.113
    1PA    H14S13142   5.699   0.894   4.045
    1PA    C11313143   5.758   1.062   3.915
    1PA    H13R13144   5.668   1.088   3.860
    1PA    H13S13145   5.820   1.150   3.934
    1PA    C11213146   5.837   0.958   3.835
    1PA    H12R13147   5.912   0.907   3.895
    1PA    H12S13148   5.758   0.885   3.814
    1PA    C11113149   5.890   1.005   3.698
    1PA    H11R13150   5.811   1.061   3.646
    1PA    H11S13151   5.960   1.086   3.720
    1PA    C11013152   5.949   0.891   3.614
    1PA    H10R13153   6.037   0.849   3.664
    1PA    H10S13154   5.875   0.813   3.598
    1PA     C1913155   6.010   0.948   3.485
    1PA     H9R13156   6.087   1.025   3.498
    1PA     H9S13157   6.068   0.864   3.446
    1PA     C1813158   5.911   1.011   3.387
    1PA     H8R13159   5.846   0.934   3.344
    1PA     H8S13160   5.853   1.084   3.443
    1PA     C1713161   5.981   1.085   3.272
    1PA     H7R13162   6.043   1.167   3.309
    1PA     H7S13163   6.056   1.019   3.228
    1PA     C1613164   5.882   1.147   3.173
    1PA     H6R13165   5.830   1.061   3.130
    1PA     H6S13166   5.809   1.203   3.232
    1PA     C1513167   5.944   1.242   3.071
    1PA     H5R13168   5.863   1.298   3.024
    1PA     H5S13169   6.011   1.311   3.124
    1PA     C1413170   6.034   1.183   2.961
    1PA     H4R13171   6.097   1.259   2.914
    1PA     H4S13172   6.107   1.113   3.003
    1PA     C1313173   5.962   1.114   2.845
    1PA     H3R13174   6.045   1.087   2.779
    1PA     H3S13175   5.908   1.025   2.878
    1PA     C1213176   5.863   1.209   2.777
    1PA     H2R13177   5.767   1.206   2.829
    1PA     H2S13178   5.903   1.311   2.775
    2PC     C1113179   5.846   1.174   2.631
    2PC     O1213180   5.744   1.135   2.579
    2PC     O1113181   5.963   1.193   2.568
    2PC      C113182   5.975   1.152   2.430
    2PC      HR13183   6.078   1.129   2.399
    2PC      HS13184   5.919   1.059   2.416
    2PC      C213185   5.944   1.261   2.328
    2PC      HX13186   5.850   1.308   2.357
    2PC      C313187   5.925   1.197   2.189
    2PC      HA13188   5.853   1.115   2.195
    2PC      HB13189   5.885   1.272   2.121
    2PC     O3113190   6.059   1.157   2.155
    2PC     P3113191   6.092   1.046   2.044
    2PC     O3213192   6.198   1.131   1.960
    2PC     C3113193   6.145   1.256   1.911
    2PC     H1A13194   6.037   1.250   1.896
    2PC     H1B13195   6.167   1.336   1.981
    2PC     C3213196   6.213   1.296   1.779
    2PC     H2A13197   6.187   1.401   1.769
    2PC     H2B13198   6.322   1.287   1.787
    2PC     N3113199   6.170   1.228   1.653
    2PC     C3313200   6.020   1.223   1.642
    2PC     H3A13201   5.999   1.200   1.537
    2PC     H3B13202   5.975   1.153   1.713
    2PC     H3C13203   5.988   1.325   1.662
    2PC     C3413204   6.218   1.300   1.530
    2PC     H4A13205   6.177   1.401   1.527
    2PC     H4B13206   6.326   1.306   1.520
    2PC     H4C13207   6.170   1.249   1.447
    2PC     C3513208   6.219   1.087   1.659
    2PC     H5A13209   6.321   1.091   1.699
    2PC     H5B13210   6.215   1.046   1.557
    2PC     H5C13211   6.158   1.036   1.733
    2PC     O3313212   6.158   0.928   2.102
    2PC     O3413213   5.977   1.004   1.960
    2PC     O2113214   6.044   1.364   2.329
    2PC     C2113215   6.036   1.467   2.242
    2PC     O2213216   5.940   1.492   2.172
    3OL     C1213217   6.154   1.560   2.246
    3OL     H2R13218   6.136   1.660   2.204
    3OL     H2S13219   6.234   1.539   2.174
    3OL     C1313220   6.223   1.563   2.383
    3OL     H3R13221   6.273   1.468   2.406
    3OL     H3S13222   6.148   1.576   2.461
    3OL     C1413223   6.322   1.680   2.400
    3OL     H4R13224   6.264   1.769   2.374
    3OL     H4S13225   6.394   1.674   2.318
    3OL     C1513226   6.386   1.685   2.539
    3OL     H5R13227   6.481   1.738   2.532
    3OL     H5S13228   6.408   1.582   2.565
    3OL     C1613229   6.292   1.744   2.645
    3OL     H6R13230   6.193   1.699   2.635
    3OL     H6S13231   6.283   1.850   2.617
    3OL     C1713232   6.332   1.735   2.793
    3OL     H7R13233   6.437   1.766   2.794
    3OL     H7S13234   6.317   1.630   2.818
    3OL     C1813235   6.247   1.833   2.876
    3OL     H8R13236   6.140   1.826   2.855
    3OL     H8S13237   6.269   1.938   2.858
    3OL     C1913238   6.263   1.810   3.024
    3OL     H9R13239   6.347   1.868   3.062
    3OL    C11013240   6.179   1.746   3.104
    3OL    H10R13241   6.198   1.756   3.210
    3OL    C11113242   6.064   1.658   3.063
    3OL    H11R13243   6.080   1.561   3.110
    3OL    H11S13244   6.086   1.632   2.959
    3OL    C11213245   5.927   1.723   3.091
    3OL    H12R13246   5.904   1.756   3.193
    3OL    H12S13247   5.856   1.643   3.070
    3OL    C11313248   5.901   1.831   2.986
    3OL    H13R13249   5.904   1.792   2.884
    3OL    H13S13250   5.971   1.915   2.997
    3OL    C11413251   5.766   1.900   3.007
    3OL    H14R13252   5.777   2.005   2.979
    3OL    H14S13253   5.750   1.901   3.115
    3OL    C11513254   5.653   1.840   2.922
    3OL    H15R13255   5.641   1.734   2.947
    3OL    H15S13256   5.669   1.836   2.815
    3OL    C11613257   5.526   1.915   2.963
    3OL    H16R13258   5.546   2.020   2.945
    3OL    H16S13259   5.496   1.901   3.067
    3OL    C11713260   5.404   1.876   2.878
    3OL    H17R13261   5.433   1.853   2.776
    3OL    H17S13262   5.351   1.971   2.871
    3OL    C11813263   5.321   1.759   2.932
    3OL    H18R13264   5.248   1.729   2.857
    3OL    H18S13265   5.275   1.781   3.029
    3OL    H18T13266   5.388   1.676   2.956
    1PA    C11613267   5.051   4.771   3.914
    1PA    H16R13268   4.975   4.797   3.840
    1PA    H16S13269   5.042   4.840   3.998
    1PA    H16T13270   5.035   4.668   3.947
    1PA    C11513271   5.190   4.767   3.847
    1PA    H15R13272   5.210   4.870   3.818
    1PA    H15S13273   5.267   4.738   3.918
    1PA    C11413274   5.177   4.691   3.714
    1PA    H14R13275   5.181   4.585   3.738
    1PA    H14S13276   5.084   4.724   3.666
    1PA    C11313277   5.291   4.713   3.614
    1PA    H13R13278   5.276   4.813   3.573
    1PA    H13S13279   5.388   4.704   3.664
    1PA    C11213280   5.285   4.613   3.497
    1PA    H12R13281   5.378   4.616   3.441
    1PA    H12S13282   5.292   4.513   3.540
    1PA    C11113283   5.168   4.638   3.402
    1PA    H11R13284   5.074   4.608   3.448
    1PA    H11S13285   5.158   4.744   3.377
    1PA    C11013286   5.191   4.559   3.272
    1PA    H10R13287   5.162   4.613   3.182
    1PA    H10S13288   5.297   4.546   3.249
    1PA     C1913289   5.130   4.418   3.269
    1PA     H9R13290   5.164   4.355   3.352
    1PA     H9S13291   5.022   4.413   3.286
    1PA     C1813292   5.164   4.344   3.140
    1PA     H8R13293   5.264   4.381   3.114
    1PA     H8S13294   5.164   4.235   3.151
    1PA     C1713295   5.082   4.389   3.018
    1PA     H7R13296   5.069   4.497   3.010
    1PA     H7S13297   5.136   4.359   2.928
    1PA     C1613298   4.946   4.318   3.011
    1PA     H6R13299   4.910   4.314   3.114
    1PA     H6S13300   4.872   4.378   2.957
    1PA     C1513301   4.958   4.176   2.954
    1PA     H5R13302   5.048   4.130   2.996
    1PA     H5S13303   4.873   4.115   2.984
    1PA     C1413304   4.952   4.175   2.801
    1PA     H4R13305   5.007   4.259   2.758
    1PA     H4S13306   5.010   4.088   2.770
    1PA     C1313307   4.812   4.152   2.742
    1PA     H3R13308   4.762   4.061   2.776
    1PA     H3S13309   4.755   4.242   2.767
    1PA     C1213310   4.829   4.152   2.590
    1PA     H2R13311   4.867   4.250   2.560
    1PA     H2S13312   4.911   4.086   2.559
    2PC     C1113313   4.698   4.131   2.519
    2PC     O1213314   4.633   4.226   2.481
    2PC     O1113315   4.666   4.002   2.495
    2PC      C113316   4.543   3.970   2.428
    2PC      HR13317   4.474   3.941   2.507
    2PC      HS13318   4.507   4.056   2.370
    2PC      C213319   4.577   3.842   2.350
    2PC      HX13320   4.677   3.852   2.307
    2PC      C313321   4.464   3.825   2.247
    2PC      HA13322   4.384   3.768   2.295
    2PC      HB13323   4.427   3.919   2.206
    2PC     O3113324   4.525   3.749   2.141
    2PC     P3113325   4.431   3.716   2.015
    2PC     O3213326   4.537   3.692   1.898
    2PC     C3113327   4.632   3.798   1.876
    2PC     H1A13328   4.583   3.895   1.872
    2PC     H1B13329   4.703   3.794   1.959
    2PC     C3213330   4.699   3.776   1.740
    2PC     H2A13331   4.624   3.764   1.662
    2PC     H2B13332   4.751   3.870   1.724
    2PC     N3113333   4.801   3.668   1.718
    2PC     C3313334   4.869   3.688   1.586
    2PC     H3A13335   4.791   3.697   1.510
    2PC     H3B13336   4.913   3.788   1.588
    2PC     H3C13337   4.944   3.610   1.577
    2PC     C3413338   4.896   3.671   1.833
    2PC     H4A13339   4.850   3.616   1.916
    2PC     H4B13340   4.998   3.633   1.817
    2PC     H4C13341   4.913   3.778   1.848
    2PC     C3513342   4.741   3.530   1.717
    2PC     H5A13343   4.830   3.468   1.725
    2PC     H5B13344   4.706   3.514   1.615
    2PC     H5C13345   4.665   3.524   1.795
    2PC     O3313346   4.378   3.582   2.050
    2PC     O3413347   4.316   3.805   1.989
    2PC     O2113348   4.560   3.738   2.447
    2PC     C2113349   4.597   3.614   2.410
    2PC     O2213350   4.672   3.591   2.317
    3OL     C1213351   4.556   3.510   2.511
    3OL     H2R13352   4.562   3.407   2.476
    3OL     H2S13353   4.450   3.523   2.535
    3OL     C1313354   4.626   3.521   2.648
    3OL     H3R13355   4.631   3.626   2.676
    3OL     H3S13356   4.721   3.476   2.618
    3OL     C1413357   4.563   3.437   2.760
    3OL     H4R13358   4.540   3.340   2.715
    3OL     H4S13359   4.468   3.484   2.788
    3OL     C1513360   4.661   3.422   2.877
    3OL     H5R13361   4.668   3.521   2.923
    3OL     H5S13362   4.760   3.387   2.847
    3OL     C1613363   4.598   3.317   2.970
    3OL     H6R13364   4.560   3.231   2.915
    3OL     H6S13365   4.518   3.358   3.032
    3OL     C1713366   4.694   3.268   3.079
    3OL     H7R13367   4.728   3.354   3.137
    3OL     H7S13368   4.781   3.232   3.024
    3OL     C1813369   4.640   3.159   3.174
    3OL     H8R13370   4.619   3.071   3.113
    3OL     H8S13371   4.539   3.186   3.203
    3OL     C1913372   4.739   3.135   3.285
    3OL     H9R13373   4.737   3.207   3.367
    3OL    C11013374   4.828   3.038   3.284
    3OL    H10R13375   4.899   3.034   3.366
    3OL    C11113376   4.838   2.932   3.177
    3OL    H11R13377   4.798   2.968   3.082
    3OL    H11S13378   4.775   2.845   3.199
    3OL    C11213379   4.981   2.886   3.145
    3OL    H12R13380   4.981   2.800   3.078
    3OL    H12S13381   5.017   2.851   3.241
    3OL    C11313382   5.074   2.992   3.083
    3OL    H13R13383   5.166   2.940   3.056
    3OL    H13S13384   5.097   3.057   3.168
    3OL    C11413385   5.016   3.059   2.958
    3OL    H14R13386   4.930   3.120   2.988
    3OL    H14S13387   4.983   2.986   2.884
    3OL    C11513388   5.106   3.156   2.881
    3OL    H15R13389   5.193   3.097   2.850
    3OL    H15S13390   5.144   3.232   2.950
    3OL    C11613391   5.042   3.232   2.764
    3OL    H16R13392   4.951   3.283   2.797
    3OL    H16S13393   5.013   3.163   2.684
    3OL    C11713394   5.133   3.334   2.694
    3OL    H17R13395   5.233   3.291   2.686
    3OL    H17S13396   5.132   3.420   2.762
    3OL    C11813397   5.073   3.380   2.561
    3OL    H18R13398   4.966   3.404   2.563
    3OL    H18S13399   5.099   3.313   2.479
    3OL    H18T13400   5.135   3.466   2.533
    1PA    C11613401   0.556   1.125   3.674
    1PA    H16R13402   0.580   1.148   3.778
    1PA    H16S13403   0.447   1.120   3.669
    1PA    H16T13404   0.598   1.192   3.599
    1PA    C11513405   0.607   0.985   3.637
    1PA    H15R13406   0.715   0.982   3.623
    1PA    H15S13407   0.575   0.910   3.710
    1PA    C11413408   0.557   0.941   3.499
    1PA    H14R13409   0.447   0.938   3.500
    1PA    H14S13410   0.574   1.027   3.434
    1PA    C11313411   0.611   0.808   3.445
    1PA    H13R13412   0.718   0.825   3.425
    1PA    H13S13413   0.602   0.721   3.510
    1PA    C11213414   0.550   0.784   3.306
    1PA    H12R13415   0.576   0.682   3.275
    1PA    H12S13416   0.441   0.779   3.304
    1PA    C11113417   0.613   0.876   3.201
    1PA    H11R13418   0.591   0.979   3.230
    1PA    H11S13419   0.720   0.856   3.196
    1PA    C11013420   0.557   0.853   3.060
    1PA    H10R13421   0.452   0.824   3.062
    1PA    H10S13422   0.574   0.938   2.993
    1PA     C1913423   0.628   0.732   2.999
    1PA     H9R13424   0.736   0.748   2.991
    1PA     H9S13425   0.611   0.648   3.067
    1PA     C1813426   0.564   0.696   2.864
    1PA     H8R13427   0.487   0.624   2.891
    1PA     H8S13428   0.522   0.785   2.816
    1PA     C1713429   0.674   0.636   2.776
    1PA     H7R13430   0.727   0.553   2.824
    1PA     H7S13431   0.617   0.605   2.689
    1PA     C1613432   0.776   0.743   2.732
    1PA     H6R13433   0.738   0.845   2.733
    1PA     H6S13434   0.866   0.740   2.793
    1PA     C1513435   0.824   0.710   2.590
    1PA     H5R13436   0.844   0.603   2.583
    1PA     H5S13437   0.743   0.717   2.517
    1PA     C1413438   0.937   0.797   2.532
    1PA     H4R13439   0.915   0.903   2.544
    1PA     H4S13440   1.029   0.786   2.590
    1PA     C1313441   0.955   0.761   2.384
    1PA     H3R13442   0.961   0.652   2.387
    1PA     H3S13443   0.863   0.792   2.334
    1PA     C1213444   1.086   0.823   2.333
    1PA     H2R13445   1.087   0.931   2.314
    1PA     H2S13446   1.159   0.813   2.413
    2PC     C1113447   1.130   0.740   2.215
    2PC     O1213448   1.055   0.696   2.131
    2PC     O1113449   1.259   0.701   2.213
    2PC      C113450   1.301   0.605   2.115
    2PC      HR13451   1.242   0.515   2.131
    2PC      HS13452   1.283   0.646   2.015
    2PC      C213453   1.452   0.581   2.134
    2PC      HX13454   1.506   0.675   2.146
    2PC      C313455   1.491   0.511   2.003
    2PC      HA13456   1.456   0.562   1.913
    2PC      HB13457   1.599   0.511   1.985
    2PC     O3113458   1.427   0.383   2.013
    2PC     P3113459   1.425   0.297   1.877
    2PC     O3213460   1.316   0.186   1.915
    2PC     C3113461   1.178   0.225   1.926
    2PC     H1A13462   1.153   0.293   2.007
    2PC     H1B13463   1.153   0.279   1.834
    2PC     C3213464   1.096   0.095   1.933
    2PC     H2A13465   1.149   0.025   1.869
    2PC     H2B13466   1.120   0.065   2.035
    2PC     N3113467   0.948   0.103   1.908
    2PC     C3313468   0.886   0.189   2.013
    2PC     H3A13469   0.905   0.136   2.107
    2PC     H3B13470   0.931   0.288   2.013
    2PC     H3C13471   0.779   0.185   1.994
    2PC     C3413472   0.915   0.149   1.769
    2PC     H4A13473   0.948   0.251   1.752
    2PC     H4B13474   0.960   0.091   1.689
    2PC     H4C13475   0.807   0.134   1.760
    2PC     C3513476   0.892  -0.035   1.901
    2PC     H5A13477   0.880  -0.074   2.002
    2PC     H5B13478   0.971  -0.097   1.859
    2PC     H5C13479   0.797  -0.057   1.851
    2PC     O3313480   1.376   0.374   1.760
    2PC     O3413481   1.562   0.254   1.845
    2PC     O2113482   1.481   0.497   2.247
    2PC     C2113483   1.607   0.478   2.288
    2PC     O2213484   1.700   0.551   2.260
    3OL     C1213485   1.630   0.349   2.363
    3OL     H2R13486   1.538   0.291   2.353
    3OL     H2S13487   1.649   0.362   2.470
    3OL     C1313488   1.750   0.264   2.319
    3OL     H3R13489   1.828   0.316   2.375
    3OL     H3S13490   1.767   0.273   2.212
    3OL     C1413491   1.742   0.119   2.368
    3OL     H4R13492   1.674   0.072   2.297
    3OL     H4S13493   1.716   0.116   2.474
    3OL     C1513494   1.882   0.060   2.347
    3OL     H5R13495   1.934   0.134   2.286
    3OL     H5S13496   1.878  -0.028   2.282
    3OL     C1613497   1.964   0.041   2.475
    3OL     H6R13498   2.045  -0.028   2.450
    3OL     H6S13499   1.898  -0.005   2.550
    3OL     C1713500   2.023   0.168   2.537
    3OL     H7R13501   2.063   0.236   2.461
    3OL     H7S13502   2.110   0.130   2.591
    3OL     C1813503   1.924   0.233   2.635
    3OL     H8R13504   1.844   0.285   2.583
    3OL     H8S13505   1.990   0.301   2.690
    3OL     C1913506   1.860   0.136   2.731
    3OL     H9R13507   1.913   0.041   2.741
    3OL    C11013508   1.747   0.158   2.796
    3OL    H10R13509   1.708   0.085   2.866
    3OL    C11113510   1.672   0.289   2.791
    3OL    H11R13511   1.617   0.298   2.697
    3OL    H11S13512   1.748   0.367   2.786
    3OL    C11213513   1.584   0.315   2.915
    3OL    H12R13514   1.559   0.420   2.925
    3OL    H12S13515   1.645   0.295   3.003
    3OL    C11313516   1.456   0.231   2.911
    3OL    H13R13517   1.460   0.126   2.881
    3OL    H13S13518   1.384   0.265   2.836
    3OL    C11413519   1.384   0.255   3.045
    3OL    H14R13520   1.276   0.243   3.032
    3OL    H14S13521   1.413   0.355   3.076
    3OL    C11513522   1.424   0.157   3.156
    3OL    H15R13523   1.527   0.168   3.193
    3OL    H15S13524   1.416   0.052   3.127
    3OL    C11613525   1.333   0.174   3.278
    3OL    H16R13526   1.351   0.082   3.334
    3OL    H16S13527   1.228   0.166   3.248
    3OL    C11713528   1.359   0.302   3.358
    3OL    H17R13529   1.366   0.389   3.292
    3OL    H17S13530   1.456   0.295   3.407
    3OL    C11813531   1.247   0.325   3.460
    3OL    H18R13532   1.152   0.352   3.413
    3OL    H18S13533   1.262   0.409   3.528
    3OL    H18T13534   1.243   0.237   3.525
    1PA    C11613535   4.028   4.308   3.677
    1PA    H16R13536   4.090   4.290   3.766
    1PA    H16S13537   4.022   4.211   3.626
    1PA    H16T13538   3.929   4.341   3.708
    1PA    C11513539   4.089   4.419   3.591
    1PA    H15R13540   4.097   4.510   3.651
    1PA    H15S13541   4.191   4.391   3.564
    1PA    C11413542   3.999   4.453   3.472
    1PA    H14R13543   4.049   4.507   3.392
    1PA    H14S13544   3.987   4.354   3.427
    1PA    C11313545   3.858   4.512   3.490
    1PA    H13R13546   3.795   4.455   3.558
    1PA    H13S13547   3.874   4.615   3.523
    1PA    C11213548   3.783   4.501   3.357
    1PA    H12R13549   3.690   4.556   3.363
    1PA    H12S13550   3.843   4.541   3.275
    1PA    C11113551   3.742   4.359   3.312
    1PA    H11R13552   3.838   4.317   3.280
    1PA    H11S13553   3.694   4.308   3.395
    1PA    C11013554   3.642   4.351   3.196
    1PA    H10R13555   3.546   4.390   3.230
    1PA    H10S13556   3.668   4.423   3.118
    1PA     C1913557   3.626   4.208   3.142
    1PA     H9R13558   3.714   4.166   3.092
    1PA     H9S13559   3.584   4.142   3.218
    1PA     C1813560   3.514   4.221   3.038
    1PA     H8R13561   3.421   4.249   3.087
    1PA     H8S13562   3.536   4.295   2.961
    1PA     C1713563   3.500   4.092   2.957
    1PA     H7R13564   3.585   4.053   2.901
    1PA     H7S13565   3.475   4.009   3.023
    1PA     C1613566   3.375   4.110   2.869
    1PA     H6R13567   3.290   4.115   2.937
    1PA     H6S13568   3.368   4.199   2.806
    1PA     C1513569   3.373   3.989   2.774
    1PA     H5R13570   3.457   4.003   2.706
    1PA     H5S13571   3.375   3.900   2.837
    1PA     C1413572   3.244   3.990   2.690
    1PA     H4R13573   3.154   3.987   2.752
    1PA     H4S13574   3.244   4.088   2.643
    1PA     C1313575   3.235   3.876   2.587
    1PA     H3R13576   3.222   3.780   2.637
    1PA     H3S13577   3.147   3.886   2.524
    1PA     C1213578   3.351   3.871   2.487
    1PA     H2R13579   3.363   3.969   2.440
    1PA     H2S13580   3.444   3.845   2.538
    2PC     C1113581   3.339   3.760   2.385
    2PC     O1213582   3.274   3.658   2.393
    2PC     O1113583   3.408   3.805   2.279
    2PC      C113584   3.431   3.708   2.175
    2PC      HR13585   3.343   3.645   2.156
    2PC      HS13586   3.458   3.757   2.081
    2PC      C213587   3.555   3.625   2.211
    2PC      HX13588   3.640   3.694   2.223
    2PC      C313589   3.576   3.530   2.093
    2PC      HA13590   3.600   3.590   2.005
    2PC      HB13591   3.645   3.452   2.126
    2PC     O3113592   3.461   3.446   2.069
    2PC     P3113593   3.416   3.406   1.920
    2PC     O3213594   3.371   3.259   1.962
    2PC     C3113595   3.244   3.208   1.917
    2PC     H1A13596   3.181   3.233   2.002
    2PC     H1B13597   3.201   3.267   1.835
    2PC     C3213598   3.248   3.055   1.904
    2PC     H2A13599   3.292   3.005   1.990
    2PC     H2B13600   3.142   3.031   1.892
    2PC     N3113601   3.320   2.994   1.789
    2PC     C3313602   3.284   2.848   1.789
    2PC     H3A13603   3.343   2.791   1.861
    2PC     H3B13604   3.177   2.843   1.811
    2PC     H3C13605   3.299   2.813   1.687
    2PC     C3413606   3.271   3.048   1.658
    2PC     H4A13607   3.330   3.136   1.632
    2PC     H4B13608   3.292   2.972   1.582
    2PC     H4C13609   3.164   3.069   1.652
    2PC     C3513610   3.469   3.010   1.794
    2PC     H5A13611   3.490   3.022   1.901
    2PC     H5B13612   3.493   3.098   1.735
    2PC     H5C13613   3.515   2.917   1.762
    2PC     O3313614   3.300   3.489   1.881
    2PC     O3413615   3.511   3.394   1.807
    2PC     O2113616   3.533   3.557   2.336
    2PC     C2113617   3.640   3.495   2.387
    2PC     O2213618   3.748   3.495   2.333
    3OL     C1213619   3.607   3.445   2.526
    3OL     H2R13620   3.586   3.339   2.508
    3OL     H2S13621   3.515   3.490   2.562
    3OL     C1313622   3.725   3.451   2.624
    3OL     H3R13623   3.819   3.445   2.570
    3OL     H3S13624   3.718   3.364   2.689
    3OL     C1413625   3.715   3.583   2.701
    3OL     H4R13626   3.653   3.570   2.790
    3OL     H4S13627   3.678   3.667   2.641
    3OL     C1513628   3.849   3.619   2.766
    3OL     H5R13629   3.922   3.636   2.687
    3OL     H5S13630   3.881   3.546   2.841
    3OL     C1613631   3.833   3.752   2.843
    3OL     H6R13632   3.767   3.816   2.786
    3OL     H6S13633   3.928   3.806   2.841
    3OL     C1713634   3.779   3.732   2.985
    3OL     H7R13635   3.700   3.657   2.993
    3OL     H7S13636   3.720   3.821   3.007
    3OL     C1813637   3.878   3.703   3.098
    3OL     H8R13638   3.832   3.712   3.197
    3OL     H8S13639   3.952   3.783   3.107
    3OL     C1913640   3.938   3.565   3.091
    3OL     H9R13641   4.023   3.555   3.024
    3OL    C11013642   3.897   3.460   3.161
    3OL    H10R13643   3.948   3.367   3.134
    3OL    C11113644   3.792   3.464   3.268
    3OL    H11R13645   3.696   3.451   3.216
    3OL    H11S13646   3.797   3.561   3.319
    3OL    C11213647   3.802   3.349   3.369
    3OL    H12R13648   3.900   3.343   3.416
    3OL    H12S13649   3.780   3.259   3.312
    3OL    C11313650   3.707   3.361   3.489
    3OL    H13R13651   3.724   3.447   3.553
    3OL    H13S13652   3.722   3.281   3.561
    3OL    C11413653   3.562   3.342   3.442
    3OL    H14R13654   3.546   3.240   3.405
    3OL    H14S13655   3.538   3.404   3.355
    3OL    C11513656   3.457   3.369   3.551
    3OL    H15R13657   3.455   3.477   3.565
    3OL    H15S13658   3.496   3.327   3.645
    3OL    C11613659   3.320   3.312   3.511
    3OL    H16R13660   3.256   3.326   3.598
    3OL    H16S13661   3.315   3.206   3.487
    3OL    C11713662   3.269   3.378   3.382
    3OL    H17R13663   3.335   3.347   3.300
    3OL    H17S13664   3.272   3.487   3.392
    3OL    C11813665   3.129   3.328   3.345
    3OL    H18R13666   3.095   3.381   3.255
    3OL    H18S13667   3.060   3.351   3.426
    3OL    H18T13668   3.133   3.220   3.330
    1PA    C11613669   5.160   3.738   3.763
    1PA    H16R13670   5.128   3.741   3.868
    1PA    H16S13671   5.181   3.840   3.730
    1PA    H16T13672   5.247   3.673   3.747
    1PA    C11513673   5.043   3.683   3.681
    1PA    H15R13674   5.064   3.679   3.574
    1PA    H15S13675   5.029   3.583   3.722
    1PA    C11413676   4.916   3.767   3.703
    1PA    H14R13677   4.890   3.753   3.808
    1PA    H14S13678   4.929   3.874   3.687
    1PA    C11313679   4.797   3.717   3.619
    1PA    H13R13680   4.793   3.608   3.629
    1PA    H13S13681   4.703   3.763   3.649
    1PA    C11213682   4.813   3.746   3.469
    1PA    H12R13683   4.864   3.842   3.460
    1PA    H12S13684   4.869   3.673   3.412
    1PA    C11113685   4.678   3.753   3.396
    1PA    H11R13686   4.627   3.657   3.410
    1PA    H11S13687   4.616   3.837   3.429
    1PA    C11013688   4.696   3.781   3.246
    1PA    H10R13689   4.759   3.870   3.237
    1PA    H10S13690   4.755   3.702   3.200
    1PA     C1913691   4.570   3.812   3.165
    1PA     H9R13692   4.503   3.726   3.166
    1PA     H9S13693   4.514   3.893   3.213
    1PA     C1813694   4.611   3.856   3.024
    1PA     H8R13695   4.664   3.952   3.028
    1PA     H8S13696   4.674   3.783   2.973
    1PA     C1713697   4.476   3.880   2.954
    1PA     H7R13698   4.405   3.946   3.005
    1PA     H7S13699   4.497   3.946   2.870
    1PA     C1613700   4.420   3.759   2.879
    1PA     H6R13701   4.496   3.718   2.811
    1PA     H6S13702   4.411   3.672   2.944
    1PA     C1513703   4.283   3.782   2.814
    1PA     H5R13704   4.211   3.782   2.896
    1PA     H5S13705   4.276   3.876   2.757
    1PA     C1413706   4.232   3.661   2.735
    1PA     H4R13707   4.290   3.571   2.756
    1PA     H4S13708   4.128   3.656   2.770
    1PA     C1313709   4.217   3.681   2.583
    1PA     H3R13710   4.313   3.709   2.540
    1PA     H3S13711   4.179   3.587   2.543
    1PA     C1213712   4.112   3.784   2.539
    1PA     H2R13713   4.011   3.746   2.557
    1PA     H2S13714   4.121   3.881   2.588
    2PC     C1113715   4.116   3.802   2.389
    2PC     O1213716   4.160   3.717   2.314
    2PC     O1113717   4.063   3.919   2.349
    2PC      C113718   4.037   3.939   2.209
    2PC      HR13719   4.040   4.048   2.196
    2PC      HS13720   4.109   3.897   2.138
    2PC      C213721   3.897   3.885   2.180
    2PC      HX13722   3.882   3.782   2.215
    2PC      C313723   3.869   3.902   2.030
    2PC      HA13724   3.875   4.005   1.994
    2PC      HB13725   3.950   3.850   1.978
    2PC     O3113726   3.737   3.861   1.992
    2PC     P3113727   3.690   3.859   1.839
    2PC     O3213728   3.720   3.997   1.764
    2PC     C3113729   3.739   4.001   1.622
    2PC     H1A13730   3.843   3.979   1.596
    2PC     H1B13731   3.669   3.933   1.572
    2PC     C3213732   3.686   4.133   1.563
    2PC     H2A13733   3.579   4.117   1.569
    2PC     H2B13734   3.716   4.218   1.624
    2PC     N3113735   3.715   4.165   1.419
    2PC     C3313736   3.618   4.271   1.374
    2PC     H3A13737   3.516   4.245   1.404
    2PC     H3B13738   3.642   4.359   1.434
    2PC     H3C13739   3.624   4.282   1.266
    2PC     C3413740   3.855   4.218   1.414
    2PC     H4A13741   3.870   4.252   1.312
    2PC     H4B13742   3.862   4.303   1.482
    2PC     H4C13743   3.924   4.138   1.443
    2PC     C3513744   3.690   4.048   1.329
    2PC     H5A13745   3.757   3.970   1.367
    2PC     H5B13746   3.699   4.085   1.227
    2PC     H5C13747   3.585   4.017   1.335
    2PC     O3313748   3.756   3.749   1.763
    2PC     O3413749   3.544   3.838   1.836
    2PC     O2113750   3.801   3.968   2.248
    2PC     C2113751   3.777   3.960   2.380
    2PC     O2213752   3.824   3.879   2.458
    3OL     C1213753   3.678   4.065   2.425
    3OL     H2R13754   3.582   4.040   2.381
    3OL     H2S13755   3.705   4.160   2.377
    3OL     C1313756   3.685   4.088   2.577
    3OL     H3R13757   3.648   3.997   2.625
    3OL     H3S13758   3.610   4.162   2.606
    3OL     C1413759   3.822   4.134   2.630
    3OL     H4R13760   3.841   4.232   2.585
    3OL     H4S13761   3.907   4.071   2.603
    3OL     C1513762   3.838   4.151   2.781
    3OL     H5R13763   3.806   4.060   2.833
    3OL     H5S13764   3.769   4.231   2.809
    3OL     C1613765   3.976   4.191   2.835
    3OL     H6R13766   3.980   4.280   2.898
    3OL     H6S13767   4.040   4.217   2.750
    3OL     C1713768   4.039   4.072   2.909
    3OL     H7R13769   4.147   4.087   2.909
    3OL     H7S13770   4.031   3.982   2.848
    3OL     C1813771   3.991   4.049   3.053
    3OL     H8R13772   4.053   3.969   3.095
    3OL     H8S13773   3.885   4.024   3.059
    3OL     C1913774   4.010   4.174   3.134
    3OL     H9R13775   3.943   4.259   3.119
    3OL    C11013776   4.113   4.197   3.215
    3OL    H10R13777   4.119   4.295   3.261
    3OL    C11113778   4.220   4.097   3.249
    3OL    H11R13779   4.313   4.138   3.208
    3OL    H11S13780   4.211   3.996   3.208
    3OL    C11213781   4.233   4.081   3.401
    3OL    H12R13782   4.141   4.040   3.442
    3OL    H12S13783   4.258   4.179   3.442
    3OL    C11313784   4.349   3.992   3.444
    3OL    H13R13785   4.431   4.011   3.375
    3OL    H13S13786   4.319   3.888   3.427
    3OL    C11413787   4.393   4.006   3.591
    3OL    H14R13788   4.420   4.111   3.604
    3OL    H14S13789   4.483   3.947   3.610
    3OL    C11513790   4.278   3.971   3.687
    3OL    H15R13791   4.252   3.866   3.672
    3OL    H15S13792   4.191   4.033   3.670
    3OL    C11613793   4.320   3.990   3.833
    3OL    H16R13794   4.347   4.095   3.844
    3OL    H16S13795   4.408   3.931   3.857
    3OL    C11713796   4.199   3.955   3.921
    3OL    H17R13797   4.155   3.857   3.905
    3OL    H17S13798   4.118   4.021   3.889
    3OL    C11813799   4.225   3.976   4.071
    3OL    H18R13800   4.130   3.957   4.122
    3OL    H18S13801   4.250   4.080   4.092
    3OL    H18T13802   4.301   3.906   4.107
    1PA    C11613803   4.723   6.555   3.585
    1PA    H16R13804   4.744   6.649   3.533
    1PA    H16S13805   4.719   6.577   3.692
    1PA    H16T13806   4.628   6.521   3.542
    1PA    C11513807   4.828   6.449   3.551
    1PA    H15R13808   4.914   6.475   3.613
    1PA    H15S13809   4.793   6.353   3.589
    1PA    C11413810   4.867   6.436   3.403
    1PA    H14R13811   4.890   6.535   3.363
    1PA    H14S13812   4.959   6.377   3.401
    1PA    C11313813   4.756   6.362   3.328
    1PA    H13R13814   4.719   6.278   3.387
    1PA    H13S13815   4.670   6.429   3.319
    1PA    C11213816   4.810   6.318   3.191
    1PA    H12R13817   4.845   6.397   3.125
    1PA    H12S13818   4.893   6.247   3.193
    1PA    C11113819   4.694   6.239   3.129
    1PA    H11R13820   4.661   6.157   3.193
    1PA    H11S13821   4.607   6.305   3.127
    1PA    C11013822   4.734   6.188   2.989
    1PA    H10R13823   4.756   6.274   2.926
    1PA    H10S13824   4.820   6.123   3.003
    1PA     C1913825   4.619   6.114   2.919
    1PA     H9R13826   4.661   6.068   2.829
    1PA     H9S13827   4.591   6.029   2.981
    1PA     C1813828   4.510   6.209   2.867
    1PA     H8R13829   4.478   6.264   2.956
    1PA     H8S13830   4.550   6.276   2.791
    1PA     C1713831   4.384   6.141   2.812
    1PA     H7R13832   4.413   6.075   2.729
    1PA     H7S13833   4.343   6.077   2.891
    1PA     C1613834   4.276   6.242   2.772
    1PA     H6R13835   4.271   6.313   2.854
    1PA     H6S13836   4.299   6.301   2.683
    1PA     C1513837   4.138   6.175   2.766
    1PA     H5R13838   4.128   6.111   2.855
    1PA     H5S13839   4.061   6.250   2.783
    1PA     C1413840   4.106   6.091   2.642
    1PA     H4R13841   4.148   5.990   2.650
    1PA     H4S13842   3.999   6.071   2.643
    1PA     C1313843   4.147   6.140   2.502
    1PA     H3R13844   4.256   6.133   2.496
    1PA     H3S13845   4.098   6.065   2.439
    1PA     C1213846   4.104   6.283   2.464
    1PA     H2R13847   3.998   6.280   2.489
    1PA     H2S13848   4.157   6.341   2.540
    2PC     C1113849   4.139   6.330   2.325
    2PC     O1213850   4.190   6.270   2.232
    2PC     O1113851   4.121   6.463   2.328
    2PC      C113852   4.162   6.539   2.213
    2PC      HR13853   4.175   6.644   2.242
    2PC      HS13854   4.257   6.500   2.175
    2PC      C213855   4.056   6.521   2.103
    2PC      HX13856   4.012   6.421   2.114
    2PC      C313857   4.113   6.536   1.961
    2PC      HA13858   4.104   6.640   1.930
    2PC      HB13859   4.217   6.504   1.959
    2PC     O3113860   4.043   6.445   1.875
    2PC     P3113861   4.043   6.470   1.716
    2PC     O3213862   4.192   6.441   1.665
    2PC     C3113863   4.244   6.308   1.677
    2PC     H1A13864   4.267   6.278   1.780
    2PC     H1B13865   4.179   6.227   1.643
    2PC     C3213866   4.381   6.292   1.610
    2PC     H2A13867   4.458   6.343   1.668
    2PC     H2B13868   4.405   6.185   1.611
    2PC     N3113869   4.392   6.330   1.466
    2PC     C3313870   4.385   6.478   1.445
    2PC     H3A13871   4.294   6.503   1.500
    2PC     H3B13872   4.468   6.525   1.499
    2PC     H3C13873   4.377   6.500   1.339
    2PC     C3413874   4.529   6.287   1.424
    2PC     H4A13875   4.540   6.189   1.471
    2PC     H4B13876   4.533   6.282   1.315
    2PC     H4C13877   4.604   6.355   1.466
    2PC     C3513878   4.298   6.248   1.382
    2PC     H5A13879   4.196   6.277   1.407
    2PC     H5B13880   4.318   6.142   1.398
    2PC     H5C13881   4.319   6.283   1.281
    2PC     O3313882   3.956   6.382   1.634
    2PC     O3413883   4.004   6.609   1.685
    2PC     O2113884   3.954   6.620   2.125
    2PC     C2113885   3.849   6.579   2.198
    2PC     O2213886   3.832   6.466   2.240
    3OL     C1213887   3.772   6.701   2.242
    3OL     H2R13888   3.704   6.735   2.164
    3OL     H2S13889   3.843   6.781   2.263
    3OL     C1313890   3.691   6.674   2.370
    3OL     H3R13891   3.621   6.590   2.371
    3OL     H3S13892   3.639   6.766   2.397
    3OL     C1413893   3.782   6.661   2.493
    3OL     H4R13894   3.815   6.761   2.520
    3OL     H4S13895   3.875   6.605   2.480
    3OL     C1513896   3.708   6.612   2.618
    3OL     H5R13897   3.603   6.641   2.619
    3OL     H5S13898   3.756   6.658   2.705
    3OL     C1613899   3.712   6.459   2.632
    3OL     H6R13900   3.811   6.411   2.633
    3OL     H6S13901   3.659   6.412   2.549
    3OL     C1713902   3.633   6.405   2.751
    3OL     H7R13903   3.529   6.422   2.723
    3OL     H7S13904   3.659   6.471   2.834
    3OL     C1813905   3.659   6.258   2.790
    3OL     H8R13906   3.764   6.233   2.772
    3OL     H8S13907   3.592   6.205   2.722
    3OL     C1913908   3.618   6.227   2.932
    3OL     H9R13909   3.520   6.257   2.966
    3OL    C11013910   3.694   6.162   3.018
    3OL    H10R13911   3.651   6.141   3.116
    3OL    C11113912   3.829   6.101   2.991
    3OL    H11R13913   3.864   6.103   2.887
    3OL    H11S13914   3.825   5.993   3.011
    3OL    C11213915   3.937   6.163   3.081
    3OL    H12R13916   3.958   6.268   3.060
    3OL    H12S13917   4.035   6.124   3.056
    3OL    C11313918   3.904   6.141   3.229
    3OL    H13R13919   3.903   6.034   3.251
    3OL    H13S13920   3.803   6.178   3.250
    3OL    C11413921   3.994   6.218   3.326
    3OL    H14R13922   3.940   6.213   3.421
    3OL    H14S13923   4.004   6.320   3.288
    3OL    C11513924   4.134   6.160   3.348
    3OL    H15R13925   4.187   6.142   3.254
    3OL    H15S13926   4.117   6.058   3.385
    3OL    C11613927   4.228   6.241   3.439
    3OL    H16R13928   4.184   6.248   3.538
    3OL    H16S13929   4.260   6.341   3.410
    3OL    C11713930   4.363   6.170   3.459
    3OL    H17R13931   4.400   6.142   3.360
    3OL    H17S13932   4.344   6.074   3.507
    3OL    C11813933   4.458   6.252   3.548
    3OL    H18R13934   4.477   6.344   3.492
    3OL    H18S13935   4.547   6.192   3.565
    3OL    H18T13936   4.415   6.279   3.645
    1PA    C11613937   4.167   5.030   4.111
    1PA    H16R13938   4.182   4.950   4.184
    1PA    H16S13939   4.153   5.128   4.159
    1PA    H16T13940   4.258   5.013   4.054
    1PA    C11513941   4.051   4.991   4.018
    1PA    H15R13942   4.077   4.895   3.974
    1PA    H15S13943   3.964   4.984   4.084
    1PA    C11413944   4.036   5.095   3.906
    1PA    H14R13945   3.963   5.163   3.951
    1PA    H14S13946   4.123   5.156   3.884
    1PA    C11313947   3.961   5.044   3.782
    1PA    H13R13948   3.870   4.992   3.814
    1PA    H13S13949   3.929   5.131   3.724
    1PA    C11213950   4.037   4.960   3.679
    1PA    H12R13951   4.134   5.009   3.666
    1PA    H12S13952   4.066   4.863   3.720
    1PA    C11113953   3.963   4.954   3.545
    1PA    H11R13954   3.869   4.903   3.566
    1PA    H11S13955   3.939   5.056   3.516
    1PA    C11013956   4.033   4.875   3.433
    1PA    H10R13957   4.116   4.933   3.392
    1PA    H10S13958   4.067   4.777   3.468
    1PA     C1913959   3.935   4.858   3.317
    1PA     H9R13960   3.841   4.818   3.354
    1PA     H9S13961   3.917   4.954   3.266
    1PA     C1813962   4.000   4.774   3.206
    1PA     H8R13963   4.084   4.832   3.168
    1PA     H8S13964   4.030   4.675   3.242
    1PA     C1713965   3.909   4.760   3.083
    1PA     H7R13966   3.811   4.721   3.111
    1PA     H7S13967   3.900   4.858   3.035
    1PA     C1613968   3.976   4.668   2.980
    1PA     H6R13969   4.083   4.688   2.972
    1PA     H6S13970   3.986   4.567   3.021
    1PA     C1513971   3.899   4.657   2.848
    1PA     H5R13972   3.892   4.755   2.800
    1PA     H5S13973   3.957   4.580   2.795
    1PA     C1413974   3.754   4.607   2.861
    1PA     H4R13975   3.740   4.511   2.910
    1PA     H4S13976   3.691   4.679   2.914
    1PA     C1313977   3.683   4.602   2.725
    1PA     H3R13978   3.576   4.620   2.730
    1PA     H3S13979   3.725   4.677   2.656
    1PA     C1213980   3.685   4.463   2.660
    1PA     H2R13981   3.785   4.425   2.637
    1PA     H2S13982   3.643   4.397   2.735
    2PC     C1113983   3.599   4.455   2.536
    2PC     O1213984   3.498   4.388   2.528
    2PC     O1113985   3.653   4.517   2.430
    2PC      C113986   3.593   4.516   2.299
    2PC      HR13987   3.671   4.553   2.233
    2PC      HS13988   3.562   4.415   2.271
    2PC      C213989   3.477   4.616   2.291
    2PC      HX13990   3.399   4.580   2.359
    2PC      C313991   3.429   4.646   2.149
    2PC      HA13992   3.417   4.552   2.095
    2PC      HB13993   3.342   4.713   2.140
    2PC     O3113994   3.543   4.713   2.092
    2PC     P3113995   3.543   4.734   1.933
    2PC     O3213996   3.438   4.853   1.912
    2PC     C3113997   3.449   4.971   1.993
    2PC     H1A13998   3.453   4.947   2.100
    2PC     H1B13999   3.549   5.013   1.978
    2PC     C3214000   3.341   5.075   1.961
    2PC     H2A14001   3.359   5.169   2.013
    2PC     H2B14002   3.358   5.111   1.859
    2PC     N3114003   3.193   5.055   1.977
    2PC     C3314004   3.115   5.182   1.960
    2PC     H3A14005   3.011   5.154   1.978
    2PC     H3B14006   3.153   5.256   2.031
    2PC     H3C14007   3.138   5.221   1.861
    2PC     C3414008   3.144   4.956   1.875
    2PC     H4A14009   3.179   4.991   1.777
    2PC     H4B14010   3.181   4.857   1.902
    2PC     H4C14011   3.036   4.966   1.882
    2PC     C3514012   3.162   4.991   2.108
    2PC     H5A14013   3.057   4.959   2.110
    2PC     H5B14014   3.174   5.069   2.183
    2PC     H5C14015   3.226   4.904   2.127
    2PC     O3314016   3.674   4.770   1.874
    2PC     O3414017   3.494   4.614   1.861
    2PC     O2114018   3.517   4.741   2.350
    2PC     C2114019   3.416   4.823   2.384
    2PC     O2214020   3.297   4.799   2.371
    3OL     C1214021   3.464   4.957   2.434
    3OL     H2R14022   3.473   5.024   2.349
    3OL     H2S14023   3.569   4.949   2.463
    3OL     C1314024   3.373   5.008   2.547
    3OL     H3R14025   3.273   5.029   2.509
    3OL     H3S14026   3.410   5.102   2.587
    3OL     C1414027   3.374   4.901   2.657
    3OL     H4R14028   3.466   4.886   2.715
    3OL     H4S14029   3.357   4.798   2.627
    3OL     C1514030   3.269   4.936   2.764
    3OL     H5R14031   3.175   4.960   2.713
    3OL     H5S14032   3.298   5.033   2.804
    3OL     C1614033   3.258   4.825   2.870
    3OL     H6R14034   3.254   4.727   2.822
    3OL     H6S14035   3.167   4.847   2.926
    3OL     C1714036   3.368   4.827   2.976
    3OL     H7R14037   3.374   4.930   3.014
    3OL     H7S14038   3.460   4.814   2.919
    3OL     C1814039   3.344   4.727   3.090
    3OL     H8R14040   3.329   4.625   3.054
    3OL     H8S14041   3.250   4.750   3.139
    3OL     C1914042   3.451   4.737   3.196
    3OL     H9R14043   3.555   4.729   3.166
    3OL    C11014044   3.435   4.761   3.325
    3OL    H10R14045   3.527   4.781   3.379
    3OL    C11114046   3.301   4.798   3.384
    3OL    H11R14047   3.269   4.722   3.455
    3OL    H11S14048   3.218   4.817   3.316
    3OL    C11214049   3.318   4.933   3.456
    3OL    H12R14050   3.355   5.014   3.393
    3OL    H12S14051   3.396   4.912   3.530
    3OL    C11314052   3.198   4.994   3.530
    3OL    H13R14053   3.107   4.992   3.470
    3OL    H13S14054   3.211   5.101   3.547
    3OL    C11414055   3.169   4.940   3.671
    3OL    H14R14056   3.246   4.971   3.742
    3OL    H14S14057   3.169   4.831   3.675
    3OL    C11514058   3.034   4.991   3.723
    3OL    H15R14059   3.036   4.968   3.830
    3OL    H15S14060   2.940   4.956   3.679
    3OL    C11614061   3.048   5.143   3.719
    3OL    H16R14062   3.031   5.177   3.617
    3OL    H16S14063   3.135   5.184   3.770
    3OL    C11714064   2.935   5.203   3.805
    3OL    H17R14065   2.945   5.184   3.912
    3OL    H17S14066   2.838   5.171   3.768
    3OL    C11814067   2.933   5.354   3.781
    3OL    H18R14068   2.853   5.395   3.843
    3OL    H18S14069   2.917   5.374   3.675
    3OL    H18T14070   3.026   5.401   3.815
    1PA    C11614071   2.003   5.370   4.019
    1PA    H16R14072   2.005   5.270   3.974
    1PA    H16S14073   1.941   5.439   3.961
    1PA    H16T14074   1.968   5.345   4.119
    1PA    C11514075   2.151   5.409   4.030
    1PA    H15R14076   2.163   5.460   4.126
    1PA    H15S14077   2.212   5.320   4.016
    1PA    C11414078   2.192   5.503   3.915
    1PA    H14R14079   2.149   5.602   3.931
    1PA    H14S14080   2.299   5.520   3.931
    1PA    C11314081   2.171   5.436   3.779
    1PA    H13R14082   2.221   5.339   3.766
    1PA    H13S14083   2.063   5.424   3.772
    1PA    C11214084   2.209   5.526   3.661
    1PA    H12R14085   2.154   5.620   3.674
    1PA    H12S14086   2.318   5.530   3.666
    1PA    C11114087   2.178   5.449   3.532
    1PA    H11R14088   2.248   5.366   3.520
    1PA    H11S14089   2.084   5.394   3.536
    1PA    C11014090   2.186   5.539   3.408
    1PA    H10R14091   2.121   5.625   3.425
    1PA    H10S14092   2.287   5.579   3.398
    1PA     C1914093   2.164   5.470   3.272
    1PA     H9R14094   2.232   5.385   3.271
    1PA     H9S14095   2.060   5.440   3.256
    1PA     C1814096   2.203   5.574   3.166
    1PA     H8R14097   2.133   5.657   3.184
    1PA     H8S14098   2.303   5.615   3.188
    1PA     C1714099   2.191   5.524   3.022
    1PA     H7R14100   2.242   5.429   3.007
    1PA     H7S14101   2.089   5.499   2.991
    1PA     C1614102   2.243   5.633   2.927
    1PA     H6R14103   2.181   5.722   2.918
    1PA     H6S14104   2.347   5.662   2.948
    1PA     C1514105   2.254   5.576   2.785
    1PA     H5R14106   2.158   5.531   2.760
    1PA     H5S14107   2.267   5.657   2.713
    1PA     C1414108   2.358   5.466   2.758
    1PA     H4R14109   2.453   5.491   2.805
    1PA     H4S14110   2.335   5.372   2.809
    1PA     C1314111   2.385   5.435   2.611
    1PA     H3R14112   2.291   5.404   2.565
    1PA     H3S14113   2.425   5.524   2.563
    1PA     C1214114   2.478   5.314   2.595
    1PA     H2R14115   2.574   5.336   2.641
    1PA     H2S14116   2.435   5.222   2.635
    2PC     C1114117   2.498   5.278   2.449
    2PC     O1214118   2.506   5.361   2.361
    2PC     O1114119   2.518   5.147   2.427
    2PC      C114120   2.566   5.106   2.298
    2PC      HR14121   2.540   5.003   2.271
    2PC      HS14122   2.515   5.177   2.232
    2PC      C214123   2.718   5.123   2.302
    2PC      HX14124   2.739   5.229   2.317
    2PC      C314125   2.785   5.081   2.171
    2PC      HA14126   2.758   5.156   2.096
    2PC      HB14127   2.894   5.082   2.182
    2PC     O3114128   2.733   4.954   2.127
    2PC     P3114129   2.777   4.915   1.977
    2PC     O3214130   2.630   4.886   1.920
    2PC     C3114131   2.589   4.749   1.905
    2PC     H1A14132   2.653   4.697   1.833
    2PC     H1B14133   2.591   4.690   1.997
    2PC     C3214134   2.442   4.753   1.859
    2PC     H2A14135   2.403   4.653   1.880
    2PC     H2B14136   2.392   4.826   1.923
    2PC     N3114137   2.412   4.802   1.721
    2PC     C3314138   2.449   4.945   1.696
    2PC     H3A14139   2.402   4.970   1.601
    2PC     H3B14140   2.395   5.000   1.773
    2PC     H3C14141   2.557   4.951   1.680
    2PC     C3414142   2.473   4.714   1.616
    2PC     H4A14143   2.570   4.748   1.580
    2PC     H4B14144   2.491   4.614   1.656
    2PC     H4C14145   2.413   4.707   1.525
    2PC     C3514146   2.263   4.793   1.701
    2PC     H5A14147   2.227   4.695   1.733
    2PC     H5B14148   2.250   4.814   1.594
    2PC     H5C14149   2.219   4.870   1.763
    2PC     O3314150   2.835   5.029   1.905
    2PC     O3414151   2.875   4.805   1.960
    2PC     O2114152   2.776   5.061   2.418
    2PC     C2114153   2.893   5.112   2.459
    2PC     O2214154   2.946   5.217   2.428
    3OL     C1214155   2.947   5.034   2.576
    3OL     H2R14156   3.055   5.046   2.579
    3OL     H2S14157   2.928   4.927   2.570
    3OL     C1314158   2.903   5.082   2.715
    3OL     H3R14159   2.912   5.191   2.717
    3OL     H3S14160   2.971   5.036   2.787
    3OL     C1414161   2.755   5.056   2.746
    3OL     H4R14162   2.705   5.038   2.650
    3OL     H4S14163   2.720   5.146   2.798
    3OL     C1514164   2.723   4.938   2.838
    3OL     H5R14165   2.784   4.948   2.929
    3OL     H5S14166   2.761   4.850   2.786
    3OL     C1614167   2.577   4.916   2.878
    3OL     H6R14168   2.511   4.898   2.792
    3OL     H6S14169   2.529   5.003   2.924
    3OL     C1714170   2.571   4.799   2.976
    3OL     H7R14171   2.631   4.837   3.059
    3OL     H7S14172   2.622   4.710   2.940
    3OL     C1814173   2.428   4.766   3.024
    3OL     H8R14174   2.359   4.844   2.991
    3OL     H8S14175   2.415   4.762   3.132
    3OL     C1914176   2.383   4.631   2.976
    3OL     H9R14177   2.305   4.631   2.900
    3OL    C11014178   2.437   4.516   3.015
    3OL    H10R14179   2.392   4.432   2.962
    3OL    C11114180   2.532   4.493   3.130
    3OL    H11R14181   2.603   4.573   3.148
    3OL    H11S14182   2.584   4.401   3.099
    3OL    C11214183   2.464   4.473   3.266
    3OL    H12R14184   2.391   4.393   3.251
    3OL    H12S14185   2.413   4.564   3.295
    3OL    C11314186   2.559   4.431   3.379
    3OL    H13R14187   2.636   4.507   3.394
    3OL    H13S14188   2.601   4.334   3.351
    3OL    C11414189   2.482   4.405   3.510
    3OL    H14R14190   2.389   4.348   3.504
    3OL    H14S14191   2.453   4.503   3.550
    3OL    C11514192   2.579   4.342   3.611
    3OL    H15R14193   2.653   4.410   3.654
    3OL    H15S14194   2.627   4.252   3.572
    3OL    C11614195   2.499   4.284   3.728
    3OL    H16R14196   2.440   4.198   3.696
    3OL    H16S14197   2.428   4.361   3.761
    3OL    C11714198   2.583   4.231   3.845
    3OL    H17R14199   2.671   4.187   3.798
    3OL    H17S14200   2.527   4.152   3.894
    3OL    C11814201   2.613   4.347   3.942
    3OL    H18R14202   2.525   4.399   3.981
    3OL    H18S14203   2.676   4.414   3.884
    3OL    H18T14204   2.673   4.320   4.029
    1PA    C11614205   2.924   5.859   3.854
    1PA    H16R14206   2.876   5.933   3.918
    1PA    H16S14207   2.981   5.789   3.916
    1PA    H16T14208   2.852   5.800   3.796
    1PA    C11514209   3.015   5.924   3.749
    1PA    H15R14210   3.092   5.978   3.804
    1PA    H15S14211   3.072   5.842   3.703
    1PA    C11414212   2.934   6.005   3.647
    1PA    H14R14213   2.883   5.940   3.575
    1PA    H14S14214   2.858   6.068   3.695
    1PA    C11314215   3.026   6.100   3.569
    1PA    H13R14216   3.073   6.166   3.643
    1PA    H13S14217   3.098   6.031   3.524
    1PA    C11214218   2.947   6.174   3.461
    1PA    H12R14219   2.872   6.239   3.507
    1PA    H12S14220   3.008   6.247   3.407
    1PA    C11114221   2.875   6.087   3.358
    1PA    H11R14222   2.805   6.019   3.408
    1PA    H11S14223   2.815   6.150   3.292
    1PA    C11014224   2.972   5.999   3.278
    1PA    H10R14225   3.048   6.066   3.237
    1PA    H10S14226   3.018   5.932   3.351
    1PA     C1914227   2.896   5.926   3.167
    1PA     H9R14228   2.804   5.879   3.202
    1PA     H9S14229   2.856   6.003   3.099
    1PA     C1814230   2.983   5.821   3.097
    1PA     H8R14231   3.064   5.873   3.045
    1PA     H8S14232   3.030   5.753   3.168
    1PA     C1714233   2.906   5.743   2.990
    1PA     H7R14234   2.869   5.816   2.917
    1PA     H7S14235   2.983   5.682   2.942
    1PA     C1614236   2.789   5.660   3.043
    1PA     H6R14237   2.823   5.582   3.111
    1PA     H6S14238   2.717   5.719   3.101
    1PA     C1514239   2.698   5.608   2.931
    1PA     H5R14240   2.609   5.559   2.973
    1PA     H5S14241   2.656   5.690   2.872
    1PA     C1414242   2.768   5.505   2.840
    1PA     H4R14243   2.840   5.451   2.901
    1PA     H4S14244   2.687   5.450   2.792
    1PA     C1314245   2.835   5.570   2.719
    1PA     H3R14246   2.754   5.632   2.680
    1PA     H3S14247   2.929   5.613   2.754
    1PA     C1214248   2.877   5.458   2.622
    1PA     H2R14249   2.968   5.416   2.665
    1PA     H2S14250   2.794   5.388   2.624
    2PC     C1114251   2.892   5.511   2.482
    2PC     O1214252   2.830   5.462   2.389
    2PC     O1114253   2.973   5.618   2.479
    2PC      C114254   2.986   5.686   2.353
    2PC      HR14255   3.063   5.762   2.366
    2PC      HS14256   3.011   5.608   2.280
    2PC      C214257   2.854   5.756   2.318
    2PC      HX14258   2.779   5.683   2.287
    2PC      C314259   2.887   5.837   2.192
    2PC      HA14260   2.981   5.893   2.197
    2PC      HB14261   2.905   5.771   2.107
    2PC     O3114262   2.781   5.930   2.162
    2PC     P3114263   2.792   6.011   2.024
    2PC     O3214264   2.729   5.909   1.918
    2PC     C3114265   2.721   5.946   1.780
    2PC     H1A14266   2.630   5.900   1.741
    2PC     H1B14267   2.704   6.054   1.769
    2PC     C3214268   2.847   5.906   1.703
    2PC     H2A14269   2.857   5.965   1.612
    2PC     H2B14270   2.935   5.934   1.761
    2PC     N3114271   2.879   5.761   1.678
    2PC     C3314272   2.989   5.750   1.577
    2PC     H3A14273   3.023   5.648   1.557
    2PC     H3B14274   2.961   5.797   1.483
    2PC     H3C14275   3.074   5.806   1.616
    2PC     C3414276   2.917   5.691   1.805
    2PC     H4A14277   3.005   5.738   1.848
    2PC     H4B14278   2.832   5.678   1.872
    2PC     H4C14279   2.955   5.595   1.772
    2PC     C3514280   2.759   5.684   1.629
    2PC     H5A14281   2.799   5.583   1.625
    2PC     H5B14282   2.726   5.709   1.529
    2PC     H5C14283   2.671   5.685   1.693
    2PC     O3314284   2.719   6.140   2.018
    2PC     O3414285   2.931   6.039   1.984
    2PC     O2114286   2.822   5.858   2.414
    2PC     C2114287   2.728   5.830   2.506
    2PC     O2214288   2.646   5.741   2.507
    3OL     C1214289   2.722   5.945   2.604
    3OL     H2R14290   2.725   6.042   2.555
    3OL     H2S14291   2.807   5.946   2.672
    3OL     C1314292   2.596   5.947   2.691
    3OL     H3R14293   2.604   5.847   2.733
    3OL     H3S14294   2.510   5.933   2.625
    3OL     C1414295   2.579   6.062   2.792
    3OL     H4R14296   2.511   6.143   2.764
    3OL     H4S14297   2.676   6.110   2.806
    3OL     C1514298   2.539   5.997   2.925
    3OL     H5R14299   2.618   5.930   2.960
    3OL     H5S14300   2.455   5.929   2.912
    3OL     C1614301   2.501   6.108   3.023
    3OL     H6R14302   2.432   6.183   2.983
    3OL     H6S14303   2.585   6.165   3.062
    3OL     C1714304   2.423   6.053   3.143
    3OL     H7R14305   2.333   6.000   3.111
    3OL     H7S14306   2.405   6.145   3.199
    3OL     C1814307   2.507   5.951   3.223
    3OL     H8R14308   2.601   5.998   3.253
    3OL     H8S14309   2.519   5.866   3.155
    3OL     C1914310   2.442   5.893   3.345
    3OL     H9R14311   2.334   5.900   3.359
    3OL    C11014312   2.500   5.809   3.430
    3OL    H10R14313   2.440   5.761   3.507
    3OL    C11114314   2.645   5.770   3.443
    3OL    H11R14315   2.676   5.791   3.545
    3OL    H11S14316   2.705   5.835   3.378
    3OL    C11214317   2.658   5.624   3.398
    3OL    H12R14318   2.643   5.617   3.290
    3OL    H12S14319   2.577   5.568   3.444
    3OL    C11314320   2.787   5.558   3.450
    3OL    H13R14321   2.792   5.456   3.411
    3OL    H13S14322   2.778   5.556   3.559
    3OL    C11414323   2.916   5.639   3.431
    3OL    H14R14324   2.915   5.727   3.495
    3OL    H14S14325   2.920   5.663   3.325
    3OL    C11514326   3.040   5.554   3.460
    3OL    H15R14327   3.048   5.498   3.366
    3OL    H15S14328   3.028   5.487   3.546
    3OL    C11614329   3.175   5.628   3.467
    3OL    H16R14330   3.153   5.711   3.534
    3OL    H16S14331   3.194   5.671   3.369
    3OL    C11714332   3.291   5.540   3.516
    3OL    H17R14333   3.289   5.449   3.456
    3OL    H17S14334   3.261   5.513   3.618
    3OL    C11814335   3.423   5.617   3.531
    3OL    H18R14336   3.502   5.546   3.558
    3OL    H18S14337   3.418   5.696   3.606
    3OL    H18T14338   3.451   5.660   3.435
    1PA    C11614339   3.825   4.018   3.526
    1PA    H16R14340   3.807   4.124   3.509
    1PA    H16S14341   3.841   3.965   3.432
    1PA    H16T14342   3.922   4.018   3.577
    1PA    C11514343   3.712   3.951   3.605
    1PA    H15R14344   3.731   3.848   3.636
    1PA    H15S14345   3.682   4.003   3.696
    1PA    C11414346   3.589   3.945   3.513
    1PA    H14R14347   3.506   3.931   3.582
    1PA    H14S14348   3.588   4.041   3.460
    1PA    C11314349   3.597   3.826   3.416
    1PA    H13R14350   3.680   3.846   3.348
    1PA    H13S14351   3.599   3.729   3.466
    1PA    C11214352   3.480   3.824   3.316
    1PA    H12R14353   3.388   3.818   3.373
    1PA    H12S14354   3.478   3.917   3.258
    1PA    C11114355   3.491   3.700   3.226
    1PA    H11R14356   3.590   3.700   3.181
    1PA    H11S14357   3.486   3.612   3.290
    1PA    C11014358   3.390   3.695   3.111
    1PA    H10R14359   3.286   3.703   3.145
    1PA    H10S14360   3.419   3.773   3.041
    1PA     C1914361   3.405   3.563   3.033
    1PA     H9R14362   3.509   3.559   2.998
    1PA     H9S14363   3.395   3.482   3.105
    1PA     C1814364   3.309   3.552   2.913
    1PA     H8R14365   3.210   3.550   2.959
    1PA     H8S14366   3.318   3.640   2.850
    1PA     C1714367   3.329   3.418   2.841
    1PA     H7R14368   3.430   3.407   2.798
    1PA     H7S14369   3.304   3.332   2.903
    1PA     C1614370   3.236   3.425   2.720
    1PA     H6R14371   3.129   3.424   2.743
    1PA     H6S14372   3.247   3.523   2.674
    1PA     C1514373   3.257   3.304   2.626
    1PA     H5R14374   3.362   3.298   2.598
    1PA     H5S14375   3.256   3.207   2.677
    1PA     C1414376   3.168   3.302   2.501
    1PA     H4R14377   3.063   3.292   2.529
    1PA     H4S14378   3.185   3.396   2.449
    1PA     C1314379   3.205   3.196   2.395
    1PA     H3R14380   3.224   3.107   2.456
    1PA     H3S14381   3.118   3.179   2.331
    1PA     C1214382   3.325   3.244   2.313
    1PA     H2R14383   3.294   3.320   2.241
    1PA     H2S14384   3.399   3.299   2.371
    2PC     C1114385   3.399   3.130   2.246
    2PC     O1214386   3.362   3.021   2.208
    2PC     O1114387   3.527   3.172   2.239
    2PC      C114388   3.627   3.082   2.188
    2PC      HR14389   3.638   2.996   2.254
    2PC      HS14390   3.593   3.038   2.094
    2PC      C214391   3.761   3.156   2.183
    2PC      HX14392   3.745   3.264   2.170
    2PC      C314393   3.857   3.099   2.078
    2PC      HA14394   3.821   3.118   1.977
    2PC      HB14395   3.958   3.141   2.083
    2PC     O3114396   3.871   2.956   2.089
    2PC     P3114397   3.984   2.883   2.002
    2PC     O3214398   4.114   2.957   2.061
    2PC     C3114399   4.245   2.912   2.020
    2PC     H1A14400   4.240   2.888   1.914
    2PC     H1B14401   4.316   2.995   2.028
    2PC     C3214402   4.290   2.792   2.104
    2PC     H2A14403   4.291   2.823   2.208
    2PC     H2B14404   4.221   2.708   2.097
    2PC     N3114405   4.431   2.745   2.088
    2PC     C3314406   4.463   2.625   2.172
    2PC     H3A14407   4.570   2.602   2.172
    2PC     H3B14408   4.435   2.655   2.273
    2PC     H3C14409   4.415   2.534   2.135
    2PC     C3414410   4.444   2.684   1.951
    2PC     H4A14411   4.382   2.594   1.954
    2PC     H4B14412   4.411   2.745   1.867
    2PC     H4C14413   4.548   2.663   1.926
    2PC     C3514414   4.534   2.850   2.117
    2PC     H5A14415   4.636   2.814   2.099
    2PC     H5B14416   4.528   2.883   2.221
    2PC     H5C14417   4.514   2.936   2.053
    2PC     O3314418   3.989   2.735   2.012
    2PC     O3414419   3.974   2.897   1.855
    2PC     O2114420   3.818   3.131   2.312
    2PC     C2114421   3.932   3.190   2.353
    2PC     O2214422   4.002   3.259   2.282
    3OL     C1214423   3.952   3.163   2.500
    3OL     H2R14424   3.974   3.059   2.524
    3OL     H2S14425   3.858   3.194   2.548
    3OL     C1314426   4.060   3.260   2.549
    3OL     H3R14427   4.038   3.364   2.525
    3OL     H3S14428   4.156   3.230   2.506
    3OL     C1414429   4.055   3.250   2.702
    3OL     H4R14430   4.075   3.147   2.729
    3OL     H4S14431   3.952   3.271   2.734
    3OL     C1514432   4.159   3.344   2.765
    3OL     H5R14433   4.129   3.445   2.794
    3OL     H5S14434   4.229   3.351   2.682
    3OL     C1614435   4.236   3.277   2.880
    3OL     H6R14436   4.323   3.339   2.901
    3OL     H6S14437   4.264   3.177   2.846
    3OL     C1714438   4.152   3.284   3.009
    3OL     H7R14439   4.054   3.251   2.975
    3OL     H7S14440   4.159   3.386   3.047
    3OL     C1814441   4.218   3.189   3.110
    3OL     H8R14442   4.307   3.235   3.155
    3OL     H8S14443   4.261   3.101   3.062
    3OL     C1914444   4.123   3.159   3.223
    3OL     H9R14445   4.133   3.231   3.303
    3OL    C11014446   4.061   3.043   3.242
    3OL    H10R14447   4.003   3.028   3.332
    3OL    C11114448   4.060   2.920   3.155
    3OL    H11R14449   4.096   2.828   3.201
    3OL    H11S14450   4.107   2.945   3.059
    3OL    C11214451   3.918   2.885   3.109
    3OL    H12R14452   3.866   2.969   3.064
    3OL    H12S14453   3.868   2.848   3.199
    3OL    C11314454   3.911   2.773   3.004
    3OL    H13R14455   3.972   2.691   3.044
    3OL    H13S14456   3.956   2.813   2.913
    3OL    C11414457   3.765   2.728   2.989
    3OL    H14R14458   3.707   2.811   2.947
    3OL    H14S14459   3.722   2.702   3.086
    3OL    C11514460   3.761   2.618   2.882
    3OL    H15R14461   3.832   2.539   2.906
    3OL    H15S14462   3.783   2.668   2.788
    3OL    C11614463   3.623   2.552   2.867
    3OL    H16R14464   3.544   2.627   2.861
    3OL    H16S14465   3.602   2.487   2.951
    3OL    C11714466   3.624   2.461   2.744
    3OL    H17R14467   3.696   2.380   2.760
    3OL    H17S14468   3.662   2.525   2.664
    3OL    C11814469   3.489   2.396   2.709
    3OL    H18R14470   3.507   2.327   2.626
    3OL    H18S14471   3.418   2.473   2.678
    3OL    H18T14472   3.448   2.329   2.785
    1PA    C11614473   3.729   2.102   3.532
    1PA    H16R14474   3.677   2.010   3.558
    1PA    H16S14475   3.660   2.151   3.463
    1PA    H16T14476   3.748   2.175   3.612
    1PA    C11514477   3.866   2.068   3.473
    1PA    H15R14478   3.906   2.151   3.413
    1PA    H15S14479   3.941   2.060   3.552
    1PA    C11414480   3.864   1.944   3.383
    1PA    H14R14481   3.821   1.860   3.438
    1PA    H14S14482   3.790   1.968   3.306
    1PA    C11314483   4.003   1.901   3.335
    1PA    H13R14484   4.075   1.925   3.413
    1PA    H13S14485   4.008   1.797   3.304
    1PA    C11214486   4.060   1.991   3.224
    1PA    H12R14487   3.992   1.991   3.138
    1PA    H12S14488   4.067   2.096   3.249
    1PA    C11114489   4.205   1.958   3.185
    1PA    H11R14490   4.270   1.952   3.272
    1PA    H11S14491   4.198   1.864   3.130
    1PA    C11014492   4.268   2.050   3.080
    1PA    H10R14493   4.350   1.995   3.034
    1PA    H10S14494   4.195   2.062   2.999
    1PA     C1914495   4.302   2.192   3.126
    1PA     H9R14496   4.208   2.238   3.159
    1PA     H9S14497   4.363   2.188   3.217
    1PA     C1814498   4.374   2.275   3.019
    1PA     H8R14499   4.431   2.353   3.071
    1PA     H8S14500   4.450   2.216   2.968
    1PA     C1714501   4.285   2.330   2.907
    1PA     H7R14502   4.261   2.240   2.850
    1PA     H7S14503   4.208   2.387   2.958
    1PA     C1614504   4.364   2.424   2.814
    1PA     H6R14505   4.408   2.503   2.875
    1PA     H6S14506   4.449   2.364   2.782
    1PA     C1514507   4.275   2.481   2.703
    1PA     H5R14508   4.339   2.528   2.628
    1PA     H5S14509   4.220   2.407   2.644
    1PA     C1414510   4.181   2.589   2.758
    1PA     H4R14511   4.138   2.542   2.847
    1PA     H4S14512   4.249   2.670   2.785
    1PA     C1314513   4.084   2.642   2.652
    1PA     H3R14514   4.008   2.563   2.653
    1PA     H3S14515   4.034   2.736   2.676
    1PA     C1214516   4.146   2.645   2.512
    1PA     H2R14517   4.239   2.701   2.505
    1PA     H2S14518   4.159   2.543   2.476
    2PC     C1114519   4.041   2.701   2.420
    2PC     O1214520   4.071   2.766   2.322
    2PC     O1114521   3.914   2.666   2.448
    2PC      C114522   3.802   2.703   2.366
    2PC      HR14523   3.709   2.697   2.423
    2PC      HS14524   3.831   2.803   2.333
    2PC      C214525   3.794   2.608   2.246
    2PC      HX14526   3.896   2.607   2.207
    2PC      C314527   3.691   2.659   2.143
    2PC      HA14528   3.597   2.683   2.195
    2PC      HB14529   3.716   2.754   2.095
    2PC     O3114530   3.659   2.555   2.049
    2PC     P3114531   3.567   2.597   1.925
    2PC     O3214532   3.463   2.475   1.921
    2PC     C3114533   3.322   2.504   1.934
    2PC     H1A14534   3.306   2.530   2.039
    2PC     H1B14535   3.284   2.582   1.868
    2PC     C3214536   3.246   2.374   1.905
    2PC     H2A14537   3.259   2.357   1.798
    2PC     H2B14538   3.296   2.297   1.965
    2PC     N3114539   3.100   2.379   1.938
    2PC     C3314540   3.077   2.402   2.085
    2PC     H3A14541   3.117   2.326   2.153
    2PC     H3B14542   3.113   2.500   2.114
    2PC     H3C14543   2.971   2.409   2.109
    2PC     C3414544   3.028   2.492   1.872
    2PC     H4A14545   3.045   2.590   1.918
    2PC     H4B14546   3.065   2.502   1.769
    2PC     H4C14547   2.922   2.467   1.864
    2PC     C3514548   3.055   2.239   1.911
    2PC     H5A14549   3.085   2.219   1.808
    2PC     H5B14550   2.946   2.236   1.923
    2PC     H5C14551   3.104   2.174   1.983
    2PC     O3314552   3.495   2.715   1.980
    2PC     O3414553   3.627   2.605   1.790
    2PC     O2114554   3.753   2.481   2.299
    2PC     C2114555   3.848   2.394   2.337
    2PC     O2214556   3.964   2.399   2.304
    3OL     C1214557   3.788   2.290   2.428
    3OL     H2R14558   3.745   2.216   2.360
    3OL     H2S14559   3.710   2.340   2.486
    3OL     C1314560   3.893   2.229   2.522
    3OL     H3R14561   3.928   2.309   2.589
    3OL     H3S14562   3.977   2.190   2.464
    3OL     C1414563   3.815   2.130   2.609
    3OL     H4R14564   3.781   2.046   2.549
    3OL     H4S14565   3.729   2.167   2.666
    3OL     C1514566   3.910   2.058   2.705
    3OL     H5R14567   3.999   2.011   2.663
    3OL     H5S14568   3.859   1.972   2.750
    3OL     C1614569   3.947   2.141   2.829
    3OL     H6R14570   3.991   2.234   2.790
    3OL     H6S14571   4.019   2.076   2.879
    3OL     C1714572   3.836   2.179   2.928
    3OL     H7R14573   3.783   2.093   2.968
    3OL     H7S14574   3.753   2.226   2.875
    3OL     C1814575   3.890   2.270   3.039
    3OL     H8R14576   3.943   2.350   2.986
    3OL     H8S14577   3.965   2.208   3.089
    3OL     C1914578   3.776   2.316   3.126
    3OL     H9R14579   3.683   2.263   3.109
    3OL    C11014580   3.789   2.397   3.230
    3OL    H10R14581   3.705   2.392   3.300
    3OL    C11114582   3.908   2.484   3.261
    3OL    H11R14583   3.877   2.586   3.283
    3OL    H11S14584   3.985   2.482   3.184
    3OL    C11214585   3.970   2.432   3.392
    3OL    H12R14586   4.010   2.331   3.384
    3OL    H12S14587   3.890   2.420   3.465
    3OL    C11314588   4.076   2.529   3.447
    3OL    H13R14589   4.029   2.625   3.466
    3OL    H13S14590   4.148   2.537   3.365
    3OL    C11414591   4.144   2.472   3.572
    3OL    H14R14592   4.203   2.384   3.543
    3OL    H14S14593   4.068   2.433   3.640
    3OL    C11514594   4.226   2.584   3.636
    3OL    H15R14595   4.176   2.681   3.638
    3OL    H15S14596   4.314   2.594   3.571
    3OL    C11614597   4.287   2.545   3.772
    3OL    H16R14598   4.378   2.486   3.765
    3OL    H16S14599   4.222   2.477   3.826
    3OL    C11714600   4.322   2.666   3.860
    3OL    H17R14601   4.236   2.733   3.866
    3OL    H17S14602   4.393   2.724   3.801
    3OL    C11814603   4.378   2.615   3.993
    3OL    H18R14604   4.297   2.590   4.062
    3OL    H18S14605   4.429   2.703   4.033
    3OL    H18T14606   4.449   2.531   3.995
    1PA    C11614607   1.394   1.755   3.765
    1PA    H16R14608   1.337   1.684   3.826
    1PA    H16S14609   1.359   1.856   3.787
    1PA    H16T14610   1.489   1.757   3.818
    1PA    C11514611   1.408   1.723   3.615
    1PA    H15R14612   1.488   1.778   3.565
    1PA    H15S14613   1.432   1.617   3.604
    1PA    C11414614   1.291   1.772   3.529
    1PA    H14R14615   1.192   1.744   3.566
    1PA    H14S14616   1.281   1.881   3.537
    1PA    C11314617   1.307   1.740   3.380
    1PA    H13R14618   1.409   1.764   3.351
    1PA    H13S14619   1.292   1.633   3.363
    1PA    C11214620   1.205   1.821   3.299
    1PA    H12R14621   1.106   1.807   3.343
    1PA    H12S14622   1.220   1.929   3.312
    1PA    C11114623   1.193   1.784   3.150
    1PA    H11R14624   1.281   1.816   3.094
    1PA    H11S14625   1.194   1.676   3.137
    1PA    C11014626   1.063   1.848   3.099
    1PA    H10R14627   0.978   1.807   3.153
    1PA    H10S14628   1.081   1.956   3.110
    1PA     C1914629   1.042   1.817   2.950
    1PA     H9R14630   1.067   1.714   2.925
    1PA     H9S14631   0.938   1.841   2.928
    1PA     C1814632   1.132   1.906   2.864
    1PA     H8R14633   1.114   2.014   2.872
    1PA     H8S14634   1.232   1.888   2.904
    1PA     C1714635   1.120   1.854   2.720
    1PA     H7R14636   1.121   1.746   2.733
    1PA     H7S14637   1.022   1.879   2.679
    1PA     C1614638   1.230   1.894   2.620
    1PA     H6R14639   1.229   2.002   2.600
    1PA     H6S14640   1.329   1.857   2.648
    1PA     C1514641   1.205   1.815   2.491
    1PA     H5R14642   1.195   1.707   2.503
    1PA     H5S14643   1.110   1.851   2.450
    1PA     C1414644   1.309   1.833   2.380
    1PA     H4R14645   1.319   1.940   2.360
    1PA     H4S14646   1.401   1.792   2.422
    1PA     C1314647   1.270   1.750   2.257
    1PA     H3R14648   1.351   1.756   2.185
    1PA     H3S14649   1.251   1.645   2.283
    1PA     C1214650   1.148   1.795   2.176
    1PA     H2R14651   1.058   1.771   2.233
    1PA     H2S14652   1.149   1.899   2.142
    2PC     C1114653   1.147   1.716   2.048
    2PC     O1214654   1.210   1.740   1.947
    2PC     O1114655   1.072   1.606   2.063
    2PC      C114656   1.053   1.520   1.949
    2PC      HR14657   0.970   1.454   1.977
    2PC      HS14658   1.024   1.580   1.863
    2PC      C214659   1.176   1.429   1.940
    2PC      HX14660   1.268   1.484   1.959
    2PC      C314661   1.191   1.368   1.800
    2PC      HA14662   1.233   1.439   1.728
    2PC      HB14663   1.273   1.296   1.808
    2PC     O3114664   1.069   1.302   1.761
    2PC     P3114665   1.076   1.231   1.618
    2PC     O3214666   0.935   1.156   1.625
    2PC     C3114667   0.933   1.032   1.699
    2PC     H1A14668   1.008   0.963   1.660
    2PC     H1B14669   0.949   1.042   1.806
    2PC     C3214670   0.793   0.970   1.689
    2PC     H2A14671   0.723   1.042   1.731
    2PC     H2B14672   0.770   0.960   1.583
    2PC     N3114673   0.778   0.834   1.752
    2PC     C3314674   0.644   0.779   1.713
    2PC     H3A14675   0.640   0.679   1.759
    2PC     H3B14676   0.560   0.836   1.751
    2PC     H3C14677   0.638   0.771   1.605
    2PC     C3414678   0.875   0.736   1.695
    2PC     H4A14679   0.968   0.759   1.746
    2PC     H4B14680   0.853   0.629   1.704
    2PC     H4C14681   0.862   0.756   1.588
    2PC     C3514682   0.790   0.840   1.901
    2PC     H5A14683   0.895   0.843   1.929
    2PC     H5B14684   0.743   0.753   1.948
    2PC     H5C14685   0.744   0.932   1.939
    2PC     O3314686   1.077   1.343   1.522
    2PC     O3414687   1.190   1.139   1.596
    2PC     O2114688   1.155   1.325   2.037
    2PC     C2114689   1.266   1.265   2.082
    2PC     O2214690   1.376   1.278   2.033
    3OL     C1214691   1.233   1.167   2.191
    3OL     H2R14692   1.287   1.076   2.163
    3OL     H2S14693   1.128   1.137   2.185
    3OL     C1314694   1.264   1.214   2.334
    3OL     H3R14695   1.205   1.304   2.352
    3OL     H3S14696   1.371   1.237   2.334
    3OL     C1414697   1.229   1.114   2.445
    3OL     H4R14698   1.262   1.015   2.416
    3OL     H4S14699   1.119   1.114   2.443
    3OL     C1514700   1.291   1.167   2.575
    3OL     H5R14701   1.267   1.272   2.590
    3OL     H5S14702   1.397   1.143   2.565
    3OL     C1614703   1.249   1.083   2.696
    3OL     H6R14704   1.320   1.088   2.778
    3OL     H6S14705   1.237   0.978   2.666
    3OL     C1714706   1.109   1.131   2.736
    3OL     H7R14707   1.047   1.140   2.647
    3OL     H7S14708   1.110   1.232   2.778
    3OL     C1814709   1.044   1.027   2.829
    3OL     H8R14710   1.109   1.018   2.916
    3OL     H8S14711   1.060   0.928   2.786
    3OL     C1914712   0.898   1.057   2.853
    3OL     H9R14713   0.833   1.017   2.775
    3OL    C11014714   0.840   1.113   2.958
    3OL    H10R14715   0.731   1.119   2.960
    3OL    C11114716   0.913   1.163   3.080
    3OL    H11R14717   0.875   1.262   3.105
    3OL    H11S14718   1.020   1.170   3.056
    3OL    C11214719   0.904   1.073   3.203
    3OL    H12R14720   0.894   0.970   3.170
    3OL    H12S14721   0.815   1.103   3.259
    3OL    C11314722   1.014   1.093   3.309
    3OL    H13R14723   1.010   1.199   3.336
    3OL    H13S14724   1.115   1.066   3.277
    3OL    C11414725   0.991   1.001   3.429
    3OL    H14R14726   0.890   1.028   3.462
    3OL    H14S14727   1.058   1.035   3.508
    3OL    C11514728   1.006   0.850   3.403
    3OL    H15R14729   1.107   0.829   3.369
    3OL    H15S14730   0.936   0.811   3.329
    3OL    C11614731   0.983   0.784   3.540
    3OL    H16R14732   0.880   0.789   3.575
    3OL    H16S14733   1.054   0.832   3.607
    3OL    C11714734   1.019   0.635   3.532
    3OL    H17R14735   1.120   0.625   3.493
    3OL    H17S14736   0.956   0.579   3.463
    3OL    C11814737   1.017   0.564   3.668
    3OL    H18R14738   0.912   0.556   3.698
    3OL    H18S14739   1.071   0.612   3.749
    3OL    H18T14740   1.059   0.465   3.649
    1PA    C11614741   3.081   1.413   3.573
    1PA    H16R14742   3.180   1.367   3.565
    1PA    H16S14743   3.010   1.341   3.533
    1PA    H16T14744   3.065   1.429   3.680
    1PA    C11514745   3.068   1.551   3.506
    1PA    H15R14746   2.970   1.591   3.533
    1PA    H15S14747   3.153   1.614   3.529
    1PA    C11414748   3.060   1.528   3.354
    1PA    H14R14749   2.985   1.452   3.331
    1PA    H14S14750   3.032   1.625   3.312
    1PA    C11314751   3.189   1.474   3.291
    1PA    H13R14752   3.224   1.383   3.340
    1PA    H13S14753   3.157   1.446   3.191
    1PA    C11214754   3.304   1.574   3.276
    1PA    H12R14755   3.270   1.660   3.218
    1PA    H12S14756   3.332   1.615   3.373
    1PA    C11114757   3.432   1.511   3.219
    1PA    H11R14758   3.485   1.442   3.285
    1PA    H11S14759   3.419   1.452   3.128
    1PA    C11014760   3.537   1.617   3.183
    1PA    H10R14761   3.493   1.681   3.107
    1PA    H10S14762   3.572   1.685   3.260
    1PA     C1914763   3.662   1.551   3.124
    1PA     H9R14764   3.709   1.500   3.208
    1PA     H9S14765   3.653   1.467   3.055
    1PA     C1814766   3.774   1.643   3.071
    1PA     H8R14767   3.738   1.708   2.991
    1PA     H8S14768   3.803   1.699   3.160
    1PA     C1714769   3.880   1.549   3.013
    1PA     H7R14770   3.919   1.480   3.089
    1PA     H7S14771   3.848   1.482   2.933
    1PA     C1614772   3.996   1.638   2.965
    1PA     H6R14773   4.025   1.718   3.032
    1PA     H6S14774   4.080   1.569   2.955
    1PA     C1514775   3.979   1.701   2.826
    1PA     H5R14776   3.890   1.764   2.816
    1PA     H5S14777   4.061   1.773   2.825
    1PA     C1414778   3.995   1.597   2.714
    1PA     H4R14779   4.096   1.555   2.709
    1PA     H4S14780   3.919   1.521   2.732
    1PA     C1314781   3.977   1.666   2.578
    1PA     H3R14782   3.960   1.588   2.503
    1PA     H3S14783   3.882   1.718   2.584
    1PA     C1214784   4.097   1.749   2.529
    1PA     H2R14785   4.147   1.801   2.611
    1PA     H2S14786   4.176   1.685   2.489
    2PC     C1114787   4.061   1.840   2.415
    2PC     O1214788   3.953   1.848   2.359
    2PC     O1114789   4.168   1.907   2.369
    2PC      C114790   4.158   2.004   2.264
    2PC      HR14791   4.105   1.954   2.183
    2PC      HS14792   4.101   2.084   2.312
    2PC      C214793   4.297   2.056   2.222
    2PC      HX14794   4.291   2.140   2.152
    2PC      C314795   4.375   1.953   2.140
    2PC      HA14796   4.436   1.895   2.210
    2PC      HB14797   4.308   1.886   2.087
    2PC     O3114798   4.464   2.017   2.047
    2PC     P3114799   4.534   1.938   1.926
    2PC     O3214800   4.667   1.903   2.007
    2PC     C3114801   4.739   2.006   2.078
    2PC     H1A14802   4.769   2.089   2.013
    2PC     H1B14803   4.676   2.054   2.153
    2PC     C3214804   4.864   1.945   2.143
    2PC     H2A14805   4.925   1.884   2.077
    2PC     H2B14806   4.929   2.022   2.184
    2PC     N3114807   4.838   1.858   2.263
    2PC     C3314808   4.972   1.829   2.324
    2PC     H3A14809   5.029   1.769   2.254
    2PC     H3B14810   5.026   1.923   2.333
    2PC     H3C14811   4.975   1.774   2.418
    2PC     C3414812   4.770   1.948   2.360
    2PC     H4A14813   4.760   1.896   2.456
    2PC     H4B14814   4.839   2.032   2.373
    2PC     H4C14815   4.670   1.980   2.329
    2PC     C3514816   4.766   1.730   2.231
    2PC     H5A14817   4.670   1.756   2.187
    2PC     H5B14818   4.749   1.685   2.329
    2PC     H5C14819   4.832   1.667   2.170
    2PC     O3314820   4.453   1.821   1.884
    2PC     O3414821   4.572   2.027   1.813
    2PC     O2114822   4.371   2.094   2.340
    2PC     C2114823   4.362   2.212   2.404
    2PC     O2214824   4.287   2.302   2.374
    3OL     C1214825   4.465   2.232   2.512
    3OL     H2R14826   4.490   2.336   2.535
    3OL     H2S14827   4.551   2.180   2.469
    3OL     C1314828   4.413   2.154   2.634
    3OL     H3R14829   4.309   2.176   2.659
    3OL     H3S14830   4.470   2.183   2.722
    3OL     C1414831   4.448   2.005   2.625
    3OL     H4R14832   4.555   1.982   2.624
    3OL     H4S14833   4.410   1.962   2.532
    3OL     C1514834   4.384   1.939   2.747
    3OL     H5R14835   4.275   1.934   2.741
    3OL     H5S14836   4.402   2.001   2.835
    3OL     C1614837   4.434   1.796   2.769
    3OL     H6R14838   4.543   1.788   2.764
    3OL     H6S14839   4.398   1.740   2.682
    3OL     C1714840   4.381   1.733   2.898
    3OL     H7R14841   4.282   1.692   2.876
    3OL     H7S14842   4.358   1.804   2.978
    3OL     C1814843   4.467   1.612   2.939
    3OL     H8R14844   4.498   1.561   2.848
    3OL     H8S14845   4.405   1.549   3.002
    3OL     C1914846   4.595   1.646   3.010
    3OL     H9R14847   4.666   1.701   2.949
    3OL    C11014848   4.632   1.621   3.135
    3OL    H10R14849   4.727   1.666   3.162
    3OL    C11114850   4.553   1.545   3.238
    3OL    H11R14851   4.611   1.465   3.284
    3OL    H11S14852   4.461   1.508   3.192
    3OL    C11214853   4.519   1.643   3.352
    3OL    H12R14854   4.454   1.715   3.301
    3OL    H12S14855   4.610   1.691   3.388
    3OL    C11314856   4.447   1.582   3.472
    3OL    H13R14857   4.515   1.508   3.514
    3OL    H13S14858   4.359   1.525   3.441
    3OL    C11414859   4.394   1.676   3.582
    3OL    H14R14860   4.295   1.711   3.552
    3OL    H14S14861   4.473   1.750   3.598
    3OL    C11514862   4.385   1.617   3.723
    3OL    H15R14863   4.377   1.702   3.792
    3OL    H15S14864   4.472   1.558   3.750
    3OL    C11614865   4.254   1.537   3.730
    3OL    H16R14866   4.245   1.466   3.647
    3OL    H16S14867   4.173   1.609   3.722
    3OL    C11714868   4.233   1.466   3.865
    3OL    H17R14869   4.192   1.543   3.930
    3OL    H17S14870   4.324   1.427   3.911
    3OL    C11814871   4.132   1.352   3.846
    3OL    H18R14872   4.161   1.298   3.755
    3OL    H18S14873   4.029   1.387   3.834
    3OL    H18T14874   4.136   1.281   3.929
    1PA    C11614875   2.332   0.953   3.391
    1PA    H16R14876   2.257   0.982   3.317
    1PA    H16S14877   2.336   1.007   3.486
    1PA    H16T14878   2.314   0.846   3.401
    1PA    C11514879   2.468   0.977   3.325
    1PA    H15R14880   2.483   1.084   3.311
    1PA    H15S14881   2.550   0.940   3.387
    1PA    C11414882   2.482   0.902   3.192
    1PA    H14R14883   2.488   0.800   3.231
    1PA    H14S14884   2.392   0.928   3.135
    1PA    C11314885   2.604   0.941   3.107
    1PA    H13R14886   2.591   1.044   3.073
    1PA    H13S14887   2.696   0.931   3.165
    1PA    C11214888   2.615   0.853   2.982
    1PA    H12R14889   2.616   0.749   3.015
    1PA    H12S14890   2.531   0.869   2.914
    1PA    C11114891   2.743   0.888   2.905
    1PA    H11R14892   2.715   0.983   2.860
    1PA    H11S14893   2.828   0.895   2.973
    1PA    C11014894   2.770   0.775   2.804
    1PA    H10R14895   2.781   0.682   2.861
    1PA    H10S14896   2.686   0.754   2.737
    1PA     C1914897   2.905   0.799   2.736
    1PA     H9R14898   2.906   0.712   2.670
    1PA     H9S14899   2.984   0.791   2.810
    1PA     C1814900   2.916   0.927   2.651
    1PA     H8R14901   2.833   0.957   2.586
    1PA     H8S14902   2.926   1.014   2.717
    1PA     C1714903   3.039   0.912   2.561
    1PA     H7R14904   3.060   1.009   2.517
    1PA     H7S14905   3.121   0.877   2.625
    1PA     C1614906   3.024   0.805   2.452
    1PA     H6R14907   3.041   0.703   2.487
    1PA     H6S14908   2.923   0.803   2.410
    1PA     C1514909   3.133   0.825   2.346
    1PA     H5R14910   3.123   0.925   2.301
    1PA     H5S14911   3.230   0.827   2.396
    1PA     C1414912   3.147   0.720   2.235
    1PA     H4R14913   3.247   0.739   2.193
    1PA     H4S14914   3.142   0.620   2.277
    1PA     C1314915   3.039   0.743   2.129
    1PA     H3R14916   2.947   0.696   2.167
    1PA     H3S14917   3.028   0.852   2.123
    1PA     C1214918   3.084   0.681   1.996
    1PA     H2R14919   3.159   0.745   1.948
    1PA     H2S14920   3.126   0.583   2.018
    2PC     C1114921   2.974   0.673   1.894
    2PC     O1214922   2.927   0.567   1.858
    2PC     O1114923   2.928   0.791   1.848
    2PC      C114924   2.803   0.799   1.777
    2PC      HR14925   2.784   0.905   1.755
    2PC      HS14926   2.804   0.740   1.685
    2PC      C214927   2.688   0.744   1.863
    2PC      HX14928   2.703   0.636   1.876
    2PC      C314929   2.558   0.778   1.789
    2PC      HA14930   2.549   0.707   1.706
    2PC      HB14931   2.470   0.745   1.845
    2PC     O3114932   2.549   0.917   1.753
    2PC     P3114933   2.414   0.971   1.686
    2PC     O3214934   2.422   0.898   1.544
    2PC     C3114935   2.509   0.943   1.439
    2PC     H1A14936   2.604   0.973   1.484
    2PC     H1B14937   2.536   0.867   1.364
    2PC     C3214938   2.442   1.054   1.358
    2PC     H2A14939   2.373   1.011   1.286
    2PC     H2B14940   2.394   1.129   1.422
    2PC     N3114941   2.542   1.130   1.275
    2PC     C3314942   2.617   1.035   1.188
    2PC     H3A14943   2.544   0.968   1.142
    2PC     H3B14944   2.659   1.098   1.110
    2PC     H3C14945   2.696   0.981   1.242
    2PC     C3414946   2.477   1.236   1.191
    2PC     H4A14947   2.547   1.287   1.125
    2PC     H4B14948   2.399   1.185   1.135
    2PC     H4C14949   2.424   1.313   1.247
    2PC     C3514950   2.634   1.206   1.366
    2PC     H5A14951   2.686   1.144   1.440
    2PC     H5B14952   2.577   1.285   1.415
    2PC     H5C14953   2.709   1.255   1.303
    2PC     O3314954   2.295   0.925   1.762
    2PC     O3414955   2.390   1.115   1.663
    2PC     O2114956   2.684   0.810   1.990
    2PC     C2114957   2.615   0.751   2.088
    2PC     O2214958   2.581   0.635   2.079
    3OL     C1214959   2.603   0.834   2.214
    3OL     H2R14960   2.528   0.913   2.198
    3OL     H2S14961   2.704   0.874   2.225
    3OL     C1314962   2.561   0.750   2.335
    3OL     H3R14963   2.616   0.656   2.331
    3OL     H3S14964   2.457   0.714   2.335
    3OL     C1414965   2.589   0.817   2.470
    3OL     H4R14966   2.693   0.849   2.466
    3OL     H4S14967   2.566   0.738   2.542
    3OL     C1514968   2.491   0.934   2.488
    3OL     H5R14969   2.387   0.910   2.467
    3OL     H5S14970   2.523   1.017   2.425
    3OL     C1614971   2.500   0.996   2.629
    3OL     H6R14972   2.603   0.999   2.664
    3OL     H6S14973   2.438   0.931   2.690
    3OL     C1714974   2.440   1.137   2.627
    3OL     H7R14975   2.341   1.136   2.581
    3OL     H7S14976   2.498   1.217   2.581
    3OL     C1814977   2.415   1.187   2.770
    3OL     H8R14978   2.388   1.292   2.761
    3OL     H8S14979   2.507   1.187   2.827
    3OL     C1914980   2.299   1.119   2.839
    3OL     H9R14981   2.243   1.050   2.777
    3OL    C11014982   2.270   1.135   2.967
    3OL    H10R14983   2.188   1.082   3.015
    3OL    C11114984   2.327   1.237   3.063
    3OL    H11R14985   2.421   1.271   3.019
    3OL    H11S14986   2.360   1.180   3.150
    3OL    C11214987   2.231   1.353   3.092
    3OL    H12R14988   2.142   1.317   3.144
    3OL    H12S14989   2.213   1.421   3.009
    3OL    C11314990   2.293   1.444   3.200
    3OL    H13R14991   2.232   1.534   3.189
    3OL    H13S14992   2.392   1.468   3.160
    3OL    C11414993   2.288   1.386   3.342
    3OL    H14R14994   2.390   1.394   3.381
    3OL    H14S14995   2.272   1.278   3.339
    3OL    C11514996   2.193   1.466   3.432
    3OL    H15R14997   2.087   1.457   3.407
    3OL    H15S14998   2.216   1.571   3.417
    3OL    C11614999   2.216   1.449   3.583
    3OL    H16R15000   2.222   1.546   3.632
    3OL    H16S15001   2.310   1.400   3.609
    3OL    C11715002   2.095   1.379   3.646
    3OL    H17R15003   2.004   1.422   3.604
    3OL    H17S15004   2.099   1.396   3.754
    3OL    C11815005   2.088   1.229   3.612
    3OL    H18R15006   2.175   1.185   3.662
    3OL    H18S15007   2.098   1.220   3.504
    3OL    H18T15008   1.991   1.189   3.642
    1PA    C11615009   1.297   0.518   3.830
    1PA    H16R15010   1.342   0.610   3.868
    1PA    H16S15011   1.197   0.509   3.873
    1PA    H16T15012   1.299   0.540   3.723
    1PA    C11515013   1.397   0.406   3.865
    1PA    H15R15014   1.408   0.417   3.973
    1PA    H15S15015   1.356   0.307   3.844
    1PA    C11415016   1.533   0.429   3.797
    1PA    H14R15017   1.558   0.531   3.827
    1PA    H14S15018   1.597   0.360   3.852
    1PA    C11315019   1.539   0.395   3.648
    1PA    H13R15020   1.493   0.297   3.632
    1PA    H13S15021   1.474   0.458   3.588
    1PA    C11215022   1.681   0.385   3.588
    1PA    H12R15023   1.757   0.358   3.662
    1PA    H12S15024   1.690   0.305   3.515
    1PA    C11115025   1.717   0.519   3.523
    1PA    H11R15026   1.694   0.601   3.591
    1PA    H11S15027   1.823   0.521   3.500
    1PA    C11015028   1.648   0.526   3.386
    1PA    H10R15029   1.669   0.432   3.335
    1PA    H10S15030   1.540   0.532   3.403
    1PA     C1915031   1.698   0.645   3.303
    1PA     H9R15032   1.686   0.737   3.360
    1PA     H9S15033   1.806   0.630   3.296
    1PA     C1815034   1.619   0.646   3.171
    1PA     H8R15035   1.633   0.550   3.120
    1PA     H8S15036   1.513   0.657   3.194
    1PA     C1715037   1.660   0.755   3.071
    1PA     H7R15038   1.644   0.850   3.123
    1PA     H7S15039   1.767   0.739   3.058
    1PA     C1615040   1.587   0.745   2.937
    1PA     H6R15041   1.619   0.654   2.886
    1PA     H6S15042   1.479   0.738   2.949
    1PA     C1515043   1.619   0.859   2.840
    1PA     H5R15044   1.566   0.948   2.877
    1PA     H5S15045   1.727   0.872   2.834
    1PA     C1415046   1.576   0.816   2.699
    1PA     H4R15047   1.630   0.721   2.690
    1PA     H4S15048   1.468   0.815   2.686
    1PA     C1315049   1.629   0.915   2.594
    1PA     H3R15050   1.568   1.003   2.616
    1PA     H3S15051   1.734   0.945   2.592
    1PA     C1215052   1.590   0.859   2.457
    1PA     H2R15053   1.670   0.791   2.430
    1PA     H2S15054   1.491   0.812   2.457
    2PC     C1115055   1.580   0.970   2.355
    2PC     O1215056   1.610   1.085   2.375
    2PC     O1115057   1.524   0.924   2.242
    2PC      C115058   1.533   1.001   2.121
    2PC      HR15059   1.447   0.976   2.059
    2PC      HS15060   1.523   1.106   2.150
    2PC      C215061   1.661   0.982   2.038
    2PC      HX15062   1.652   1.055   1.957
    2PC      C315063   1.661   0.843   1.973
    2PC      HA15064   1.751   0.825   1.914
    2PC      HB15065   1.655   0.763   2.048
    2PC     O3115066   1.548   0.822   1.887
    2PC     P3115067   1.544   0.888   1.741
    2PC     O3215068   1.674   0.824   1.671
    2PC     C3115069   1.677   0.685   1.636
    2PC     H1A15070   1.778   0.649   1.618
    2PC     H1B15071   1.623   0.624   1.709
    2PC     C3215072   1.611   0.671   1.498
    2PC     H2A15073   1.506   0.698   1.515
    2PC     H2B15074   1.657   0.732   1.421
    2PC     N3115075   1.616   0.535   1.436
    2PC     C3315076   1.527   0.525   1.315
    2PC     H3A15077   1.570   0.592   1.240
    2PC     H3B15078   1.517   0.423   1.278
    2PC     H3C15079   1.433   0.569   1.349
    2PC     C3415080   1.754   0.505   1.386
    2PC     H4A15081   1.760   0.399   1.359
    2PC     H4B15082   1.775   0.560   1.295
    2PC     H4C15083   1.838   0.515   1.455
    2PC     C3515084   1.570   0.432   1.535
    2PC     H5A15085   1.581   0.334   1.489
    2PC     H5B15086   1.466   0.453   1.557
    2PC     H5C15087   1.632   0.439   1.624
    2PC     O3315088   1.417   0.846   1.678
    2PC     O3415089   1.558   1.035   1.733
    2PC     O2115090   1.768   1.012   2.128
    2PC     C2115091   1.892   1.042   2.085
    2PC     O2215092   1.911   1.066   1.967
    3OL     C1215093   1.988   1.063   2.199
    3OL     H2R15094   1.979   1.156   2.255
    3OL     H2S15095   2.086   1.066   2.152
    3OL     C1315096   1.983   0.951   2.304
    3OL     H3R15097   1.984   0.852   2.258
    3OL     H3S15098   1.895   0.948   2.369
    3OL     C1415099   2.105   0.963   2.396
    3OL     H4R15100   2.098   1.061   2.444
    3OL     H4S15101   2.196   0.959   2.336
    3OL     C1515102   2.094   0.853   2.502
    3OL     H5R15103   1.989   0.840   2.530
    3OL     H5S15104   2.159   0.890   2.582
    3OL     C1615105   2.169   0.733   2.443
    3OL     H6R15106   2.244   0.687   2.508
    3OL     H6S15107   2.224   0.753   2.351
    3OL     C1715108   2.072   0.627   2.388
    3OL     H7R15109   2.128   0.551   2.332
    3OL     H7S15110   2.003   0.668   2.313
    3OL     C1815111   1.999   0.545   2.495
    3OL     H8R15112   2.078   0.501   2.555
    3OL     H8S15113   1.950   0.464   2.440
    3OL     C1915114   1.898   0.619   2.577
    3OL     H9R15115   1.803   0.634   2.526
    3OL    C11015116   1.912   0.633   2.708
    3OL    H10R15117   1.822   0.663   2.761
    3OL    C11115118   2.043   0.631   2.784
    3OL    H11R15119   2.133   0.637   2.723
    3OL    H11S15120   2.045   0.538   2.840
    3OL    C11215121   2.053   0.743   2.888
    3OL    H12R15122   1.951   0.767   2.918
    3OL    H12S15123   2.079   0.840   2.845
    3OL    C11315124   2.147   0.715   3.006
    3OL    H13R15125   2.159   0.810   3.058
    3OL    H13S15126   2.253   0.700   2.984
    3OL    C11415127   2.085   0.611   3.101
    3OL    H14R15128   2.077   0.512   3.057
    3OL    H14S15129   1.989   0.646   3.139
    3OL    C11515130   2.170   0.607   3.229
    3OL    H15R15131   2.188   0.708   3.268
    3OL    H15S15132   2.266   0.562   3.203
    3OL    C11615133   2.102   0.520   3.335
    3OL    H16R15134   2.000   0.553   3.361
    3OL    H16S15135   2.166   0.513   3.423
    3OL    C11715136   2.088   0.375   3.287
    3OL    H17R15137   2.190   0.338   3.275
    3OL    H17S15138   2.048   0.365   3.186
    3OL    C11815139   2.020   0.281   3.386
    3OL    H18R15140   2.007   0.184   3.337
    3OL    H18S15141   1.920   0.318   3.407
    3OL    H18T15142   2.088   0.268   3.471
    1PA    C11615143   4.391   4.824   3.825
    1PA    H16R15144   4.360   4.740   3.887
    1PA    H16S15145   4.300   4.874   3.791
    1PA    H16T15146   4.421   4.900   3.898
    1PA    C11515147   4.492   4.785   3.717
    1PA    H15R15148   4.516   4.874   3.659
    1PA    H15S15149   4.585   4.749   3.762
    1PA    C11415150   4.423   4.689   3.619
    1PA    H14R15151   4.358   4.617   3.669
    1PA    H14S15152   4.367   4.755   3.553
    1PA    C11315153   4.530   4.619   3.534
    1PA    H13R15154   4.598   4.688   3.484
    1PA    H13S15155   4.594   4.573   3.609
    1PA    C11215156   4.478   4.519   3.429
    1PA    H12R15157   4.565   4.488   3.371
    1PA    H12S15158   4.422   4.438   3.476
    1PA    C11115159   4.378   4.590   3.337
    1PA    H11R15160   4.295   4.637   3.390
    1PA    H11S15161   4.439   4.667   3.289
    1PA    C11015162   4.316   4.503   3.227
    1PA    H10R15163   4.254   4.423   3.270
    1PA    H10S15164   4.245   4.560   3.167
    1PA     C1915165   4.417   4.435   3.134
    1PA     H9R15166   4.485   4.513   3.099
    1PA     H9S15167   4.474   4.356   3.183
    1PA     C1815168   4.348   4.377   3.009
    1PA     H8R15169   4.280   4.296   3.035
    1PA     H8S15170   4.299   4.464   2.964
    1PA     C1715171   4.459   4.318   2.920
    1PA     H7R15172   4.525   4.399   2.889
    1PA     H7S15173   4.525   4.258   2.983
    1PA     C1615174   4.407   4.243   2.797
    1PA     H6R15175   4.495   4.204   2.746
    1PA     H6S15176   4.341   4.162   2.831
    1PA     C1515177   4.325   4.334   2.705
    1PA     H5R15178   4.237   4.381   2.750
    1PA     H5S15179   4.390   4.415   2.671
    1PA     C1415180   4.277   4.257   2.582
    1PA     H4R15181   4.355   4.212   2.520
    1PA     H4S15182   4.213   4.179   2.622
    1PA     C1315183   4.179   4.352   2.511
    1PA     H3R15184   4.112   4.401   2.582
    1PA     H3S15185   4.234   4.439   2.476
    1PA     C1215186   4.105   4.296   2.389
    1PA     H2R15187   4.178   4.258   2.318
    1PA     H2S15188   4.044   4.212   2.423
    2PC     C1115189   4.002   4.391   2.333
    2PC     O1215190   3.884   4.366   2.337
    2PC     O1115191   4.064   4.501   2.286
    2PC      C115192   3.971   4.591   2.223
    2PC      HR15193   3.911   4.540   2.147
    2PC      HS15194   3.904   4.622   2.303
    2PC      C215195   4.052   4.711   2.171
    2PC      HX15196   3.984   4.788   2.134
    2PC      C315197   4.137   4.663   2.053
    2PC      HA15198   4.195   4.577   2.088
    2PC      HB15199   4.068   4.616   1.983
    2PC     O3115200   4.219   4.771   2.003
    2PC     P3115201   4.370   4.796   2.050
    2PC     O3215202   4.346   4.937   2.121
    2PC     C3115203   4.306   5.047   2.037
    2PC     H1A15204   4.393   5.061   1.972
    2PC     H1B15205   4.211   5.027   1.987
    2PC     C3215206   4.284   5.173   2.122
    2PC     H2A15207   4.228   5.244   2.062
    2PC     H2B15208   4.219   5.149   2.207
    2PC     N3115209   4.405   5.241   2.178
    2PC     C3315210   4.505   5.292   2.079
    2PC     H3A15211   4.482   5.392   2.040
    2PC     H3B15212   4.594   5.309   2.140
    2PC     H3C15213   4.546   5.223   2.006
    2PC     C3415214   4.378   5.365   2.258
    2PC     H4A15215   4.313   5.336   2.341
    2PC     H4B15216   4.474   5.406   2.287
    2PC     H4C15217   4.316   5.416   2.185
    2PC     C3515218   4.480   5.147   2.267
    2PC     H5A15219   4.424   5.115   2.355
    2PC     H5B15220   4.569   5.202   2.296
    2PC     H5C15221   4.516   5.056   2.218
    2PC     O3315222   4.428   4.688   2.133
    2PC     O3415223   4.439   4.801   1.920
    2PC     O2115224   4.124   4.765   2.284
    2PC     C2115225   4.073   4.813   2.398
    2PC     O2215226   3.957   4.843   2.417
    3OL     C1215227   4.177   4.846   2.501
    3OL     H2R15228   4.142   4.925   2.568
    3OL     H2S15229   4.270   4.877   2.453
    3OL     C1315230   4.213   4.722   2.584
    3OL     H3R15231   4.261   4.636   2.538
    3OL     H3S15232   4.119   4.673   2.611
    3OL     C1415233   4.277   4.763   2.718
    3OL     H4R15234   4.269   4.677   2.784
    3OL     H4S15235   4.218   4.848   2.752
    3OL     C1515236   4.425   4.799   2.698
    3OL     H5R15237   4.433   4.884   2.630
    3OL     H5S15238   4.482   4.720   2.648
    3OL     C1615239   4.488   4.836   2.833
    3OL     H6R15240   4.419   4.888   2.899
    3OL     H6S15241   4.573   4.898   2.803
    3OL     C1715242   4.541   4.718   2.917
    3OL     H7R15243   4.620   4.672   2.859
    3OL     H7S15244   4.461   4.648   2.942
    3OL     C1815245   4.616   4.768   3.041
    3OL     H8R15246   4.543   4.810   3.111
    3OL     H8S15247   4.678   4.849   3.000
    3OL     C1915248   4.703   4.669   3.114
    3OL     H9R15249   4.678   4.564   3.101
    3OL    C11015250   4.812   4.698   3.183
    3OL    H10R15251   4.871   4.616   3.224
    3OL    C11115252   4.863   4.836   3.217
    3OL    H11R15253   4.821   4.916   3.155
    3OL    H11S15254   4.971   4.839   3.200
    3OL    C11215255   4.829   4.851   3.366
    3OL    H12R15256   4.852   4.757   3.416
    3OL    H12S15257   4.721   4.859   3.378
    3OL    C11315258   4.910   4.960   3.438
    3OL    H13R15259   4.893   5.054   3.385
    3OL    H13S15260   5.016   4.936   3.439
    3OL    C11415261   4.858   4.964   3.583
    3OL    H14R15262   4.856   4.860   3.615
    3OL    H14S15263   4.751   4.985   3.583
    3OL    C11515264   4.934   5.058   3.678
    3OL    H15R15265   5.040   5.074   3.658
    3OL    H15S15266   4.949   5.018   3.778
    3OL    C11615267   4.869   5.197   3.696
    3OL    H16R15268   4.764   5.180   3.720
    3OL    H16S15269   4.875   5.255   3.603
    3OL    C11715270   4.927   5.278   3.812
    3OL    H17R15271   5.033   5.290   3.789
    3OL    H17S15272   4.909   5.213   3.898
    3OL    C11815273   4.854   5.412   3.829
    3OL    H18R15274   4.745   5.408   3.834
    3OL    H18S15275   4.877   5.482   3.748
    3OL    H18T15276   4.890   5.460   3.920
    1PA    C11615277   3.841   0.188   4.060
    1PA    H16R15278   3.836   0.173   3.952
    1PA    H16S15279   3.743   0.207   4.105
    1PA    H16T15280   3.879   0.096   4.105
    1PA    C11515281   3.928   0.313   4.079
    1PA    H15R15282   3.939   0.325   4.187
    1PA    H15S15283   4.028   0.304   4.036
    1PA    C11415284   3.860   0.436   4.020
    1PA    H14R15285   3.752   0.421   4.031
    1PA    H14S15286   3.887   0.529   4.071
    1PA    C11315287   3.897   0.462   3.873
    1PA    H13R15288   4.006   0.466   3.871
    1PA    H13S15289   3.862   0.378   3.812
    1PA    C11215290   3.840   0.591   3.812
    1PA    H12R15291   3.735   0.601   3.838
    1PA    H12S15292   3.897   0.678   3.846
    1PA    C11115293   3.876   0.583   3.663
    1PA    H11R15294   3.983   0.596   3.649
    1PA    H11S15295   3.868   0.485   3.614
    1PA    C11015296   3.811   0.690   3.575
    1PA    H10R15297   3.703   0.674   3.576
    1PA    H10S15298   3.833   0.790   3.614
    1PA     C1915299   3.858   0.671   3.430
    1PA     H9R15300   3.845   0.565   3.407
    1PA     H9S15301   3.789   0.724   3.363
    1PA     C1815302   4.004   0.705   3.397
    1PA     H8R15303   4.029   0.810   3.412
    1PA     H8S15304   4.066   0.650   3.468
    1PA     C1715305   4.037   0.659   3.255
    1PA     H7R15306   4.027   0.551   3.246
    1PA     H7S15307   3.959   0.697   3.188
    1PA     C1615308   4.175   0.715   3.217
    1PA     H6R15309   4.182   0.820   3.247
    1PA     H6S15310   4.257   0.665   3.267
    1PA     C1515311   4.203   0.697   3.067
    1PA     H5R15312   4.177   0.594   3.042
    1PA     H5S15313   4.129   0.761   3.019
    1PA     C1415314   4.346   0.736   3.027
    1PA     H4R15315   4.370   0.835   3.065
    1PA     H4S15316   4.416   0.664   3.070
    1PA     C1315317   4.368   0.731   2.875
    1PA     H3R15318   4.313   0.647   2.831
    1PA     H3S15319   4.323   0.821   2.832
    1PA     C1215320   4.515   0.700   2.841
    1PA     H2R15321   4.580   0.778   2.879
    1PA     H2S15322   4.543   0.601   2.879
    2PC     C1115323   4.544   0.712   2.693
    2PC     O1215324   4.636   0.655   2.639
    2PC     O1115325   4.466   0.805   2.634
    2PC      C115326   4.515   0.849   2.507
    2PC      HR15327   4.603   0.913   2.517
    2PC      HS15328   4.543   0.755   2.458
    2PC      C215329   4.395   0.921   2.444
    2PC      HX15330   4.310   0.851   2.441
    2PC      C315331   4.434   0.951   2.298
    2PC      HA15332   4.402   1.048   2.259
    2PC      HB15333   4.541   0.945   2.277
    2PC     O3115334   4.369   0.856   2.211
    2PC     P3115335   4.398   0.880   2.056
    2PC     O3215336   4.276   0.788   2.007
    2PC     C3115337   4.212   0.827   1.884
    2PC     H1A15338   4.182   0.932   1.897
    2PC     H1B15339   4.270   0.812   1.793
    2PC     C3215340   4.076   0.756   1.892
    2PC     H2A15341   4.088   0.647   1.882
    2PC     H2B15342   4.037   0.777   1.992
    2PC     N3115343   3.971   0.792   1.793
    2PC     C3315344   4.017   0.766   1.652
    2PC     H3A15345   3.932   0.772   1.583
    2PC     H3B15346   4.098   0.836   1.632
    2PC     H3C15347   4.060   0.666   1.654
    2PC     C3415348   3.846   0.710   1.812
    2PC     H4A15349   3.877   0.606   1.806
    2PC     H4B15350   3.799   0.726   1.909
    2PC     H4C15351   3.772   0.725   1.734
    2PC     C3515352   3.930   0.934   1.820
    2PC     H5A15353   3.852   0.965   1.751
    2PC     H5B15354   4.017   0.997   1.801
    2PC     H5C15355   3.900   0.956   1.922
    2PC     O3315356   4.385   1.022   2.014
    2PC     O3415357   4.537   0.832   2.036
    2PC     O2115358   4.360   1.043   2.511
    2PC     C2115359   4.262   1.125   2.470
    2PC     O2215360   4.178   1.095   2.388
    3OL     C1215361   4.260   1.256   2.545
    3OL     H2R15362   4.174   1.321   2.526
    3OL     H2S15363   4.345   1.318   2.514
    3OL     C1315364   4.296   1.247   2.694
    3OL     H3R15365   4.314   1.347   2.734
    3OL     H3S15366   4.387   1.189   2.705
    3OL     C1415367   4.185   1.175   2.771
    3OL     H4R15368   4.150   1.092   2.709
    3OL     H4S15369   4.095   1.236   2.786
    3OL     C1515370   4.232   1.126   2.908
    3OL     H5R15371   4.320   1.061   2.896
    3OL     H5S15372   4.158   1.056   2.948
    3OL     C1615373   4.259   1.239   3.009
    3OL     H6R15374   4.172   1.303   2.996
    3OL     H6S15375   4.352   1.290   2.985
    3OL     C1715376   4.279   1.186   3.151
    3OL     H7R15377   4.323   1.264   3.213
    3OL     H7S15378   4.352   1.104   3.152
    3OL     C1815379   4.141   1.153   3.211
    3OL     H8R15380   4.107   1.052   3.190
    3OL     H8S15381   4.061   1.212   3.165
    3OL     C1915382   4.143   1.161   3.361
    3OL     H9R15383   4.183   1.071   3.409
    3OL    C11015384   4.118   1.269   3.433
    3OL    H10R15385   4.123   1.267   3.542
    3OL    C11115386   4.067   1.396   3.371
    3OL    H11R15387   4.086   1.400   3.264
    3OL    H11S15388   4.127   1.473   3.421
    3OL    C11215389   3.918   1.412   3.402
    3OL    H12R15390   3.868   1.320   3.370
    3OL    H12S15391   3.886   1.499   3.343
    3OL    C11315392   3.892   1.453   3.547
    3OL    H13R15393   3.923   1.558   3.551
    3OL    H13S15394   3.957   1.405   3.620
    3OL    C11415395   3.749   1.445   3.602
    3OL    H14R15396   3.682   1.517   3.554
    3OL    H14S15397   3.742   1.474   3.708
    3OL    C11515398   3.684   1.307   3.598
    3OL    H15R15399   3.705   1.250   3.508
    3OL    H15S15400   3.576   1.326   3.606
    3OL    C11615401   3.731   1.223   3.718
    3OL    H16R15402   3.655   1.156   3.759
    3OL    H16S15403   3.773   1.285   3.797
    3OL    C11715404   3.836   1.123   3.667
    3OL    H17R15405   3.911   1.181   3.614
    3OL    H17S15406   3.779   1.051   3.607
    3OL    C11815407   3.898   1.051   3.788
    3OL    H18R15408   3.825   0.984   3.833
    3OL    H18S15409   3.946   1.112   3.866
    3OL    H18T15410   3.971   0.977   3.755
    1PA    C11615411   6.415   3.332   3.719
    1PA    H16R15412   6.329   3.356   3.783
    1PA    H16S15413   6.381   3.321   3.616
    1PA    H16T15414   6.482   3.418   3.721
    1PA    C11515415   6.485   3.201   3.755
    1PA    H15R15416   6.578   3.193   3.698
    1PA    H15S15417   6.524   3.216   3.855
    1PA    C11415418   6.396   3.076   3.751
    1PA    H14R15419   6.437   2.999   3.817
    1PA    H14S15420   6.299   3.100   3.796
    1PA    C11315421   6.391   3.006   3.615
    1PA    H13R15422   6.352   3.085   3.550
    1PA    H13S15423   6.494   2.994   3.581
    1PA    C11215424   6.306   2.878   3.616
    1PA    H12R15425   6.346   2.794   3.673
    1PA    H12S15426   6.212   2.911   3.661
    1PA    C11115427   6.281   2.845   3.468
    1PA    H11R15428   6.215   2.919   3.422
    1PA    H11S15429   6.372   2.841   3.408
    1PA    C11015430   6.210   2.711   3.443
    1PA    H10R15431   6.268   2.636   3.497
    1PA    H10S15432   6.109   2.728   3.480
    1PA     C1915433   6.202   2.681   3.293
    1PA     H9R15434   6.164   2.771   3.245
    1PA     H9S15435   6.301   2.660   3.251
    1PA     C1815436   6.132   2.545   3.275
    1PA     H8R15437   6.173   2.467   3.338
    1PA     H8S15438   6.027   2.550   3.305
    1PA     C1715439   6.128   2.511   3.125
    1PA     H7R15440   6.072   2.584   3.066
    1PA     H7S15441   6.230   2.517   3.085
    1PA     C1615442   6.061   2.378   3.087
    1PA     H6R15443   6.106   2.295   3.143
    1PA     H6S15444   5.953   2.392   3.097
    1PA     C1515445   6.068   2.357   2.936
    1PA     H5R15446   5.968   2.330   2.901
    1PA     H5S15447   6.099   2.448   2.884
    1PA     C1415448   6.161   2.238   2.908
    1PA     H4R15449   6.258   2.255   2.955
    1PA     H4S15450   6.115   2.151   2.956
    1PA     C1315451   6.177   2.210   2.758
    1PA     H3R15452   6.202   2.300   2.701
    1PA     H3S15453   6.271   2.155   2.757
    1PA     C1215454   6.059   2.131   2.699
    1PA     H2R15455   6.049   2.029   2.737
    1PA     H2S15456   5.963   2.180   2.714
    2PC     C1115457   6.079   2.115   2.551
    2PC     O1215458   6.185   2.120   2.492
    2PC     O1115459   5.965   2.111   2.480
    2PC      C115460   5.948   2.064   2.345
    2PC      HR15461   5.842   2.042   2.333
    2PC      HS15462   5.969   2.152   2.283
    2PC      C215463   6.024   1.938   2.302
    2PC      HX15464   6.112   1.921   2.364
    2PC      C315465   6.054   1.947   2.152
    2PC      HA15466   6.125   2.025   2.125
    2PC      HB15467   6.092   1.849   2.119
    2PC     O3115468   5.931   1.967   2.079
    2PC     P3115469   5.941   1.957   1.920
    2PC     O3215470   5.786   1.939   1.882
    2PC     C3115471   5.734   2.000   1.763
    2PC     H1A15472   5.788   2.090   1.730
    2PC     H1B15473   5.746   1.918   1.693
    2PC     C3215474   5.584   2.026   1.784
    2PC     H2A15475   5.529   2.009   1.691
    2PC     H2B15476   5.556   1.952   1.858
    2PC     N3115477   5.556   2.161   1.843
    2PC     C3315478   5.607   2.166   1.984
    2PC     H3A15479   5.716   2.167   1.986
    2PC     H3B15480   5.558   2.249   2.033
    2PC     H3C15481   5.581   2.077   2.042
    2PC     C3415482   5.619   2.275   1.769
    2PC     H4A15483   5.607   2.362   1.834
    2PC     H4B15484   5.726   2.258   1.757
    2PC     H4C15485   5.572   2.293   1.673
    2PC     C3515486   5.408   2.179   1.848
    2PC     H5A15487   5.385   2.281   1.879
    2PC     H5B15488   5.364   2.119   1.928
    2PC     H5C15489   5.363   2.147   1.754
    2PC     O3315490   6.001   2.079   1.860
    2PC     O3415491   6.038   1.864   1.858
    2PC     O2115492   5.943   1.819   2.317
    2PC     C2115493   5.917   1.779   2.443
    2PC     O2215494   5.945   1.834   2.547
    3OL     C1215495   5.840   1.649   2.439
    3OL     H2R15496   5.908   1.565   2.452
    3OL     H2S15497   5.795   1.630   2.342
    3OL     C1315498   5.740   1.646   2.556
    3OL     H3R15499   5.669   1.728   2.538
    3OL     H3S15500   5.800   1.658   2.646
    3OL     C1415501   5.670   1.512   2.579
    3OL     H4R15502   5.746   1.436   2.600
    3OL     H4S15503   5.609   1.469   2.499
    3OL     C1515504   5.596   1.518   2.713
    3OL     H5R15505   5.541   1.612   2.712
    3OL     H5S15506   5.681   1.524   2.782
    3OL     C1615507   5.511   1.392   2.734
    3OL     H6R15508   5.571   1.306   2.703
    3OL     H6S15509   5.431   1.408   2.662
    3OL     C1715510   5.448   1.369   2.872
    3OL     H7R15511   5.405   1.269   2.872
    3OL     H7S15512   5.363   1.438   2.865
    3OL     C1815513   5.542   1.385   2.992
    3OL     H8R15514   5.584   1.485   2.988
    3OL     H8S15515   5.623   1.311   2.983
    3OL     C1915516   5.462   1.371   3.119
    3OL     H9R15517   5.401   1.280   3.118
    3OL    C11015518   5.460   1.455   3.221
    3OL    H10R15519   5.398   1.447   3.310
    3OL    C11115520   5.544   1.580   3.233
    3OL    H11R15521   5.484   1.656   3.283
    3OL    H11S15522   5.569   1.621   3.135
    3OL    C11215523   5.679   1.572   3.306
    3OL    H12R15524   5.727   1.670   3.299
    3OL    H12S15525   5.753   1.507   3.259
    3OL    C11315526   5.662   1.555   3.458
    3OL    H13R15527   5.569   1.605   3.487
    3OL    H13S15528   5.746   1.607   3.503
    3OL    C11415529   5.659   1.407   3.499
    3OL    H14R15530   5.741   1.356   3.449
    3OL    H14S15531   5.564   1.360   3.472
    3OL    C11515532   5.691   1.382   3.647
    3OL    H15R15533   5.762   1.451   3.692
    3OL    H15S15534   5.740   1.284   3.643
    3OL    C11615535   5.560   1.386   3.726
    3OL    H16R15536   5.509   1.477   3.691
    3OL    H16S15537   5.590   1.400   3.830
    3OL    C11715538   5.465   1.267   3.706
    3OL    H17R15539   5.529   1.180   3.690
    3OL    H17S15540   5.412   1.275   3.612
    3OL    C11815541   5.357   1.248   3.814
    3OL    H18R15542   5.402   1.216   3.909
    3OL    H18S15543   5.285   1.179   3.771
    3OL    H18T15544   5.313   1.346   3.833
    1PA    C11615545   5.609   6.512   3.754
    1PA    H16R15546   5.691   6.552   3.814
    1PA    H16S15547   5.520   6.574   3.757
    1PA    H16T15548   5.642   6.488   3.652
    1PA    C11515549   5.563   6.376   3.809
    1PA    H15R15550   5.652   6.334   3.856
    1PA    H15S15551   5.497   6.390   3.894
    1PA    C11415552   5.498   6.279   3.709
    1PA    H14R15553   5.545   6.293   3.612
    1PA    H14S15554   5.506   6.177   3.748
    1PA    C11315555   5.352   6.323   3.702
    1PA    H13R15556   5.301   6.318   3.798
    1PA    H13S15557   5.359   6.428   3.672
    1PA    C11215558   5.272   6.253   3.590
    1PA    H12R15559   5.172   6.298   3.589
    1PA    H12S15560   5.326   6.275   3.498
    1PA    C11115561   5.263   6.101   3.603
    1PA    H11R15562   5.363   6.059   3.592
    1PA    H11S15563   5.235   6.077   3.706
    1PA    C11015564   5.166   6.037   3.502
    1PA    H10R15565   5.173   6.095   3.410
    1PA    H10S15566   5.186   5.931   3.490
    1PA     C1915567   5.020   6.057   3.548
    1PA     H9R15568   5.005   6.025   3.651
    1PA     H9S15569   5.000   6.164   3.533
    1PA     C1815570   4.941   5.969   3.450
    1PA     H8R15571   4.840   6.013   3.453
    1PA     H8S15572   4.971   5.986   3.347
    1PA     C1715573   4.919   5.822   3.487
    1PA     H7R15574   5.014   5.768   3.496
    1PA     H7S15575   4.876   5.812   3.587
    1PA     C1615576   4.823   5.752   3.390
    1PA     H6R15577   4.769   5.676   3.446
    1PA     H6S15578   4.750   5.822   3.348
    1PA     C1515579   4.895   5.687   3.271
    1PA     H5R15580   4.816   5.656   3.203
    1PA     H5S15581   4.964   5.753   3.218
    1PA     C1415582   4.958   5.552   3.309
    1PA     H4R15583   5.039   5.583   3.375
    1PA     H4S15584   4.892   5.480   3.357
    1PA     C1315585   5.032   5.488   3.190
    1PA     H3R15586   4.960   5.457   3.114
    1PA     H3S15587   5.104   5.558   3.148
    1PA     C1215588   5.102   5.358   3.231
    1PA     H2R15589   5.210   5.364   3.220
    1PA     H2S15590   5.075   5.309   3.324
    2PC     C1115591   5.070   5.247   3.134
    2PC     O1215592   4.956   5.208   3.112
    2PC     O1115593   5.182   5.203   3.075
    2PC      C115594   5.185   5.096   2.980
    2PC      HR15595   5.292   5.073   2.976
    2PC      HS15596   5.132   5.008   3.017
    2PC      C215597   5.130   5.155   2.849
    2PC      HX15598   5.030   5.190   2.877
    2PC      C315599   5.107   5.041   2.749
    2PC      HA15600   5.028   4.984   2.798
    2PC      HB15601   5.070   5.079   2.653
    2PC     O3115602   5.217   4.949   2.735
    2PC     P3115603   5.238   4.870   2.597
    2PC     O3215604   5.344   4.760   2.646
    2PC     C3115605   5.392   4.660   2.555
    2PC     H1A15606   5.441   4.718   2.476
    2PC     H1B15607   5.470   4.600   2.604
    2PC     C3215608   5.292   4.568   2.485
    2PC     H2A15609   5.216   4.641   2.458
    2PC     H2B15610   5.324   4.529   2.388
    2PC     N3115611   5.220   4.458   2.557
    2PC     C3315612   5.107   4.414   2.468
    2PC     H3A15613   5.058   4.333   2.522
    2PC     H3B15614   5.029   4.488   2.453
    2PC     H3C15615   5.146   4.378   2.372
    2PC     C3415616   5.308   4.342   2.594
    2PC     H4A15617   5.399   4.374   2.645
    2PC     H4B15618   5.252   4.272   2.655
    2PC     H4C15619   5.337   4.295   2.500
    2PC     C3515620   5.151   4.516   2.676
    2PC     H5A15621   5.220   4.586   2.724
    2PC     H5B15622   5.119   4.435   2.741
    2PC     H5C15623   5.062   4.570   2.646
    2PC     O3315624   5.110   4.812   2.550
    2PC     O3415625   5.270   4.948   2.476
    2PC     O2115626   5.215   5.255   2.791
    2PC     C2115627   5.171   5.339   2.696
    2PC     O2215628   5.054   5.367   2.685
    3OL     C1215629   5.283   5.389   2.608
    3OL     H2R15630   5.259   5.443   2.517
    3OL     H2S15631   5.337   5.302   2.570
    3OL     C1315632   5.377   5.472   2.697
    3OL     H3R15633   5.466   5.498   2.639
    3OL     H3S15634   5.408   5.414   2.784
    3OL     C1415635   5.324   5.599   2.765
    3OL     H4R15636   5.235   5.569   2.821
    3OL     H4S15637   5.287   5.679   2.701
    3OL     C1515638   5.432   5.671   2.848
    3OL     H5R15639   5.519   5.690   2.786
    3OL     H5S15640   5.470   5.598   2.920
    3OL     C1615641   5.384   5.797   2.921
    3OL     H6R15642   5.340   5.876   2.859
    3OL     H6S15643   5.476   5.833   2.969
    3OL     C1715644   5.292   5.758   3.037
    3OL     H7R15645   5.344   5.706   3.118
    3OL     H7S15646   5.220   5.685   3.000
    3OL     C1815647   5.224   5.878   3.106
    3OL     H8R15648   5.127   5.855   3.151
    3OL     H8S15649   5.192   5.946   3.026
    3OL     C1915650   5.306   5.946   3.212
    3OL     H9R15651   5.331   5.884   3.298
    3OL    C11015652   5.348   6.071   3.213
    3OL    H10R15653   5.411   6.089   3.300
    3OL    C11115654   5.328   6.177   3.108
    3OL    H11R15655   5.298   6.133   3.013
    3OL    H11S15656   5.420   6.231   3.085
    3OL    C11215657   5.230   6.286   3.157
    3OL    H12R15658   5.297   6.329   3.232
    3OL    H12S15659   5.135   6.246   3.193
    3OL    C11315660   5.198   6.400   3.060
    3OL    H13R15661   5.293   6.433   3.016
    3OL    H13S15662   5.149   6.476   3.121
    3OL    C11415663   5.096   6.371   2.949
    3OL    H14R15664   4.998   6.368   2.996
    3OL    H14S15665   5.110   6.277   2.894
    3OL    C11515666   5.097   6.481   2.841
    3OL    H15R15667   5.197   6.489   2.796
    3OL    H15S15668   5.074   6.579   2.882
    3OL    C11615669   4.998   6.455   2.727
    3OL    H16R15670   4.967   6.551   2.685
    3OL    H16S15671   4.917   6.397   2.771
    3OL    C11715672   5.058   6.363   2.620
    3OL    H17R15673   4.973   6.331   2.558
    3OL    H17S15674   5.127   6.287   2.657
    3OL    C11815675   5.141   6.446   2.521
    3OL    H18R15676   5.208   6.519   2.567
    3OL    H18S15677   5.073   6.502   2.456
    3OL    H18T15678   5.208   6.383   2.462
    1PA    C11615679   1.551   0.890   3.772
    1PA    H16R15680   1.650   0.860   3.806
    1PA    H16S15681   1.489   0.804   3.745
    1PA    H16T15682   1.499   0.940   3.854
    1PA    C11515683   1.567   0.988   3.654
    1PA    H15R15684   1.489   1.065   3.653
    1PA    H15S15685   1.662   1.041   3.662
    1PA    C11415686   1.559   0.903   3.526
    1PA    H14R15687   1.639   0.830   3.532
    1PA    H14S15688   1.461   0.857   3.515
    1PA    C11315689   1.586   0.989   3.402
    1PA    H13R15690   1.683   1.036   3.413
    1PA    H13S15691   1.609   0.932   3.311
    1PA    C11215692   1.471   1.087   3.375
    1PA    H12R15693   1.374   1.039   3.392
    1PA    H12S15694   1.473   1.165   3.452
    1PA    C11115695   1.478   1.142   3.232
    1PA    H11R15696   1.581   1.167   3.203
    1PA    H11S15697   1.457   1.055   3.170
    1PA    C11015698   1.375   1.253   3.206
    1PA    H10R15699   1.274   1.223   3.235
    1PA    H10S15700   1.404   1.341   3.264
    1PA     C1915701   1.370   1.276   3.054
    1PA     H9R15702   1.473   1.278   3.017
    1PA     H9S15703   1.317   1.189   3.016
    1PA     C1815704   1.291   1.403   3.022
    1PA     H8R15705   1.184   1.393   3.039
    1PA     H8S15706   1.325   1.485   3.086
    1PA     C1715707   1.309   1.447   2.876
    1PA     H7R15708   1.328   1.362   2.810
    1PA     H7S15709   1.226   1.502   2.832
    1PA     C1615710   1.433   1.537   2.860
    1PA     H6R15711   1.420   1.625   2.925
    1PA     H6S15712   1.522   1.478   2.883
    1PA     C1515713   1.439   1.583   2.714
    1PA     H5R15714   1.340   1.606   2.673
    1PA     H5S15715   1.498   1.675   2.707
    1PA     C1415716   1.512   1.477   2.631
    1PA     H4R15717   1.606   1.448   2.677
    1PA     H4S15718   1.445   1.391   2.622
    1PA     C1315719   1.548   1.524   2.490
    1PA     H3R15720   1.462   1.571   2.441
    1PA     H3S15721   1.631   1.594   2.486
    1PA     C1215722   1.597   1.405   2.406
    1PA     H2R15723   1.693   1.370   2.445
    1PA     H2S15724   1.519   1.328   2.414
    2PC     C1115725   1.631   1.433   2.262
    2PC     O1215726   1.559   1.510   2.202
    2PC     O1115727   1.730   1.360   2.208
    2PC      C115728   1.781   1.385   2.075
    2PC      HR15729   1.853   1.309   2.042
    2PC      HS15730   1.703   1.372   2.001
    2PC      C215731   1.819   1.533   2.064
    2PC      HX15732   1.738   1.602   2.093
    2PC      C315733   1.850   1.569   1.918
    2PC      HA15734   1.769   1.540   1.851
    2PC      HB15735   1.867   1.677   1.919
    2PC     O3115736   1.960   1.487   1.876
    2PC     P3115737   1.992   1.487   1.719
    2PC     O3215738   1.888   1.383   1.657
    2PC     C3115739   1.885   1.249   1.710
    2PC     H1A15740   1.983   1.203   1.700
    2PC     H1B15741   1.866   1.252   1.818
    2PC     C3215742   1.786   1.163   1.629
    2PC     H2A15743   1.774   1.068   1.681
    2PC     H2B15744   1.686   1.207   1.631
    2PC     N3115745   1.810   1.152   1.482
    2PC     C3315746   1.955   1.136   1.449
    2PC     H3A15747   1.994   1.044   1.496
    2PC     H3B15748   1.965   1.137   1.341
    2PC     H3C15749   2.013   1.218   1.492
    2PC     C3415750   1.748   1.024   1.435
    2PC     H4A15751   1.752   1.019   1.326
    2PC     H4B15752   1.794   0.940   1.488
    2PC     H4C15753   1.642   1.027   1.459
    2PC     C3515754   1.756   1.275   1.415
    2PC     H5A15755   1.752   1.255   1.308
    2PC     H5B15756   1.818   1.359   1.446
    2PC     H5C15757   1.654   1.282   1.455
    2PC     O3315758   1.997   1.625   1.667
    2PC     O3415759   2.131   1.435   1.712
    2PC     O2115760   1.934   1.565   2.145
    2PC     C2115761   1.937   1.674   2.223
    2PC     O2215762   1.836   1.738   2.242
    3OL     C1215763   2.068   1.699   2.293
    3OL     H2R15764   2.078   1.807   2.284
    3OL     H2S15765   2.155   1.654   2.245
    3OL     C1315766   2.056   1.660   2.441
    3OL     H3R15767   1.958   1.686   2.482
    3OL     H3S15768   2.125   1.716   2.503
    3OL     C1415769   2.079   1.508   2.441
    3OL     H4R15770   2.138   1.475   2.356
    3OL     H4S15771   1.992   1.442   2.435
    3OL     C1515772   2.151   1.470   2.571
    3OL     H5R15773   2.243   1.530   2.572
    3OL     H5S15774   2.190   1.369   2.556
    3OL     C1615775   2.077   1.484   2.705
    3OL     H6R15776   2.070   1.588   2.740
    3OL     H6S15777   2.135   1.440   2.786
    3OL     C1715778   1.942   1.411   2.716
    3OL     H7R15779   1.874   1.454   2.643
    3OL     H7S15780   1.901   1.435   2.814
    3OL     C1815781   1.958   1.258   2.708
    3OL     H8R15782   2.020   1.221   2.790
    3OL     H8S15783   1.998   1.235   2.609
    3OL     C1915784   1.825   1.191   2.731
    3OL     H9R15785   1.766   1.175   2.641
    3OL    C11015786   1.771   1.177   2.851
    3OL    H10R15787   1.669   1.141   2.859
    3OL    C11115788   1.833   1.191   2.987
    3OL    H11R15789   1.756   1.241   3.046
    3OL    H11S15790   1.926   1.249   2.980
    3OL    C11215791   1.865   1.054   3.050
    3OL    H12R15792   1.927   1.002   2.977
    3OL    H12S15793   1.773   0.996   3.056
    3OL    C11315794   1.930   1.066   3.188
    3OL    H13R15795   1.864   1.134   3.242
    3OL    H13S15796   2.032   1.104   3.175
    3OL    C11415797   1.945   0.932   3.260
    3OL    H14R15798   2.028   0.869   3.228
    3OL    H14S15799   1.855   0.874   3.242
    3OL    C11515800   1.973   0.966   3.408
    3OL    H15R15801   1.899   1.033   3.451
    3OL    H15S15802   2.069   1.017   3.411
    3OL    C11615803   1.981   0.839   3.494
    3OL    H16R15804   2.065   0.776   3.465
    3OL    H16S15805   1.892   0.777   3.482
    3OL    C11715806   2.019   0.871   3.640
    3OL    H17R15807   1.957   0.954   3.674
    3OL    H17S15808   2.124   0.898   3.648
    3OL    C11815809   1.998   0.753   3.735
    3OL    H18R15810   1.893   0.727   3.722
    3OL    H18S15811   2.009   0.770   3.843
    3OL    H18T15812   2.053   0.667   3.696
    1PA    C11615813   3.676   5.726   4.334
    1PA    H16R15814   3.570   5.705   4.318
    1PA    H16S15815   3.681   5.793   4.420
    1PA    H16T15816   3.735   5.637   4.357
    1PA    C11515817   3.743   5.793   4.212
    1PA    H15R15818   3.674   5.872   4.182
    1PA    H15S15819   3.841   5.826   4.246
    1PA    C11415820   3.761   5.695   4.095
    1PA    H14R15821   3.826   5.619   4.137
    1PA    H14S15822   3.664   5.652   4.068
    1PA    C11315823   3.821   5.762   3.970
    1PA    H13R15824   3.764   5.854   3.958
    1PA    H13S15825   3.923   5.790   3.999
    1PA    C11215826   3.806   5.678   3.843
    1PA    H12R15827   3.829   5.571   3.853
    1PA    H12S15828   3.699   5.682   3.822
    1PA    C11115829   3.890   5.742   3.732
    1PA    H11R15830   3.869   5.847   3.712
    1PA    H11S15831   3.997   5.742   3.755
    1PA    C11015832   3.863   5.669   3.600
    1PA    H10R15833   3.904   5.569   3.617
    1PA    H10S15834   3.761   5.675   3.560
    1PA     C1915835   3.954   5.725   3.490
    1PA     H9R15836   3.922   5.828   3.472
    1PA     H9S15837   4.057   5.727   3.527
    1PA     C1815838   3.941   5.638   3.364
    1PA     H8R15839   4.021   5.662   3.293
    1PA     H8S15840   3.943   5.532   3.390
    1PA     C1715841   3.802   5.651   3.300
    1PA     H7R15842   3.730   5.605   3.369
    1PA     H7S15843   3.767   5.753   3.289
    1PA     C1615844   3.782   5.568   3.173
    1PA     H6R15845   3.810   5.465   3.196
    1PA     H6S15846   3.675   5.574   3.153
    1PA     C1515847   3.858   5.615   3.049
    1PA     H5R15848   3.837   5.721   3.030
    1PA     H5S15849   3.964   5.609   3.075
    1PA     C1415850   3.836   5.535   2.919
    1PA     H4R15851   3.860   5.431   2.941
    1PA     H4S15852   3.731   5.546   2.890
    1PA     C1315853   3.913   5.585   2.797
    1PA     H3R15854   4.019   5.602   2.820
    1PA     H3S15855   3.916   5.506   2.721
    1PA     C1215856   3.843   5.706   2.733
    1PA     H2R15857   3.740   5.679   2.708
    1PA     H2S15858   3.851   5.804   2.781
    2PC     C1115859   3.903   5.740   2.599
    2PC     O1215860   4.005   5.685   2.563
    2PC     O1115861   3.833   5.832   2.531
    2PC      C115862   3.865   5.858   2.393
    2PC      HR15863   3.835   5.962   2.374
    2PC      HS15864   3.974   5.857   2.387
    2PC      C215865   3.785   5.763   2.304
    2PC      HX15866   3.812   5.659   2.328
    2PC      C315867   3.819   5.793   2.157
    2PC      HA15868   3.911   5.737   2.139
    2PC      HB15869   3.739   5.749   2.097
    2PC     O3115870   3.844   5.933   2.134
    2PC     P3115871   3.889   5.981   1.988
    2PC     O3215872   3.847   6.136   1.995
    2PC     C3115873   3.813   6.202   1.872
    2PC     H1A15874   3.895   6.223   1.803
    2PC     H1B15875   3.734   6.147   1.821
    2PC     C3215876   3.744   6.337   1.893
    2PC     H2A15877   3.798   6.393   1.970
    2PC     H2B15878   3.745   6.390   1.798
    2PC     N3115879   3.598   6.340   1.929
    2PC     C3315880   3.513   6.254   1.839
    2PC     H3A15881   3.532   6.148   1.851
    2PC     H3B15882   3.411   6.276   1.871
    2PC     H3C15883   3.520   6.293   1.738
    2PC     C3415884   3.588   6.286   2.068
    2PC     H4A15885   3.614   6.181   2.056
    2PC     H4B15886   3.650   6.353   2.128
    2PC     H4C15887   3.487   6.294   2.106
    2PC     C3515888   3.557   6.484   1.924
    2PC     H5A15889   3.459   6.505   1.967
    2PC     H5B15890   3.560   6.519   1.820
    2PC     H5C15891   3.625   6.536   1.991
    2PC     O3315892   4.032   5.985   1.951
    2PC     O3415893   3.818   5.922   1.872
    2PC     O2115894   3.643   5.785   2.314
    2PC     C2115895   3.578   5.750   2.426
    2PC     O2215896   3.618   5.663   2.499
    3OL     C1215897   3.449   5.826   2.447
    3OL     H2R15898   3.379   5.783   2.375
    3OL     H2S15899   3.461   5.931   2.420
    3OL     C1315900   3.402   5.821   2.593
    3OL     H3R15901   3.387   5.718   2.629
    3OL     H3S15902   3.304   5.867   2.601
    3OL     C1415903   3.501   5.896   2.684
    3OL     H4R15904   3.510   6.000   2.653
    3OL     H4S15905   3.605   5.860   2.681
    3OL     C1515906   3.451   5.898   2.829
    3OL     H5R15907   3.346   5.929   2.823
    3OL     H5S15908   3.515   5.967   2.883
    3OL     C1615909   3.455   5.759   2.893
    3OL     H6R15910   3.558   5.722   2.894
    3OL     H6S15911   3.391   5.682   2.849
    3OL     C1715912   3.395   5.776   3.034
    3OL     H7R15913   3.370   5.679   3.076
    3OL     H7S15914   3.296   5.819   3.020
    3OL     C1815915   3.458   5.863   3.143
    3OL     H8R15916   3.471   5.964   3.102
    3OL     H8S15917   3.559   5.826   3.162
    3OL     C1915918   3.362   5.863   3.259
    3OL     H9R15919   3.273   5.802   3.243
    3OL    C11015920   3.374   5.921   3.377
    3OL    H10R15921   3.291   5.902   3.445
    3OL    C11115922   3.486   6.010   3.423
    3OL    H11R15923   3.551   6.022   3.336
    3OL    H11S15924   3.543   5.961   3.503
    3OL    C11215925   3.435   6.147   3.470
    3OL    H12R15926   3.512   6.195   3.530
    3OL    H12S15927   3.351   6.118   3.534
    3OL    C11315928   3.401   6.233   3.348
    3OL    H13R15929   3.334   6.183   3.278
    3OL    H13S15930   3.500   6.237   3.302
    3OL    C11415931   3.332   6.361   3.397
    3OL    H14R15932   3.375   6.401   3.489
    3OL    H14S15933   3.231   6.332   3.427
    3OL    C11515934   3.335   6.469   3.287
    3OL    H15R15935   3.435   6.508   3.268
    3OL    H15S15936   3.281   6.557   3.323
    3OL    C11615937   3.262   6.415   3.163
    3OL    H16R15938   3.169   6.363   3.189
    3OL    H16S15939   3.323   6.336   3.120
    3OL    C11715940   3.231   6.523   3.059
    3OL    H17R15941   3.198   6.610   3.115
    3OL    H17S15942   3.149   6.493   2.993
    3OL    C11815943   3.353   6.566   2.976
    3OL    H18R15944   3.407   6.485   2.928
    3OL    H18S15945   3.424   6.617   3.041
    3OL    H18T15946   3.321   6.620   2.886
    1PA    C11615947   4.853   0.580   3.901
    1PA    H16R15948   4.756   0.569   3.851
    1PA    H16S15949   4.853   0.522   3.994
    1PA    H16T15950   4.924   0.533   3.833
    1PA    C11515951   4.894   0.724   3.933
    1PA    H15R15952   4.806   0.785   3.954
    1PA    H15S15953   4.969   0.733   4.012
    1PA    C11415954   4.957   0.782   3.805
    1PA    H14R15955   5.050   0.731   3.782
    1PA    H14S15956   4.887   0.776   3.721
    1PA    C11315957   4.986   0.931   3.826
    1PA    H13R15958   4.903   0.992   3.862
    1PA    H13S15959   5.057   0.935   3.909
    1PA    C11215960   5.052   1.005   3.708
    1PA    H12R15961   5.059   1.108   3.743
    1PA    H12S15962   5.151   0.963   3.693
    1PA    C11115963   4.978   0.995   3.574
    1PA    H11R15964   5.027   1.065   3.506
    1PA    H11S15965   4.991   0.889   3.551
    1PA    C11015966   4.835   1.046   3.596
    1PA    H10R15967   4.782   0.963   3.643
    1PA    H10S15968   4.831   1.123   3.673
    1PA     C1915969   4.766   1.104   3.472
    1PA     H9R15970   4.718   1.195   3.511
    1PA     H9S15971   4.839   1.139   3.400
    1PA     C1815972   4.665   1.001   3.419
    1PA     H8R15973   4.717   0.906   3.407
    1PA     H8S15974   4.581   0.986   3.488
    1PA     C1715975   4.605   1.048   3.286
    1PA     H7R15976   4.507   1.000   3.276
    1PA     H7S15977   4.592   1.155   3.302
    1PA     C1615978   4.691   1.013   3.164
    1PA     H6R15979   4.791   1.053   3.184
    1PA     H6S15980   4.691   0.907   3.141
    1PA     C1515981   4.635   1.085   3.040
    1PA     H5R15982   4.536   1.054   3.008
    1PA     H5S15983   4.632   1.193   3.056
    1PA     C1415984   4.734   1.071   2.924
    1PA     H4R15985   4.835   1.092   2.959
    1PA     H4S15986   4.728   0.967   2.891
    1PA     C1315987   4.700   1.160   2.804
    1PA     H3R15988   4.598   1.155   2.764
    1PA     H3S15989   4.717   1.265   2.830
    1PA     C1215990   4.794   1.119   2.690
    1PA     H2R15991   4.896   1.142   2.720
    1PA     H2S15992   4.774   1.016   2.661
    2PC     C1115993   4.770   1.203   2.567
    2PC     O1215994   4.719   1.312   2.557
    2PC     O1115995   4.822   1.140   2.460
    2PC      C115996   4.827   1.214   2.336
    2PC      HR15997   4.855   1.138   2.262
    2PC      HS15998   4.726   1.251   2.318
    2PC      C215999   4.928   1.329   2.328
    2PC      HX16000   4.917   1.402   2.408
    2PC      C316001   4.930   1.397   2.190
    2PC      HA16002   4.970   1.321   2.123
    2PC      HB16003   4.833   1.426   2.151
    2PC     O3116004   5.020   1.509   2.190
    2PC     P3116005   5.071   1.568   2.050
    2PC     O3216006   4.936   1.604   1.972
    2PC     C3116007   4.937   1.640   1.832
    2PC     H1A16008   5.015   1.714   1.811
    2PC     H1B16009   4.949   1.544   1.781
    2PC     C3216010   4.802   1.695   1.785
    2PC     H2A16011   4.729   1.633   1.836
    2PC     H2B16012   4.782   1.798   1.816
    2PC     N3116013   4.775   1.686   1.638
    2PC     C3316014   4.643   1.753   1.610
    2PC     H3A16015   4.567   1.687   1.650
    2PC     H3B16016   4.637   1.849   1.660
    2PC     H3C16017   4.636   1.768   1.502
    2PC     C3416018   4.887   1.762   1.576
    2PC     H4A16019   4.909   1.854   1.631
    2PC     H4B16020   4.977   1.700   1.574
    2PC     H4C16021   4.862   1.774   1.470
    2PC     C3516022   4.768   1.544   1.592
    2PC     H5A16023   4.865   1.495   1.580
    2PC     H5B16024   4.730   1.553   1.490
    2PC     H5C16025   4.698   1.498   1.662
    2PC     O3316026   5.161   1.681   2.083
    2PC     O3416027   5.139   1.472   1.961
    2PC     O2116028   5.051   1.256   2.343
    2PC     C2116029   5.095   1.228   2.467
    2PC     O2216030   5.042   1.280   2.563
    3OL     C1216031   5.226   1.154   2.470
    3OL     H2R16032   5.312   1.213   2.436
    3OL     H2S16033   5.222   1.069   2.403
    3OL     C1316034   5.260   1.094   2.607
    3OL     H3R16035   5.187   1.016   2.630
    3OL     H3S16036   5.263   1.177   2.679
    3OL     C1416037   5.398   1.026   2.606
    3OL     H4R16038   5.471   1.097   2.569
    3OL     H4S16039   5.396   0.934   2.547
    3OL     C1516040   5.432   0.983   2.749
    3OL     H5R16041   5.349   0.918   2.776
    3OL     H5S16042   5.431   1.068   2.818
    3OL     C1616043   5.566   0.909   2.748
    3OL     H6R16044   5.641   0.988   2.740
    3OL     H6S16045   5.574   0.854   2.653
    3OL     C1716046   5.585   0.809   2.863
    3OL     H7R16047   5.661   0.736   2.835
    3OL     H7S16048   5.488   0.765   2.887
    3OL     C1816049   5.658   0.872   2.983
    3OL     H8R16050   5.765   0.893   2.980
    3OL     H8S16051   5.646   0.790   3.055
    3OL     C1916052   5.600   1.004   3.025
    3OL     H9R16053   5.591   1.073   2.941
    3OL    C11016054   5.542   1.033   3.141
    3OL    H10R16055   5.505   1.135   3.138
    3OL    C11116056   5.517   0.951   3.265
    3OL    H11R16057   5.598   0.880   3.284
    3OL    H11S16058   5.430   0.886   3.248
    3OL    C11216059   5.481   1.041   3.384
    3OL    H12R16060   5.431   1.135   3.359
    3OL    H12S16061   5.572   1.066   3.438
    3OL    C11316062   5.397   0.967   3.489
    3OL    H13R16063   5.304   0.942   3.438
    3OL    H13S16064   5.387   1.042   3.568
    3OL    C11416065   5.470   0.848   3.551
    3OL    H14R16066   5.569   0.873   3.590
    3OL    H14S16067   5.487   0.772   3.475
    3OL    C11516068   5.394   0.781   3.667
    3OL    H15R16069   5.297   0.749   3.628
    3OL    H15S16070   5.373   0.852   3.747
    3OL    C11616071   5.473   0.665   3.729
    3OL    H16R16072   5.557   0.701   3.789
    3OL    H16S16073   5.517   0.593   3.660
    3OL    C11716074   5.392   0.594   3.839
    3OL    H17R16075   5.331   0.664   3.896
    3OL    H17S16076   5.455   0.539   3.910
    3OL    C11816077   5.301   0.480   3.789
    3OL    H18R16078   5.239   0.436   3.867
    3OL    H18S16079   5.363   0.401   3.746
    3OL    H18T16080   5.243   0.512   3.702
    1PA    C11616081   1.834   2.205   3.747
    1PA    H16R16082   1.848   2.136   3.663
    1PA    H16S16083   1.733   2.226   3.784
    1PA    H16T16084   1.878   2.156   3.834
    1PA    C11516085   1.901   2.340   3.719
    1PA    H15R16086   1.886   2.418   3.793
    1PA    H15S16087   2.010   2.329   3.728
    1PA    C11416088   1.869   2.389   3.577
    1PA    H14R16089   1.956   2.442   3.537
    1PA    H14S16090   1.853   2.298   3.518
    1PA    C11316091   1.753   2.489   3.578
    1PA    H13R16092   1.722   2.500   3.473
    1PA    H13S16093   1.668   2.451   3.636
    1PA    C11216094   1.788   2.631   3.625
    1PA    H12R16095   1.701   2.681   3.668
    1PA    H12S16096   1.857   2.629   3.709
    1PA    C11116097   1.838   2.720   3.510
    1PA    H11R16098   1.915   2.674   3.448
    1PA    H11S16099   1.759   2.723   3.435
    1PA    C11016100   1.877   2.862   3.554
    1PA    H10R16101   1.800   2.900   3.622
    1PA    H10S16102   1.971   2.859   3.610
    1PA     C1916103   1.902   2.950   3.432
    1PA     H9R16104   1.976   3.028   3.453
    1PA     H9S16105   1.955   2.891   3.357
    1PA     C1816106   1.778   3.025   3.381
    1PA     H8R16107   1.708   2.954   3.335
    1PA     H8S16108   1.730   3.088   3.456
    1PA     C1716109   1.810   3.123   3.267
    1PA     H7R16110   1.860   3.212   3.305
    1PA     H7S16111   1.896   3.078   3.217
    1PA     C1616112   1.693   3.180   3.186
    1PA     H6R16113   1.668   3.100   3.115
    1PA     H6S16114   1.605   3.216   3.239
    1PA     C1516115   1.748   3.292   3.097
    1PA     H5R16116   1.765   3.379   3.161
    1PA     H5S16117   1.844   3.271   3.050
    1PA     C1416118   1.650   3.325   2.983
    1PA     H4R16119   1.626   3.237   2.924
    1PA     H4S16120   1.561   3.377   3.021
    1PA     C1316121   1.717   3.433   2.897
    1PA     H3R16122   1.646   3.482   2.831
    1PA     H3S16123   1.764   3.509   2.960
    1PA     C1216124   1.834   3.393   2.806
    1PA     H2R16125   1.877   3.484   2.762
    1PA     H2S16126   1.910   3.342   2.865
    2PC     C1116127   1.793   3.309   2.688
    2PC     O1216128   1.680   3.275   2.659
    2PC     O1116129   1.904   3.271   2.622
    2PC      C116130   1.888   3.198   2.499
    2PC      HR16131   1.865   3.095   2.528
    2PC      HS16132   1.798   3.243   2.455
    2PC      C216133   2.005   3.201   2.400
    2PC      HX16134   2.061   3.294   2.389
    2PC      C316135   1.973   3.168   2.254
    2PC      HA16136   1.953   3.260   2.198
    2PC      HB16137   2.065   3.125   2.212
    2PC     O3116138   1.867   3.072   2.241
    2PC     P3116139   1.805   3.062   2.094
    2PC     O3216140   1.662   3.004   2.135
    2PC     C3116141   1.627   2.999   2.275
    2PC     H1A16142   1.680   2.921   2.329
    2PC     H1B16143   1.632   3.095   2.328
    2PC     C3216144   1.477   2.964   2.272
    2PC     H2A16145   1.427   2.987   2.366
    2PC     H2B16146   1.424   3.005   2.187
    2PC     N3116147   1.435   2.821   2.256
    2PC     C3316148   1.517   2.750   2.152
    2PC     H3A16149   1.478   2.661   2.102
    2PC     H3B16150   1.546   2.814   2.068
    2PC     H3C16151   1.612   2.716   2.194
    2PC     C3416152   1.456   2.755   2.389
    2PC     H4A16153   1.460   2.647   2.373
    2PC     H4B16154   1.558   2.779   2.419
    2PC     H4C16155   1.372   2.774   2.455
    2PC     C3516156   1.293   2.808   2.209
    2PC     H5A16157   1.240   2.890   2.258
    2PC     H5B16158   1.238   2.717   2.231
    2PC     H5C16159   1.295   2.823   2.101
    2PC     O3316160   1.782   3.183   2.010
    2PC     O3416161   1.864   2.957   2.008
    2PC     O2116162   2.100   3.104   2.447
    2PC     C2116163   2.226   3.103   2.400
    2PC     O2216164   2.269   3.175   2.312
    3OL     C1216165   2.323   3.004   2.459
    3OL     H2R16166   2.408   3.006   2.390
    3OL     H2S16167   2.273   2.907   2.469
    3OL     C1316168   2.371   3.055   2.595
    3OL     H3R16169   2.293   3.067   2.670
    3OL     H3S16170   2.428   3.148   2.587
    3OL     C1416171   2.462   2.946   2.653
    3OL     H4R16172   2.527   2.905   2.575
    3OL     H4S16173   2.392   2.870   2.689
    3OL     C1516174   2.553   3.001   2.764
    3OL     H5R16175   2.482   3.040   2.838
    3OL     H5S16176   2.621   3.073   2.719
    3OL     C1616177   2.640   2.896   2.835
    3OL     H6R16178   2.686   2.940   2.923
    3OL     H6S16179   2.721   2.878   2.764
    3OL     C1716180   2.566   2.770   2.883
    3OL     H7R16181   2.519   2.719   2.799
    3OL     H7S16182   2.493   2.796   2.959
    3OL     C1816183   2.662   2.668   2.946
    3OL     H8R16184   2.698   2.604   2.864
    3OL     H8S16185   2.607   2.595   3.007
    3OL     C1916186   2.778   2.730   3.018
    3OL     H9R16187   2.823   2.815   2.968
    3OL    C11016188   2.831   2.690   3.133
    3OL    H10R16189   2.922   2.735   3.171
    3OL    C11116190   2.786   2.569   3.211
    3OL    H11R16191   2.699   2.517   3.169
    3OL    H11S16192   2.757   2.605   3.309
    3OL    C11216193   2.888   2.455   3.222
    3OL    H12R16194   2.976   2.501   3.269
    3OL    H12S16195   2.912   2.429   3.119
    3OL    C11316196   2.837   2.330   3.294
    3OL    H13R16197   2.742   2.296   3.251
    3OL    H13S16198   2.828   2.352   3.401
    3OL    C11416199   2.939   2.215   3.281
    3OL    H14R16200   3.041   2.254   3.279
    3OL    H14S16201   2.919   2.177   3.181
    3OL    C11516202   2.912   2.106   3.385
    3OL    H15R16203   2.961   2.009   3.372
    3OL    H15S16204   2.803   2.096   3.388
    3OL    C11616205   2.948   2.144   3.529
    3OL    H16R16206   2.886   2.079   3.592
    3OL    H16S16207   2.926   2.248   3.555
    3OL    C11716208   3.098   2.121   3.554
    3OL    H17R16209   3.152   2.174   3.476
    3OL    H17S16210   3.129   2.017   3.558
    3OL    C11816211   3.131   2.183   3.690
    3OL    H18R16212   3.057   2.146   3.762
    3OL    H18S16213   3.125   2.292   3.688
    3OL    H18T16214   3.227   2.150   3.731
    1PA    C11616215   3.004   0.082   3.672
    1PA    H16R16216   3.067   0.011   3.725
    1PA    H16S16217   2.965   0.044   3.577
    1PA    H16T16218   2.913   0.114   3.722
    1PA    C11516219   3.104   0.194   3.639
    1PA    H15R16220   3.154   0.219   3.733
    1PA    H15S16221   3.183   0.147   3.580
    1PA    C11416222   3.032   0.316   3.581
    1PA    H14R16223   2.980   0.275   3.493
    1PA    H14S16224   2.955   0.345   3.652
    1PA    C11316225   3.129   0.429   3.544
    1PA    H13R16226   3.059   0.506   3.510
    1PA    H13S16227   3.180   0.461   3.635
    1PA    C11216228   3.228   0.393   3.433
    1PA    H12R16229   3.289   0.308   3.465
    1PA    H12S16230   3.183   0.360   3.339
    1PA    C11116231   3.321   0.514   3.418
    1PA    H11R16232   3.266   0.598   3.374
    1PA    H11S16233   3.353   0.549   3.517
    1PA    C11016234   3.439   0.478   3.328
    1PA    H10R16235   3.509   0.562   3.335
    1PA    H10S16236   3.483   0.385   3.363
    1PA     C1916237   3.408   0.467   3.178
    1PA     H9R16238   3.413   0.365   3.138
    1PA     H9S16239   3.310   0.511   3.163
    1PA     C1816240   3.507   0.550   3.095
    1PA     H8R16241   3.470   0.561   2.993
    1PA     H8S16242   3.525   0.648   3.140
    1PA     C1716243   3.640   0.474   3.092
    1PA     H7R16244   3.671   0.453   3.195
    1PA     H7S16245   3.631   0.371   3.058
    1PA     C1616246   3.749   0.548   3.013
    1PA     H6R16247   3.763   0.653   3.040
    1PA     H6S16248   3.843   0.498   3.037
    1PA     C1516249   3.733   0.546   2.861
    1PA     H5R16250   3.730   0.443   2.826
    1PA     H5S16251   3.642   0.595   2.825
    1PA     C1416252   3.858   0.591   2.784
    1PA     H4R16253   3.947   0.540   2.823
    1PA     H4S16254   3.850   0.554   2.682
    1PA     C1316255   3.870   0.744   2.775
    1PA     H3R16256   3.796   0.790   2.709
    1PA     H3S16257   3.865   0.791   2.873
    1PA     C1216258   3.995   0.777   2.693
    1PA     H2R16259   4.029   0.880   2.702
    1PA     H2S16260   4.085   0.720   2.719
    2PC     C1116261   3.979   0.757   2.544
    2PC     O1216262   3.904   0.806   2.462
    2PC     O1116263   4.083   0.681   2.506
    2PC      C116264   4.085   0.650   2.366
    2PC      HR16265   3.993   0.600   2.337
    2PC      HS16266   4.098   0.745   2.313
    2PC      C216267   4.204   0.559   2.333
    2PC      HX16268   4.304   0.599   2.352
    2PC      C316269   4.202   0.517   2.185
    2PC      HA16270   4.153   0.419   2.180
    2PC      HB16271   4.151   0.594   2.127
    2PC     O3116272   4.337   0.504   2.138
    2PC     P3116273   4.362   0.434   1.996
    2PC     O3216274   4.497   0.501   1.942
    2PC     C3116275   4.500   0.564   1.812
    2PC     H1A16276   4.448   0.504   1.737
    2PC     H1B16277   4.436   0.651   1.832
    2PC     C3216278   4.637   0.602   1.756
    2PC     H2A16279   4.698   0.640   1.838
    2PC     H2B16280   4.694   0.513   1.725
    2PC     N3116281   4.646   0.707   1.649
    2PC     C3316282   4.564   0.827   1.685
    2PC     H3A16283   4.459   0.814   1.661
    2PC     H3B16284   4.565   0.835   1.794
    2PC     H3C16285   4.613   0.907   1.629
    2PC     C3416286   4.790   0.740   1.624
    2PC     H4A16287   4.844   0.765   1.715
    2PC     H4B16288   4.832   0.651   1.577
    2PC     H4C16289   4.774   0.817   1.548
    2PC     C3516290   4.581   0.654   1.525
    2PC     H5A16291   4.486   0.607   1.554
    2PC     H5B16292   4.656   0.585   1.487
    2PC     H5C16293   4.561   0.738   1.459
    2PC     O3316294   4.367   0.288   2.019
    2PC     O3416295   4.248   0.443   1.902
    2PC     O2116296   4.200   0.439   2.413
    2PC     C2116297   4.259   0.440   2.534
    2PC     O2216298   4.338   0.520   2.579
    3OL     C1216299   4.227   0.314   2.611
    3OL     H2R16300   4.300   0.239   2.578
    3OL     H2S16301   4.135   0.277   2.566
    3OL     C1316302   4.227   0.339   2.762
    3OL     H3R16303   4.167   0.430   2.761
    3OL     H3S16304   4.324   0.365   2.805
    3OL     C1416305   4.168   0.226   2.848
    3OL     H4R16306   4.153   0.273   2.946
    3OL     H4S16307   4.235   0.140   2.854
    3OL     C1516308   4.032   0.177   2.798
    3OL     H5R16309   4.055   0.109   2.715
    3OL     H5S16310   3.968   0.260   2.766
    3OL     C1616311   3.969   0.097   2.913
    3OL     H6R16312   4.039   0.040   2.974
    3OL     H6S16313   3.917   0.019   2.858
    3OL     C1716314   3.870   0.177   2.998
    3OL     H7R16315   3.785   0.207   2.936
    3OL     H7S16316   3.928   0.260   3.038
    3OL     C1816317   3.826   0.093   3.119
    3OL     H8R16318   3.914   0.065   3.179
    3OL     H8S16319   3.776  -0.001   3.094
    3OL     C1916320   3.726   0.170   3.201
    3OL     H9R16321   3.624   0.172   3.164
    3OL    C11016322   3.749   0.233   3.316
    3OL    H10R16323   3.663   0.275   3.368
    3OL    C11116324   3.878   0.243   3.392
    3OL    H11R16325   3.906   0.348   3.379
    3OL    H11S16326   3.945   0.171   3.346
    3OL    C11216327   3.862   0.212   3.542
    3OL    H12R16328   3.767   0.243   3.586
    3OL    H12S16329   3.942   0.268   3.590
    3OL    C11316330   3.898   0.064   3.563
    3OL    H13R16331   3.997   0.043   3.522
    3OL    H13S16332   3.822   0.004   3.514
    3OL    C11416333   3.898   0.032   3.713
    3OL    H14R16334   3.795   0.053   3.741
    3OL    H14S16335   3.976   0.085   3.767
    3OL    C11516336   3.917  -0.115   3.753
    3OL    H15R16337   4.010  -0.155   3.713
    3OL    H15S16338   3.835  -0.176   3.713
    3OL    C11616339   3.910  -0.145   3.903
    3OL    H16R16340   3.817  -0.105   3.945
    3OL    H16S16341   3.989  -0.095   3.959
    3OL    C11716342   3.915  -0.295   3.935
    3OL    H17R16343   3.843  -0.355   3.880
    3OL    H17S16344   3.891  -0.309   4.041
    3OL    C11816345   4.055  -0.351   3.906
    3OL    H18R16346   4.062  -0.374   3.800
    3OL    H18S16347   4.063  -0.438   3.972
    3OL    H18T16348   4.133  -0.278   3.931
    1PA    C11616349   2.406   0.440   3.712
    1PA    H16R16350   2.321   0.379   3.744
    1PA    H16S16351   2.366   0.541   3.704
    1PA    H16T16352   2.488   0.443   3.783
    1PA    C11516353   2.460   0.392   3.577
    1PA    H15R16354   2.480   0.285   3.581
    1PA    H15S16355   2.382   0.411   3.502
    1PA    C11416356   2.593   0.463   3.547
    1PA    H14R16357   2.559   0.567   3.550
    1PA    H14S16358   2.665   0.440   3.626
    1PA    C11316359   2.655   0.417   3.415
    1PA    H13R16360   2.663   0.309   3.430
    1PA    H13S16361   2.589   0.435   3.330
    1PA    C11216362   2.782   0.496   3.379
    1PA    H12R16363   2.748   0.600   3.379
    1PA    H12S16364   2.852   0.480   3.461
    1PA    C11116365   2.860   0.457   3.253
    1PA    H11R16366   2.952   0.515   3.256
    1PA    H11S16367   2.883   0.351   3.261
    1PA    C11016368   2.788   0.478   3.119
    1PA    H10R16369   2.682   0.453   3.119
    1PA    H10S16370   2.795   0.585   3.098
    1PA     C1916371   2.854   0.397   3.007
    1PA     H9R16372   2.866   0.292   3.037
    1PA     H9S16373   2.788   0.391   2.920
    1PA     C1816374   2.984   0.469   2.970
    1PA     H8R16375   2.964   0.573   2.945
    1PA     H8S16376   3.055   0.468   3.053
    1PA     C1716377   3.055   0.405   2.849
    1PA     H7R16378   3.071   0.299   2.867
    1PA     H7S16379   2.983   0.408   2.767
    1PA     C1616380   3.176   0.495   2.818
    1PA     H6R16381   3.132   0.595   2.805
    1PA     H6S16382   3.244   0.497   2.903
    1PA     C1516383   3.242   0.460   2.684
    1PA     H5R16384   3.276   0.357   2.686
    1PA     H5S16385   3.174   0.466   2.599
    1PA     C1416386   3.365   0.550   2.663
    1PA     H4R16387   3.346   0.655   2.687
    1PA     H4S16388   3.444   0.530   2.736
    1PA     C1316389   3.425   0.534   2.523
    1PA     H3R16390   3.448   0.428   2.509
    1PA     H3S16391   3.344   0.555   2.452
    1PA     C1216392   3.540   0.632   2.498
    1PA     H2R16393   3.498   0.732   2.508
    1PA     H2S16394   3.634   0.616   2.552
    2PC     C1116395   3.573   0.618   2.351
    2PC     O1216396   3.684   0.582   2.317
    2PC     O1116397   3.471   0.647   2.270
    2PC      C116398   3.494   0.644   2.128
    2PC      HR16399   3.415   0.698   2.075
    2PC      HS16400   3.583   0.699   2.096
    2PC      C216401   3.492   0.496   2.086
    2PC      HX16402   3.567   0.440   2.142
    2PC      C316403   3.512   0.492   1.934
    2PC      HA16404   3.569   0.568   1.880
    2PC      HB16405   3.551   0.391   1.919
    2PC     O3116406   3.379   0.501   1.879
    2PC     P3116407   3.357   0.476   1.723
    2PC     O3216408   3.322   0.319   1.722
    2PC     C3116409   3.211   0.267   1.648
    2PC     H1A16410   3.121   0.327   1.668
    2PC     H1B16411   3.232   0.265   1.541
    2PC     C3216412   3.190   0.130   1.713
    2PC     H2A16413   3.284   0.076   1.726
    2PC     H2B16414   3.160   0.151   1.816
    2PC     N3116415   3.090   0.033   1.658
    2PC     C3316416   2.951   0.089   1.653
    2PC     H3A16417   2.919   0.086   1.757
    2PC     H3B16418   2.961   0.183   1.599
    2PC     H3C16419   2.902   0.017   1.587
    2PC     C3416420   3.143   0.009   1.520
    2PC     H4A16421   3.251   0.000   1.530
    2PC     H4B16422   3.098  -0.075   1.467
    2PC     H4C16423   3.110   0.090   1.454
    2PC     C3516424   3.105  -0.099   1.727
    2PC     H5A16425   3.044  -0.172   1.673
    2PC     H5B16426   3.075  -0.089   1.832
    2PC     H5C16427   3.211  -0.122   1.734
    2PC     O3316428   3.247   0.553   1.661
    2PC     O3416429   3.479   0.483   1.638
    2PC     O2116430   3.364   0.435   2.107
    2PC     C2116431   3.356   0.301   2.119
    2PC     O2216432   3.450   0.226   2.101
    3OL     C1216433   3.213   0.259   2.137
    3OL     H2R16434   3.215   0.151   2.117
    3OL     H2S16435   3.153   0.314   2.065
    3OL     C1316436   3.180   0.283   2.285
    3OL     H3R16437   3.076   0.251   2.298
    3OL     H3S16438   3.188   0.389   2.311
    3OL     C1416439   3.261   0.199   2.384
    3OL     H4R16440   3.237   0.221   2.489
    3OL     H4S16441   3.363   0.238   2.382
    3OL     C1516442   3.267   0.049   2.353
    3OL     H5R16443   3.312   0.026   2.257
    3OL     H5S16444   3.167   0.006   2.358
    3OL     C1616445   3.359  -0.016   2.457
    3OL     H6R16446   3.326   0.010   2.558
    3OL     H6S16447   3.458   0.026   2.437
    3OL     C1716448   3.370  -0.169   2.443
    3OL     H7R16449   3.465  -0.203   2.484
    3OL     H7S16450   3.368  -0.203   2.340
    3OL     C1816451   3.256  -0.244   2.514
    3OL     H8R16452   3.271  -0.350   2.492
    3OL     H8S16453   3.164  -0.202   2.474
    3OL     C1916454   3.266  -0.221   2.663
    3OL     H9R16455   3.365  -0.189   2.697
    3OL    C11016456   3.176  -0.241   2.757
    3OL    H10R16457   3.216  -0.222   2.857
    3OL    C11116458   3.037  -0.292   2.731
    3OL    H11R16459   3.014  -0.374   2.798
    3OL    H11S16460   3.028  -0.328   2.628
    3OL    C11216461   2.930  -0.183   2.751
    3OL    H12R16462   2.944  -0.139   2.850
    3OL    H12S16463   2.830  -0.225   2.744
    3OL    C11316464   2.951  -0.077   2.642
    3OL    H13R16465   2.935  -0.127   2.546
    3OL    H13S16466   3.054  -0.042   2.638
    3OL    C11416467   2.851   0.040   2.650
    3OL    H14R16468   2.842   0.086   2.748
    3OL    H14S16469   2.753   0.002   2.621
    3OL    C11516470   2.891   0.157   2.559
    3OL    H15R16471   2.904   0.109   2.462
    3OL    H15S16472   2.993   0.190   2.578
    3OL    C11616473   2.796   0.278   2.552
    3OL    H16R16474   2.791   0.332   2.647
    3OL    H16S16475   2.691   0.249   2.544
    3OL    C11716476   2.831   0.381   2.445
    3OL    H17R16477   2.938   0.397   2.432
    3OL    H17S16478   2.783   0.472   2.481
    3OL    C11816479   2.769   0.357   2.306
    3OL    H18R16480   2.792   0.437   2.236
    3OL    H18S16481   2.661   0.348   2.311
    3OL    H18T16482   2.808   0.262   2.269
    1PA    C11616483   3.073   1.230   4.350
    1PA    H16R16484   2.971   1.190   4.355
    1PA    H16S16485   3.071   1.339   4.341
    1PA    H16T16486   3.125   1.188   4.436
    1PA    C11516487   3.136   1.169   4.224
    1PA    H15R16488   3.242   1.193   4.218
    1PA    H15S16489   3.125   1.060   4.228
    1PA    C11416490   3.056   1.213   4.100
    1PA    H14R16491   2.949   1.209   4.121
    1PA    H14S16492   3.080   1.318   4.083
    1PA    C11316493   3.088   1.138   3.970
    1PA    H13R16494   3.072   1.030   3.975
    1PA    H13S16495   3.009   1.167   3.900
    1PA    C11216496   3.225   1.178   3.915
    1PA    H12R16497   3.230   1.287   3.917
    1PA    H12S16498   3.312   1.138   3.968
    1PA    C11116499   3.233   1.133   3.768
    1PA    H11R16500   3.196   1.033   3.749
    1PA    H11S16501   3.164   1.193   3.709
    1PA    C11016502   3.377   1.144   3.715
    1PA    H10R16503   3.412   1.248   3.716
    1PA    H10S16504   3.426   1.075   3.783
    1PA     C1916505   3.401   1.088   3.574
    1PA     H9R16506   3.509   1.083   3.560
    1PA     H9S16507   3.353   0.990   3.572
    1PA     C1816508   3.338   1.163   3.455
    1PA     H8R16509   3.230   1.152   3.455
    1PA     H8S16510   3.360   1.270   3.461
    1PA     C1716511   3.388   1.098   3.325
    1PA     H7R16512   3.365   0.992   3.332
    1PA     H7S16513   3.331   1.140   3.241
    1PA     C1616514   3.538   1.121   3.302
    1PA     H6R16515   3.575   1.223   3.317
    1PA     H6S16516   3.594   1.050   3.362
    1PA     C1516517   3.575   1.087   3.157
    1PA     H5R16518   3.546   0.987   3.128
    1PA     H5S16519   3.518   1.160   3.099
    1PA     C1416520   3.723   1.125   3.140
    1PA     H4R16521   3.742   1.232   3.153
    1PA     H4S16522   3.776   1.083   3.226
    1PA     C1316523   3.780   1.088   3.002
    1PA     H3R16524   3.886   1.107   3.021
    1PA     H3S16525   3.764   0.981   2.988
    1PA     C1216526   3.719   1.181   2.897
    1PA     H2R16527   3.610   1.182   2.889
    1PA     H2S16528   3.740   1.285   2.924
    2PC     C1116529   3.774   1.156   2.759
    2PC     O1216530   3.757   1.047   2.707
    2PC     O1116531   3.852   1.255   2.713
    2PC      C116532   3.909   1.246   2.582
    2PC      HR16533   3.974   1.333   2.573
    2PC      HS16534   3.973   1.160   2.559
    2PC      C216535   3.806   1.272   2.471
    2PC      HX16536   3.718   1.209   2.490
    2PC      C316537   3.868   1.237   2.335
    2PC      HA16538   3.885   1.129   2.337
    2PC      HB16539   3.795   1.256   2.255
    2PC     O3116540   3.991   1.310   2.323
    2PC     P3116541   4.045   1.355   2.180
    2PC     O3216542   3.928   1.444   2.116
    2PC     C3116543   3.925   1.581   2.160
    2PC     H1A16544   3.902   1.589   2.267
    2PC     H1B16545   4.025   1.619   2.139
    2PC     C3216546   3.820   1.651   2.073
    2PC     H2A16547   3.728   1.592   2.063
    2PC     H2B16548   3.780   1.742   2.117
    2PC     N3116549   3.860   1.701   1.937
    2PC     C3316550   3.732   1.743   1.872
    2PC     H3A16551   3.665   1.657   1.871
    2PC     H3B16552   3.700   1.832   1.926
    2PC     H3C16553   3.734   1.767   1.765
    2PC     C3416554   3.954   1.818   1.949
    2PC     H4A16555   3.913   1.896   2.014
    2PC     H4B16556   4.051   1.774   1.976
    2PC     H4C16557   3.963   1.855   1.847
    2PC     C3516558   3.913   1.588   1.854
    2PC     H5A16559   3.958   1.626   1.762
    2PC     H5B16560   3.828   1.521   1.840
    2PC     H5C16561   3.984   1.533   1.916
    2PC     O3316562   4.173   1.430   2.178
    2PC     O3416563   4.065   1.246   2.081
    2PC     O2116564   3.778   1.413   2.469
    2PC     C2116565   3.687   1.475   2.393
    2PC     O2216566   3.625   1.420   2.305
    3OL     C1216567   3.662   1.620   2.427
    3OL     H2R16568   3.584   1.650   2.357
    3OL     H2S16569   3.751   1.684   2.417
    3OL     C1316570   3.638   1.627   2.578
    3OL     H3R16571   3.629   1.732   2.606
    3OL     H3S16572   3.718   1.576   2.633
    3OL     C1416573   3.503   1.564   2.615
    3OL     H4R16574   3.486   1.459   2.590
    3OL     H4S16575   3.431   1.631   2.567
    3OL     C1516576   3.471   1.571   2.765
    3OL     H5R16577   3.449   1.672   2.800
    3OL     H5S16578   3.557   1.546   2.828
    3OL     C1616579   3.355   1.475   2.791
    3OL     H6R16580   3.348   1.464   2.899
    3OL     H6S16581   3.359   1.375   2.747
    3OL     C1716582   3.223   1.539   2.744
    3OL     H7R16583   3.211   1.533   2.635
    3OL     H7S16584   3.230   1.647   2.754
    3OL     C1816585   3.100   1.478   2.811
    3OL     H8R16586   3.011   1.518   2.761
    3OL     H8S16587   3.098   1.515   2.914
    3OL     C1916588   3.101   1.327   2.820
    3OL     H9R16589   3.193   1.281   2.787
    3OL    C11016590   3.010   1.249   2.876
    3OL    H10R16591   3.027   1.142   2.873
    3OL    C11116592   2.879   1.294   2.936
    3OL    H11R16593   2.801   1.254   2.870
    3OL    H11S16594   2.869   1.402   2.940
    3OL    C11216595   2.875   1.226   3.074
    3OL    H12R16596   2.970   1.244   3.125
    3OL    H12S16597   2.862   1.118   3.067
    3OL    C11316598   2.766   1.289   3.161
    3OL    H13R16599   2.668   1.288   3.113
    3OL    H13S16600   2.781   1.396   3.180
    3OL    C11416601   2.755   1.215   3.295
    3OL    H14R16602   2.856   1.193   3.331
    3OL    H14S16603   2.707   1.121   3.267
    3OL    C11516604   2.687   1.293   3.408
    3OL    H15R16605   2.584   1.318   3.380
    3OL    H15S16606   2.745   1.384   3.424
    3OL    C11616607   2.697   1.211   3.538
    3OL    H16R16608   2.798   1.185   3.569
    3OL    H16S16609   2.642   1.119   3.519
    3OL    C11716610   2.629   1.295   3.647
    3OL    H17R16611   2.531   1.331   3.617
    3OL    H17S16612   2.694   1.382   3.658
    3OL    C11816613   2.607   1.211   3.774
    3OL    H18R16614   2.695   1.157   3.811
    3OL    H18S16615   2.532   1.134   3.758
    3OL    H18T16616   2.578   1.285   3.848
    1PA    C11616617   2.760   0.997   4.161
    1PA    H16R16618   2.735   1.043   4.066
    1PA    H16S16619   2.860   1.032   4.189
    1PA    H16T16620   2.678   1.029   4.225
    1PA    C11516621   2.764   0.845   4.141
    1PA    H15R16622   2.810   0.803   4.230
    1PA    H15S16623   2.667   0.796   4.130
    1PA    C11416624   2.850   0.797   4.023
    1PA    H14R16625   2.954   0.821   4.044
    1PA    H14S16626   2.848   0.688   4.024
    1PA    C11316627   2.804   0.853   3.888
    1PA    H13R16628   2.707   0.809   3.864
    1PA    H13S16629   2.791   0.961   3.876
    1PA    C11216630   2.905   0.813   3.779
    1PA    H12R16631   3.006   0.841   3.810
    1PA    H12S16632   2.901   0.705   3.764
    1PA    C11116633   2.873   0.891   3.651
    1PA    H11R16634   2.784   0.843   3.611
    1PA    H11S16635   2.851   0.996   3.673
    1PA    C11016636   2.980   0.871   3.543
    1PA    H10R16637   3.069   0.926   3.576
    1PA    H10S16638   3.006   0.766   3.554
    1PA     C1916639   2.938   0.912   3.401
    1PA     H9R16640   2.845   0.859   3.377
    1PA     H9S16641   2.925   1.020   3.403
    1PA     C1816642   3.056   0.869   3.313
    1PA     H8R16643   3.126   0.953   3.314
    1PA     H8S16644   3.113   0.784   3.352
    1PA     C1716645   3.012   0.846   3.167
    1PA     H7R16646   2.946   0.759   3.165
    1PA     H7S16647   2.963   0.932   3.121
    1PA     C1616648   3.134   0.798   3.089
    1PA     H6R16649   3.196   0.732   3.150
    1PA     H6S16650   3.107   0.750   2.994
    1PA     C1516651   3.215   0.914   3.028
    1PA     H5R16652   3.146   0.996   3.010
    1PA     H5S16653   3.293   0.946   3.098
    1PA     C1416654   3.285   0.878   2.896
    1PA     H4R16655   3.379   0.829   2.922
    1PA     H4S16656   3.223   0.821   2.826
    1PA     C1316657   3.312   1.005   2.815
    1PA     H3R16658   3.218   1.056   2.794
    1PA     H3S16659   3.362   1.078   2.879
    1PA     C1216660   3.392   0.980   2.686
    1PA     H2R16661   3.486   0.931   2.716
    1PA     H2S16662   3.350   0.908   2.615
    2PC     C1116663   3.419   1.102   2.603
    2PC     O1216664   3.509   1.182   2.619
    2PC     O1116665   3.337   1.106   2.497
    2PC      C116666   3.355   1.217   2.406
    2PC      HR16667   3.366   1.310   2.462
    2PC      HS16668   3.447   1.203   2.350
    2PC      C216669   3.235   1.223   2.310
    2PC      HX16670   3.224   1.120   2.273
    2PC      C316671   3.253   1.335   2.206
    2PC      HA16672   3.256   1.429   2.260
    2PC      HB16673   3.348   1.322   2.154
    2PC     O3116674   3.147   1.333   2.109
    2PC     P3116675   3.131   1.451   2.002
    2PC     O3216676   2.997   1.404   1.929
    2PC     C3116677   2.994   1.307   1.822
    2PC     H1A16678   3.022   1.363   1.732
    2PC     H1B16679   3.057   1.218   1.832
    2PC     C3216680   2.846   1.266   1.814
    2PC     H2A16681   2.777   1.347   1.792
    2PC     H2B16682   2.843   1.191   1.734
    2PC     N3116683   2.785   1.201   1.934
    2PC     C3316684   2.660   1.134   1.886
    2PC     H3A16685   2.685   1.073   1.799
    2PC     H3B16686   2.623   1.073   1.968
    2PC     H3C16687   2.600   1.221   1.859
    2PC     C3416688   2.882   1.097   1.980
    2PC     H4A16689   2.957   1.154   2.037
    2PC     H4B16690   2.836   1.029   2.052
    2PC     H4C16691   2.930   1.043   1.898
    2PC     C3516692   2.764   1.287   2.056
    2PC     H5A16693   2.707   1.229   2.129
    2PC     H5B16694   2.705   1.377   2.038
    2PC     H5C16695   2.859   1.319   2.098
    2PC     O3316696   3.116   1.586   2.063
    2PC     O3416697   3.237   1.452   1.899
    2PC     O2116698   3.133   1.275   2.396
    2PC     C2116699   3.009   1.241   2.358
    2PC     O2216700   2.986   1.149   2.282
    3OL     C1216701   2.906   1.321   2.433
    3OL     H2R16702   2.917   1.304   2.540
    3OL     H2S16703   2.810   1.277   2.405
    3OL     C1316704   2.905   1.470   2.397
    3OL     H3R16705   2.911   1.460   2.288
    3OL     H3S16706   2.989   1.526   2.439
    3OL     C1416707   2.777   1.546   2.434
    3OL     H4R16708   2.689   1.503   2.387
    3OL     H4S16709   2.800   1.649   2.407
    3OL     C1516710   2.758   1.545   2.587
    3OL     H5R16711   2.843   1.594   2.635
    3OL     H5S16712   2.761   1.442   2.622
    3OL     C1616713   2.630   1.610   2.641
    3OL     H6R16714   2.545   1.551   2.606
    3OL     H6S16715   2.617   1.713   2.608
    3OL     C1716716   2.640   1.617   2.794
    3OL     H7R16717   2.720   1.681   2.830
    3OL     H7S16718   2.660   1.518   2.837
    3OL     C1816719   2.509   1.657   2.864
    3OL     H8R16720   2.523   1.640   2.971
    3OL     H8S16721   2.430   1.589   2.830
    3OL     C1916722   2.487   1.803   2.834
    3OL     H9R16723   2.570   1.855   2.787
    3OL    C11016724   2.381   1.876   2.864
    3OL    H10R16725   2.370   1.981   2.838
    3OL    C11116726   2.250   1.818   2.912
    3OL    H11R16727   2.247   1.712   2.885
    3OL    H11S16728   2.170   1.877   2.868
    3OL    C11216729   2.266   1.831   3.064
    3OL    H12R16730   2.319   1.921   3.095
    3OL    H12S16731   2.344   1.757   3.086
    3OL    C11316732   2.139   1.790   3.141
    3OL    H13R16733   2.119   1.686   3.114
    3OL    H13S16734   2.058   1.849   3.099
    3OL    C11416735   2.162   1.821   3.289
    3OL    H14R16736   2.186   1.926   3.306
    3OL    H14S16737   2.244   1.761   3.330
    3OL    C11516738   2.027   1.787   3.354
    3OL    H15R16739   1.993   1.690   3.320
    3OL    H15S16740   1.952   1.859   3.322
    3OL    C11616741   2.037   1.780   3.507
    3OL    H16R16742   2.062   1.878   3.548
    3OL    H16S16743   2.111   1.706   3.541
    3OL    C11716744   1.907   1.733   3.575
    3OL    H17R16745   1.911   1.747   3.683
    3OL    H17S16746   1.887   1.630   3.545
    3OL    C11816747   1.787   1.818   3.531
    3OL    H18R16748   1.803   1.926   3.536
    3OL    H18S16749   1.703   1.789   3.594
    3OL    H18T16750   1.762   1.799   3.426
    1PA    C11616751   2.093   1.752   4.085
    1PA    H16R16752   2.188   1.736   4.136
    1PA    H16S16753   2.033   1.667   4.118
    1PA    H16T16754   2.040   1.839   4.124
    1PA    C11516755   2.108   1.742   3.932
    1PA    H15R16756   2.107   1.640   3.895
    1PA    H15S16757   2.017   1.786   3.891
    1PA    C11416758   2.238   1.813   3.891
    1PA    H14R16759   2.327   1.784   3.947
    1PA    H14S16760   2.251   1.773   3.790
    1PA    C11316761   2.225   1.965   3.904
    1PA    H13R16762   2.129   1.994   3.862
    1PA    H13S16763   2.230   1.993   4.009
    1PA    C11216764   2.340   2.039   3.833
    1PA    H12R16765   2.335   2.141   3.871
    1PA    H12S16766   2.441   2.005   3.856
    1PA    C11116767   2.314   2.033   3.682
    1PA    H11R16768   2.312   1.928   3.651
    1PA    H11S16769   2.215   2.079   3.676
    1PA    C11016770   2.422   2.106   3.601
    1PA    H10R16771   2.431   2.210   3.633
    1PA    H10S16772   2.522   2.064   3.614
    1PA     C1916773   2.399   2.109   3.449
    1PA     H9R16774   2.493   2.115   3.394
    1PA     H9S16775   2.367   2.015   3.404
    1PA     C1816776   2.311   2.227   3.403
    1PA     H8R16777   2.217   2.234   3.459
    1PA     H8S16778   2.381   2.307   3.428
    1PA     C1716779   2.287   2.227   3.252
    1PA     H7R16780   2.213   2.147   3.239
    1PA     H7S16781   2.231   2.315   3.221
    1PA     C1616782   2.414   2.218   3.166
    1PA     H6R16783   2.485   2.293   3.200
    1PA     H6S16784   2.439   2.113   3.181
    1PA     C1516785   2.377   2.232   3.017
    1PA     H5R16786   2.316   2.146   2.987
    1PA     H5S16787   2.315   2.321   3.005
    1PA     C1416788   2.502   2.236   2.928
    1PA     H4R16789   2.573   2.311   2.960
    1PA     H4S16790   2.554   2.141   2.942
    1PA     C1316791   2.461   2.260   2.782
    1PA     H3R16792   2.512   2.186   2.720
    1PA     H3S16793   2.357   2.237   2.761
    1PA     C1216794   2.497   2.400   2.731
    1PA     H2R16795   2.444   2.481   2.781
    1PA     H2S16796   2.603   2.418   2.751
    2PC     C1116797   2.483   2.421   2.582
    2PC     O1216798   2.490   2.328   2.505
    2PC     O1116799   2.457   2.551   2.560
    2PC      C116800   2.409   2.585   2.428
    2PC      HR16801   2.433   2.690   2.410
    2PC      HS16802   2.463   2.523   2.356
    2PC      C216803   2.259   2.556   2.412
    2PC      HX16804   2.240   2.486   2.493
    2PC      C316805   2.236   2.490   2.276
    2PC      HA16806   2.296   2.400   2.266
    2PC      HB16807   2.130   2.462   2.271
    2PC     O3116808   2.270   2.588   2.176
    2PC     P3116809   2.206   2.572   2.030
    2PC     O3216810   2.333   2.613   1.941
    2PC     C3116811   2.432   2.509   1.935
    2PC     H1A16812   2.475   2.474   2.029
    2PC     H1B16813   2.389   2.426   1.879
    2PC     C3216814   2.548   2.575   1.859
    2PC     H2A16815   2.600   2.651   1.916
    2PC     H2B16816   2.625   2.499   1.844
    2PC     N3116817   2.522   2.634   1.724
    2PC     C3316818   2.471   2.536   1.622
    2PC     H3A16819   2.439   2.599   1.538
    2PC     H3B16820   2.547   2.462   1.601
    2PC     H3C16821   2.381   2.490   1.665
    2PC     C3416822   2.434   2.755   1.732
    2PC     H4A16823   2.471   2.804   1.822
    2PC     H4B16824   2.440   2.823   1.647
    2PC     H4C16825   2.334   2.727   1.766
    2PC     C3516826   2.650   2.692   1.673
    2PC     H5A16827   2.700   2.740   1.757
    2PC     H5B16828   2.620   2.771   1.604
    2PC     H5C16829   2.708   2.612   1.628
    2PC     O3316830   2.165   2.432   2.003
    2PC     O3416831   2.083   2.654   2.030
    2PC     O2116832   2.188   2.679   2.436
    2PC     C2116833   2.055   2.660   2.443
    2PC     O2216834   1.992   2.556   2.445
    3OL     C1216835   1.983   2.792   2.447
    3OL     H2R16836   1.917   2.799   2.360
    3OL     H2S16837   2.059   2.871   2.448
    3OL     C1316838   1.890   2.810   2.568
    3OL     H3R16839   1.861   2.710   2.600
    3OL     H3S16840   1.806   2.866   2.529
    3OL     C1416841   1.957   2.891   2.681
    3OL     H4R16842   2.003   2.978   2.634
    3OL     H4S16843   2.052   2.844   2.705
    3OL     C1516844   1.882   2.926   2.810
    3OL     H5R16845   1.863   2.841   2.877
    3OL     H5S16846   1.790   2.978   2.781
    3OL     C1616847   1.955   3.034   2.890
    3OL     H6R16848   1.885   3.095   2.948
    3OL     H6S16849   2.002   3.109   2.827
    3OL     C1716850   2.053   2.970   2.989
    3OL     H7R16851   2.118   2.908   2.926
    3OL     H7S16852   1.996   2.908   3.058
    3OL     C1816853   2.160   3.065   3.046
    3OL     H8R16854   2.200   3.118   2.960
    3OL     H8S16855   2.247   3.010   3.082
    3OL     C1916856   2.108   3.163   3.148
    3OL     H9R16857   2.022   3.226   3.126
    3OL    C11016858   2.145   3.164   3.276
    3OL    H10R16859   2.083   3.221   3.345
    3OL    C11116860   2.265   3.093   3.333
    3OL    H11R16861   2.257   2.991   3.294
    3OL    H11S16862   2.261   3.084   3.442
    3OL    C11216863   2.399   3.157   3.297
    3OL    H12R16864   2.409   3.259   3.335
    3OL    H12S16865   2.417   3.167   3.189
    3OL    C11316866   2.515   3.075   3.356
    3OL    H13R16867   2.515   2.973   3.318
    3OL    H13S16868   2.500   3.073   3.464
    3OL    C11416869   2.645   3.147   3.320
    3OL    H14R16870   2.722   3.102   3.383
    3OL    H14S16871   2.637   3.248   3.361
    3OL    C11516872   2.677   3.148   3.170
    3OL    H15R16873   2.588   3.188   3.121
    3OL    H15S16874   2.675   3.041   3.147
    3OL    C11616875   2.812   3.212   3.134
    3OL    H16R16876   2.892   3.160   3.187
    3OL    H16S16877   2.811   3.318   3.161
    3OL    C11716878   2.833   3.193   2.983
    3OL    H17R16879   2.753   3.234   2.921
    3OL    H17S16880   2.850   3.087   2.965
    3OL    C11816881   2.959   3.271   2.945
    3OL    H18R16882   2.948   3.380   2.952
    3OL    H18S16883   2.989   3.237   2.846
    3OL    H18T16884   3.029   3.242   3.024
    1PA    C11616885   4.553   0.572   3.329
    1PA    H16R16886   4.519   0.582   3.433
    1PA    H16S16887   4.474   0.538   3.261
    1PA    H16T16888   4.577   0.676   3.307
    1PA    C11516889   4.680   0.486   3.321
    1PA    H15R16890   4.654   0.388   3.361
    1PA    H15S16891   4.710   0.472   3.217
    1PA    C11416892   4.799   0.563   3.378
    1PA    H14R16893   4.836   0.631   3.300
    1PA    H14S16894   4.771   0.608   3.473
    1PA    C11316895   4.901   0.459   3.427
    1PA    H13R16896   4.844   0.407   3.504
    1PA    H13S16897   4.937   0.399   3.344
    1PA    C11216898   5.020   0.535   3.487
    1PA    H12R16899   4.980   0.617   3.546
    1PA    H12S16900   5.069   0.464   3.555
    1PA    C11116901   5.121   0.575   3.379
    1PA    H11R16902   5.072   0.549   3.285
    1PA    H11S16903   5.136   0.682   3.392
    1PA    C11016904   5.257   0.502   3.385
    1PA    H10R16905   5.307   0.536   3.475
    1PA    H10S16906   5.253   0.393   3.394
    1PA     C1916907   5.345   0.535   3.263
    1PA     H9R16908   5.362   0.642   3.258
    1PA     H9S16909   5.448   0.499   3.271
    1PA     C1816910   5.289   0.481   3.131
    1PA     H8R16911   5.287   0.372   3.128
    1PA     H8S16912   5.183   0.508   3.124
    1PA     C1716913   5.354   0.551   3.011
    1PA     H7R16914   5.321   0.656   3.015
    1PA     H7S16915   5.462   0.536   3.018
    1PA     C1616916   5.304   0.512   2.872
    1PA     H6R16917   5.198   0.486   2.872
    1PA     H6S16918   5.311   0.602   2.811
    1PA     C1516919   5.385   0.399   2.807
    1PA     H5R16920   5.486   0.430   2.781
    1PA     H5S16921   5.388   0.315   2.877
    1PA     C1416922   5.320   0.336   2.682
    1PA     H4R16923   5.383   0.254   2.649
    1PA     H4S16924   5.220   0.295   2.697
    1PA     C1316925   5.296   0.446   2.578
    1PA     H3R16926   5.223   0.522   2.608
    1PA     H3S16927   5.390   0.498   2.562
    1PA     C1216928   5.244   0.369   2.455
    1PA     H2R16929   5.316   0.298   2.416
    1PA     H2S16930   5.155   0.311   2.478
    2PC     C1116931   5.210   0.458   2.338
    2PC     O1216932   5.144   0.429   2.241
    2PC     O1116933   5.277   0.574   2.353
    2PC      C116934   5.259   0.685   2.264
    2PC      HR16935   5.321   0.767   2.303
    2PC      HS16936   5.300   0.658   2.166
    2PC      C216937   5.111   0.728   2.260
    2PC      HX16938   5.049   0.640   2.241
    2PC      C316939   5.073   0.824   2.146
    2PC      HA16940   5.072   0.775   2.048
    2PC      HB16941   4.979   0.872   2.173
    2PC     O3116942   5.177   0.924   2.139
    2PC     P3116943   5.189   1.021   2.012
    2PC     O3216944   5.235   1.157   2.082
    2PC     C3116945   5.346   1.226   2.021
    2PC     H1A16946   5.426   1.156   1.994
    2PC     H1B16947   5.305   1.266   1.928
    2PC     C3216948   5.384   1.341   2.115
    2PC     H2A16949   5.295   1.398   2.144
    2PC     H2B16950   5.412   1.301   2.212
    2PC     N3116951   5.508   1.420   2.084
    2PC     C3316952   5.478   1.529   1.987
    2PC     H3A16953   5.548   1.613   1.997
    2PC     H3B16954   5.470   1.490   1.885
    2PC     H3C16955   5.383   1.571   2.021
    2PC     C3416956   5.552   1.485   2.212
    2PC     H4A16957   5.465   1.539   2.251
    2PC     H4B16958   5.572   1.405   2.283
    2PC     H4C16959   5.641   1.542   2.184
    2PC     C3516960   5.618   1.335   2.029
    2PC     H5A16961   5.684   1.407   1.979
    2PC     H5B16962   5.581   1.261   1.958
    2PC     H5C16963   5.675   1.293   2.112
    2PC     O3316964   5.295   0.958   1.929
    2PC     O3416965   5.072   1.026   1.922
    2PC     O2116966   5.080   0.775   2.392
    2PC     C2116967   4.952   0.768   2.433
    2PC     O2216968   4.863   0.714   2.371
    3OL     C1216969   4.940   0.801   2.579
    3OL     H2R16970   4.839   0.833   2.604
    3OL     H2S16971   4.996   0.895   2.584
    3OL     C1316972   5.000   0.695   2.672
    3OL     H3R16973   5.108   0.693   2.656
    3OL     H3S16974   4.956   0.599   2.647
    3OL     C1416975   4.959   0.729   2.816
    3OL     H4R16976   4.956   0.644   2.884
    3OL     H4S16977   4.855   0.760   2.825
    3OL     C1516978   5.050   0.837   2.878
    3OL     H5R16979   5.034   0.935   2.834
    3OL     H5S16980   5.148   0.809   2.837
    3OL     C1616981   5.031   0.839   3.030
    3OL     H6R16982   5.036   0.735   3.063
    3OL     H6S16983   4.925   0.859   3.051
    3OL     C1716984   5.139   0.918   3.105
    3OL     H7R16985   5.237   0.903   3.060
    3OL     H7S16986   5.138   0.893   3.211
    3OL     C1816987   5.104   1.068   3.101
    3OL     H8R16988   5.155   1.121   3.182
    3OL     H8S16989   4.995   1.068   3.117
    3OL     C1916990   5.155   1.138   2.978
    3OL     H9R16991   5.244   1.092   2.937
    3OL    C11016992   5.113   1.248   2.917
    3OL    H10R16993   5.173   1.287   2.835
    3OL    C11116994   4.996   1.332   2.960
    3OL    H11R16995   4.942   1.277   3.037
    3OL    H11S16996   4.914   1.339   2.888
    3OL    C11216997   5.039   1.474   2.999
    3OL    H12R16998   4.960   1.549   3.002
    3OL    H12S16999   5.110   1.512   2.926
    3OL    C11317000   5.101   1.482   3.140
    3OL    H13R17001   5.186   1.549   3.151
    3OL    H13S17002   5.134   1.379   3.154
    3OL    C11417003   4.997   1.510   3.249
    3OL    H14R17004   4.902   1.459   3.238
    3OL    H14S17005   4.982   1.618   3.246
    3OL    C11517006   5.050   1.463   3.386
    3OL    H15R17007   5.141   1.520   3.405
    3OL    H15S17008   5.077   1.357   3.389
    3OL    C11617009   4.951   1.484   3.501
    3OL    H16R17010   4.856   1.442   3.468
    3OL    H16S17011   4.931   1.589   3.521
    3OL    C11717012   4.989   1.415   3.633
    3OL    H17R17013   5.030   1.315   3.620
    3OL    H17S17014   4.895   1.405   3.689
    3OL    C11817015   5.094   1.503   3.702
    3OL    H18R17016   5.126   1.474   3.803
    3OL    H18S17017   5.072   1.609   3.716
    3OL    H18T17018   5.181   1.501   3.636
    1PA    C11617019   3.826   3.031   3.703
    1PA    H16R17020   3.924   2.983   3.714
    1PA    H16S17021   3.778   3.001   3.796
    1PA    H16T17022   3.818   3.139   3.703
    1PA    C11517023   3.754   2.984   3.575
    1PA    H15R17024   3.806   3.030   3.491
    1PA    H15S17025   3.766   2.876   3.577
    1PA    C11417026   3.602   3.005   3.585
    1PA    H14R17027   3.570   2.969   3.683
    1PA    H14S17028   3.572   3.108   3.567
    1PA    C11317029   3.545   2.934   3.462
    1PA    H13R17030   3.454   2.988   3.434
    1PA    H13S17031   3.614   2.940   3.377
    1PA    C11217032   3.520   2.785   3.486
    1PA    H12R17033   3.606   2.739   3.535
    1PA    H12S17034   3.438   2.769   3.557
    1PA    C11117035   3.484   2.715   3.355
    1PA    H11R17036   3.396   2.773   3.325
    1PA    H11S17037   3.571   2.737   3.294
    1PA    C11017038   3.452   2.567   3.381
    1PA    H10R17039   3.520   2.521   3.453
    1PA    H10S17040   3.361   2.557   3.441
    1PA     C1917041   3.444   2.480   3.255
    1PA     H9R17042   3.372   2.529   3.190
    1PA     H9S17043   3.536   2.502   3.201
    1PA     C1817044   3.420   2.331   3.284
    1PA     H8R17045   3.513   2.285   3.318
    1PA     H8S17046   3.340   2.312   3.355
    1PA     C1717047   3.384   2.254   3.156
    1PA     H7R17048   3.298   2.302   3.108
    1PA     H7S17049   3.470   2.258   3.089
    1PA     C1617050   3.343   2.110   3.194
    1PA     H6R17051   3.412   2.059   3.262
    1PA     H6S17052   3.244   2.109   3.238
    1PA     C1517053   3.342   2.025   3.066
    1PA     H5R17054   3.302   1.926   3.090
    1PA     H5S17055   3.274   2.060   2.989
    1PA     C1417056   3.485   1.997   3.016
    1PA     H4R17057   3.550   2.085   3.019
    1PA     H4S17058   3.529   1.919   3.078
    1PA     C1317059   3.486   1.936   2.875
    1PA     H3R17060   3.579   1.888   2.846
    1PA     H3S17061   3.409   1.859   2.868
    1PA     C1217062   3.455   2.043   2.769
    1PA     H2R17063   3.366   2.100   2.794
    1PA     H2S17064   3.538   2.111   2.753
    2PC     C1117065   3.419   1.979   2.637
    2PC     O1217066   3.327   1.902   2.620
    2PC     O1117067   3.499   2.033   2.544
    2PC      C117068   3.493   2.009   2.402
    2PC      HR17069   3.594   2.023   2.364
    2PC      HS17070   3.468   1.904   2.385
    2PC      C217071   3.385   2.095   2.335
    2PC      HX17072   3.303   2.101   2.407
    2PC      C317073   3.325   2.048   2.202
    2PC      HA17074   3.280   1.949   2.197
    2PC      HB17075   3.240   2.114   2.184
    2PC     O3117076   3.425   2.058   2.098
    2PC     P3117077   3.387   2.009   1.950
    2PC     O3217078   3.441   2.127   1.856
    2PC     C3117079   3.398   2.135   1.719
    2PC     H1A17080   3.388   2.034   1.680
    2PC     H1B17081   3.295   2.172   1.726
    2PC     C3217082   3.500   2.218   1.640
    2PC     H2A17083   3.469   2.221   1.536
    2PC     H2B17084   3.491   2.322   1.671
    2PC     N3117085   3.644   2.180   1.656
    2PC     C3317086   3.701   2.235   1.784
    2PC     H3A17087   3.633   2.207   1.864
    2PC     H3B17088   3.799   2.189   1.786
    2PC     H3C17089   3.715   2.343   1.782
    2PC     C3417090   3.679   2.038   1.626
    2PC     H4A17091   3.782   2.018   1.654
    2PC     H4B17092   3.614   1.986   1.697
    2PC     H4C17093   3.657   2.013   1.522
    2PC     C3517094   3.709   2.258   1.545
    2PC     H5A17095   3.805   2.207   1.537
    2PC     H5B17096   3.729   2.358   1.582
    2PC     H5C17097   3.650   2.247   1.454
    2PC     O3317098   3.436   1.873   1.919
    2PC     O3417099   3.243   2.006   1.916
    2PC     O2117100   3.433   2.230   2.320
    2PC     C2117101   3.351   2.333   2.347
    2PC     O2217102   3.230   2.321   2.358
    3OL     C1217103   3.415   2.469   2.346
    3OL     H2R17104   3.440   2.497   2.243
    3OL     H2S17105   3.510   2.462   2.400
    3OL     C1317106   3.335   2.582   2.412
    3OL     H3R17107   3.289   2.546   2.504
    3OL     H3S17108   3.251   2.607   2.347
    3OL     C1417109   3.431   2.700   2.431
    3OL     H4R17110   3.467   2.740   2.337
    3OL     H4S17111   3.516   2.671   2.495
    3OL     C1517112   3.367   2.810   2.516
    3OL     H5R17113   3.318   2.783   2.610
    3OL     H5S17114   3.280   2.840   2.458
    3OL     C1617115   3.449   2.939   2.535
    3OL     H6R17116   3.392   3.030   2.551
    3OL     H6S17117   3.505   2.951   2.442
    3OL     C1717118   3.546   2.909   2.650
    3OL     H7R17119   3.614   2.830   2.615
    3OL     H7S17120   3.484   2.879   2.735
    3OL     C1817121   3.614   3.043   2.679
    3OL     H8R17122   3.537   3.119   2.690
    3OL     H8S17123   3.670   3.065   2.588
    3OL     C1917124   3.705   3.042   2.800
    3OL     H9R17125   3.791   2.977   2.785
    3OL    C11017126   3.697   3.116   2.909
    3OL    H10R17127   3.776   3.104   2.983
    3OL    C11117128   3.590   3.217   2.942
    3OL    H11R17129   3.513   3.227   2.866
    3OL    H11S17130   3.633   3.318   2.949
    3OL    C11217131   3.523   3.193   3.078
    3OL    H12R17132   3.437   3.259   3.091
    3OL    H12S17133   3.592   3.211   3.160
    3OL    C11317134   3.481   3.049   3.113
    3OL    H13R17135   3.479   3.048   3.222
    3OL    H13S17136   3.553   2.970   3.092
    3OL    C11417137   3.355   3.006   3.038
    3OL    H14R17138   3.378   3.020   2.932
    3OL    H14S17139   3.272   3.068   3.073
    3OL    C11517140   3.315   2.859   3.057
    3OL    H15R17141   3.298   2.830   3.161
    3OL    H15S17142   3.393   2.793   3.019
    3OL    C11617143   3.187   2.831   2.977
    3OL    H16R17144   3.191   2.875   2.878
    3OL    H16S17145   3.100   2.883   3.017
    3OL    C11717146   3.158   2.680   2.968
    3OL    H17R17147   3.053   2.661   2.943
    3OL    H17S17148   3.187   2.638   3.065
    3OL    C11817149   3.230   2.589   2.868
    3OL    H18R17150   3.325   2.563   2.914
    3OL    H18S17151   3.254   2.644   2.777
    3OL    H18T17152   3.173   2.499   2.844
    4SOL     OW17153   2.826   2.240   6.924
    4SOL    HW117154   2.898   2.240   6.987
    4SOL    HW217155   2.869   2.246   6.838
    5SOL     OW17156   4.043   5.319   0.582
    5SOL    HW117157   4.084   5.379   0.645
    5SOL    HW217158   4.085   5.339   0.499
    6SOL     OW17159   3.150   2.103   0.960
    6SOL    HW117160   3.160   2.022   1.009
    6SOL    HW217161   3.239   2.135   0.946
    7SOL     OW17162   1.766   3.219   0.324
    7SOL    HW117163   1.860   3.234   0.308
    7SOL    HW217164   1.723   3.248   0.244
    8SOL     OW17165   0.419   5.316   0.865
    8SOL    HW117166   0.417   5.322   0.769
    8SOL    HW217167   0.414   5.222   0.883
    9SOL     OW17168   6.212   0.259   6.832
    9SOL    HW117169   6.181   0.170   6.816
    9SOL    HW217170   6.308   0.250   6.837
   10SOL     OW17171   5.593   3.053   6.561
   10SOL    HW117172   5.537   3.031   6.487
   10SOL    HW217173   5.668   3.097   6.521
   11SOL     OW17174   6.096   3.556   0.878
   11SOL    HW117175   6.137   3.642   0.876
   11SOL    HW217176   6.144   3.504   0.814
   12SOL     OW17177   5.206   5.540   0.008
   12SOL    HW117178   5.258   5.592  -0.053
   12SOL    HW217179   5.151   5.603   0.054
   13SOL     OW17180   5.031   2.031   0.430
   13SOL    HW117181   4.948   2.034   0.382
   13SOL    HW217182   5.028   1.947   0.477
   14SOL     OW17183   3.935   1.565   6.289
   14SOL    HW117184   3.901   1.526   6.209
   14SOL    HW217185   3.887   1.647   6.298
   15SOL     OW17186   3.449   2.774   1.336
   15SOL    HW117187   3.479   2.757   1.425
   15SOL    HW217188   3.394   2.852   1.343
   16SOL     OW17189   5.013   2.360   0.562
   16SOL    HW117190   4.961   2.281   0.545
   16SOL    HW217191   5.090   2.328   0.609
   17SOL     OW17192   1.457   6.322   6.777
   17SOL    HW117193   1.500   6.401   6.743
   17SOL    HW217194   1.365   6.334   6.756
   18SOL     OW17195   5.032   4.638   6.805
   18SOL    HW117196   4.966   4.704   6.783
   18SOL    HW217197   5.106   4.690   6.837
   19SOL     OW17198   1.868   4.932   6.560
   19SOL    HW117199   1.925   4.958   6.487
   19SOL    HW217200   1.864   4.836   6.553
   20SOL     OW17201   4.039   5.300   5.749
   20SOL    HW117202   4.123   5.344   5.737
   20SOL    HW217203   4.009   5.327   5.836
   21SOL     OW17204   4.424   3.650   6.077
   21SOL    HW117205   4.463   3.567   6.104
   21SOL    HW217206   4.330   3.640   6.092
   22SOL     OW17207   4.785   5.043   2.787
   22SOL    HW117208   4.759   5.078   2.873
   22SOL    HW217209   4.750   5.105   2.724
   23SOL     OW17210   5.749   2.605   0.702
   23SOL    HW117211   5.793   2.521   0.690
   23SOL    HW217212   5.694   2.615   0.625
   24SOL     OW17213   1.224   4.170   0.720
   24SOL    HW117214   1.231   4.087   0.768
   24SOL    HW217215   1.168   4.149   0.645
   25SOL     OW17216   6.271   6.138   7.260
   25SOL    HW117217   6.293   6.142   7.167
   25SOL    HW217218   6.355   6.129   7.304
   26SOL     OW17219   2.848   3.731   6.775
   26SOL    HW117220   2.916   3.723   6.842
   26SOL    HW217221   2.766   3.719   6.824
   27SOL     OW17222   0.147   1.629   7.145
   27SOL    HW117223   0.148   1.666   7.057
   27SOL    HW217224   0.223   1.571   7.147
   28SOL     OW17225   1.299   2.863   0.549
   28SOL    HW117226   1.317   2.785   0.495
   28SOL    HW217227   1.332   2.839   0.635
   29SOL     OW17228   2.237   2.026   2.556
   29SOL    HW117229   2.165   1.963   2.556
   29SOL    HW217230   2.194   2.111   2.543
   30SOL     OW17231   2.702   6.388   6.435
   30SOL    HW117232   2.703   6.302   6.478
   30SOL    HW217233   2.609   6.410   6.428
   31SOL     OW17234   5.687   4.791   7.560
   31SOL    HW117235   5.605   4.841   7.563
   31SOL    HW217236   5.747   4.848   7.511
   32SOL     OW17237   5.469   2.301   5.447
   32SOL    HW117238   5.412   2.297   5.524
   32SOL    HW217239   5.483   2.394   5.432
   33SOL     OW17240   1.655   1.949   7.259
   33SOL    HW117241   1.621   2.039   7.260
   33SOL    HW217242   1.750   1.960   7.247
   34SOL     OW17243   4.780   6.264   0.624
   34SOL    HW117244   4.840   6.337   0.641
   34SOL    HW217245   4.708   6.303   0.575
   35SOL     OW17246   2.740   1.404   5.731
   35SOL    HW117247   2.766   1.487   5.772
   35SOL    HW217248   2.823   1.362   5.708
   36SOL     OW17249   3.152   1.957   5.722
   36SOL    HW117250   3.237   1.926   5.691
   36SOL    HW217251   3.117   1.884   5.774
   37SOL     OW17252   4.128   3.525   7.172
   37SOL    HW117253   4.081   3.472   7.108
   37SOL    HW217254   4.156   3.602   7.123
   38SOL     OW17255   4.883   0.437   1.647
   38SOL    HW117256   4.934   0.356   1.644
   38SOL    HW217257   4.902   0.473   1.734
   39SOL     OW17258   2.125   2.426   0.290
   39SOL    HW117259   2.052   2.469   0.246
   39SOL    HW217260   2.168   2.376   0.221
   40SOL     OW17261   6.168   3.468   7.485
   40SOL    HW117262   6.089   3.490   7.434
   40SOL    HW217263   6.227   3.541   7.470
   41SOL     OW17264   3.824   0.249   6.940
   41SOL    HW117265   3.773   0.317   6.983
   41SOL    HW217266   3.780   0.167   6.961
   42SOL     OW17267   3.458   0.849   7.188
   42SOL    HW117268   3.503   0.913   7.133
   42SOL    HW217269   3.379   0.826   7.139
   43SOL     OW17270   4.844   0.075   1.000
   43SOL    HW117271   4.922   0.061   0.947
   43SOL    HW217272   4.805  -0.012   1.009
   44SOL     OW17273   2.911   5.827   0.337
   44SOL    HW117274   3.005   5.818   0.322
   44SOL    HW217275   2.870   5.772   0.271
   45SOL     OW17276   1.186   4.458   0.291
   45SOL    HW117277   1.120   4.466   0.222
   45SOL    HW217278   1.161   4.524   0.356
   46SOL     OW17279   5.976   5.111   5.299
   46SOL    HW117280   6.036   5.049   5.257
   46SOL    HW217281   6.030   5.187   5.319
   47SOL     OW17282   2.959   2.398   0.233
   47SOL    HW117283   2.868   2.413   0.208
   47SOL    HW217284   2.989   2.484   0.264
   48SOL     OW17285   6.012   4.364   7.680
   48SOL    HW117286   6.076   4.379   7.750
   48SOL    HW217287   5.953   4.439   7.685
   49SOL     OW17288   0.771   2.388   0.841
   49SOL    HW117289   0.751   2.452   0.773
   49SOL    HW217290   0.862   2.364   0.826
   50SOL     OW17291   0.071   0.225   1.096
   50SOL    HW117292   0.074   0.224   1.191
   50SOL    HW217293   0.014   0.151   1.073
   51SOL     OW17294   3.468   0.352   0.209
   51SOL    HW117295   3.397   0.415   0.193
   51SOL    HW217296   3.533   0.372   0.142
   52SOL     OW17297   1.566   2.559   0.743
   52SOL    HW117298   1.525   2.535   0.660
   52SOL    HW217299   1.613   2.480   0.770
   53SOL     OW17300   5.595   0.236   0.975
   53SOL    HW117301   5.684   0.229   1.011
   53SOL    HW217302   5.545   0.169   1.022
   54SOL     OW17303   6.331   2.856   1.294
   54SOL    HW117304   6.364   2.803   1.366
   54SOL    HW217305   6.351   2.946   1.320
   55SOL     OW17306   4.395   3.489   5.161
   55SOL    HW117307   4.319   3.463   5.212
   55SOL    HW217308   4.418   3.412   5.110
   56SOL     OW17309   2.725   4.767   5.473
   56SOL    HW117310   2.701   4.680   5.441
   56SOL    HW217311   2.789   4.749   5.542
   57SOL     OW17312   4.134   4.464   1.391
   57SOL    HW117313   4.159   4.380   1.428
   57SOL    HW217314   4.055   4.489   1.439
   58SOL     OW17315   2.992   5.815   0.630
   58SOL    HW117316   2.977   5.852   0.543
   58SOL    HW217317   2.919   5.755   0.643
   59SOL     OW17318   5.950   1.023   6.911
   59SOL    HW117319   5.946   1.096   6.849
   59SOL    HW217320   5.868   0.976   6.898
   60SOL     OW17321   6.042   1.431   6.926
   60SOL    HW117322   6.000   1.402   6.845
   60SOL    HW217323   6.135   1.421   6.911
   61SOL     OW17324   2.164   2.705   6.945
   61SOL    HW117325   2.118   2.627   6.978
   61SOL    HW217326   2.143   2.773   7.009
   62SOL     OW17327   0.412   3.122   1.266
   62SOL    HW117328   0.496   3.078   1.269
   62SOL    HW217329   0.384   3.116   1.175
   63SOL     OW17330   4.935   3.727   0.486
   63SOL    HW117331   4.851   3.708   0.526
   63SOL    HW217332   4.972   3.798   0.539
   64SOL     OW17333   4.915   5.283   5.952
   64SOL    HW117334   4.982   5.315   5.892
   64SOL    HW217335   4.856   5.358   5.963
   65SOL     OW17336   2.910   0.155   6.380
   65SOL    HW117337   2.839   0.091   6.388
   65SOL    HW217338   2.988   0.108   6.410
   66SOL     OW17339   3.703   3.607   1.095
   66SOL    HW117340   3.797   3.622   1.081
   66SOL    HW217341   3.687   3.634   1.185
   67SOL     OW17342   4.337   2.024   1.097
   67SOL    HW117343   4.324   1.948   1.041
   67SOL    HW217344   4.432   2.035   1.102
   68SOL     OW17345   5.003   5.974   6.694
   68SOL    HW117346   4.974   6.063   6.715
   68SOL    HW217347   4.928   5.919   6.715
   69SOL     OW17348   3.860   1.247   1.897
   69SOL    HW117349   3.799   1.316   1.923
   69SOL    HW217350   3.928   1.248   1.964
   70SOL     OW17351   6.323   0.578   6.622
   70SOL    HW117352   6.241   0.569   6.670
   70SOL    HW217353   6.390   0.581   6.690
   71SOL     OW17354   2.218   2.840   6.048
   71SOL    HW117355   2.205   2.918   5.994
   71SOL    HW217356   2.132   2.799   6.053
   72SOL     OW17357   2.366   1.971   7.603
   72SOL    HW117358   2.341   2.013   7.521
   72SOL    HW217359   2.373   1.878   7.581
   73SOL     OW17360   1.039   5.565   6.281
   73SOL    HW117361   1.020   5.639   6.224
   73SOL    HW217362   0.961   5.554   6.335
   74SOL     OW17363   5.188   4.311   6.944
   74SOL    HW117364   5.173   4.290   6.852
   74SOL    HW217365   5.263   4.371   6.944
   75SOL     OW17366   2.731   1.224   0.799
   75SOL    HW117367   2.772   1.257   0.879
   75SOL    HW217368   2.638   1.247   0.809
   76SOL     OW17369   2.907   0.450   0.394
   76SOL    HW117370   2.895   0.371   0.448
   76SOL    HW217371   2.862   0.519   0.442
   77SOL     OW17372   2.591   1.431   0.507
   77SOL    HW117373   2.651   1.357   0.516
   77SOL    HW217374   2.583   1.466   0.595
   78SOL     OW17375   5.953   2.791   2.088
   78SOL    HW117376   5.984   2.713   2.041
   78SOL    HW217377   6.033   2.833   2.120
   79SOL     OW17378   6.095   1.667   5.512
   79SOL    HW117379   6.029   1.600   5.491
   79SOL    HW217380   6.177   1.631   5.478
   80SOL     OW17381   5.842   0.130   0.097
   80SOL    HW117382   5.888   0.213   0.100
   80SOL    HW217383   5.858   0.095   0.009
   81SOL     OW17384   3.978   5.727   1.770
   81SOL    HW117385   3.972   5.723   1.674
   81SOL    HW217386   3.912   5.792   1.795
   82SOL     OW17387   5.652   1.528   7.396
   82SOL    HW117388   5.675   1.448   7.442
   82SOL    HW217389   5.588   1.571   7.452
   83SOL     OW17390   1.027   5.580   6.853
   83SOL    HW117391   0.958   5.525   6.890
   83SOL    HW217392   0.992   5.669   6.860
   84SOL     OW17393   2.288   5.135   1.195
   84SOL    HW117394   2.201   5.149   1.160
   84SOL    HW217395   2.275   5.082   1.274
   85SOL     OW17396   3.212   4.586   6.790
   85SOL    HW117397   3.169   4.567   6.874
   85SOL    HW217398   3.152   4.646   6.746
   86SOL     OW17399   0.172   3.264   6.025
   86SOL    HW117400   0.126   3.234   5.947
   86SOL    HW217401   0.262   3.280   5.995
   87SOL     OW17402   2.531   1.676   1.034
   87SOL    HW117403   2.540   1.657   0.940
   87SOL    HW217404   2.445   1.643   1.057
   88SOL     OW17405   6.334   4.298   6.841
   88SOL    HW117406   6.386   4.305   6.921
   88SOL    HW217407   6.245   4.279   6.871
   89SOL     OW17408   0.383   2.189   0.847
   89SOL    HW117409   0.312   2.127   0.860
   89SOL    HW217410   0.463   2.138   0.863
   90SOL     OW17411   5.576   4.699   6.950
   90SOL    HW117412   5.619   4.757   7.013
   90SOL    HW217413   5.568   4.752   6.870
   91SOL     OW17414   4.468   2.314   7.677
   91SOL    HW117415   4.452   2.220   7.669
   91SOL    HW217416   4.498   2.325   7.767
   92SOL     OW17417   6.102   0.135   1.006
   92SOL    HW117418   6.164   0.206   0.993
   92SOL    HW217419   6.062   0.121   0.920
   93SOL     OW17420   4.198   2.295   0.459
   93SOL    HW117421   4.141   2.285   0.382
   93SOL    HW217422   4.137   2.310   0.532
   94SOL     OW17423   5.633   3.313   1.258
   94SOL    HW117424   5.572   3.385   1.272
   94SOL    HW217425   5.644   3.309   1.163
   95SOL     OW17426   5.853   0.902   6.289
   95SOL    HW117427   5.767   0.877   6.255
   95SOL    HW217428   5.911   0.831   6.260
   96SOL     OW17429   1.866   0.481   7.175
   96SOL    HW117430   1.789   0.515   7.128
   96SOL    HW217431   1.880   0.394   7.137
   97SOL     OW17432   5.421   0.442   7.355
   97SOL    HW117433   5.452   0.442   7.445
   97SOL    HW217434   5.468   0.370   7.314
   98SOL     OW17435   4.931   1.428   0.150
   98SOL    HW117436   4.962   1.401   0.236
   98SOL    HW217437   4.878   1.354   0.120
   99SOL     OW17438   1.603   0.181   6.397
   99SOL    HW117439   1.669   0.144   6.339
   99SOL    HW217440   1.521   0.177   6.347
  100SOL     OW17441   3.112   6.217   1.057
  100SOL    HW117442   3.066   6.279   1.113
  100SOL    HW217443   3.051   6.200   0.985
  101SOL     OW17444   3.184   5.881   7.857
  101SOL    HW117445   3.270   5.878   7.815
  101SOL    HW217446   3.122   5.876   7.784
  102SOL     OW17447   3.703   1.646   7.300
  102SOL    HW117448   3.798   1.636   7.302
  102SOL    HW217449   3.686   1.692   7.218
  103SOL     OW17450   2.102   2.624   6.508
  103SOL    HW117451   2.118   2.665   6.593
  103SOL    HW217452   2.139   2.687   6.445
  104SOL     OW17453   2.044   4.229   6.040
  104SOL    HW117454   1.985   4.165   6.000
  104SOL    HW217455   2.097   4.261   5.967
  105SOL     OW17456   2.889   2.514   1.093
  105SOL    HW117457   2.903   2.422   1.115
  105SOL    HW217458   2.968   2.559   1.124
  106SOL     OW17459   2.653   3.733   0.347
  106SOL    HW117460   2.652   3.798   0.417
  106SOL    HW217461   2.612   3.655   0.385
  107SOL     OW17462   3.448   4.785   7.698
  107SOL    HW117463   3.455   4.713   7.760
  107SOL    HW217464   3.536   4.823   7.696
  108SOL     OW17465   6.155   0.217   7.516
  108SOL    HW117466   6.237   0.166   7.513
  108SOL    HW217467   6.101   0.178   7.447
  109SOL     OW17468   6.166   1.312   6.556
  109SOL    HW117469   6.207   1.397   6.574
  109SOL    HW217470   6.157   1.310   6.461
  110SOL     OW17471   2.648   5.069   5.512
  110SOL    HW117472   2.725   5.121   5.490
  110SOL    HW217473   2.673   4.979   5.491
  111SOL     OW17474   1.696   5.178   7.640
  111SOL    HW117475   1.717   5.148   7.729
  111SOL    HW217476   1.634   5.250   7.653
  112SOL     OW17477   6.304   2.251   6.883
  112SOL    HW117478   6.301   2.321   6.948
  112SOL    HW217479   6.354   2.181   6.924
  113SOL     OW17480   3.095   3.765   0.292
  113SOL    HW117481   3.185   3.766   0.261
  113SOL    HW217482   3.068   3.857   0.294
  114SOL     OW17483   4.472   5.744   0.167
  114SOL    HW117484   4.478   5.725   0.261
  114SOL    HW217485   4.530   5.820   0.156
  115SOL     OW17486   0.789   3.735   7.206
  115SOL    HW117487   0.719   3.797   7.228
  115SOL    HW217488   0.771   3.659   7.260
  116SOL     OW17489   2.247   3.034   6.891
  116SOL    HW117490   2.239   3.027   6.986
  116SOL    HW217491   2.162   3.005   6.857
  117SOL     OW17492   3.531   3.913   0.767
  117SOL    HW117493   3.445   3.907   0.809
  117SOL    HW217494   3.520   3.866   0.684
  118SOL     OW17495   6.128   4.989   6.861
  118SOL    HW117496   6.181   4.912   6.846
  118SOL    HW217497   6.175   5.060   6.817
  119SOL     OW17498   5.501   0.149   7.479
  119SOL    HW117499   5.417   0.152   7.524
  119SOL    HW217500   5.540   0.066   7.507
  120SOL     OW17501   4.245   2.703   6.234
  120SOL    HW117502   4.192   2.631   6.269
  120SOL    HW217503   4.291   2.665   6.160
  121SOL     OW17504   2.026   1.097   6.022
  121SOL    HW117505   1.933   1.093   6.041
  121SOL    HW217506   2.040   1.186   5.988
  122SOL     OW17507   1.001   5.997   0.942
  122SOL    HW117508   1.065   6.043   0.888
  122SOL    HW217509   0.940   5.958   0.879
  123SOL     OW17510   1.180   1.025   6.973
  123SOL    HW117511   1.155   1.085   7.043
  123SOL    HW217512   1.154   0.938   7.005
  124SOL     OW17513   4.382   5.380   6.791
  124SOL    HW117514   4.371   5.328   6.711
  124SOL    HW217515   4.294   5.409   6.813
  125SOL     OW17516   1.939   3.066   7.082
  125SOL    HW117517   1.890   3.130   7.032
  125SOL    HW217518   1.892   2.983   7.069
  126SOL     OW17519   4.573   3.718   0.941
  126SOL    HW117520   4.585   3.757   1.027
  126SOL    HW217521   4.544   3.790   0.885
  127SOL     OW17522   5.537   5.008   0.863
  127SOL    HW117523   5.509   5.074   0.799
  127SOL    HW217524   5.507   4.925   0.827
  128SOL     OW17525   2.815   2.184   0.058
  128SOL    HW117526   2.742   2.245   0.074
  128SOL    HW217527   2.875   2.233   0.002
  129SOL     OW17528   2.739   4.789   5.812
  129SOL    HW117529   2.777   4.867   5.852
  129SOL    HW217530   2.703   4.739   5.885
  130SOL     OW17531   5.077   4.679   0.517
  130SOL    HW117532   4.995   4.631   0.505
  130SOL    HW217533   5.145   4.611   0.513
  131SOL     OW17534   3.174   3.660   1.289
  131SOL    HW117535   3.224   3.742   1.292
  131SOL    HW217536   3.101   3.674   1.350
  132SOL     OW17537   0.350   5.774   5.572
  132SOL    HW117538   0.311   5.855   5.539
  132SOL    HW217539   0.291   5.747   5.643
  133SOL     OW17540   0.905   3.389   0.821
  133SOL    HW117541   0.856   3.455   0.871
  133SOL    HW217542   0.995   3.400   0.850
  134SOL     OW17543   2.233   1.797   0.234
  134SOL    HW117544   2.291   1.731   0.271
  134SOL    HW217545   2.270   1.880   0.263
  135SOL     OW17546   1.065   0.703   7.835
  135SOL    HW117547   1.098   0.762   7.767
  135SOL    HW217548   1.124   0.628   7.832
  136SOL     OW17549   4.495   6.405   7.104
  136SOL    HW117550   4.578   6.425   7.147
  136SOL    HW217551   4.453   6.342   7.162
  137SOL     OW17552   5.437   4.364   6.239
  137SOL    HW117553   5.406   4.313   6.165
  137SOL    HW217554   5.513   4.317   6.272
  138SOL     OW17555   4.374   1.255   0.705
  138SOL    HW117556   4.401   1.335   0.660
  138SOL    HW217557   4.383   1.276   0.798
  139SOL     OW17558   5.820   6.120   7.259
  139SOL    HW117559   5.805   6.040   7.209
  139SOL    HW217560   5.884   6.095   7.326
  140SOL     OW17561   5.061   5.739   1.109
  140SOL    HW117562   5.011   5.805   1.059
  140SOL    HW217563   4.996   5.697   1.165
  141SOL     OW17564   1.730   0.996   0.492
  141SOL    HW117565   1.804   0.937   0.479
  141SOL    HW217566   1.663   0.942   0.533
  142SOL     OW17567   3.507   4.527   1.076
  142SOL    HW117568   3.477   4.616   1.054
  142SOL    HW217569   3.434   4.489   1.125
  143SOL     OW17570   2.778   5.386   0.687
  143SOL    HW117571   2.858   5.400   0.738
  143SOL    HW217572   2.745   5.474   0.669
  144SOL     OW17573   2.738   1.099   0.291
  144SOL    HW117574   2.815   1.076   0.239
  144SOL    HW217575   2.696   1.016   0.312
  145SOL     OW17576   1.006   3.414   6.099
  145SOL    HW117577   1.034   3.504   6.117
  145SOL    HW217578   1.054   3.391   6.019
  146SOL     OW17579   6.005   6.131   6.532
  146SOL    HW117580   6.005   6.203   6.469
  146SOL    HW217581   5.937   6.155   6.595
  147SOL     OW17582   5.595   0.767   5.686
  147SOL    HW117583   5.508   0.793   5.716
  147SOL    HW217584   5.629   0.711   5.755
  148SOL     OW17585   5.390   3.371   1.705
  148SOL    HW117586   5.324   3.440   1.691
  148SOL    HW217587   5.456   3.388   1.639
  149SOL     OW17588   1.769   3.667   7.466
  149SOL    HW117589   1.747   3.588   7.416
  149SOL    HW217590   1.705   3.668   7.537
  150SOL     OW17591   6.290   4.432   0.908
  150SOL    HW117592   6.253   4.520   0.899
  150SOL    HW217593   6.333   4.432   0.994
  151SOL     OW17594   4.047   2.336   1.503
  151SOL    HW117595   4.001   2.363   1.424
  151SOL    HW217596   3.991   2.364   1.575
  152SOL     OW17597   2.324   2.249   1.046
  152SOL    HW117598   2.388   2.182   1.068
  152SOL    HW217599   2.255   2.239   1.112
  153SOL     OW17600   2.677   1.076   5.708
  153SOL    HW117601   2.583   1.080   5.691
  153SOL    HW217602   2.706   0.998   5.660
  154SOL     OW17603   0.690   5.559   5.716
  154SOL    HW117604   0.635   5.489   5.751
  154SOL    HW217605   0.656   5.574   5.628
  155SOL     OW17606   5.847   2.585   6.234
  155SOL    HW117607   5.864   2.665   6.284
  155SOL    HW217608   5.772   2.607   6.179
  156SOL     OW17609   3.698   3.031   7.774
  156SOL    HW117610   3.612   3.073   7.783
  156SOL    HW217611   3.745   3.055   7.853
  157SOL     OW17612   1.635   3.635   7.782
  157SOL    HW117613   1.593   3.719   7.802
  157SOL    HW217614   1.717   3.637   7.830
  158SOL     OW17615   1.591   5.042   6.049
  158SOL    HW117616   1.670   5.094   6.034
  158SOL    HW217617   1.543   5.048   5.966
  159SOL     OW17618   2.364   2.887   0.141
  159SOL    HW117619   2.315   2.861   0.219
  159SOL    HW217620   2.355   2.814   0.081
  160SOL     OW17621   5.841   3.295   7.782
  160SOL    HW117622   5.760   3.245   7.797
  160SOL    HW217623   5.868   3.271   7.693
  161SOL     OW17624   3.366   1.328   7.010
  161SOL    HW117625   3.459   1.315   7.027
  161SOL    HW217626   3.358   1.420   6.983
  162SOL     OW17627   1.831   0.990   7.851
  162SOL    HW117628   1.864   1.072   7.888
  162SOL    HW217629   1.905   0.930   7.858
  163SOL     OW17630   1.954   5.074   2.019
  163SOL    HW117631   2.037   5.026   2.025
  163SOL    HW217632   1.969   5.153   2.071
  164SOL     OW17633   5.394   4.715   1.317
  164SOL    HW117634   5.432   4.644   1.368
  164SOL    HW217635   5.417   4.695   1.227
  165SOL     OW17636   4.541   4.443   0.467
  165SOL    HW117637   4.514   4.464   0.377
  165SOL    HW217638   4.469   4.473   0.522
  166SOL     OW17639   0.968   6.351   1.578
  166SOL    HW117640   0.924   6.380   1.498
  166SOL    HW217641   1.028   6.283   1.549
  167SOL     OW17642   1.080   4.845   1.824
  167SOL    HW117643   1.045   4.755   1.822
  167SOL    HW217644   1.174   4.834   1.812
  168SOL     OW17645   0.566   4.265   0.727
  168SOL    HW117646   0.610   4.197   0.779
  168SOL    HW217647   0.480   4.275   0.768
  169SOL     OW17648   2.241   1.504   0.739
  169SOL    HW117649   2.195   1.564   0.797
  169SOL    HW217650   2.174   1.469   0.681
  170SOL     OW17651   2.185   4.817   7.497
  170SOL    HW117652   2.204   4.907   7.471
  170SOL    HW217653   2.107   4.824   7.553
  171SOL     OW17654   4.545   3.624   1.351
  171SOL    HW117655   4.576   3.547   1.304
  171SOL    HW217656   4.525   3.592   1.439
  172SOL     OW17657   2.279   3.312   6.725
  172SOL    HW117658   2.358   3.259   6.737
  172SOL    HW217659   2.243   3.322   6.813
  173SOL     OW17660   2.595   4.830   6.520
  173SOL    HW117661   2.669   4.892   6.522
  173SOL    HW217662   2.553   4.841   6.605
  174SOL     OW17663   6.100   1.420   0.320
  174SOL    HW117664   6.137   1.363   0.388
  174SOL    HW217665   6.156   1.497   0.320
  175SOL     OW17666   5.496   5.567   1.127
  175SOL    HW117667   5.472   5.483   1.166
  175SOL    HW217668   5.590   5.575   1.143
  176SOL     OW17669   3.061   3.301   7.453
  176SOL    HW117670   3.106   3.289   7.369
  176SOL    HW217671   3.049   3.396   7.460
  177SOL     OW17672   6.104   5.521   6.875
  177SOL    HW117673   6.194   5.544   6.853
  177SOL    HW217674   6.059   5.515   6.791
  178SOL     OW17675   3.303   6.165   7.142
  178SOL    HW117676   3.304   6.254   7.176
  178SOL    HW217677   3.219   6.129   7.172
  179SOL     OW17678   4.000   1.136   0.029
  179SOL    HW117679   3.966   1.094  -0.050
  179SOL    HW217680   3.949   1.097   0.100
  180SOL     OW17681   2.813   1.237   6.207
  180SOL    HW117682   2.761   1.222   6.286
  180SOL    HW217683   2.802   1.158   6.155
  181SOL     OW17684   4.822   3.241   7.321
  181SOL    HW117685   4.744   3.293   7.338
  181SOL    HW217686   4.788   3.156   7.291
  182SOL     OW17687   2.543   4.428   1.828
  182SOL    HW117688   2.475   4.403   1.765
  182SOL    HW217689   2.525   4.374   1.905
  183SOL     OW17690   1.321   1.823   5.792
  183SOL    HW117691   1.400   1.818   5.845
  183SOL    HW217692   1.306   1.917   5.779
  184SOL     OW17693   0.454   4.562   6.393
  184SOL    HW117694   0.465   4.619   6.470
  184SOL    HW217695   0.528   4.585   6.337
  185SOL     OW17696   4.034   5.678   6.281
  185SOL    HW117697   4.010   5.650   6.369
  185SOL    HW217698   4.128   5.698   6.287
  186SOL     OW17699   3.854   1.720   0.471
  186SOL    HW117700   3.912   1.795   0.482
  186SOL    HW217701   3.782   1.737   0.533
  187SOL     OW17702   4.440   1.375   1.816
  187SOL    HW117703   4.407   1.310   1.879
  187SOL    HW217704   4.531   1.390   1.843
  188SOL     OW17705   4.757   2.993   7.270
  188SOL    HW117706   4.749   3.007   7.176
  188SOL    HW217707   4.817   2.919   7.279
  189SOL     OW17708   3.247   1.185   1.087
  189SOL    HW117709   3.219   1.266   1.129
  189SOL    HW217710   3.338   1.173   1.113
  190SOL     OW17711   4.216   2.184   6.404
  190SOL    HW117712   4.303   2.223   6.402
  190SOL    HW217713   4.170   2.224   6.330
  191SOL     OW17714   4.579   4.785   6.562
  191SOL    HW117715   4.549   4.873   6.584
  191SOL    HW217716   4.537   4.766   6.478
  192SOL     OW17717   0.022   0.237   7.170
  192SOL    HW117718  -0.006   0.327   7.190
  192SOL    HW217719  -0.055   0.184   7.192
  193SOL     OW17720   1.434   1.164   1.542
  193SOL    HW117721   1.483   1.118   1.610
  193SOL    HW217722   1.343   1.156   1.568
  194SOL     OW17723   1.541   1.190   1.043
  194SOL    HW117724   1.525   1.279   1.014
  194SOL    HW217725   1.637   1.182   1.047
  195SOL     OW17726   6.350   3.134   7.767
  195SOL    HW117727   6.295   3.106   7.840
  195SOL    HW217728   6.387   3.053   7.732
  196SOL     OW17729   0.815   2.670   1.543
  196SOL    HW117730   0.783   2.597   1.597
  196SOL    HW217731   0.838   2.629   1.459
  197SOL     OW17732   5.099   5.113   5.490
  197SOL    HW117733   5.047   5.184   5.528
  197SOL    HW217734   5.094   5.043   5.555
  198SOL     OW17735   5.610   5.264   1.662
  198SOL    HW117736   5.701   5.238   1.646
  198SOL    HW217737   5.616   5.333   1.729
  199SOL     OW17738   3.822   2.934   5.786
  199SOL    HW117739   3.743   2.948   5.735
  199SOL    HW217740   3.862   2.855   5.748
  200SOL     OW17741   5.884   2.464   6.850
  200SOL    HW117742   5.933   2.434   6.926
  200SOL    HW217743   5.793   2.468   6.880
  201SOL     OW17744   1.983   4.006   1.513
  201SOL    HW117745   1.972   3.915   1.485
  201SOL    HW217746   2.056   4.003   1.574
  202SOL     OW17747   2.882   0.627   6.806
  202SOL    HW117748   2.837   0.573   6.741
  202SOL    HW217749   2.830   0.707   6.810
  203SOL     OW17750   5.484   4.637   1.058
  203SOL    HW117751   5.570   4.680   1.051
  203SOL    HW217752   5.428   4.685   0.997
  204SOL     OW17753   6.031   5.188   1.251
  204SOL    HW117754   5.938   5.169   1.260
  204SOL    HW217755   6.047   5.259   1.314
  205SOL     OW17756   5.533   0.776   0.847
  205SOL    HW117757   5.608   0.750   0.794
  205SOL    HW217758   5.457   0.749   0.795
  206SOL     OW17759   2.701   0.740   1.209
  206SOL    HW117760   2.610   0.724   1.184
  206SOL    HW217761   2.752   0.686   1.149
  207SOL     OW17762   1.837   5.349   1.390
  207SOL    HW117763   1.787   5.427   1.367
  207SOL    HW217764   1.779   5.276   1.370
  208SOL     OW17765   0.822   3.705   7.719
  208SOL    HW117766   0.833   3.724   7.813
  208SOL    HW217767   0.910   3.716   7.683
  209SOL     OW17768   3.941   2.011   0.966
  209SOL    HW117769   3.900   2.069   0.902
  209SOL    HW217770   4.004   1.959   0.915
  210SOL     OW17771   3.871   3.092   7.257
  210SOL    HW117772   3.906   3.018   7.307
  210SOL    HW217773   3.893   3.169   7.309
  211SOL     OW17774   1.377   2.081   1.051
  211SOL    HW117775   1.363   1.990   1.078
  211SOL    HW217776   1.306   2.100   0.990
  212SOL     OW17777   5.691   2.112   5.988
  212SOL    HW117778   5.644   2.080   5.911
  212SOL    HW217779   5.784   2.102   5.965
  213SOL     OW17780   4.460   1.514   2.245
  213SOL    HW117781   4.511   1.481   2.171
  213SOL    HW217782   4.375   1.471   2.235
  214SOL     OW17783   1.245   1.328   0.242
  214SOL    HW117784   1.220   1.376   0.163
  214SOL    HW217785   1.163   1.290   0.274
  215SOL     OW17786   5.282   0.062   1.014
  215SOL    HW117787   5.324   0.127   0.958
  215SOL    HW217788   5.208   0.030   0.963
  216SOL     OW17789   2.424   1.781   2.198
  216SOL    HW117790   2.507   1.823   2.222
  216SOL    HW217791   2.360   1.852   2.204
  217SOL     OW17792   1.210   3.035   2.437
  217SOL    HW117793   1.187   3.126   2.421
  217SOL    HW217794   1.130   2.997   2.474
  218SOL     OW17795   4.701   0.433   0.787
  218SOL    HW117796   4.685   0.441   0.880
  218SOL    HW217797   4.796   0.441   0.778
  219SOL     OW17798   3.599   3.104   1.354
  219SOL    HW117799   3.623   3.012   1.364
  219SOL    HW217800   3.682   3.151   1.357
  220SOL     OW17801   4.782   5.659   6.780
  220SOL    HW117802   4.758   5.571   6.808
  220SOL    HW217803   4.861   5.679   6.832
  221SOL     OW17804   0.102   0.807   1.485
  221SOL    HW117805   0.071   0.884   1.532
  221SOL    HW217806   0.080   0.824   1.393
  222SOL     OW17807   4.976   4.176   0.216
  222SOL    HW117808   4.980   4.144   0.306
  222SOL    HW217809   4.910   4.245   0.218
  223SOL     OW17810   4.455   5.008   6.670
  223SOL    HW117811   4.412   5.063   6.605
  223SOL    HW217812   4.384   4.963   6.715
  224SOL     OW17813   2.791   5.462   6.293
  224SOL    HW117814   2.853   5.464   6.365
  224SOL    HW217815   2.708   5.488   6.331
  225SOL     OW17816   1.530   0.599   0.765
  225SOL    HW117817   1.462   0.639   0.819
  225SOL    HW217818   1.604   0.659   0.771
  226SOL     OW17819   3.350   1.582   0.732
  226SOL    HW117820   3.313   1.598   0.645
  226SOL    HW217821   3.439   1.552   0.714
  227SOL     OW17822   3.329   4.795   5.809
  227SOL    HW117823   3.282   4.711   5.817
  227SOL    HW217824   3.261   4.858   5.786
  228SOL     OW17825   5.091   1.007   6.831
  228SOL    HW117826   5.140   1.003   6.749
  228SOL    HW217827   5.000   1.022   6.804
  229SOL     OW17828   1.194   4.229   0.006
  229SOL    HW117829   1.154   4.300   0.056
  229SOL    HW217830   1.135   4.216  -0.068
  230SOL     OW17831   2.231   4.333   7.139
  230SOL    HW117832   2.176   4.406   7.168
  230SOL    HW217833   2.284   4.310   7.215
  231SOL     OW17834   3.169   1.278   0.227
  231SOL    HW117835   3.195   1.358   0.183
  231SOL    HW217836   3.223   1.274   0.306
  232SOL     OW17837   5.905   5.919   0.786
  232SOL    HW117838   5.922   5.939   0.878
  232SOL    HW217839   5.832   5.857   0.789
  233SOL     OW17840   1.828   5.523   5.892
  233SOL    HW117841   1.897   5.456   5.890
  233SOL    HW217842   1.758   5.486   5.840
  234SOL     OW17843   6.001   1.487   7.551
  234SOL    HW117844   6.042   1.428   7.614
  234SOL    HW217845   6.059   1.487   7.476
  235SOL     OW17846   6.238   5.651   7.573
  235SOL    HW117847   6.235   5.614   7.485
  235SOL    HW217848   6.154   5.625   7.613
  236SOL     OW17849   5.104   3.016   7.646
  236SOL    HW117850   5.130   3.026   7.737
  236SOL    HW217851   5.031   3.078   7.635
  237SOL     OW17852   0.627   5.654   6.533
  237SOL    HW117853   0.605   5.746   6.551
  237SOL    HW217854   0.587   5.637   6.448
  238SOL     OW17855   5.873   4.652   2.100
  238SOL    HW117856   5.873   4.609   2.186
  238SOL    HW217857   5.919   4.734   2.114
  239SOL     OW17858   5.715   1.205   1.467
  239SOL    HW117859   5.666   1.254   1.533
  239SOL    HW217860   5.763   1.272   1.418
  240SOL     OW17861   1.980   2.106   7.314
  240SOL    HW117862   2.028   2.089   7.395
  240SOL    HW217863   1.984   2.023   7.265
  241SOL     OW17864   5.989   2.482   2.369
  241SOL    HW117865   6.079   2.461   2.394
  241SOL    HW217866   5.972   2.428   2.293
  242SOL     OW17867   5.738   4.463   6.898
  242SOL    HW117868   5.694   4.401   6.839
  242SOL    HW217869   5.667   4.520   6.928
  243SOL     OW17870   5.830   5.894   5.941
  243SOL    HW117871   5.796   5.962   5.883
  243SOL    HW217872   5.889   5.941   6.000
  244SOL     OW17873   1.542   6.168   0.495
  244SOL    HW117874   1.590   6.085   0.488
  244SOL    HW217875   1.594   6.220   0.556
  245SOL     OW17876   0.935   3.746   6.372
  245SOL    HW117877   0.941   3.816   6.307
  245SOL    HW217878   1.025   3.716   6.384
  246SOL     OW17879   3.040   2.178   7.121
  246SOL    HW117880   3.008   2.129   7.196
  246SOL    HW217881   3.096   2.117   7.073
  247SOL     OW17882   3.301   2.486   7.837
  247SOL    HW117883   3.236   2.503   7.769
  247SOL    HW217884   3.376   2.540   7.811
  248SOL     OW17885   4.428   0.307   0.287
  248SOL    HW117886   4.487   0.311   0.363
  248SOL    HW217887   4.435   0.394   0.248
  249SOL     OW17888   4.159   0.825   1.257
  249SOL    HW117889   4.069   0.794   1.256
  249SOL    HW217890   4.155   0.912   1.218
  250SOL     OW17891   4.510   1.191   6.205
  250SOL    HW117892   4.581   1.195   6.141
  250SOL    HW217893   4.434   1.225   6.159
  251SOL     OW17894   0.464   1.362   1.829
  251SOL    HW117895   0.403   1.292   1.850
  251SOL    HW217896   0.551   1.323   1.839
  252SOL     OW17897   1.398   0.339   7.602
  252SOL    HW117898   1.475   0.380   7.563
  252SOL    HW217899   1.345   0.311   7.528
  253SOL     OW17900   4.121   5.451   1.991
  253SOL    HW117901   4.057   5.380   2.003
  253SOL    HW217902   4.092   5.519   2.052
  254SOL     OW17903   6.069   5.907   7.252
  254SOL    HW117904   6.072   5.825   7.203
  254SOL    HW217905   6.148   5.954   7.225
  255SOL     OW17906   3.539   5.354   6.196
  255SOL    HW117907   3.461   5.405   6.212
  255SOL    HW217908   3.514   5.264   6.220
  256SOL     OW17909   2.387   5.195   1.932
  256SOL    HW117910   2.470   5.237   1.913
  256SOL    HW217911   2.345   5.253   1.996
  257SOL     OW17912   0.692   3.842   6.501
  257SOL    HW117913   0.619   3.786   6.474
  257SOL    HW217914   0.770   3.795   6.473
  258SOL     OW17915   3.190   5.813   0.298
  258SOL    HW117916   3.210   5.890   0.351
  258SOL    HW217917   3.205   5.841   0.208
  259SOL     OW17918   2.871   2.022   7.269
  259SOL    HW117919   2.879   2.012   7.174
  259SOL    HW217920   2.776   2.017   7.286
  260SOL     OW17921   3.924   1.376   0.186
  260SOL    HW117922   3.989   1.345   0.249
  260SOL    HW217923   3.930   1.314   0.113
  261SOL     OW17924   5.458   3.130   1.332
  261SOL    HW117925   5.410   3.143   1.250
  261SOL    HW217926   5.544   3.170   1.315
  262SOL     OW17927   6.069   5.683   6.579
  262SOL    HW117928   5.975   5.691   6.589
  262SOL    HW217929   6.092   5.751   6.516
  263SOL     OW17930   4.555   4.317   1.535
  263SOL    HW117931   4.645   4.306   1.507
  263SOL    HW217932   4.518   4.381   1.474
  264SOL     OW17933   3.715   0.171   6.245
  264SOL    HW117934   3.783   0.224   6.286
  264SOL    HW217935   3.639   0.229   6.240
  265SOL     OW17936   0.919   2.300   1.530
  265SOL    HW117937   0.825   2.317   1.530
  265SOL    HW217938   0.937   2.263   1.616
  266SOL     OW17939   4.681   3.958   1.478
  266SOL    HW117940   4.684   3.939   1.385
  266SOL    HW217941   4.587   3.961   1.499
  267SOL     OW17942   3.939   4.696   6.437
  267SOL    HW117943   3.925   4.736   6.523
  267SOL    HW217944   3.853   4.696   6.396
  268SOL     OW17945   4.915   0.488   6.852
  268SOL    HW117946   4.960   0.571   6.872
  268SOL    HW217947   4.919   0.481   6.757
  269SOL     OW17948   5.010   4.500   5.802
  269SOL    HW117949   5.021   4.594   5.793
  269SOL    HW217950   4.994   4.469   5.713
  270SOL     OW17951   5.408   4.181   7.723
  270SOL    HW117952   5.416   4.245   7.794
  270SOL    HW217953   5.490   4.190   7.674
  271SOL     OW17954   4.091   0.027   1.178
  271SOL    HW117955   4.177   0.056   1.147
  271SOL    HW217956   4.067   0.092   1.244
  272SOL     OW17957   3.490   0.423   5.559
  272SOL    HW117958   3.535   0.442   5.476
  272SOL    HW217959   3.407   0.470   5.553
  273SOL     OW17960   2.973   2.797   1.694
  273SOL    HW117961   2.929   2.754   1.621
  273SOL    HW217962   2.974   2.890   1.670
  274SOL     OW17963   3.386   2.305   0.843
  274SOL    HW117964   3.352   2.285   0.755
  274SOL    HW217965   3.363   2.396   0.857
  275SOL     OW17966   4.051   1.328   1.084
  275SOL    HW117967   4.088   1.239   1.086
  275SOL    HW217968   4.076   1.365   1.169
  276SOL     OW17969   2.919   4.707   0.784
  276SOL    HW117970   2.931   4.802   0.786
  276SOL    HW217971   2.975   4.677   0.713
  277SOL     OW17972   2.410   1.592   0.360
  277SOL    HW117973   2.358   1.517   0.332
  277SOL    HW217974   2.493   1.553   0.390
  278SOL     OW17975   2.737   4.112   1.079
  278SOL    HW117976   2.808   4.056   1.048
  278SOL    HW217977   2.718   4.080   1.168
  279SOL     OW17978   3.650   3.954   7.234
  279SOL    HW117979   3.725   3.896   7.249
  279SOL    HW217980   3.665   3.991   7.147
  280SOL     OW17981   1.312   5.399   0.876
  280SOL    HW117982   1.240   5.345   0.843
  280SOL    HW217983   1.295   5.409   0.969
  281SOL     OW17984   1.564   4.113   0.816
  281SOL    HW117985   1.507   4.126   0.740
  281SOL    HW217986   1.593   4.202   0.840
  282SOL     OW17987   5.284   0.271   1.878
  282SOL    HW117988   5.359   0.249   1.823
  282SOL    HW217989   5.264   0.189   1.924
  283SOL     OW17990   1.836   2.197   1.750
  283SOL    HW117991   1.892   2.132   1.792
  283SOL    HW217992   1.747   2.167   1.769
  284SOL     OW17993   0.014   1.845   7.819
  284SOL    HW117994   0.039   1.771   7.763
  284SOL    HW217995  -0.044   1.898   7.763
  285SOL     OW17996   0.590   4.876   5.330
  285SOL    HW117997   0.625   4.939   5.267
  285SOL    HW217998   0.497   4.899   5.337
  286SOL     OW17999   2.799   5.947   7.323
  286SOL    HW118000   2.767   5.952   7.413
  286SOL    HW218001   2.767   5.863   7.291
  287SOL     OW18002   3.219   4.277   6.333
  287SOL    HW118003   3.225   4.368   6.360
  287SOL    HW218004   3.304   4.259   6.292
  288SOL     OW18005   4.489   0.213   5.676
  288SOL    HW118006   4.543   0.234   5.752
  288SOL    HW218007   4.411   0.268   5.685
  289SOL     OW18008   1.700   5.198   1.194
  289SOL    HW118009   1.792   5.178   1.178
  289SOL    HW218010   1.656   5.182   1.110
  290SOL     OW18011   3.469   2.921   1.038
  290SOL    HW118012   3.527   2.847   1.057
  290SOL    HW218013   3.529   2.994   1.023
  291SOL     OW18014   2.578   6.256   7.785
  291SOL    HW118015   2.672   6.244   7.772
  291SOL    HW218016   2.571   6.323   7.853
  292SOL     OW18017   1.907   6.052   6.498
  292SOL    HW118018   1.886   6.114   6.568
  292SOL    HW218019   1.989   6.012   6.525
  293SOL     OW18020   3.094   1.878   7.746
  293SOL    HW118021   3.121   1.961   7.706
  293SOL    HW218022   2.999   1.884   7.752
  294SOL     OW18023   0.502   2.706   1.519
  294SOL    HW118024   0.591   2.699   1.487
  294SOL    HW218025   0.507   2.678   1.610
  295SOL     OW18026   6.418   0.786   0.566
  295SOL    HW118027   6.390   0.702   0.529
  295SOL    HW218028   6.385   0.784   0.656
  296SOL     OW18029   2.472   6.034   2.334
  296SOL    HW118030   2.463   6.039   2.239
  296SOL    HW218031   2.382   6.035   2.367
  297SOL     OW18032   5.800   3.225   6.475
  297SOL    HW118033   5.845   3.251   6.394
  297SOL    HW218034   5.867   3.230   6.542
  298SOL     OW18035   3.391   1.606   6.966
  298SOL    HW118036   3.361   1.682   7.015
  298SOL    HW218037   3.487   1.608   6.974
  299SOL     OW18038   5.181   4.946   2.219
  299SOL    HW118039   5.120   5.020   2.220
  299SOL    HW218040   5.210   4.937   2.309
  300SOL     OW18041   0.837   1.370   0.559
  300SOL    HW118042   0.836   1.465   0.565
  300SOL    HW218043   0.775   1.341   0.626
  301SOL     OW18044   0.718   5.913   5.655
  301SOL    HW118045   0.627   5.906   5.628
  301SOL    HW218046   0.720   5.876   5.743
  302SOL     OW18047   2.327   5.608   1.050
  302SOL    HW118048   2.269   5.561   1.109
  302SOL    HW218049   2.412   5.610   1.095
  303SOL     OW18050   6.150   0.872   2.348
  303SOL    HW118051   6.057   0.848   2.347
  303SOL    HW218052   6.172   0.887   2.256
  304SOL     OW18053   0.008   2.460   6.262
  304SOL    HW118054   0.055   2.532   6.219
  304SOL    HW218055   0.060   2.441   6.340
  305SOL     OW18056   4.237   6.296   5.316
  305SOL    HW118057   4.183   6.373   5.298
  305SOL    HW218058   4.175   6.230   5.348
  306SOL     OW18059   4.572   0.972   0.394
  306SOL    HW118060   4.480   0.982   0.368
  306SOL    HW218061   4.570   0.901   0.458
  307SOL     OW18062   5.759   1.406   1.180
  307SOL    HW118063   5.680   1.439   1.223
  307SOL    HW218064   5.741   1.413   1.086
  308SOL     OW18065   2.082   4.434   6.475
  308SOL    HW118066   2.133   4.489   6.535
  308SOL    HW218067   2.112   4.461   6.388
  309SOL     OW18068   5.279   3.983   0.464
  309SOL    HW118069   5.347   3.920   0.442
  309SOL    HW218070   5.312   4.029   0.540
  310SOL     OW18071   3.801   4.250   2.126
  310SOL    HW118072   3.822   4.300   2.205
  310SOL    HW218073   3.887   4.222   2.093
  311SOL     OW18074   4.779   3.347   0.434
  311SOL    HW118075   4.789   3.407   0.508
  311SOL    HW218076   4.846   3.374   0.372
  312SOL     OW18077   4.565   1.421   5.819
  312SOL    HW118078   4.610   1.464   5.746
  312SOL    HW218079   4.523   1.345   5.780
  313SOL     OW18080   6.355   1.968   2.087
  313SOL    HW118081   6.384   2.020   2.162
  313SOL    HW218082   6.339   2.032   2.017
  314SOL     OW18083   4.300   3.969   7.574
  314SOL    HW118084   4.221   4.016   7.543
  314SOL    HW218085   4.313   3.900   7.509
  315SOL     OW18086   5.377   3.950   5.964
  315SOL    HW118087   5.323   3.896   5.905
  315SOL    HW218088   5.349   3.925   6.052
  316SOL     OW18089   4.037   2.986   1.238
  316SOL    HW118090   4.133   2.991   1.234
  316SOL    HW218091   4.012   3.060   1.294
  317SOL     OW18092   1.523   4.490   0.156
  317SOL    HW118093   1.438   4.532   0.171
  317SOL    HW218094   1.502   4.406   0.115
  318SOL     OW18095   2.388   2.975   6.541
  318SOL    HW118096   2.297   2.994   6.518
  318SOL    HW218097   2.395   2.880   6.533
  319SOL     OW18098   1.527   0.335   0.464
  319SOL    HW118099   1.580   0.408   0.432
  319SOL    HW218100   1.526   0.348   0.559
  320SOL     OW18101   6.262   3.015   7.426
  320SOL    HW118102   6.344   3.055   7.458
  320SOL    HW218103   6.205   3.013   7.503
  321SOL     OW18104   0.666   2.209   6.780
  321SOL    HW118105   0.608   2.149   6.735
  321SOL    HW218106   0.654   2.293   6.734
  322SOL     OW18107   1.545   3.231   7.535
  322SOL    HW118108   1.494   3.163   7.492
  322SOL    HW218109   1.488   3.307   7.539
  323SOL     OW18110   4.905   5.094   7.416
  323SOL    HW118111   4.882   5.161   7.481
  323SOL    HW218112   4.827   5.087   7.361
  324SOL     OW18113   3.731   2.850   1.436
  324SOL    HW118114   3.722   2.898   1.519
  324SOL    HW218115   3.823   2.824   1.434
  325SOL     OW18116   0.086   1.111   1.522
  325SOL    HW118117   0.163   1.150   1.480
  325SOL    HW218118   0.104   1.117   1.616
  326SOL     OW18119   1.930   5.024   7.539
  326SOL    HW118120   1.915   4.943   7.586
  326SOL    HW218121   1.866   5.085   7.575
  327SOL     OW18122   6.028   2.723   0.429
  327SOL    HW118123   6.043   2.738   0.336
  327SOL    HW218124   5.963   2.654   0.432
  328SOL     OW18125   4.533   1.785   1.225
  328SOL    HW118126   4.551   1.874   1.257
  328SOL    HW218127   4.473   1.748   1.290
  329SOL     OW18128   1.698   4.559   1.589
  329SOL    HW118129   1.653   4.516   1.662
  329SOL    HW218130   1.703   4.651   1.615
  330SOL     OW18131   2.375   0.200   0.207
  330SOL    HW118132   2.316   0.159   0.144
  330SOL    HW218133   2.330   0.192   0.291
  331SOL     OW18134   0.287   5.142   5.484
  331SOL    HW118135   0.311   5.073   5.423
  331SOL    HW218136   0.356   5.142   5.550
  332SOL     OW18137   0.128   3.483   0.068
  332SOL    HW118138   0.093   3.396   0.046
  332SOL    HW218139   0.195   3.499   0.001
  333SOL     OW18140   0.133   5.237   7.715
  333SOL    HW118141   0.104   5.326   7.695
  333SOL    HW218142   0.065   5.203   7.774
  334SOL     OW18143   2.998   0.969   5.414
  334SOL    HW118144   2.958   0.885   5.392
  334SOL    HW218145   2.955   0.995   5.496
  335SOL     OW18146   5.613   0.162   5.865
  335SOL    HW118147   5.596   0.256   5.866
  335SOL    HW218148   5.690   0.152   5.809
  336SOL     OW18149   2.275   3.771   1.733
  336SOL    HW118150   2.329   3.701   1.697
  336SOL    HW218151   2.278   3.758   1.828
  337SOL     OW18152   3.179   1.416   1.201
  337SOL    HW118153   3.169   1.402   1.295
  337SOL    HW218154   3.100   1.465   1.176
  338SOL     OW18155   1.402   3.884   1.156
  338SOL    HW118156   1.308   3.870   1.146
  338SOL    HW218157   1.417   3.970   1.118
  339SOL     OW18158   0.110   6.093   7.313
  339SOL    HW118159   0.104   6.092   7.409
  339SOL    HW218160   0.194   6.052   7.294
  340SOL     OW18161   4.778   0.777   0.646
  340SOL    HW118162   4.731   0.839   0.702
  340SOL    HW218163   4.709   0.722   0.608
  341SOL     OW18164   4.048   3.782   6.314
  341SOL    HW118165   4.015   3.762   6.226
  341SOL    HW218166   3.970   3.801   6.365
  342SOL     OW18167   5.073   4.841   1.723
  342SOL    HW118168   5.091   4.912   1.784
  342SOL    HW218169   5.130   4.859   1.648
  343SOL     OW18170   2.259   0.392   7.074
  343SOL    HW118171   2.278   0.301   7.096
  343SOL    HW218172   2.171   0.389   7.037
  344SOL     OW18173   5.098   1.886   6.277
  344SOL    HW118174   5.123   1.851   6.191
  344SOL    HW218175   5.004   1.870   6.283
  345SOL     OW18176   3.160   5.284   6.783
  345SOL    HW118177   3.084   5.279   6.841
  345SOL    HW218178   3.228   5.327   6.836
  346SOL     OW18179   4.600   0.537   6.592
  346SOL    HW118180   4.661   0.468   6.617
  346SOL    HW218181   4.519   0.516   6.640
  347SOL     OW18182   2.037   3.139   6.046
  347SOL    HW118183   1.955   3.118   6.002
  347SOL    HW218184   2.105   3.104   5.989
  348SOL     OW18185   0.627   5.347   1.668
  348SOL    HW118186   0.557   5.390   1.716
  348SOL    HW218187   0.707   5.388   1.700
  349SOL     OW18188   4.955   3.553   6.369
  349SOL    HW118189   4.968   3.643   6.399
  349SOL    HW218190   4.932   3.505   6.449
  350SOL     OW18191   3.894   0.573   7.686
  350SOL    HW118192   3.939   0.488   7.683
  350SOL    HW218193   3.820   0.563   7.625
  351SOL     OW18194   6.064   2.286   2.008
  351SOL    HW118195   6.067   2.211   1.947
  351SOL    HW218196   5.987   2.270   2.061
  352SOL     OW18197   0.865   3.288   1.333
  352SOL    HW118198   0.773   3.314   1.341
  352SOL    HW218199   0.862   3.192   1.331
  353SOL     OW18200   0.207   0.702   7.293
  353SOL    HW118201   0.117   0.676   7.310
  353SOL    HW218202   0.207   0.730   7.201
  354SOL     OW18203   3.497   2.656   7.509
  354SOL    HW118204   3.530   2.715   7.441
  354SOL    HW218205   3.516   2.568   7.476
  355SOL     OW18206   4.703   2.952   7.532
  355SOL    HW118207   4.721   2.963   7.439
  355SOL    HW218208   4.749   2.872   7.556
  356SOL     OW18209   3.286   1.760   7.421
  356SOL    HW118210   3.341   1.728   7.493
  356SOL    HW218211   3.197   1.734   7.446
  357SOL     OW18212   0.670   5.768   5.889
  357SOL    HW118213   0.580   5.736   5.904
  357SOL    HW218214   0.700   5.719   5.813
  358SOL     OW18215   3.850   3.288   1.252
  358SOL    HW118216   3.876   3.360   1.308
  358SOL    HW218217   3.925   3.275   1.193
  359SOL     OW18218   3.561   5.014   0.883
  359SOL    HW118219   3.652   5.045   0.873
  359SOL    HW218220   3.547   5.014   0.978
  360SOL     OW18221   3.911   0.759   0.394
  360SOL    HW118222   3.922   0.668   0.421
  360SOL    HW218223   3.883   0.805   0.474
  361SOL     OW18224   2.516   5.830   6.014
  361SOL    HW118225   2.452   5.886   5.970
  361SOL    HW218226   2.556   5.887   6.080
  362SOL     OW18227   1.345   4.394   6.044
  362SOL    HW118228   1.379   4.420   5.958
  362SOL    HW218229   1.256   4.429   6.046
  363SOL     OW18230   5.243   1.477   2.360
  363SOL    HW118231   5.272   1.560   2.397
  363SOL    HW218232   5.168   1.499   2.306
  364SOL     OW18233   6.424   5.670   1.464
  364SOL    HW118234   6.385   5.643   1.547
  364SOL    HW218235   6.439   5.764   1.474
  365SOL     OW18236   0.752   1.354   0.981
  365SOL    HW118237   0.692   1.409   1.031
  365SOL    HW218238   0.738   1.382   0.890
  366SOL     OW18239   0.591   4.877   0.183
  366SOL    HW118240   0.669   4.826   0.161
  366SOL    HW218241   0.528   4.855   0.114
  367SOL     OW18242   5.166   1.661   0.358
  367SOL    HW118243   5.157   1.566   0.359
  367SOL    HW218244   5.260   1.676   0.369
  368SOL     OW18245   0.711   6.209   7.260
  368SOL    HW118246   0.680   6.292   7.296
  368SOL    HW218247   0.708   6.148   7.334
  369SOL     OW18248   3.223   2.387   5.750
  369SOL    HW118249   3.202   2.479   5.767
  369SOL    HW218250   3.318   2.386   5.739
  370SOL     OW18251   2.544   6.378   0.184
  370SOL    HW118252   2.500   6.304   0.224
  370SOL    HW218253   2.491   6.454   0.208
  371SOL     OW18254   4.409   4.251   0.161
  371SOL    HW118255   4.421   4.344   0.180
  371SOL    HW218256   4.460   4.235   0.082
  372SOL     OW18257   3.636   5.620   1.646
  372SOL    HW118258   3.550   5.578   1.657
  372SOL    HW218259   3.616   5.713   1.643
  373SOL     OW18260   0.188   6.359   7.462
  373SOL    HW118261   0.131   6.434   7.483
  373SOL    HW218262   0.131   6.283   7.471
  374SOL     OW18263   5.290   5.879   7.654
  374SOL    HW118264   5.308   5.829   7.575
  374SOL    HW218265   5.220   5.830   7.699
  375SOL     OW18266   0.918   6.152   6.482
  375SOL    HW118267   0.960   6.133   6.566
  375SOL    HW218268   0.977   6.214   6.439
  376SOL     OW18269   4.088   2.081   1.856
  376SOL    HW118270   4.183   2.091   1.863
  376SOL    HW218271   4.076   2.019   1.784
  377SOL     OW18272   4.787   4.370   2.314
  377SOL    HW118273   4.817   4.407   2.396
  377SOL    HW218274   4.711   4.317   2.338
  378SOL     OW18275   4.929   3.969   6.214
  378SOL    HW118276   4.906   4.054   6.250
  378SOL    HW218277   4.846   3.931   6.185
  379SOL     OW18278   0.659   1.394   7.080
  379SOL    HW118279   0.658   1.302   7.107
  379SOL    HW218280   0.715   1.438   7.145
  380SOL     OW18281   2.025   0.831   0.746
  380SOL    HW118282   2.035   0.736   0.740
  380SOL    HW218283   1.999   0.858   0.658
  381SOL     OW18284   5.739   0.527   7.147
  381SOL    HW118285   5.754   0.568   7.232
  381SOL    HW218286   5.673   0.460   7.164
  382SOL     OW18287   2.492   3.217   1.600
  382SOL    HW118288   2.508   3.176   1.685
  382SOL    HW218289   2.502   3.145   1.537
  383SOL     OW18290   6.054   1.611   6.403
  383SOL    HW118291   6.134   1.607   6.350
  383SOL    HW218292   6.059   1.696   6.446
  384SOL     OW18293   4.029   6.296   0.881
  384SOL    HW118294   3.949   6.336   0.913
  384SOL    HW218295   4.040   6.332   0.792
  385SOL     OW18296   1.196   3.914   0.866
  385SOL    HW118297   1.278   3.867   0.848
  385SOL    HW218298   1.166   3.878   0.949
  386SOL     OW18299   0.853   6.140   5.672
  386SOL    HW118300   0.795   6.064   5.678
  386SOL    HW218301   0.802   6.206   5.626
  387SOL     OW18302   1.777   1.777   0.728
  387SOL    HW118303   1.714   1.793   0.798
  387SOL    HW218304   1.797   1.863   0.693
  388SOL     OW18305   0.686   1.076   6.160
  388SOL    HW118306   0.728   1.145   6.211
  388SOL    HW218307   0.665   1.117   6.077
  389SOL     OW18308   1.903   1.665   0.485
  389SOL    HW118309   1.937   1.753   0.472
  389SOL    HW218310   1.885   1.660   0.579
  390SOL     OW18311   6.248   4.639   1.661
  390SOL    HW118312   6.258   4.635   1.756
  390SOL    HW218313   6.331   4.607   1.626
  391SOL     OW18314   1.340   2.973   6.711
  391SOL    HW118315   1.299   3.043   6.660
  391SOL    HW218316   1.365   3.015   6.794
  392SOL     OW18317   1.748   1.646   7.800
  392SOL    HW118318   1.690   1.577   7.768
  392SOL    HW218319   1.814   1.656   7.732
  393SOL     OW18320   0.408   5.379   6.821
  393SOL    HW118321   0.474   5.446   6.841
  393SOL    HW218322   0.367   5.360   6.905
  394SOL     OW18323   0.156   0.128   7.757
  394SOL    HW118324   0.238   0.175   7.745
  394SOL    HW218325   0.089   0.196   7.756
  395SOL     OW18326   2.962   0.863   0.551
  395SOL    HW118327   3.041   0.868   0.605
  395SOL    HW218328   2.995   0.859   0.461
  396SOL     OW18329   2.905   2.921   1.948
  396SOL    HW118330   2.931   2.915   1.857
  396SOL    HW218331   2.848   2.997   1.952
  397SOL     OW18332   1.390   4.620   1.647
  397SOL    HW118333   1.373   4.694   1.707
  397SOL    HW218334   1.426   4.552   1.704
  398SOL     OW18335   0.605   3.873   1.605
  398SOL    HW118336   0.646   3.902   1.687
  398SOL    HW218337   0.542   3.807   1.632
  399SOL     OW18338   0.961   1.282   0.320
  399SOL    HW118339   0.917   1.321   0.396
  399SOL    HW218340   0.970   1.189   0.342
  400SOL     OW18341   5.786   3.568   2.147
  400SOL    HW118342   5.748   3.486   2.115
  400SOL    HW218343   5.862   3.541   2.198
  401SOL     OW18344   1.065   2.009   0.346
  401SOL    HW118345   1.049   2.088   0.295
  401SOL    HW218346   1.045   1.937   0.286
  402SOL     OW18347   4.203   0.954   0.859
  402SOL    HW118348   4.215   0.859   0.863
  402SOL    HW218349   4.209   0.975   0.766
  403SOL     OW18350   5.484   2.329   1.223
  403SOL    HW118351   5.433   2.362   1.297
  403SOL    HW218352   5.435   2.356   1.146
  404SOL     OW18353   1.845   1.343   7.810
  404SOL    HW118354   1.928   1.344   7.762
  404SOL    HW218355   1.865   1.298   7.892
  405SOL     OW18356   1.495   3.269   7.121
  405SOL    HW118357   1.450   3.299   7.200
  405SOL    HW218358   1.510   3.349   7.071
  406SOL     OW18359   5.324   1.274   5.954
  406SOL    HW118360   5.257   1.219   5.913
  406SOL    HW218361   5.280   1.357   5.972
  407SOL     OW18362   2.342   1.102   0.865
  407SOL    HW118363   2.345   1.011   0.837
  407SOL    HW218364   2.279   1.103   0.937
  408SOL     OW18365   1.613   3.139   0.822
  408SOL    HW118366   1.530   3.093   0.834
  408SOL    HW218367   1.631   3.132   0.729
  409SOL     OW18368   6.282   5.210   6.885
  409SOL    HW118369   6.332   5.284   6.850
  409SOL    HW218370   6.347   5.157   6.931
  410SOL     OW18371   0.049   2.285   7.827
  410SOL    HW118372   0.052   2.317   7.737
  410SOL    HW218373   0.095   2.352   7.877
  411SOL     OW18374   2.750   2.763   5.284
  411SOL    HW118375   2.747   2.669   5.299
  411SOL    HW218376   2.659   2.787   5.264
  412SOL     OW18377   6.306   5.515   6.576
  412SOL    HW118378   6.391   5.531   6.617
  412SOL    HW218379   6.256   5.595   6.594
  413SOL     OW18380   5.070   4.687   6.115
  413SOL    HW118381   5.014   4.627   6.066
  413SOL    HW218382   5.049   4.774   6.080
  414SOL     OW18383   2.260   1.236   1.858
  414SOL    HW118384   2.290   1.183   1.785
  414SOL    HW218385   2.206   1.305   1.818
  415SOL     OW18386   4.938   3.406   7.146
  415SOL    HW118387   4.919   3.342   7.215
  415SOL    HW218388   4.905   3.365   7.066
  416SOL     OW18389   2.784   4.382   1.135
  416SOL    HW118390   2.863   4.364   1.186
  416SOL    HW218391   2.767   4.302   1.086
  417SOL     OW18392   4.072   2.500   6.367
  417SOL    HW118393   4.093   2.425   6.312
  417SOL    HW218394   4.036   2.461   6.447
  418SOL     OW18395   1.353   2.115   1.668
  418SOL    HW118396   1.439   2.080   1.643
  418SOL    HW218397   1.352   2.108   1.763
  419SOL     OW18398   3.699   5.898   1.636
  419SOL    HW118399   3.748   5.930   1.712
  419SOL    HW218400   3.759   5.912   1.562
  420SOL     OW18401   5.815   4.447   0.245
  420SOL    HW118402   5.795   4.435   0.338
  420SOL    HW218403   5.746   4.506   0.213
  421SOL     OW18404   6.222   1.019   6.552
  421SOL    HW118405   6.153   1.062   6.603
  421SOL    HW218406   6.185   1.012   6.464
  422SOL     OW18407   3.200   0.326   6.117
  422SOL    HW118408   3.175   0.311   6.025
  422SOL    HW218409   3.125   0.294   6.167
  423SOL     OW18410   3.596   5.741   6.513
  423SOL    HW118411   3.646   5.776   6.439
  423SOL    HW218412   3.603   5.646   6.503
  424SOL     OW18413   5.993   5.670   7.114
  424SOL    HW118414   6.007   5.633   7.027
  424SOL    HW218415   5.985   5.594   7.172
  425SOL     OW18416   0.474   6.404   6.972
  425SOL    HW118417   0.425   6.343   6.917
  425SOL    HW218418   0.495   6.354   7.051
  426SOL     OW18419   4.501   4.548   5.470
  426SOL    HW118420   4.556   4.474   5.496
  426SOL    HW218421   4.453   4.572   5.549
  427SOL     OW18422   1.422   2.706   1.509
  427SOL    HW118423   1.503   2.757   1.500
  427SOL    HW218424   1.451   2.615   1.503
  428SOL     OW18425   3.759   1.277   6.173
  428SOL    HW118426   3.761   1.372   6.163
  428SOL    HW218427   3.845   1.248   6.144
  429SOL     OW18428   1.763   4.954   0.805
  429SOL    HW118429   1.726   4.931   0.891
  429SOL    HW218430   1.687   4.969   0.749
  430SOL     OW18431   1.503   2.099   1.316
  430SOL    HW118432   1.545   2.031   1.263
  430SOL    HW218433   1.568   2.168   1.324
  431SOL     OW18434   6.428   1.056   6.730
  431SOL    HW118435   6.370   1.025   6.662
  431SOL    HW218436   6.371   1.072   6.805
  432SOL     OW18437   5.269   4.908   1.512
  432SOL    HW118438   5.305   4.996   1.520
  432SOL    HW218439   5.300   4.876   1.427
  433SOL     OW18440   1.277   0.540   7.739
  433SOL    HW118441   1.301   0.461   7.691
  433SOL    HW218442   1.344   0.549   7.806
  434SOL     OW18443   4.747   4.001   0.696
  434SOL    HW118444   4.719   4.079   0.649
  434SOL    HW218445   4.787   4.035   0.777
  435SOL     OW18446   0.680   5.589   1.090
  435SOL    HW118447   0.647   5.614   1.177
  435SOL    HW218448   0.675   5.494   1.089
  436SOL     OW18449   2.165   2.429   0.900
  436SOL    HW118450   2.215   2.364   0.948
  436SOL    HW218451   2.232   2.481   0.855
  437SOL     OW18452   6.076   5.293   6.239
  437SOL    HW118453   6.110   5.204   6.243
  437SOL    HW218454   6.048   5.303   6.148
  438SOL     OW18455   2.332   1.188   5.929
  438SOL    HW118456   2.349   1.171   5.836
  438SOL    HW218457   2.374   1.115   5.974
  439SOL     OW18458   0.035   5.008   5.530
  439SOL    HW118459   0.049   4.976   5.619
  439SOL    HW218460   0.108   5.067   5.514
  440SOL     OW18461   3.727   1.379   7.329
  440SOL    HW118462   3.657   1.314   7.331
  440SOL    HW218463   3.686   1.458   7.295
  441SOL     OW18464   4.147   6.060   0.494
  441SOL    HW118465   4.085   6.041   0.423
  441SOL    HW218466   4.098   6.042   0.574
  442SOL     OW18467   4.260   5.177   7.769
  442SOL    HW118468   4.174   5.173   7.727
  442SOL    HW218469   4.249   5.125   7.849
  443SOL     OW18470   4.293   3.793   1.744
  443SOL    HW118471   4.306   3.800   1.839
  443SOL    HW218472   4.198   3.786   1.734
  444SOL     OW18473   0.055   1.182   0.885
  444SOL    HW118474   0.124   1.144   0.830
  444SOL    HW218475   0.098   1.200   0.968
  445SOL     OW18476   4.233   4.369   1.851
  445SOL    HW118477   4.271   4.454   1.829
  445SOL    HW218478   4.287   4.306   1.803
  446SOL     OW18479   2.002   5.696   0.666
  446SOL    HW118480   2.061   5.702   0.591
  446SOL    HW218481   1.917   5.676   0.627
  447SOL     OW18482   0.041   1.966   6.277
  447SOL    HW118483   0.084   2.002   6.200
  447SOL    HW218484   0.113   1.934   6.332
  448SOL     OW18485   2.355   4.810   1.111
  448SOL    HW118486   2.269   4.851   1.123
  448SOL    HW218487   2.358   4.786   1.019
  449SOL     OW18488   3.308   0.727   0.315
  449SOL    HW118489   3.242   0.794   0.335
  449SOL    HW218490   3.260   0.661   0.266
  450SOL     OW18491   0.728   1.805   1.194
  450SOL    HW118492   0.688   1.817   1.280
  450SOL    HW218493   0.775   1.721   1.201
  451SOL     OW18494   3.298   4.788   1.089
  451SOL    HW118495   3.295   4.731   1.167
  451SOL    HW218496   3.209   4.788   1.056
  452SOL     OW18497   1.328   2.659   7.625
  452SOL    HW118498   1.382   2.610   7.563
  452SOL    HW218499   1.358   2.628   7.711
  453SOL     OW18500   5.093   4.487   7.359
  453SOL    HW118501   5.112   4.478   7.452
  453SOL    HW218502   5.170   4.530   7.322
  454SOL     OW18503   1.337   3.591   5.966
  454SOL    HW118504   1.407   3.549   6.016
  454SOL    HW218505   1.345   3.554   5.878
  455SOL     OW18506   5.049   1.511   6.657
  455SOL    HW118507   5.001   1.526   6.575
  455SOL    HW218508   5.115   1.580   6.659
  456SOL     OW18509   5.986   6.174   5.772
  456SOL    HW118510   6.032   6.254   5.797
  456SOL    HW218511   6.057   6.113   5.748
  457SOL     OW18512   1.415   2.656   7.172
  457SOL    HW118513   1.368   2.577   7.147
  457SOL    HW218514   1.470   2.629   7.245
  458SOL     OW18515   1.621   2.911   7.611
  458SOL    HW118516   1.686   2.960   7.561
  458SOL    HW218517   1.539   2.925   7.564
  459SOL     OW18518   3.500   2.750   7.758
  459SOL    HW118519   3.440   2.824   7.749
  459SOL    HW218520   3.511   2.717   7.669
  460SOL     OW18521   0.545   3.910   0.752
  460SOL    HW118522   0.553   3.965   0.674
  460SOL    HW218523   0.500   3.965   0.816
  461SOL     OW18524   6.329   3.644   7.626
  461SOL    HW118525   6.275   3.581   7.673
  461SOL    HW218526   6.416   3.605   7.627
  462SOL     OW18527   2.759   0.088   0.299
  462SOL    HW118528   2.699   0.044   0.238
  462SOL    HW218529   2.842   0.094   0.252
  463SOL     OW18530   4.417   3.094   0.896
  463SOL    HW118531   4.510   3.106   0.879
  463SOL    HW218532   4.377   3.088   0.810
  464SOL     OW18533   4.249   5.193   1.714
  464SOL    HW118534   4.298   5.110   1.715
  464SOL    HW218535   4.213   5.198   1.625
  465SOL     OW18536   4.926   4.950   2.456
  465SOL    HW118537   4.949   5.009   2.385
  465SOL    HW218538   5.006   4.901   2.475
  466SOL     OW18539   5.294   6.391   1.607
  466SOL    HW118540   5.347   6.453   1.657
  466SOL    HW218541   5.218   6.374   1.664
  467SOL     OW18542   3.518   2.788   6.562
  467SOL    HW118543   3.549   2.742   6.640
  467SOL    HW218544   3.500   2.877   6.593
  468SOL     OW18545   6.152   3.224   7.615
  468SOL    HW118546   6.224   3.189   7.667
  468SOL    HW218547   6.192   3.294   7.563
  469SOL     OW18548   1.341   5.733   6.100
  469SOL    HW118549   1.435   5.747   6.108
  469SOL    HW218550   1.329   5.696   6.013
  470SOL     OW18551   1.709   3.844   1.704
  470SOL    HW118552   1.663   3.848   1.788
  470SOL    HW218553   1.792   3.800   1.724
  471SOL     OW18554   5.166   0.508   1.967
  471SOL    HW118555   5.191   0.422   1.934
  471SOL    HW218556   5.161   0.497   2.062
  472SOL     OW18557   3.653   1.650   6.752
  472SOL    HW118558   3.747   1.664   6.746
  472SOL    HW218559   3.640   1.560   6.720
  473SOL     OW18560   4.938   1.817   0.552
  473SOL    HW118561   4.974   1.733   0.525
  473SOL    HW218562   4.845   1.800   0.565
  474SOL     OW18563   0.152   2.837   1.166
  474SOL    HW118564   0.173   2.745   1.182
  474SOL    HW218565   0.064   2.848   1.202
  475SOL     OW18566   2.038   0.944   1.754
  475SOL    HW118567   2.005   0.996   1.827
  475SOL    HW218568   2.133   0.945   1.765
  476SOL     OW18569   5.998   5.656   1.598
  476SOL    HW118570   6.055   5.586   1.631
  476SOL    HW218571   5.917   5.647   1.650
  477SOL     OW18572   5.752   4.035   7.825
  477SOL    HW118573   5.668   4.008   7.864
  477SOL    HW218574   5.798   4.079   7.896
  478SOL     OW18575   1.803   0.409   0.649
  478SOL    HW118576   1.843   0.345   0.590
  478SOL    HW218577   1.800   0.490   0.598
  479SOL     OW18578   5.097   0.737   6.837
  479SOL    HW118579   5.091   0.832   6.851
  479SOL    HW218580   5.092   0.727   6.742
  480SOL     OW18581   4.168   2.965   0.190
  480SOL    HW118582   4.264   2.966   0.192
  480SOL    HW218583   4.145   3.041   0.136
  481SOL     OW18584   3.001   1.047   5.963
  481SOL    HW118585   3.038   1.013   5.882
  481SOL    HW218586   3.068   1.106   5.998
  482SOL     OW18587   2.871   0.783   7.171
  482SOL    HW118588   2.814   0.845   7.125
  482SOL    HW218589   2.910   0.835   7.242
  483SOL     OW18590   0.875   1.561   7.563
  483SOL    HW118591   0.830   1.643   7.584
  483SOL    HW218592   0.967   1.587   7.552
  484SOL     OW18593   0.278   4.916   1.015
  484SOL    HW118594   0.214   4.960   1.071
  484SOL    HW218595   0.316   4.987   0.963
  485SOL     OW18596   4.239   3.594   6.666
  485SOL    HW118597   4.308   3.542   6.705
  485SOL    HW218598   4.273   3.620   6.581
  486SOL     OW18599   5.739   6.205   0.535
  486SOL    HW118600   5.818   6.151   0.520
  486SOL    HW218601   5.735   6.262   0.458
  487SOL     OW18602   2.376   1.078   7.396
  487SOL    HW118603   2.441   1.012   7.370
  487SOL    HW218604   2.428   1.144   7.443
  488SOL     OW18605   2.455   5.103   6.518
  488SOL    HW118606   2.430   5.092   6.610
  488SOL    HW218607   2.550   5.094   6.518
  489SOL     OW18608   1.555   2.291   6.181
  489SOL    HW118609   1.485   2.290   6.116
  489SOL    HW218610   1.571   2.384   6.197
  490SOL     OW18611   3.188   3.200   0.972
  490SOL    HW118612   3.177   3.270   1.037
  490SOL    HW218613   3.275   3.215   0.935
  491SOL     OW18614   5.321   4.215   6.048
  491SOL    HW118615   5.316   4.125   6.015
  491SOL    HW218616   5.287   4.269   5.977
  492SOL     OW18617   5.814   3.840   7.600
  492SOL    HW118618   5.770   3.842   7.515
  492SOL    HW218619   5.752   3.883   7.660
  493SOL     OW18620   1.452   2.002   6.896
  493SOL    HW118621   1.398   1.929   6.865
  493SOL    HW218622   1.440   2.070   6.830
  494SOL     OW18623   4.776   1.796   7.512
  494SOL    HW118624   4.850   1.744   7.543
  494SOL    HW218625   4.758   1.761   7.425
  495SOL     OW18626   0.340   2.492   6.237
  495SOL    HW118627   0.346   2.415   6.180
  495SOL    HW218628   0.284   2.464   6.309
  496SOL     OW18629   2.551   5.792   0.878
  496SOL    HW118630   2.463   5.764   0.853
  496SOL    HW218631   2.560   5.764   0.969
  497SOL     OW18632   1.880   2.430   1.927
  497SOL    HW118633   1.864   2.358   1.865
  497SOL    HW218634   1.971   2.419   1.953
  498SOL     OW18635   0.544   3.535   7.055
  498SOL    HW118636   0.604   3.474   7.013
  498SOL    HW218637   0.567   3.531   7.148
  499SOL     OW18638   5.802   3.655   1.464
  499SOL    HW118639   5.774   3.721   1.401
  499SOL    HW218640   5.804   3.701   1.548
  500SOL     OW18641   1.184   2.503   1.138
  500SOL    HW118642   1.271   2.464   1.136
  500SOL    HW218643   1.124   2.429   1.123
  501SOL     OW18644   5.394   5.977   1.007
  501SOL    HW118645   5.379   6.052   1.065
  501SOL    HW218646   5.412   5.904   1.066
  502SOL     OW18647   6.410   4.407   7.090
  502SOL    HW118648   6.477   4.446   7.146
  502SOL    HW218649   6.390   4.323   7.132
  503SOL     OW18650   5.032   6.146   0.838
  503SOL    HW118651   5.102   6.080   0.836
  503SOL    HW218652   4.988   6.138   0.754
  504SOL     OW18653   6.198   1.323   5.973
  504SOL    HW118654   6.196   1.337   5.879
  504SOL    HW218655   6.109   1.296   5.996
  505SOL     OW18656   4.154   3.484   1.706
  505SOL    HW118657   4.107   3.567   1.709
  505SOL    HW218658   4.167   3.466   1.613
  506SOL     OW18659   5.520   2.151   6.215
  506SOL    HW118660   5.568   2.128   6.136
  506SOL    HW218661   5.582   2.138   6.286
  507SOL     OW18662   0.144   1.355   6.110
  507SOL    HW118663   0.126   1.348   6.016
  507SOL    HW218664   0.069   1.312   6.152
  508SOL     OW18665   1.436   5.937   1.927
  508SOL    HW118666   1.527   5.947   1.954
  508SOL    HW218667   1.388   6.001   1.980
  509SOL     OW18668   2.453   1.686   7.509
  509SOL    HW118669   2.495   1.637   7.438
  509SOL    HW218670   2.360   1.689   7.484
  510SOL     OW18671   3.700   2.533   7.042
  510SOL    HW118672   3.672   2.443   7.027
  510SOL    HW218673   3.756   2.530   7.119
  511SOL     OW18674   2.377   5.286   6.340
  511SOL    HW118675   2.381   5.232   6.261
  511SOL    HW218676   2.402   5.226   6.411
  512SOL     OW18677   5.754   5.796   1.499
  512SOL    HW118678   5.764   5.720   1.556
  512SOL    HW218679   5.680   5.844   1.536
  513SOL     OW18680   1.748   2.519   6.747
  513SOL    HW118681   1.807   2.516   6.822
  513SOL    HW218682   1.666   2.482   6.779
  514SOL     OW18683   0.035   5.949   1.431
  514SOL    HW118684  -0.018   6.023   1.401
  514SOL    HW218685   0.106   5.944   1.366
  515SOL     OW18686   6.371   1.464   0.094
  515SOL    HW118687   6.318   1.394   0.056
  515SOL    HW218688   6.307   1.526   0.129
  516SOL     OW18689   3.114   1.982   1.672
  516SOL    HW118690   3.159   1.987   1.756
  516SOL    HW218691   3.047   1.915   1.684
  517SOL     OW18692   2.267   5.422   0.330
  517SOL    HW118693   2.267   5.329   0.305
  517SOL    HW218694   2.351   5.435   0.374
  518SOL     OW18695   1.535   4.856   1.326
  518SOL    HW118696   1.527   4.762   1.342
  518SOL    HW218697   1.479   4.896   1.393
  519SOL     OW18698   4.857   2.260   2.197
  519SOL    HW118699   4.808   2.283   2.276
  519SOL    HW218700   4.813   2.309   2.127
  520SOL     OW18701   4.996   4.447   1.292
  520SOL    HW118702   5.070   4.399   1.255
  520SOL    HW218703   5.026   4.537   1.297
  521SOL     OW18704   4.825   5.067   1.325
  521SOL    HW118705   4.897   5.122   1.358
  521SOL    HW218706   4.750   5.126   1.320
  522SOL     OW18707   1.563   5.264   6.960
  522SOL    HW118708   1.548   5.334   6.896
  522SOL    HW218709   1.653   5.236   6.943
  523SOL     OW18710   0.309   4.790   7.500
  523SOL    HW118711   0.238   4.768   7.561
  523SOL    HW218712   0.350   4.706   7.480
  524SOL     OW18713   6.019   4.976   0.507
  524SOL    HW118714   5.973   5.018   0.434
  524SOL    HW218715   6.073   4.909   0.467
  525SOL     OW18716   3.286   5.996   2.247
  525SOL    HW118717   3.250   6.055   2.180
  525SOL    HW218718   3.380   6.008   2.241
  526SOL     OW18719   3.254   4.180   1.380
  526SOL    HW118720   3.283   4.201   1.469
  526SOL    HW218721   3.228   4.088   1.385
  527SOL     OW18722   0.354   3.941   7.396
  527SOL    HW118723   0.310   4.024   7.377
  527SOL    HW218724   0.397   3.918   7.313
  528SOL     OW18725   4.000   2.091   6.882
  528SOL    HW118726   3.996   2.149   6.959
  528SOL    HW218727   4.094   2.082   6.865
  529SOL     OW18728   6.254   6.121   7.009
  529SOL    HW118729   6.325   6.124   6.945
  529SOL    HW218730   6.174   6.135   6.957
  530SOL     OW18731   2.398   0.342   6.791
  530SOL    HW118732   2.426   0.310   6.706
  530SOL    HW218733   2.305   0.321   6.795
  531SOL     OW18734   5.467   0.986   1.734
  531SOL    HW118735   5.488   1.078   1.753
  531SOL    HW218736   5.403   0.962   1.801
  532SOL     OW18737   3.902   0.694   0.892
  532SOL    HW118738   3.996   0.692   0.908
  532SOL    HW218739   3.876   0.602   0.890
  533SOL     OW18740   2.538   5.581   6.380
  533SOL    HW118741   2.475   5.561   6.449
  533SOL    HW218742   2.494   5.648   6.327
  534SOL     OW18743   3.113   0.320   6.790
  534SOL    HW118744   3.041   0.336   6.729
  534SOL    HW218745   3.192   0.334   6.737
  535SOL     OW18746   5.642   4.915   1.382
  535SOL    HW118747   5.717   4.880   1.334
  535SOL    HW218748   5.567   4.867   1.349
  536SOL     OW18749   3.266   1.664   7.725
  536SOL    HW118750   3.219   1.610   7.661
  536SOL    HW218751   3.208   1.739   7.740
  537SOL     OW18752   1.815   4.852   0.170
  537SOL    HW118753   1.779   4.791   0.106
  537SOL    HW218754   1.746   4.861   0.236
  538SOL     OW18755   6.138   1.864   6.812
  538SOL    HW118756   6.100   1.950   6.832
  538SOL    HW218757   6.128   1.814   6.892
  539SOL     OW18758   3.522   2.891   0.291
  539SOL    HW118759   3.505   2.859   0.379
  539SOL    HW218760   3.570   2.820   0.248
  540SOL     OW18761   3.571   1.058   7.070
  540SOL    HW118762   3.626   1.100   7.004
  540SOL    HW218763   3.607   1.090   7.153
  541SOL     OW18764   6.255   0.496   0.363
  541SOL    HW118765   6.315   0.430   0.327
  541SOL    HW218766   6.251   0.476   0.456
  542SOL     OW18767   5.685   3.492   7.212
  542SOL    HW118768   5.715   3.487   7.122
  542SOL    HW218769   5.594   3.465   7.209
  543SOL     OW18770   5.740   3.275   1.008
  543SOL    HW118771   5.734   3.204   0.943
  543SOL    HW218772   5.761   3.353   0.956
  544SOL     OW18773   3.288   2.783   2.107
  544SOL    HW118774   3.300   2.858   2.164
  544SOL    HW218775   3.374   2.770   2.066
  545SOL     OW18776   0.699   4.238   7.602
  545SOL    HW118777   0.666   4.149   7.611
  545SOL    HW218778   0.622   4.294   7.615
  546SOL     OW18779   5.898   6.335   7.055
  546SOL    HW118780   5.939   6.385   7.125
  546SOL    HW218781   5.888   6.247   7.090
  547SOL     OW18782   5.673   4.037   6.361
  547SOL    HW118783   5.712   4.123   6.378
  547SOL    HW218784   5.596   4.035   6.417
  548SOL     OW18785   5.316   2.860   0.880
  548SOL    HW118786   5.313   2.812   0.798
  548SOL    HW218787   5.314   2.792   0.948
  549SOL     OW18788   1.017   6.229   0.253
  549SOL    HW118789   1.064   6.236   0.169
  549SOL    HW218790   1.087   6.227   0.318
  550SOL     OW18791   0.678   2.005   1.409
  550SOL    HW118792   0.719   1.973   1.490
  550SOL    HW218793   0.595   2.044   1.437
  551SOL     OW18794   0.584   1.462   6.749
  551SOL    HW118795   0.631   1.482   6.830
  551SOL    HW218796   0.523   1.535   6.739
  552SOL     OW18797   1.148   3.531   1.326
  552SOL    HW118798   1.146   3.522   1.231
  552SOL    HW218799   1.237   3.507   1.351
  553SOL     OW18800   1.949   2.578   6.134
  553SOL    HW118801   1.889   2.601   6.064
  553SOL    HW218802   1.907   2.612   6.213
  554SOL     OW18803   1.029   4.965   1.576
  554SOL    HW118804   1.064   4.903   1.513
  554SOL    HW218805   1.054   4.929   1.661
  555SOL     OW18806   0.617   6.140   6.714
  555SOL    HW118807   0.535   6.179   6.746
  555SOL    HW218808   0.683   6.168   6.778
  556SOL     OW18809   3.486   6.078   6.409
  556SOL    HW118810   3.501   5.986   6.385
  556SOL    HW218811   3.391   6.089   6.405
  557SOL     OW18812   4.303   0.996   7.302
  557SOL    HW118813   4.215   1.034   7.297
  557SOL    HW218814   4.354   1.059   7.352
  558SOL     OW18815   5.197   5.924   0.788
  558SOL    HW118816   5.190   5.836   0.752
  558SOL    HW218817   5.271   5.919   0.849
  559SOL     OW18818   2.959   1.841   0.814
  559SOL    HW118819   2.908   1.921   0.801
  559SOL    HW218820   2.959   1.797   0.729
  560SOL     OW18821   2.377   5.960   0.657
  560SOL    HW118822   2.450   6.006   0.698
  560SOL    HW218823   2.337   5.910   0.727
  561SOL     OW18824   2.838   4.246   7.491
  561SOL    HW118825   2.769   4.255   7.426
  561SOL    HW218826   2.793   4.216   7.570
  562SOL     OW18827   4.497   3.881   0.754
  562SOL    HW118828   4.583   3.911   0.723
  562SOL    HW218829   4.437   3.907   0.684
  563SOL     OW18830   2.716   0.915   7.824
  563SOL    HW118831   2.748   0.829   7.851
  563SOL    HW218832   2.795   0.969   7.815
  564SOL     OW18833   0.672   4.366   7.041
  564SOL    HW118834   0.767   4.363   7.035
  564SOL    HW218835   0.651   4.458   7.056
  565SOL     OW18836   2.823   3.316   1.490
  565SOL    HW118837   2.745   3.371   1.478
  565SOL    HW218838   2.877   3.364   1.553
  566SOL     OW18839   1.391   3.570   6.326
  566SOL    HW118840   1.476   3.606   6.352
  566SOL    HW218841   1.409   3.518   6.248
  567SOL     OW18842   1.112   1.724   0.914
  567SOL    HW118843   1.053   1.798   0.901
  567SOL    HW218844   1.066   1.669   0.979
  568SOL     OW18845   5.012   3.888   0.678
  568SOL    HW118846   4.920   3.907   0.701
  568SOL    HW218847   5.046   3.841   0.754
  569SOL     OW18848   0.439   5.347   7.588
  569SOL    HW118849   0.497   5.385   7.654
  569SOL    HW218850   0.420   5.259   7.620
  570SOL     OW18851   0.528   5.633   6.283
  570SOL    HW118852   0.444   5.678   6.276
  570SOL    HW218853   0.509   5.543   6.256
  571SOL     OW18854   0.759   2.492   0.567
  571SOL    HW118855   0.819   2.558   0.532
  571SOL    HW218856   0.756   2.424   0.500
  572SOL     OW18857   1.444   4.928   0.625
  572SOL    HW118858   1.457   4.833   0.631
  572SOL    HW218859   1.499   4.955   0.551
  573SOL     OW18860   5.207   4.720   6.366
  573SOL    HW118861   5.119   4.723   6.404
  573SOL    HW218862   5.193   4.740   6.273
  574SOL     OW18863   0.271   0.985   6.409
  574SOL    HW118864   0.284   1.068   6.364
  574SOL    HW218865   0.337   0.926   6.372
  575SOL     OW18866   4.947   4.258   7.264
  575SOL    HW118867   5.009   4.329   7.285
  575SOL    HW218868   4.880   4.265   7.332
  576SOL     OW18869   3.807   0.754   5.689
  576SOL    HW118870   3.800   0.661   5.714
  576SOL    HW218871   3.838   0.797   5.769
  577SOL     OW18872   5.891   4.111   5.617
  577SOL    HW118873   5.841   4.187   5.647
  577SOL    HW218874   5.952   4.092   5.689
  578SOL     OW18875   3.136   0.691   6.422
  578SOL    HW118876   3.108   0.759   6.360
  578SOL    HW218877   3.101   0.721   6.506
  579SOL     OW18878   2.825   0.323   0.748
  579SOL    HW118879   2.797   0.274   0.671
  579SOL    HW218880   2.920   0.332   0.736
  580SOL     OW18881   2.867   0.703   0.053
  580SOL    HW118882   2.793   0.655   0.091
  580SOL    HW218883   2.931   0.635   0.031
  581SOL     OW18884   2.117   6.328   6.985
  581SOL    HW118885   2.145   6.400   7.042
  581SOL    HW218886   2.043   6.288   7.030
  582SOL     OW18887   2.706   3.292   6.785
  582SOL    HW118888   2.646   3.224   6.754
  582SOL    HW218889   2.673   3.373   6.745
  583SOL     OW18890   1.285   1.625   7.295
  583SOL    HW118891   1.359   1.575   7.331
  583SOL    HW218892   1.326   1.695   7.244
  584SOL     OW18893   2.612   2.158   1.159
  584SOL    HW118894   2.633   2.066   1.172
  584SOL    HW218895   2.629   2.199   1.244
  585SOL     OW18896   5.570   6.342   7.610
  585SOL    HW118897   5.506   6.329   7.681
  585SOL    HW218898   5.564   6.261   7.559
  586SOL     OW18899   0.094   2.999   6.659
  586SOL    HW118900   0.174   2.961   6.695
  586SOL    HW218901   0.044   3.025   6.736
  587SOL     OW18902   2.160   1.971   7.100
  587SOL    HW118903   2.170   1.974   7.005
  587SOL    HW218904   2.144   2.062   7.126
  588SOL     OW18905   0.268   4.085   1.431
  588SOL    HW118906   0.190   4.131   1.465
  588SOL    HW218907   0.248   3.993   1.443
  589SOL     OW18908   1.613   3.685   5.852
  589SOL    HW118909   1.538   3.730   5.889
  589SOL    HW218910   1.669   3.665   5.928
  590SOL     OW18911   2.553   3.182   6.478
  590SOL    HW118912   2.496   3.244   6.432
  590SOL    HW218913   2.500   3.103   6.484
  591SOL     OW18914   5.885   5.257   1.600
  591SOL    HW118915   5.894   5.163   1.587
  591SOL    HW218916   5.951   5.296   1.543
  592SOL     OW18917   1.264   1.213   7.516
  592SOL    HW118918   1.188   1.179   7.469
  592SOL    HW218919   1.314   1.134   7.540
  593SOL     OW18920   0.976   5.232   1.616
  593SOL    HW118921   0.957   5.225   1.709
  593SOL    HW218922   1.002   5.144   1.589
  594SOL     OW18923   5.609   2.581   1.866
  594SOL    HW118924   5.690   2.559   1.820
  594SOL    HW218925   5.638   2.610   1.953
  595SOL     OW18926   6.183   1.114   7.051
  595SOL    HW118927   6.111   1.083   6.997
  595SOL    HW218928   6.237   1.037   7.066
  596SOL     OW18929   0.990   2.925   6.247
  596SOL    HW118930   0.931   2.990   6.209
  596SOL    HW218931   0.963   2.842   6.206
  597SOL     OW18932   3.683   5.167   5.923
  597SOL    HW118933   3.597   5.124   5.931
  597SOL    HW218934   3.740   5.101   5.885
  598SOL     OW18935   6.196   1.876   0.503
  598SOL    HW118936   6.110   1.836   0.490
  598SOL    HW218937   6.256   1.801   0.509
  599SOL     OW18938   0.706   5.089   0.988
  599SOL    HW118939   0.730   5.007   1.030
  599SOL    HW218940   0.766   5.097   0.914
  600SOL     OW18941   5.430   3.718   5.500
  600SOL    HW118942   5.502   3.768   5.537
  600SOL    HW218943   5.356   3.779   5.497
  601SOL     OW18944   5.618   0.122   0.264
  601SOL    HW118945   5.609   0.155   0.353
  601SOL    HW218946   5.698   0.162   0.231
  602SOL     OW18947   6.216   5.390   0.056
  602SOL    HW118948   6.274   5.446   0.005
  602SOL    HW218949   6.203   5.313   0.001
  603SOL     OW18950   0.981   5.987   1.621
  603SOL    HW118951   0.925   5.970   1.545
  603SOL    HW218952   1.038   5.911   1.626
  604SOL     OW18953   0.172   3.965   0.507
  604SOL    HW118954   0.111   4.002   0.443
  604SOL    HW218955   0.128   3.886   0.539
  605SOL     OW18956   4.351   3.403   7.287
  605SOL    HW118957   4.304   3.330   7.326
  605SOL    HW218958   4.283   3.458   7.248
  606SOL     OW18959   3.002   5.384   6.153
  606SOL    HW118960   2.924   5.415   6.200
  606SOL    HW218961   3.029   5.307   6.202
  607SOL     OW18962   0.183   2.293   0.332
  607SOL    HW118963   0.170   2.381   0.297
  607SOL    HW218964   0.095   2.255   0.335
  608SOL     OW18965   0.197   0.878   7.055
  608SOL    HW118966   0.208   0.964   7.015
  608SOL    HW218967   0.223   0.816   6.987
  609SOL     OW18968   3.836   5.869   6.395
  609SOL    HW118969   3.824   5.960   6.367
  609SOL    HW218970   3.913   5.840   6.347
  610SOL     OW18971   3.990   2.686   0.608
  610SOL    HW118972   3.978   2.593   0.628
  610SOL    HW218973   3.921   2.705   0.544
  611SOL     OW18974   0.118   6.036   6.928
  611SOL    HW118975   0.151   6.073   7.010
  611SOL    HW218976   0.196   5.997   6.887
  612SOL     OW18977   0.467   0.872   2.128
  612SOL    HW118978   0.500   0.943   2.073
  612SOL    HW218979   0.407   0.914   2.189
  613SOL     OW18980   0.983   1.205   0.785
  613SOL    HW118981   1.015   1.295   0.793
  613SOL    HW218982   0.967   1.178   0.875
  614SOL     OW18983   3.006   0.874   0.978
  614SOL    HW118984   3.077   0.925   0.938
  614SOL    HW218985   2.961   0.937   1.035
  615SOL     OW18986   0.620   3.166   0.644
  615SOL    HW118987   0.565   3.091   0.622
  615SOL    HW218988   0.708   3.141   0.615
  616SOL     OW18989   0.935   1.818   0.178
  616SOL    HW118990   0.967   1.730   0.201
  616SOL    HW218991   0.913   1.811   0.085
  617SOL     OW18992   5.362   1.664   1.573
  617SOL    HW118993   5.301   1.627   1.509
  617SOL    HW218994   5.362   1.602   1.646
  618SOL     OW18995   5.145   3.568   2.037
  618SOL    HW118996   5.088   3.594   2.108
  618SOL    HW218997   5.233   3.565   2.076
  619SOL     OW18998   3.440   0.547   6.958
  619SOL    HW118999   3.390   0.581   6.884
  619SOL    HW219000   3.525   0.589   6.952
  620SOL     OW19001   0.838   4.821   1.308
  620SOL    HW119002   0.886   4.805   1.226
  620SOL    HW219003   0.900   4.868   1.363
  621SOL     OW19004   6.336   2.679   1.524
  621SOL    HW119005   6.322   2.590   1.557
  621SOL    HW219006   6.248   2.715   1.514
  622SOL     OW19007   5.892   2.004   0.865
  622SOL    HW119008   5.892   1.976   0.957
  622SOL    HW219009   5.871   1.925   0.815
  623SOL     OW19010   5.317   6.012   1.698
  623SOL    HW119011   5.317   6.066   1.778
  623SOL    HW219012   5.232   6.030   1.658
  624SOL     OW19013   2.217   1.259   1.505
  624SOL    HW119014   2.189   1.330   1.563
  624SOL    HW219015   2.259   1.196   1.563
  625SOL     OW19016   5.022   5.886   5.671
  625SOL    HW119017   4.981   5.864   5.588
  625SOL    HW219018   4.960   5.855   5.737
  626SOL     OW19019   3.812   0.416   6.640
  626SOL    HW119020   3.828   0.510   6.634
  626SOL    HW219021   3.769   0.405   6.725
  627SOL     OW19022   1.278   3.256   0.283
  627SOL    HW119023   1.311   3.206   0.358
  627SOL    HW219024   1.343   3.325   0.270
  628SOL     OW19025   0.503   4.809   0.424
  628SOL    HW119026   0.528   4.719   0.404
  628SOL    HW219027   0.520   4.857   0.343
  629SOL     OW19028   6.290   5.146   6.499
  629SOL    HW119029   6.212   5.105   6.536
  629SOL    HW219030   6.302   5.226   6.551
  630SOL     OW19031   4.689   2.058   0.006
  630SOL    HW119032   4.613   2.006  -0.019
  630SOL    HW219033   4.763   1.997  -0.001
  631SOL     OW19034   4.173   6.205   6.604
  631SOL    HW119035   4.183   6.297   6.627
  631SOL    HW219036   4.222   6.157   6.671
  632SOL     OW19037   2.740   4.544   5.687
  632SOL    HW119038   2.779   4.475   5.741
  632SOL    HW219039   2.748   4.624   5.740
  633SOL     OW19040   1.912   2.859   5.970
  633SOL    HW119041   1.867   2.781   5.939
  633SOL    HW219042   1.910   2.920   5.896
  634SOL     OW19043   6.311   5.829   7.847
  634SOL    HW119044   6.352   5.810   7.931
  634SOL    HW219045   6.304   5.743   7.804
  635SOL     OW19046   3.516   3.173   0.263
  635SOL    HW119047   3.583   3.180   0.331
  635SOL    HW219048   3.495   3.080   0.260
  636SOL     OW19049   4.051   2.422   6.656
  636SOL    HW119050   4.109   2.346   6.660
  636SOL    HW219051   4.066   2.468   6.739
  637SOL     OW19052   5.405   6.397   6.694
  637SOL    HW119053   5.319   6.419   6.730
  637SOL    HW219054   5.463   6.395   6.770
  638SOL     OW19055   0.212   5.794   7.822
  638SOL    HW119056   0.204   5.699   7.818
  638SOL    HW219057   0.191   5.824   7.734
  639SOL     OW19058   1.855   2.666   6.367
  639SOL    HW119059   1.927   2.633   6.420
  639SOL    HW219060   1.874   2.759   6.355
  640SOL     OW19061   2.500   4.086   7.442
  640SOL    HW119062   2.420   4.057   7.486
  640SOL    HW219063   2.562   4.015   7.455
  641SOL     OW19064   2.774   4.519   2.752
  641SOL    HW119065   2.853   4.568   2.732
  641SOL    HW219066   2.805   4.430   2.771
  642SOL     OW19067   3.524   0.626   7.792
  642SOL    HW119068   3.572   0.625   7.709
  642SOL    HW219069   3.589   0.603   7.858
  643SOL     OW19070   2.973   4.562   6.446
  643SOL    HW119071   2.991   4.468   6.443
  643SOL    HW219072   2.899   4.570   6.508
  644SOL     OW19073   0.712   2.133   0.812
  644SOL    HW119074   0.776   2.171   0.871
  644SOL    HW219075   0.707   2.195   0.739
  645SOL     OW19076   5.475   4.344   0.998
  645SOL    HW119077   5.531   4.396   1.055
  645SOL    HW219078   5.425   4.408   0.948
  646SOL     OW19079   5.065   4.221   5.217
  646SOL    HW119080   5.008   4.281   5.265
  646SOL    HW219081   5.088   4.153   5.281
  647SOL     OW19082   2.117   3.952   1.156
  647SOL    HW119083   2.195   3.942   1.212
  647SOL    HW219084   2.044   3.929   1.213
  648SOL     OW19085   3.530   3.929   6.734
  648SOL    HW119086   3.499   3.839   6.724
  648SOL    HW219087   3.611   3.921   6.784
  649SOL     OW19088   1.553   0.014   7.191
  649SOL    HW119089   1.559   0.067   7.111
  649SOL    HW219090   1.460   0.014   7.214
  650SOL     OW19091   2.581   4.862   1.295
  650SOL    HW119092   2.492   4.868   1.260
  650SOL    HW219093   2.624   4.797   1.240
  651SOL     OW19094   3.203   6.032   6.891
  651SOL    HW119095   3.138   6.101   6.879
  651SOL    HW219096   3.275   6.076   6.938
  652SOL     OW19097   2.131   6.189   0.047
  652SOL    HW119098   2.163   6.160  -0.038
  652SOL    HW219099   2.063   6.126   0.069
  653SOL     OW19100   3.187   5.748   2.141
  653SOL    HW119101   3.210   5.773   2.052
  653SOL    HW219102   3.217   5.821   2.195
  654SOL     OW19103   1.084   2.713   0.094
  654SOL    HW119104   1.012   2.769   0.121
  654SOL    HW219105   1.162   2.769   0.097
  655SOL     OW19106   2.982   3.591   5.826
  655SOL    HW119107   2.899   3.564   5.785
  655SOL    HW219108   3.049   3.549   5.772
  656SOL     OW19109   2.253   0.219   7.807
  656SOL    HW119110   2.209   0.135   7.806
  656SOL    HW219111   2.328   0.208   7.748
  657SOL     OW19112   2.497   0.791   7.244
  657SOL    HW119113   2.408   0.757   7.229
  657SOL    HW219114   2.555   0.721   7.215
  658SOL     OW19115   6.030   0.737   1.276
  658SOL    HW119116   6.061   0.650   1.251
  658SOL    HW219117   6.052   0.745   1.368
  659SOL     OW19118   4.126   0.942   6.642
  659SOL    HW119119   4.050   1.000   6.633
  659SOL    HW219120   4.199   1.001   6.662
  660SOL     OW19121   5.023   2.598   7.386
  660SOL    HW119122   5.112   2.618   7.357
  660SOL    HW219123   5.027   2.506   7.412
  661SOL     OW19124   0.109   3.469   0.933
  661SOL    HW119125   0.100   3.402   0.866
  661SOL    HW219126   0.202   3.492   0.931
  662SOL     OW19127   6.187   0.851   1.029
  662SOL    HW119128   6.209   0.944   1.027
  662SOL    HW219129   6.176   0.831   1.122
  663SOL     OW19130   4.852   0.299   1.163
  663SOL    HW119131   4.836   0.223   1.107
  663SOL    HW219132   4.827   0.270   1.250
  664SOL     OW19133   4.725   1.286   6.032
  664SOL    HW119134   4.673   1.328   5.964
  664SOL    HW219135   4.815   1.291   5.999
  665SOL     OW19136   0.619   3.327   0.045
  665SOL    HW119137   0.543   3.376   0.013
  665SOL    HW219138   0.609   3.326   0.140
  666SOL     OW19139   1.801   2.681   0.924
  666SOL    HW119140   1.734   2.707   0.987
  666SOL    HW219141   1.773   2.595   0.893
  667SOL     OW19142   4.117   1.468   7.075
  667SOL    HW119143   4.079   1.469   7.163
  667SOL    HW219144   4.191   1.408   7.082
  668SOL     OW19145   3.833   0.183   5.990
  668SOL    HW119146   3.794   0.166   6.076
  668SOL    HW219147   3.822   0.277   5.976
  669SOL     OW19148   6.346   0.871   7.047
  669SOL    HW119149   6.333   0.810   6.974
  669SOL    HW219150   6.440   0.867   7.064
  670SOL     OW19151   4.833   4.319   1.091
  670SOL    HW119152   4.828   4.400   1.039
  670SOL    HW219153   4.901   4.337   1.156
  671SOL     OW19154   5.964   0.195   7.125
  671SOL    HW119155   5.895   0.185   7.059
  671SOL    HW219156   5.916   0.213   7.206
  672SOL     OW19157   3.935   2.961   0.949
  672SOL    HW119158   3.974   2.883   0.910
  672SOL    HW219159   3.935   2.943   1.043
  673SOL     OW19160   3.905   1.845   6.919
  673SOL    HW119161   3.922   1.933   6.884
  673SOL    HW219162   3.990   1.815   6.952
  674SOL     OW19163   4.406   0.637   7.063
  674SOL    HW119164   4.431   0.729   7.063
  674SOL    HW219165   4.488   0.590   7.045
  675SOL     OW19166   1.259   4.701   6.001
  675SOL    HW119167   1.235   4.737   6.086
  675SOL    HW219168   1.203   4.623   5.991
  676SOL     OW19169   1.040   2.324   7.806
  676SOL    HW119170   0.999   2.300   7.888
  676SOL    HW219171   0.980   2.293   7.739
  677SOL     OW19172   2.571   5.315   1.120
  677SOL    HW119173   2.605   5.340   1.206
  677SOL    HW219174   2.529   5.231   1.134
  678SOL     OW19175   1.756   0.646   6.222
  678SOL    HW119176   1.664   0.621   6.209
  678SOL    HW219177   1.779   0.608   6.307
  679SOL     OW19178   1.805   4.086   0.438
  679SOL    HW119179   1.758   4.165   0.412
  679SOL    HW219180   1.771   4.017   0.381
  680SOL     OW19181   3.696   6.355   1.579
  680SOL    HW119182   3.675   6.446   1.600
  680SOL    HW219183   3.792   6.351   1.583
  681SOL     OW19184   4.180   0.996   1.490
  681SOL    HW119185   4.189   0.963   1.401
  681SOL    HW219186   4.265   1.034   1.510
  682SOL     OW19187   0.551   1.690   7.561
  682SOL    HW119188   0.580   1.686   7.652
  682SOL    HW219189   0.456   1.701   7.567
  683SOL     OW19190   1.507   1.647   1.989
  683SOL    HW119191   1.516   1.590   2.065
  683SOL    HW219192   1.534   1.733   2.021
  684SOL     OW19193   3.777   6.342   0.664
  684SOL    HW119194   3.706   6.278   0.678
  684SOL    HW219195   3.818   6.314   0.582
  685SOL     OW19196   5.599   1.703   6.512
  685SOL    HW119197   5.530   1.643   6.486
  685SOL    HW219198   5.564   1.749   6.589
  686SOL     OW19199   3.011   4.730   5.827
  686SOL    HW119200   2.917   4.729   5.810
  686SOL    HW219201   3.039   4.819   5.804
  687SOL     OW19202   4.774   0.978   0.201
  687SOL    HW119203   4.714   0.972   0.276
  687SOL    HW219204   4.751   1.061   0.159
  688SOL     OW19205   2.676   5.836   5.793
  688SOL    HW119206   2.648   5.919   5.755
  688SOL    HW219207   2.643   5.837   5.882
  689SOL     OW19208   0.540   3.076   1.870
  689SOL    HW119209   0.543   3.091   1.965
  689SOL    HW219210   0.572   2.987   1.859
  690SOL     OW19211   2.226   3.149   0.945
  690SOL    HW119212   2.300   3.199   0.911
  690SOL    HW219213   2.261   3.099   1.018
  691SOL     OW19214   3.341   2.733   5.857
  691SOL    HW119215   3.324   2.782   5.938
  691SOL    HW219216   3.254   2.709   5.826
  692SOL     OW19217   2.688   2.503   5.367
  692SOL    HW119218   2.643   2.500   5.452
  692SOL    HW219219   2.767   2.451   5.380
  693SOL     OW19220   0.420   0.247   6.968
  693SOL    HW119221   0.370   0.247   7.050
  693SOL    HW219222   0.438   0.154   6.951
  694SOL     OW19223   0.103   6.124   0.377
  694SOL    HW119224   0.115   6.208   0.332
  694SOL    HW219225   0.118   6.058   0.309
  695SOL     OW19226   2.437   6.016   1.061
  695SOL    HW119227   2.390   6.096   1.086
  695SOL    HW219228   2.404   5.949   1.122
  696SOL     OW19229   4.190   2.182   6.675
  696SOL    HW119230   4.268   2.138   6.708
  696SOL    HW219231   4.185   2.158   6.583
  697SOL     OW19232   0.519   1.165   0.959
  697SOL    HW119233   0.600   1.215   0.944
  697SOL    HW219234   0.492   1.190   1.047
  698SOL     OW19235   5.699   2.221   0.789
  698SOL    HW119236   5.630   2.162   0.756
  698SOL    HW219237   5.774   2.164   0.804
  699SOL     OW19238   3.915   3.675   0.724
  699SOL    HW119239   3.823   3.668   0.698
  699SOL    HW219240   3.964   3.634   0.654
  700SOL     OW19241   1.338   1.286   0.647
  700SOL    HW119242   1.384   1.242   0.718
  700SOL    HW219243   1.277   1.345   0.690
  701SOL     OW19244   4.628   0.867   1.191
  701SOL    HW119245   4.707   0.820   1.164
  701SOL    HW219246   4.654   0.914   1.271
  702SOL     OW19247   3.222   5.214   7.626
  702SOL    HW119248   3.191   5.215   7.535
  702SOL    HW219249   3.312   5.183   7.620
  703SOL     OW19250   2.912   2.354   5.465
  703SOL    HW119251   2.985   2.297   5.489
  703SOL    HW219252   2.867   2.372   5.547
  704SOL     OW19253   4.696   2.800   0.847
  704SOL    HW119254   4.734   2.712   0.840
  704SOL    HW219255   4.608   2.784   0.882
  705SOL     OW19256   6.395   0.061   6.651
  705SOL    HW119257   6.430  -0.027   6.661
  705SOL    HW219258   6.389   0.095   6.741
  706SOL     OW19259   6.178   4.151   1.331
  706SOL    HW119260   6.248   4.216   1.335
  706SOL    HW219261   6.153   4.137   1.422
  707SOL     OW19262   1.583   1.392   7.719
  707SOL    HW119263   1.559   1.322   7.780
  707SOL    HW219264   1.678   1.399   7.727
  708SOL     OW19265   0.651   0.069   7.322
  708SOL    HW119266   0.624   0.148   7.368
  708SOL    HW219267   0.733   0.044   7.364
  709SOL     OW19268   1.579   5.386   2.355
  709SOL    HW119269   1.647   5.451   2.337
  709SOL    HW219270   1.588   5.368   2.449
  710SOL     OW19271   4.260   4.129   0.351
  710SOL    HW119272   4.227   4.208   0.394
  710SOL    HW219273   4.299   4.162   0.270
  711SOL     OW19274   2.443   4.443   7.340
  711SOL    HW119275   2.394   4.513   7.383
  711SOL    HW219276   2.479   4.392   7.412
  712SOL     OW19277   0.819   4.105   0.481
  712SOL    HW119278   0.803   4.094   0.575
  712SOL    HW219279   0.821   4.016   0.446
  713SOL     OW19280   2.934   3.709   1.432
  713SOL    HW119281   2.842   3.691   1.414
  713SOL    HW219282   2.938   3.719   1.527
  714SOL     OW19283   4.266   1.735   1.718
  714SOL    HW119284   4.246   1.658   1.770
  714SOL    HW219285   4.328   1.785   1.771
  715SOL     OW19286   3.361   3.033   1.279
  715SOL    HW119287   3.354   3.003   1.189
  715SOL    HW219288   3.455   3.048   1.292
  716SOL     OW19289   0.094   1.724   2.020
  716SOL    HW119290   0.189   1.734   2.024
  716SOL    HW219291   0.067   1.722   2.112
  717SOL     OW19292   2.762   1.937   1.163
  717SOL    HW119293   2.791   1.852   1.130
  717SOL    HW219294   2.806   2.001   1.108
  718SOL     OW19295   1.871   1.607   5.704
  718SOL    HW119296   1.818   1.607   5.624
  718SOL    HW219297   1.961   1.615   5.672
  719SOL     OW19298   6.254   6.229   6.645
  719SOL    HW119299   6.171   6.189   6.620
  719SOL    HW219300   6.231   6.315   6.679
  720SOL     OW19301   3.563   4.027   0.365
  720SOL    HW119302   3.571   4.110   0.412
  720SOL    HW219303   3.653   4.001   0.346
  721SOL     OW19304   4.978   3.477   0.298
  721SOL    HW119305   5.002   3.501   0.209
  721SOL    HW219306   4.963   3.560   0.342
  722SOL     OW19307   3.691   0.120   0.328
  722SOL    HW119308   3.724   0.178   0.259
  722SOL    HW219309   3.615   0.165   0.362
  723SOL     OW19310   3.500   5.448   7.360
  723SOL    HW119311   3.552   5.450   7.440
  723SOL    HW219312   3.427   5.389   7.380
  724SOL     OW19313   1.945   1.466   5.181
  724SOL    HW119314   1.854   1.490   5.199
  724SOL    HW219315   1.939   1.399   5.113
  725SOL     OW19316   3.319   6.388   0.675
  725SOL    HW119317   3.274   6.415   0.595
  725SOL    HW219318   3.254   6.401   0.745
  726SOL     OW19319   6.175   6.388   1.441
  726SOL    HW119320   6.183   6.365   1.534
  726SOL    HW219321   6.228   6.322   1.395
  727SOL     OW19322   2.686   1.662   1.564
  727SOL    HW119323   2.738   1.652   1.644
  727SOL    HW219324   2.744   1.708   1.504
  728SOL     OW19325   2.496   4.921   7.253
  728SOL    HW119326   2.475   4.829   7.236
  728SOL    HW219327   2.431   4.949   7.318
  729SOL     OW19328   5.983   2.202   1.403
  729SOL    HW119329   6.056   2.252   1.366
  729SOL    HW219330   5.991   2.212   1.497
  730SOL     OW19331   3.160   3.358   5.933
  730SOL    HW119332   3.132   3.271   5.960
  730SOL    HW219333   3.160   3.410   6.014
  731SOL     OW19334   3.793   2.727   6.847
  731SOL    HW119335   3.800   2.693   6.758
  731SOL    HW219336   3.739   2.663   6.893
  732SOL     OW19337   4.665   4.415   6.944
  732SOL    HW119338   4.620   4.452   7.020
  732SOL    HW219339   4.756   4.440   6.955
  733SOL     OW19340   2.881   6.107   1.334
  733SOL    HW119341   2.887   6.201   1.352
  733SOL    HW219342   2.950   6.090   1.270
  734SOL     OW19343   2.443   2.500   7.390
  734SOL    HW119344   2.359   2.544   7.373
  734SOL    HW219345   2.501   2.530   7.321
  735SOL     OW19346   2.265   4.380   6.885
  735SOL    HW119347   2.349   4.363   6.843
  735SOL    HW219348   2.270   4.335   6.970
  736SOL     OW19349   0.490   4.694   5.965
  736SOL    HW119350   0.471   4.605   5.934
  736SOL    HW219351   0.404   4.736   5.971
  737SOL     OW19352   0.373   0.817   1.532
  737SOL    HW119353   0.413   0.777   1.455
  737SOL    HW219354   0.279   0.806   1.517
  738SOL     OW19355   2.898   6.102   6.070
  738SOL    HW119356   2.948   6.098   5.988
  738SOL    HW219357   2.922   6.187   6.108
  739SOL     OW19358   3.655   5.610   1.079
  739SOL    HW119359   3.573   5.651   1.051
  739SOL    HW219360   3.719   5.681   1.077
  740SOL     OW19361   3.160   5.344   0.180
  740SOL    HW119362   3.209   5.334   0.099
  740SOL    HW219363   3.216   5.399   0.235
  741SOL     OW19364   4.511   4.269   6.509
  741SOL    HW119365   4.535   4.317   6.589
  741SOL    HW219366   4.569   4.193   6.509
  742SOL     OW19367   0.873   1.932   0.586
  742SOL    HW119368   0.961   1.942   0.550
  742SOL    HW219369   0.871   1.989   0.662
  743SOL     OW19370   3.079   2.575   5.979
  743SOL    HW119371   3.095   2.620   5.896
  743SOL    HW219372   3.030   2.639   6.032
  744SOL     OW19373   4.893   0.493   6.284
  744SOL    HW119374   4.805   0.529   6.290
  744SOL    HW219375   4.892   0.442   6.203
  745SOL     OW19376   2.501   4.166   1.593
  745SOL    HW119377   2.413   4.128   1.591
  745SOL    HW219378   2.487   4.259   1.577
  746SOL     OW19379   5.280   1.703   6.707
  746SOL    HW119380   5.265   1.665   6.794
  746SOL    HW219381   5.232   1.786   6.709
  747SOL     OW19382   3.086   5.603   5.986
  747SOL    HW119383   3.128   5.636   6.065
  747SOL    HW219384   3.035   5.528   6.014
  748SOL     OW19385   5.438   1.165   6.580
  748SOL    HW119386   5.516   1.210   6.612
  748SOL    HW219387   5.469   1.077   6.558
  749SOL     OW19388   4.840   3.332   6.868
  749SOL    HW119389   4.851   3.306   6.776
  749SOL    HW219390   4.792   3.415   6.863
  750SOL     OW19391   0.806   2.729   6.464
  750SOL    HW119392   0.765   2.651   6.504
  750SOL    HW219393   0.829   2.701   6.375
  751SOL     OW19394   0.475   2.122   5.523
  751SOL    HW119395   0.475   2.030   5.548
  751SOL    HW219396   0.388   2.154   5.546
  752SOL     OW19397   6.246   6.160   1.307
  752SOL    HW119398   6.225   6.222   1.238
  752SOL    HW219399   6.174   6.096   1.305
  753SOL     OW19400   4.718   1.044   0.794
  753SOL    HW119401   4.639   1.030   0.847
  753SOL    HW219402   4.718   1.138   0.777
  754SOL     OW19403   0.607   4.922   6.347
  754SOL    HW119404   0.682   4.874   6.383
  754SOL    HW219405   0.531   4.882   6.387
  755SOL     OW19406   2.937   5.236   0.422
  755SOL    HW119407   2.985   5.170   0.372
  755SOL    HW219408   2.906   5.190   0.500
  756SOL     OW19409   4.976   4.230   1.644
  756SOL    HW119410   4.916   4.291   1.603
  756SOL    HW219411   5.012   4.179   1.571
  757SOL     OW19412   0.923   4.262   7.290
  757SOL    HW119413   0.882   4.180   7.318
  757SOL    HW219414   1.001   4.270   7.346
  758SOL     OW19415   3.723   4.721   1.003
  758SOL    HW119416   3.783   4.646   1.012
  758SOL    HW219417   3.673   4.721   1.084
  759SOL     OW19418   2.766   2.531   2.142
  759SOL    HW119419   2.689   2.587   2.154
  759SOL    HW219420   2.840   2.589   2.159
  760SOL     OW19421   0.132   1.442   1.637
  760SOL    HW119422   0.110   1.417   1.547
  760SOL    HW219423   0.114   1.363   1.688
  761SOL     OW19424   6.235   1.773   7.438
  761SOL    HW119425   6.192   1.693   7.408
  761SOL    HW219426   6.309   1.785   7.378
  762SOL     OW19427   6.061   4.812   5.587
  762SOL    HW119428   6.026   4.887   5.635
  762SOL    HW219429   6.142   4.844   5.548
  763SOL     OW19430   1.953   4.627   6.279
  763SOL    HW119431   1.967   4.703   6.222
  763SOL    HW219432   1.985   4.656   6.364
  764SOL     OW19433   5.682   2.240   2.328
  764SOL    HW119434   5.655   2.158   2.370
  764SOL    HW219435   5.607   2.265   2.274
  765SOL     OW19436   2.256   0.844   0.474
  765SOL    HW119437   2.255   0.778   0.405
  765SOL    HW219438   2.265   0.927   0.427
  766SOL     OW19439   1.001   1.111   6.524
  766SOL    HW119440   0.940   1.052   6.567
  766SOL    HW219441   1.050   1.151   6.595
  767SOL     OW19442   1.166   3.383   0.922
  767SOL    HW119443   1.195   3.338   0.842
  767SOL    HW219444   1.163   3.315   0.989
  768SOL     OW19445   4.271   3.761   7.365
  768SOL    HW119446   4.224   3.799   7.290
  768SOL    HW219447   4.218   3.687   7.392
  769SOL     OW19448   1.846   4.438   7.836
  769SOL    HW119449   1.875   4.347   7.843
  769SOL    HW219450   1.925   4.486   7.811
  770SOL     OW19451   4.459   4.173   2.161
  770SOL    HW119452   4.441   4.267   2.170
  770SOL    HW219453   4.390   4.140   2.105
  771SOL     OW19454   2.820   5.548   7.738
  771SOL    HW119455   2.902   5.578   7.700
  771SOL    HW219456   2.841   5.531   7.830
  772SOL     OW19457   2.745   6.139   0.220
  772SOL    HW119458   2.795   6.127   0.140
  772SOL    HW219459   2.692   6.217   0.204
  773SOL     OW19460   0.439   3.249   1.023
  773SOL    HW119461   0.420   3.317   0.958
  773SOL    HW219462   0.373   3.182   1.008
  774SOL     OW19463   1.921   3.529   1.413
  774SOL    HW119464   2.012   3.524   1.384
  774SOL    HW219465   1.925   3.572   1.499
  775SOL     OW19466   1.272   0.761   7.241
  775SOL    HW119467   1.368   0.766   7.241
  775SOL    HW219468   1.250   0.715   7.322
  776SOL     OW19469   4.272   3.117   5.027
  776SOL    HW119470   4.257   3.139   4.935
  776SOL    HW219471   4.209   3.171   5.075
  777SOL     OW19472   1.607   6.191   7.213
  777SOL    HW119473   1.519   6.156   7.227
  777SOL    HW219474   1.595   6.286   7.206
  778SOL     OW19475   5.107   2.505   7.779
  778SOL    HW119476   5.120   2.425   7.728
  778SOL    HW219477   5.154   2.573   7.730
  779SOL     OW19478   3.561   1.812   2.162
  779SOL    HW119479   3.503   1.836   2.090
  779SOL    HW219480   3.632   1.877   2.157
  780SOL     OW19481   1.555   1.898   1.590
  780SOL    HW119482   1.590   1.893   1.501
  780SOL    HW219483   1.632   1.891   1.646
  781SOL     OW19484   1.269   0.469   0.658
  781SOL    HW119485   1.297   0.561   0.654
  781SOL    HW219486   1.291   0.433   0.573
  782SOL     OW19487   4.163   3.018   0.645
  782SOL    HW119488   4.072   2.992   0.649
  782SOL    HW219489   4.161   3.113   0.657
  783SOL     OW19490   0.092   2.538   1.932
  783SOL    HW119491   0.169   2.525   1.876
  783SOL    HW219492   0.044   2.610   1.891
  784SOL     OW19493   2.084   2.839   6.681
  784SOL    HW119494   2.005   2.827   6.734
  784SOL    HW219495   2.078   2.930   6.651
  785SOL     OW19496   2.805   1.482   6.363
  785SOL    HW119497   2.818   1.498   6.270
  785SOL    HW219498   2.714   1.508   6.380
  786SOL     OW19499   0.943   1.950   7.413
  786SOL    HW119500   0.903   2.037   7.412
  786SOL    HW219501   0.870   1.890   7.402
  787SOL     OW19502   4.816   4.417   1.509
  787SOL    HW119503   4.835   4.406   1.416
  787SOL    HW219504   4.840   4.507   1.529
  788SOL     OW19505   6.126   5.618   0.386
  788SOL    HW119506   6.034   5.638   0.401
  788SOL    HW219507   6.161   5.596   0.472
  789SOL     OW19508   1.626   4.865   1.030
  789SOL    HW119509   1.537   4.883   0.999
  789SOL    HW219510   1.618   4.863   1.126
  790SOL     OW19511   6.196   2.876   1.022
  790SOL    HW119512   6.238   2.839   1.100
  790SOL    HW219513   6.140   2.946   1.057
  791SOL     OW19514   6.181   3.031   0.128
  791SOL    HW119515   6.263   3.056   0.170
  791SOL    HW219516   6.183   2.936   0.125
  792SOL     OW19517   6.208   2.320   0.032
  792SOL    HW119518   6.291   2.284   0.000
  792SOL    HW219519   6.174   2.252   0.091
  793SOL     OW19520   2.812   3.603   0.965
  793SOL    HW119521   2.849   3.651   0.891
  793SOL    HW219522   2.887   3.588   1.023
  794SOL     OW19523   3.520   0.839   1.214
  794SOL    HW119524   3.489   0.930   1.211
  794SOL    HW219525   3.497   0.809   1.302
  795SOL     OW19526   2.155   4.798   0.458
  795SOL    HW119527   2.072   4.841   0.478
  795SOL    HW219528   2.145   4.768   0.368
  796SOL     OW19529   5.487   5.807   6.494
  796SOL    HW119530   5.562   5.824   6.437
  796SOL    HW219531   5.419   5.867   6.465
  797SOL     OW19532   3.183   5.759   6.199
  797SOL    HW119533   3.244   5.782   6.269
  797SOL    HW219534   3.164   5.841   6.155
  798SOL     OW19535   5.652   4.365   1.816
  798SOL    HW119536   5.734   4.340   1.772
  798SOL    HW219537   5.664   4.458   1.836
  799SOL     OW19538   0.730   2.067   1.084
  799SOL    HW119539   0.742   1.984   1.131
  799SOL    HW219540   0.693   2.126   1.149
  800SOL     OW19541   0.305   1.225   7.474
  800SOL    HW119542   0.246   1.230   7.398
  800SOL    HW219543   0.297   1.134   7.503
  801SOL     OW19544   1.433   0.887   6.399
  801SOL    HW119545   1.370   0.903   6.329
  801SOL    HW219546   1.389   0.825   6.457
  802SOL     OW19547   6.102   0.863   7.706
  802SOL    HW119548   6.114   0.813   7.625
  802SOL    HW219549   6.180   0.918   7.710
  803SOL     OW19550   1.167   0.023   1.261
  803SOL    HW119551   1.162  -0.007   1.170
  803SOL    HW219552   1.104   0.095   1.266
  804SOL     OW19553   5.231   3.893   5.042
  804SOL    HW119554   5.172   3.954   4.996
  804SOL    HW219555   5.172   3.836   5.091
  805SOL     OW19556   1.117   0.499   6.278
  805SOL    HW119557   1.079   0.587   6.268
  805SOL    HW219558   1.196   0.501   6.225
  806SOL     OW19559   3.229   3.630   0.006
  806SOL    HW119560   3.319   3.660   0.019
  806SOL    HW219561   3.191   3.693  -0.055
  807SOL     OW19562   5.726   2.654   2.096
  807SOL    HW119563   5.708   2.622   2.185
  807SOL    HW219564   5.810   2.700   2.104
  808SOL     OW19565   4.781   1.167   1.627
  808SOL    HW119566   4.736   1.241   1.668
  808SOL    HW219567   4.779   1.098   1.693
  809SOL     OW19568   4.465   2.077   1.579
  809SOL    HW119569   4.382   2.123   1.592
  809SOL    HW219570   4.491   2.049   1.666
  810SOL     OW19571   0.501   4.642   1.080
  810SOL    HW119572   0.502   4.737   1.077
  810SOL    HW219573   0.580   4.615   1.034
  811SOL     OW19574   1.872   6.127   7.147
  811SOL    HW119575   1.881   6.084   7.062
  811SOL    HW219576   1.782   6.161   7.147
  812SOL     OW19577   6.381   3.697   1.276
  812SOL    HW119578   6.342   3.651   1.202
  812SOL    HW219579   6.436   3.764   1.236
  813SOL     OW19580   2.292   4.748   2.120
  813SOL    HW119581   2.272   4.657   2.097
  813SOL    HW219582   2.274   4.753   2.214
  814SOL     OW19583   2.756   5.261   7.099
  814SOL    HW119584   2.730   5.351   7.117
  814SOL    HW219585   2.811   5.268   7.020
  815SOL     OW19586   1.021   5.509   1.653
  815SOL    HW119587   0.952   5.509   1.719
  815SOL    HW219588   1.022   5.419   1.620
  816SOL     OW19589   5.814   5.497   6.782
  816SOL    HW119590   5.764   5.551   6.844
  816SOL    HW219591   5.860   5.433   6.837
  817SOL     OW19592   3.001   4.785   6.251
  817SOL    HW119593   3.018   4.715   6.188
  817SOL    HW219594   3.027   4.747   6.336
  818SOL     OW19595   0.750   5.635   1.471
  818SOL    HW119596   0.751   5.634   1.567
  818SOL    HW219597   0.772   5.545   1.447
  819SOL     OW19598   1.785   2.371   6.496
  819SOL    HW119599   1.739   2.398   6.576
  819SOL    HW219600   1.747   2.426   6.427
  820SOL     OW19601   4.549   4.326   5.727
  820SOL    HW119602   4.465   4.316   5.682
  820SOL    HW219603   4.612   4.347   5.657
  821SOL     OW19604   0.820   3.306   7.720
  821SOL    HW119605   0.819   3.215   7.690
  821SOL    HW219606   0.753   3.308   7.789
  822SOL     OW19607   0.431   2.493   6.719
  822SOL    HW119608   0.502   2.552   6.748
  822SOL    HW219609   0.414   2.437   6.795
  823SOL     OW19610   0.444   5.697   7.165
  823SOL    HW119611   0.525   5.747   7.169
  823SOL    HW219612   0.472   5.605   7.170
  824SOL     OW19613   2.230   2.183   1.961
  824SOL    HW119614   2.152   2.140   1.925
  824SOL    HW219615   2.200   2.271   1.984
  825SOL     OW19616   5.292   2.776   0.412
  825SOL    HW119617   5.249   2.716   0.473
  825SOL    HW219618   5.348   2.720   0.359
  826SOL     OW19619   0.021   6.384   0.540
  826SOL    HW119620   0.098   6.440   0.533
  826SOL    HW219621   0.044   6.320   0.607
  827SOL     OW19622   4.830   4.500   6.289
  827SOL    HW119623   4.841   4.482   6.196
  827SOL    HW219624   4.767   4.573   6.292
  828SOL     OW19625   2.813   3.911   0.093
  828SOL    HW119626   2.767   3.832   0.066
  828SOL    HW219627   2.781   3.929   0.181
  829SOL     OW19628   3.919   3.065   6.991
  829SOL    HW119629   3.900   3.084   7.082
  829SOL    HW219630   3.837   3.033   6.955
  830SOL     OW19631   5.857   1.961   1.442
  830SOL    HW119632   5.875   2.054   1.426
  830SOL    HW219633   5.938   1.927   1.481
  831SOL     OW19634   1.239   0.959   1.864
  831SOL    HW119635   1.222   1.045   1.825
  831SOL    HW219636   1.299   0.916   1.803
  832SOL     OW19637   1.170   0.919   7.673
  832SOL    HW119638   1.224   0.973   7.731
  832SOL    HW219639   1.080   0.946   7.692
  833SOL     OW19640   1.093   0.237   0.952
  833SOL    HW119641   1.083   0.236   1.047
  833SOL    HW219642   1.160   0.304   0.936
  834SOL     OW19643   1.040   5.186   7.833
  834SOL    HW119644   1.077   5.135   7.905
  834SOL    HW219645   1.016   5.121   7.767
  835SOL     OW19646   4.811   4.967   6.460
  835SOL    HW119647   4.808   5.054   6.420
  835SOL    HW219648   4.722   4.932   6.447
  836SOL     OW19649   0.796   0.142   7.037
  836SOL    HW119650   0.792   0.195   6.958
  836SOL    HW219651   0.714   0.161   7.083
  837SOL     OW19652   2.557   5.905   0.125
  837SOL    HW119653   2.532   5.843   0.193
  837SOL    HW219654   2.593   5.980   0.172
  838SOL     OW19655   3.017   5.062   7.645
  838SOL    HW119656   3.062   4.978   7.656
  838SOL    HW219657   3.087   5.127   7.650
  839SOL     OW19658   0.400   1.420   1.568
  839SOL    HW119659   0.437   1.398   1.654
  839SOL    HW219660   0.307   1.432   1.585
  840SOL     OW19661   4.073   6.414   6.952
  840SOL    HW119662   4.083   6.319   6.954
  840SOL    HW219663   4.096   6.438   6.862
  841SOL     OW19664   4.798   5.169   0.415
  841SOL    HW119665   4.867   5.103   0.418
  841SOL    HW219666   4.840   5.247   0.380
  842SOL     OW19667   6.033   2.380   6.257
  842SOL    HW119668   5.998   2.469   6.253
  842SOL    HW219669   6.072   2.365   6.171
  843SOL     OW19670   2.853   1.613   6.634
  843SOL    HW119671   2.789   1.683   6.625
  843SOL    HW219672   2.829   1.550   6.566
  844SOL     OW19673   2.473   5.151   7.080
  844SOL    HW119674   2.484   5.061   7.112
  844SOL    HW219675   2.562   5.186   7.078
  845SOL     OW19676   2.986   3.309   6.833
  845SOL    HW119677   2.900   3.269   6.847
  845SOL    HW219678   2.972   3.403   6.845
  846SOL     OW19679   4.477   2.980   7.752
  846SOL    HW119680   4.520   2.955   7.671
  846SOL    HW219681   4.540   2.960   7.821
  847SOL     OW19682   0.532   3.963   5.819
  847SOL    HW119683   0.457   3.915   5.853
  847SOL    HW219684   0.597   3.896   5.799
  848SOL     OW19685   0.011   6.242   1.079
  848SOL    HW119686   0.005   6.243   1.174
  848SOL    HW219687   0.105   6.245   1.061
  849SOL     OW19688   1.961   2.822   1.129
  849SOL    HW119689   1.887   2.798   1.074
  849SOL    HW219690   2.003   2.739   1.151
  850SOL     OW19691   6.017   3.741   1.125
  850SOL    HW119692   6.077   3.777   1.059
  850SOL    HW219693   6.023   3.646   1.113
  851SOL     OW19694   2.238   0.540   7.697
  851SOL    HW119695   2.199   0.477   7.638
  851SOL    HW219696   2.208   0.625   7.665
  852SOL     OW19697   1.265   6.311   0.086
  852SOL    HW119698   1.260   6.382   0.022
  852SOL    HW219699   1.264   6.354   0.171
  853SOL     OW19700   1.845   0.556   6.475
  853SOL    HW119701   1.793   0.488   6.518
  853SOL    HW219702   1.825   0.636   6.524
  854SOL     OW19703   1.890   0.099   6.664
  854SOL    HW119704   1.922   0.166   6.604
  854SOL    HW219705   1.950   0.026   6.654
  855SOL     OW19706   5.172   2.693   1.652
  855SOL    HW119707   5.218   2.610   1.664
  855SOL    HW219708   5.101   2.690   1.716
  856SOL     OW19709   1.929   3.453   7.732
  856SOL    HW119710   1.885   3.404   7.662
  856SOL    HW219711   2.021   3.431   7.721
  857SOL     OW19712   1.299   4.969   1.114
  857SOL    HW119713   1.312   4.895   1.055
  857SOL    HW219714   1.379   5.020   1.107
  858SOL     OW19715   0.231   1.556   6.246
  858SOL    HW119716   0.209   1.538   6.337
  858SOL    HW219717   0.198   1.480   6.197
  859SOL     OW19718   3.937   0.177   6.708
  859SOL    HW119719   3.890   0.187   6.790
  859SOL    HW219720   3.930   0.263   6.666
  860SOL     OW19721   1.254   0.171   6.833
  860SOL    HW119722   1.173   0.131   6.801
  860SOL    HW219723   1.225   0.238   6.895
  861SOL     OW19724   5.453   2.073   1.391
  861SOL    HW119725   5.426   2.135   1.458
  861SOL    HW219726   5.519   2.119   1.340
  862SOL     OW19727   2.256   3.493   6.499
  862SOL    HW119728   2.256   3.415   6.556
  862SOL    HW219729   2.278   3.565   6.558
  863SOL     OW19730   4.095   5.295   5.135
  863SOL    HW119731   4.051   5.313   5.217
  863SOL    HW219732   4.060   5.210   5.107
  864SOL     OW19733   2.975   4.449   7.310
  864SOL    HW119734   2.945   4.423   7.224
  864SOL    HW219735   2.966   4.371   7.364
  865SOL     OW19736   4.776   2.836   6.613
  865SOL    HW119737   4.695   2.857   6.660
  865SOL    HW219738   4.760   2.866   6.524
  866SOL     OW19739   0.216   4.840   1.867
  866SOL    HW119740   0.219   4.799   1.781
  866SOL    HW219741   0.125   4.868   1.877
  867SOL     OW19742   0.421   1.500   6.484
  867SOL    HW119743   0.424   1.540   6.397
  867SOL    HW219744   0.457   1.412   6.472
  868SOL     OW19745   0.094   1.310   5.856
  868SOL    HW119746   0.158   1.290   5.788
  868SOL    HW219747   0.023   1.356   5.810
  869SOL     OW19748   6.058   0.674   0.540
  869SOL    HW119749   6.049   0.730   0.617
  869SOL    HW219750   6.032   0.728   0.466
  870SOL     OW19751   3.251   2.004   6.608
  870SOL    HW119752   3.293   1.937   6.661
  870SOL    HW219753   3.320   2.067   6.588
  871SOL     OW19754   3.544   4.378   6.894
  871SOL    HW119755   3.461   4.390   6.941
  871SOL    HW219756   3.607   4.431   6.943
  872SOL     OW19757   0.567   6.361   0.410
  872SOL    HW119758   0.521   6.434   0.454
  872SOL    HW219759   0.657   6.392   0.400
  873SOL     OW19760   4.389   4.257   5.126
  873SOL    HW119761   4.331   4.322   5.166
  873SOL    HW219762   4.379   4.179   5.179
  874SOL     OW19763   1.364   3.033   0.868
  874SOL    HW119764   1.369   2.938   0.856
  874SOL    HW219765   1.322   3.045   0.953
  875SOL     OW19766   6.408   4.431   1.150
  875SOL    HW119767   6.456   4.352   1.176
  875SOL    HW219768   6.442   4.500   1.207
  876SOL     OW19769   4.978   4.656   6.523
  876SOL    HW119770   4.944   4.675   6.610
  876SOL    HW219771   4.956   4.565   6.507
  877SOL     OW19772   5.321   6.213   6.189
  877SOL    HW119773   5.343   6.305   6.175
  877SOL    HW219774   5.267   6.190   6.113
  878SOL     OW19775   3.358   3.160   6.398
  878SOL    HW119776   3.373   3.087   6.458
  878SOL    HW219777   3.293   3.215   6.443
  879SOL     OW19778   3.014   1.624   1.668
  879SOL    HW119779   3.084   1.656   1.725
  879SOL    HW219780   2.939   1.612   1.726
  880SOL     OW19781   0.353   2.667   7.332
  880SOL    HW119782   0.304   2.747   7.311
  880SOL    HW219783   0.443   2.686   7.303
  881SOL     OW19784   1.440   5.729   7.537
  881SOL    HW119785   1.480   5.645   7.520
  881SOL    HW219786   1.504   5.777   7.589
  882SOL     OW19787   0.155   5.909   0.196
  882SOL    HW119788   0.168   5.872   0.109
  882SOL    HW219789   0.126   5.835   0.249
  883SOL     OW19790   5.657   6.376   6.904
  883SOL    HW119791   5.639   6.292   6.946
  883SOL    HW219792   5.700   6.428   6.971
  884SOL     OW19793   6.137   4.960   7.388
  884SOL    HW119794   6.123   4.997   7.301
  884SOL    HW219795   6.186   4.879   7.373
  885SOL     OW19796   4.638   2.546   7.129
  885SOL    HW119797   4.663   2.478   7.192
  885SOL    HW219798   4.569   2.595   7.173
  886SOL     OW19799   4.044   3.255   1.078
  886SOL    HW119800   3.988   3.203   1.020
  886SOL    HW219801   4.114   3.195   1.104
  887SOL     OW19802   3.685   1.408   6.616
  887SOL    HW119803   3.781   1.410   6.616
  887SOL    HW219804   3.661   1.381   6.528
  888SOL     OW19805   0.778   2.324   5.151
  888SOL    HW119806   0.780   2.412   5.189
  888SOL    HW219807   0.727   2.334   5.071
  889SOL     OW19808   3.809   5.502   1.842
  889SOL    HW119809   3.753   5.560   1.791
  889SOL    HW219810   3.893   5.547   1.847
  890SOL     OW19811   2.207   2.228   0.091
  890SOL    HW119812   2.197   2.173   0.168
  890SOL    HW219813   2.298   2.215   0.064
  891SOL     OW19814   4.372   5.922   5.849
  891SOL    HW119815   4.466   5.908   5.862
  891SOL    HW219816   4.338   5.836   5.827
  892SOL     OW19817   0.396   1.459   7.216
  892SOL    HW119818   0.429   1.474   7.304
  892SOL    HW219819   0.474   1.463   7.160
  893SOL     OW19820   4.726   3.602   6.935
  893SOL    HW119821   4.678   3.579   7.015
  893SOL    HW219822   4.662   3.593   6.865
  894SOL     OW19823   0.944   5.650   1.109
  894SOL    HW119824   0.850   5.632   1.103
  894SOL    HW219825   0.965   5.635   1.201
  895SOL     OW19826   1.294   5.934   6.450
  895SOL    HW119827   1.250   5.938   6.365
  895SOL    HW219828   1.291   5.841   6.474
  896SOL     OW19829   0.039   0.334   0.356
  896SOL    HW119830  -0.026   0.291   0.411
  896SOL    HW219831   0.119   0.282   0.367
  897SOL     OW19832   4.120   2.511   6.882
  897SOL    HW119833   4.192   2.485   6.939
  897SOL    HW219834   4.073   2.578   6.932
  898SOL     OW19835   4.973   3.071   6.529
  898SOL    HW119836   4.912   3.127   6.480
  898SOL    HW219837   4.920   2.998   6.559
  899SOL     OW19838   3.115   4.278   7.540
  899SOL    HW119839   3.139   4.187   7.558
  899SOL    HW219840   3.019   4.278   7.537
  900SOL     OW19841   5.096   4.101   1.442
  900SOL    HW119842   5.016   4.104   1.390
  900SOL    HW219843   5.147   4.029   1.405
  901SOL     OW19844   6.295   5.871   6.031
  901SOL    HW119845   6.282   5.838   5.942
  901SOL    HW219846   6.380   5.915   6.028
  902SOL     OW19847   4.054   2.743   5.431
  902SOL    HW119848   4.000   2.709   5.501
  902SOL    HW219849   4.124   2.678   5.421
  903SOL     OW19850   3.989   2.728   1.457
  903SOL    HW119851   4.073   2.768   1.479
  903SOL    HW219852   3.948   2.711   1.542
  904SOL     OW19853   4.001   5.498   6.484
  904SOL    HW119854   3.923   5.442   6.490
  904SOL    HW219855   4.054   5.457   6.416
  905SOL     OW19856   5.767   1.815   0.036
  905SOL    HW119857   5.803   1.791  -0.049
  905SOL    HW219858   5.672   1.818   0.021
  906SOL     OW19859   0.010   2.243   6.627
  906SOL    HW119860  -0.025   2.206   6.546
  906SOL    HW219861  -0.059   2.232   6.691
  907SOL     OW19862   1.817   5.092   0.020
  907SOL    HW119863   1.875   5.152   0.068
  907SOL    HW219864   1.826   5.009   0.066
  908SOL     OW19865   5.130   3.440   0.693
  908SOL    HW119866   5.157   3.527   0.664
  908SOL    HW219867   5.152   3.382   0.620
  909SOL     OW19868   0.170   2.522   0.167
  909SOL    HW119869   0.079   2.540   0.146
  909SOL    HW219870   0.194   2.588   0.232
  910SOL     OW19871   2.324   4.592   7.528
  910SOL    HW119872   2.410   4.631   7.544
  910SOL    HW219873   2.263   4.666   7.532
  911SOL     OW19874   2.557   2.081   6.513
  911SOL    HW119875   2.519   2.103   6.598
  911SOL    HW219876   2.640   2.039   6.534
  912SOL     OW19877   4.653   1.565   2.566
  912SOL    HW119878   4.669   1.474   2.541
  912SOL    HW219879   4.702   1.576   2.648
  913SOL     OW19880   5.845   2.574   1.174
  913SOL    HW119881   5.851   2.479   1.189
  913SOL    HW219882   5.800   2.583   1.090
  914SOL     OW19883   1.625   0.381   7.469
  914SOL    HW119884   1.641   0.308   7.409
  914SOL    HW219885   1.593   0.452   7.414
  915SOL     OW19886   5.177   5.061   0.864
  915SOL    HW119887   5.163   4.993   0.799
  915SOL    HW219888   5.257   5.106   0.834
  916SOL     OW19889   5.256   2.470   6.992
  916SOL    HW119890   5.217   2.420   7.064
  916SOL    HW219891   5.248   2.562   7.020
  917SOL     OW19892   1.521   0.724   6.976
  917SOL    HW119893   1.479   0.641   6.953
  917SOL    HW219894   1.509   0.779   6.898
  918SOL     OW19895   5.407   4.323   7.361
  918SOL    HW119896   5.346   4.266   7.314
  918SOL    HW219897   5.485   4.269   7.376
  919SOL     OW19898   5.696   5.466   7.369
  919SOL    HW119899   5.660   5.404   7.433
  919SOL    HW219900   5.791   5.457   7.377
  920SOL     OW19901   3.414   0.220   7.228
  920SOL    HW119902   3.371   0.139   7.255
  920SOL    HW219903   3.345   0.286   7.231
  921SOL     OW19904   3.364   5.415   7.087
  921SOL    HW119905   3.422   5.489   7.069
  921SOL    HW219906   3.385   5.389   7.176
  922SOL     OW19907   5.496   1.587   7.775
  922SOL    HW119908   5.456   1.517   7.826
  922SOL    HW219909   5.589   1.567   7.777
  923SOL     OW19910   3.611   5.936   0.995
  923SOL    HW119911   3.592   5.929   0.901
  923SOL    HW219912   3.549   6.001   1.027
  924SOL     OW19913   4.873   5.344   1.149
  924SOL    HW119914   4.873   5.439   1.166
  924SOL    HW219915   4.965   5.319   1.157
  925SOL     OW19916   2.511   2.417   0.501
  925SOL    HW119917   2.465   2.369   0.569
  925SOL    HW219918   2.577   2.356   0.468
  926SOL     OW19919   5.442   6.333   2.236
  926SOL    HW119920   5.391   6.272   2.289
  926SOL    HW219921   5.471   6.400   2.297
  927SOL     OW19922   3.939   0.380   5.698
  927SOL    HW119923   3.849   0.405   5.719
  927SOL    HW219924   3.932   0.335   5.614
  928SOL     OW19925   1.151   2.782   1.516
  928SOL    HW119926   1.106   2.704   1.484
  928SOL    HW219927   1.238   2.751   1.541
  929SOL     OW19928   5.814   2.956   0.929
  929SOL    HW119929   5.879   2.892   0.901
  929SOL    HW219930   5.764   2.975   0.850
  930SOL     OW19931   4.694   2.356   7.808
  930SOL    HW119932   4.739   2.346   7.725
  930SOL    HW219933   4.676   2.267   7.837
  931SOL     OW19934   0.160   0.563   0.450
  931SOL    HW119935   0.136   0.610   0.370
  931SOL    HW219936   0.143   0.471   0.430
  932SOL     OW19937   5.855   5.717   1.006
  932SOL    HW119938   5.849   5.812   1.007
  932SOL    HW219939   5.824   5.690   1.092
  933SOL     OW19940   1.024   5.671   5.947
  933SOL    HW119941   1.077   5.595   5.925
  933SOL    HW219942   1.061   5.743   5.896
  934SOL     OW19943   1.319   1.833   0.738
  934SOL    HW119944   1.265   1.852   0.661
  934SOL    HW219945   1.256   1.808   0.805
  935SOL     OW19946   5.663   4.210   2.464
  935SOL    HW119947   5.658   4.305   2.460
  935SOL    HW219948   5.621   4.186   2.546
  936SOL     OW19949   1.409   2.992   7.447
  936SOL    HW119950   1.372   2.984   7.359
  936SOL    HW219951   1.342   2.954   7.505
  937SOL     OW19952   2.425   3.322   5.934
  937SOL    HW119953   2.504   3.293   5.889
  937SOL    HW219954   2.361   3.338   5.864
  938SOL     OW19955   3.169   5.348   0.814
  938SOL    HW119956   3.112   5.422   0.835
  938SOL    HW219957   3.118   5.271   0.838
  939SOL     OW19958   2.491   0.650   0.502
  939SOL    HW119959   2.575   0.609   0.483
  939SOL    HW219960   2.427   0.595   0.458
  940SOL     OW19961   1.010   3.171   7.031
  940SOL    HW119962   1.085   3.222   7.000
  940SOL    HW219963   1.048   3.102   7.085
  941SOL     OW19964   5.868   2.380   0.651
  941SOL    HW119965   5.799   2.333   0.698
  941SOL    HW219966   5.948   2.335   0.677
  942SOL     OW19967   3.948   5.488   7.032
  942SOL    HW119968   3.925   5.580   7.018
  942SOL    HW219969   3.943   5.476   7.127
  943SOL     OW19970   4.592   6.361   6.053
  943SOL    HW119971   4.548   6.309   5.986
  943SOL    HW219972   4.554   6.331   6.135
  944SOL     OW19973   3.067   1.043   1.663
  944SOL    HW119974   3.126   1.113   1.632
  944SOL    HW219975   3.120   0.964   1.657
  945SOL     OW19976   4.845   4.866   7.122
  945SOL    HW119977   4.919   4.922   7.147
  945SOL    HW219978   4.878   4.777   7.130
  946SOL     OW19979   4.692   6.139   1.688
  946SOL    HW119980   4.692   6.060   1.743
  946SOL    HW219981   4.772   6.185   1.712
  947SOL     OW19982   3.980   1.736   1.154
  947SOL    HW119983   3.927   1.806   1.114
  947SOL    HW219984   3.934   1.656   1.129
  948SOL     OW19985   5.684   1.749   0.532
  948SOL    HW119986   5.697   1.720   0.442
  948SOL    HW219987   5.677   1.844   0.526
  949SOL     OW19988   5.203   4.975   7.734
  949SOL    HW119989   5.158   4.990   7.817
  949SOL    HW219990   5.160   5.033   7.672
  950SOL     OW19991   2.198   4.197   7.410
  950SOL    HW119992   2.254   4.273   7.422
  950SOL    HW219993   2.113   4.223   7.445
  951SOL     OW19994   2.841   3.029   7.393
  951SOL    HW119995   2.869   3.092   7.459
  951SOL    HW219996   2.755   2.998   7.424
  952SOL     OW19997   5.574   4.266   7.022
  952SOL    HW119998   5.654   4.319   7.024
  952SOL    HW219999   5.584   4.205   7.095
  953SOL     OW20000   2.012   6.161   5.648
  953SOL    HW120001   2.028   6.095   5.581
  953SOL    HW220002   2.042   6.120   5.730
  954SOL     OW20003   6.169   1.883   6.245
  954SOL    HW120004   6.117   1.819   6.195
  954SOL    HW220005   6.259   1.870   6.216
  955SOL     OW20006   3.160   3.493   6.187
  955SOL    HW120007   3.146   3.457   6.275
  955SOL    HW220008   3.077   3.535   6.165
  956SOL     OW20009   5.833   4.698   6.699
  956SOL    HW120010   5.820   4.742   6.784
  956SOL    HW220011   5.805   4.764   6.635
  957SOL     OW20012   4.168   3.527   0.033
  957SOL    HW120013   4.121   3.451  -0.002
  957SOL    HW220014   4.233   3.548  -0.034
  958SOL     OW20015   4.679   2.578   0.266
  958SOL    HW120016   4.685   2.650   0.329
  958SOL    HW220017   4.731   2.608   0.191
  959SOL     OW20018   0.612   0.485   0.233
  959SOL    HW120019   0.562   0.457   0.156
  959SOL    HW220020   0.698   0.508   0.197
  960SOL     OW20021   1.407   0.007   7.686
  960SOL    HW120022   1.334   0.069   7.687
  960SOL    HW220023   1.392  -0.047   7.609
  961SOL     OW20024   3.633   2.276   7.840
  961SOL    HW120025   3.572   2.278   7.914
  961SOL    HW220026   3.717   2.303   7.877
  962SOL     OW20027   4.455   2.701   6.389
  962SOL    HW120028   4.373   2.724   6.345
  962SOL    HW220029   4.501   2.784   6.400
  963SOL     OW20030   2.179   4.711   7.139
  963SOL    HW120031   2.104   4.655   7.119
  963SOL    HW220032   2.140   4.789   7.180
  964SOL     OW20033   5.231   0.519   1.405
  964SOL    HW120034   5.233   0.600   1.457
  964SOL    HW220035   5.266   0.453   1.465
  965SOL     OW20036   5.279   1.457   1.734
  965SOL    HW120037   5.212   1.427   1.672
  965SOL    HW220038   5.231   1.471   1.816
  966SOL     OW20039   1.509   4.121   7.731
  966SOL    HW120040   1.523   4.215   7.743
  966SOL    HW220041   1.528   4.104   7.639
  967SOL     OW20042   3.462   2.048   7.721
  967SOL    HW120043   3.512   2.099   7.785
  967SOL    HW220044   3.425   1.976   7.773
  968SOL     OW20045   1.428   2.303   6.430
  968SOL    HW120046   1.392   2.252   6.357
  968SOL    HW220047   1.518   2.322   6.403
  969SOL     OW20048   3.082   5.460   7.696
  969SOL    HW120049   3.149   5.528   7.703
  969SOL    HW220050   3.132   5.379   7.684
  970SOL     OW20051   3.863   0.879   7.189
  970SOL    HW120052   3.846   0.925   7.106
  970SOL    HW220053   3.948   0.912   7.218
  971SOL     OW20054   4.283   4.288   0.753
  971SOL    HW120055   4.242   4.241   0.825
  971SOL    HW220056   4.376   4.290   0.775
  972SOL     OW20057   5.418   0.708   6.821
  972SOL    HW120058   5.447   0.774   6.758
  972SOL    HW220059   5.322   0.718   6.823
  973SOL     OW20060   1.143   0.381   5.893
  973SOL    HW120061   1.205   0.359   5.823
  973SOL    HW220062   1.079   0.310   5.892
  974SOL     OW20063   5.042   1.203   6.347
  974SOL    HW120064   5.081   1.287   6.373
  974SOL    HW220065   4.951   1.224   6.326
  975SOL     OW20066   4.936   0.555   1.347
  975SOL    HW120067   5.026   0.583   1.333
  975SOL    HW220068   4.942   0.482   1.409
  976SOL     OW20069   5.195   4.342   1.152
  976SOL    HW120070   5.274   4.349   1.099
  976SOL    HW220071   5.162   4.254   1.135
  977SOL     OW20072   0.152   3.663   7.115
  977SOL    HW120073   0.157   3.596   7.047
  977SOL    HW220074   0.172   3.617   7.196
  978SOL     OW20075   1.156   4.794   1.421
  978SOL    HW120076   1.104   4.729   1.468
  978SOL    HW220077   1.156   4.764   1.330
  979SOL     OW20078   5.166   2.761   6.758
  979SOL    HW120079   5.075   2.732   6.766
  979SOL    HW220080   5.203   2.707   6.688
  980SOL     OW20081   0.475   3.968   7.622
  980SOL    HW120082   0.423   3.974   7.542
  980SOL    HW220083   0.419   3.921   7.683
  981SOL     OW20084   2.611   5.386   6.648
  981SOL    HW120085   2.662   5.465   6.632
  981SOL    HW220086   2.520   5.415   6.645
  982SOL     OW20087   4.852   3.168   7.597
  982SOL    HW120088   4.784   3.102   7.607
  982SOL    HW220089   4.862   3.178   7.502
  983SOL     OW20090   3.026   4.665   1.460
  983SOL    HW120091   2.961   4.664   1.531
  983SOL    HW220092   3.070   4.580   1.467
  984SOL     OW20093   0.283   3.878   6.264
  984SOL    HW120094   0.279   3.900   6.172
  984SOL    HW220095   0.258   3.958   6.310
  985SOL     OW20096   2.433   5.747   7.620
  985SOL    HW120097   2.503   5.748   7.554
  985SOL    HW220098   2.435   5.834   7.659
  986SOL     OW20099   2.946   2.223   1.590
  986SOL    HW120100   3.016   2.273   1.550
  986SOL    HW220101   2.982   2.135   1.602
  987SOL     OW20102   1.198   3.209   0.707
  987SOL    HW120103   1.229   3.134   0.757
  987SOL    HW220104   1.274   3.238   0.657
  988SOL     OW20105   4.024   3.684   0.255
  988SOL    HW120106   4.078   3.627   0.201
  988SOL    HW220107   4.026   3.769   0.210
  989SOL     OW20108   3.999   4.322   7.717
  989SOL    HW120109   3.938   4.350   7.785
  989SOL    HW220110   3.947   4.269   7.657
  990SOL     OW20111   1.423   4.516   6.259
  990SOL    HW120112   1.394   4.471   6.180
  990SOL    HW220113   1.366   4.592   6.266
  991SOL     OW20114   4.600   4.429   1.885
  991SOL    HW120115   4.688   4.442   1.851
  991SOL    HW220116   4.585   4.335   1.877
  992SOL     OW20117   1.606   5.076   7.397
  992SOL    HW120118   1.652   4.996   7.372
  992SOL    HW220119   1.645   5.101   7.481
  993SOL     OW20120   1.687   3.582   6.095
  993SOL    HW120121   1.757   3.516   6.102
  993SOL    HW220122   1.606   3.531   6.099
  994SOL     OW20123   1.747   3.601   0.584
  994SOL    HW120124   1.788   3.645   0.659
  994SOL    HW220125   1.663   3.644   0.575
  995SOL     OW20126   4.100   4.089   7.445
  995SOL    HW120127   4.103   4.129   7.358
  995SOL    HW220128   4.007   4.084   7.466
  996SOL     OW20129   2.734   5.147   1.702
  996SOL    HW120130   2.683   5.226   1.715
  996SOL    HW220131   2.770   5.127   1.788
  997SOL     OW20132   1.658   3.028   0.544
  997SOL    HW120133   1.729   3.049   0.483
  997SOL    HW220134   1.672   2.936   0.566
  998SOL     OW20135   4.946   4.451   0.809
  998SOL    HW120136   4.853   4.472   0.801
  998SOL    HW220137   4.985   4.529   0.847
  999SOL     OW20138   3.343   4.153   6.853
  999SOL    HW120139   3.370   4.086   6.790
  999SOL    HW220140   3.254   4.176   6.826
 1000SOL     OW20141   4.058   3.156   1.454
 1000SOL    HW120142   4.088   3.144   1.544
 1000SOL    HW220143   4.001   3.232   1.457
 1001SOL     OW20144   5.650   2.737   6.113
 1001SOL    HW120145   5.577   2.753   6.053
 1001SOL    HW220146   5.680   2.824   6.138
 1002SOL     OW20147   5.689   4.369   7.783
 1002SOL    HW120148   5.654   4.316   7.855
 1002SOL    HW220149   5.702   4.456   7.822
 1003SOL     OW20150   2.580   0.258   0.030
 1003SOL    HW120151   2.524   0.245   0.106
 1003SOL    HW220152   2.528   0.227  -0.044
 1004SOL     OW20153   4.935   1.624   6.429
 1004SOL    HW120154   4.849   1.583   6.433
 1004SOL    HW220155   4.972   1.595   6.345
 1005SOL     OW20156   1.380   2.410   6.709
 1005SOL    HW120157   1.292   2.448   6.717
 1005SOL    HW220158   1.381   2.371   6.622
 1006SOL     OW20159   6.062   1.718   0.994
 1006SOL    HW120160   6.025   1.794   1.040
 1006SOL    HW220161   6.017   1.716   0.910
 1007SOL     OW20162   5.296   2.019   5.848
 1007SOL    HW120163   5.283   2.078   5.922
 1007SOL    HW220164   5.219   1.961   5.849
 1008SOL     OW20165   4.111   1.061   1.094
 1008SOL    HW120166   4.130   1.027   1.007
 1008SOL    HW220167   4.016   1.057   1.102
 1009SOL     OW20168   0.660   0.353   6.245
 1009SOL    HW120169   0.606   0.315   6.175
 1009SOL    HW220170   0.750   0.344   6.213
 1010SOL     OW20171   5.770   1.998   0.373
 1010SOL    HW120172   5.691   2.026   0.328
 1010SOL    HW220173   5.812   2.079   0.402
 1011SOL     OW20174   0.926   3.152   6.111
 1011SOL    HW120175   0.842   3.160   6.066
 1011SOL    HW220176   0.951   3.243   6.131
 1012SOL     OW20177   1.933   2.081   5.311
 1012SOL    HW120178   1.989   2.157   5.299
 1012SOL    HW220179   1.993   2.010   5.333
 1013SOL     OW20180   4.068   4.979   0.237
 1013SOL    HW120181   3.995   5.006   0.182
 1013SOL    HW220182   4.028   4.952   0.320
 1014SOL     OW20183   2.683   0.955   7.077
 1014SOL    HW120184   2.601   0.928   7.117
 1014SOL    HW220185   2.683   1.051   7.084
 1015SOL     OW20186   1.302   0.402   0.913
 1015SOL    HW120187   1.363   0.470   0.941
 1015SOL    HW220188   1.272   0.429   0.827
 1016SOL     OW20189   4.325   0.435   7.241
 1016SOL    HW120190   4.345   0.513   7.189
 1016SOL    HW220191   4.229   0.430   7.240
 1017SOL     OW20192   4.860   2.532   6.963
 1017SOL    HW120193   4.772   2.531   7.001
 1017SOL    HW220194   4.882   2.625   6.958
 1018SOL     OW20195   2.249   4.058   5.726
 1018SOL    HW120196   2.251   4.138   5.780
 1018SOL    HW220197   2.231   4.089   5.638
 1019SOL     OW20198   1.432   6.095   0.733
 1019SOL    HW120199   1.493   6.026   0.756
 1019SOL    HW220200   1.445   6.108   0.639
 1020SOL     OW20201   1.122   5.495   6.589
 1020SOL    HW120202   1.094   5.405   6.569
 1020SOL    HW220203   1.107   5.504   6.683
 1021SOL     OW20204   2.887   2.894   7.132
 1021SOL    HW120205   2.939   2.841   7.193
 1021SOL    HW220206   2.856   2.967   7.185
 1022SOL     OW20207   2.942   1.744   7.461
 1022SOL    HW120208   2.914   1.780   7.377
 1022SOL    HW220209   2.933   1.817   7.523
 1023SOL     OW20210   2.835   1.888   1.481
 1023SOL    HW120211   2.746   1.923   1.484
 1023SOL    HW220212   2.854   1.880   1.388
 1024SOL     OW20213   2.219   0.031   6.756
 1024SOL    HW120214   2.173   0.000   6.834
 1024SOL    HW220215   2.212   0.126   6.760
 1025SOL     OW20216   4.593   5.944   5.592
 1025SOL    HW120217   4.503   5.974   5.588
 1025SOL    HW220218   4.603   5.912   5.682
 1026SOL     OW20219   6.311   1.511   6.279
 1026SOL    HW120220   6.386   1.452   6.276
 1026SOL    HW220221   6.343   1.589   6.325
 1027SOL     OW20222   5.087   0.843   1.694
 1027SOL    HW120223   5.124   0.794   1.767
 1027SOL    HW220224   5.067   0.929   1.730
 1028SOL     OW20225   0.010   1.343   7.547
 1028SOL    HW120226   0.007   1.407   7.477
 1028SOL    HW220227   0.094   1.358   7.591
 1029SOL     OW20228   2.465   1.968   0.007
 1029SOL    HW120229   2.503   1.880   0.014
 1029SOL    HW220230   2.410   1.964  -0.072
 1030SOL     OW20231   2.556   5.208   7.510
 1030SOL    HW120232   2.638   5.203   7.461
 1030SOL    HW220233   2.561   5.292   7.556
 1031SOL     OW20234   0.007   1.868   6.656
 1031SOL    HW120235   0.072   1.917   6.605
 1031SOL    HW220236  -0.072   1.922   6.652
 1032SOL     OW20237   0.726   1.070   6.831
 1032SOL    HW120238   0.632   1.088   6.826
 1032SOL    HW220239   0.745   1.070   6.925
 1033SOL     OW20240   4.731   0.981   1.403
 1033SOL    HW120241   4.753   1.033   1.481
 1033SOL    HW220242   4.796   1.007   1.338
 1034SOL     OW20243   3.674   2.382   6.417
 1034SOL    HW120244   3.589   2.361   6.456
 1034SOL    HW220245   3.695   2.307   6.363
 1035SOL     OW20246   5.840   1.688   7.292
 1035SOL    HW120247   5.910   1.624   7.283
 1035SOL    HW220248   5.766   1.638   7.327
 1036SOL     OW20249   2.476   3.526   0.290
 1036SOL    HW120250   2.389   3.516   0.253
 1036SOL    HW220251   2.476   3.467   0.365
 1037SOL     OW20252   6.344   3.907   1.523
 1037SOL    HW120253   6.306   3.927   1.437
 1037SOL    HW220254   6.295   3.831   1.553
 1038SOL     OW20255   1.697   3.781   6.759
 1038SOL    HW120256   1.774   3.768   6.814
 1038SOL    HW220257   1.717   3.859   6.707
 1039SOL     OW20258   6.106   0.483   2.200
 1039SOL    HW120259   6.077   0.399   2.163
 1039SOL    HW220260   6.111   0.542   2.125
 1040SOL     OW20261   2.077   3.373   7.288
 1040SOL    HW120262   2.095   3.445   7.348
 1040SOL    HW220263   2.068   3.297   7.345
 1041SOL     OW20264   3.200   1.337   0.540
 1041SOL    HW120265   3.266   1.315   0.605
 1041SOL    HW220266   3.117   1.311   0.580
 1042SOL     OW20267   5.281   0.730   1.834
 1042SOL    HW120268   5.238   0.670   1.895
 1042SOL    HW220269   5.289   0.812   1.882
 1043SOL     OW20270   2.517   2.562   7.143
 1043SOL    HW120271   2.528   2.476   7.102
 1043SOL    HW220272   2.589   2.615   7.107
 1044SOL     OW20273   0.920   1.628   0.640
 1044SOL    HW120274   0.843   1.635   0.696
 1044SOL    HW220275   0.935   1.717   0.608
 1045SOL     OW20276   5.934   0.852   1.767
 1045SOL    HW120277   5.847   0.869   1.730
 1045SOL    HW220278   5.940   0.911   1.842
 1046SOL     OW20279   3.433   0.280   7.732
 1046SOL    HW120280   3.506   0.252   7.678
 1046SOL    HW220281   3.432   0.375   7.724
 1047SOL     OW20282   1.685   2.733   7.799
 1047SOL    HW120283   1.662   2.789   7.726
 1047SOL    HW220284   1.739   2.788   7.856
 1048SOL     OW20285   6.086   5.442   5.564
 1048SOL    HW120286   6.008   5.404   5.603
 1048SOL    HW220287   6.124   5.370   5.512
 1049SOL     OW20288   5.551   4.839   6.729
 1049SOL    HW120289   5.629   4.889   6.703
 1049SOL    HW220290   5.479   4.902   6.725
 1050SOL     OW20291   4.572   1.921   6.687
 1050SOL    HW120292   4.557   1.935   6.594
 1050SOL    HW220293   4.629   1.844   6.691
 1051SOL     OW20294   4.890   4.117   0.907
 1051SOL    HW120295   4.924   4.052   0.968
 1051SOL    HW220296   4.882   4.197   0.960
 1052SOL     OW20297   4.431   2.549   0.781
 1052SOL    HW120298   4.422   2.620   0.844
 1052SOL    HW220299   4.396   2.472   0.825
 1053SOL     OW20300   1.133   2.552   6.670
 1053SOL    HW120301   1.109   2.517   6.584
 1053SOL    HW220302   1.156   2.643   6.654
 1054SOL     OW20303   3.625   4.198   0.879
 1054SOL    HW120304   3.563   4.155   0.938
 1054SOL    HW220305   3.620   4.148   0.798
 1055SOL     OW20306   3.204   4.444   0.841
 1055SOL    HW120307   3.198   4.385   0.766
 1055SOL    HW220308   3.295   4.474   0.840
 1056SOL     OW20309   5.139   4.223   7.747
 1056SOL    HW120310   5.141   4.128   7.756
 1056SOL    HW220311   5.228   4.247   7.722
 1057SOL     OW20312   5.702   5.475   6.511
 1057SOL    HW120313   5.730   5.481   6.603
 1057SOL    HW220314   5.765   5.529   6.463
 1058SOL     OW20315   3.099   5.003   6.948
 1058SOL    HW120316   3.004   4.988   6.952
 1058SOL    HW220317   3.112   5.086   6.993
 1059SOL     OW20318   2.340   6.010   6.205
 1059SOL    HW120319   2.399   6.084   6.214
 1059SOL    HW220320   2.343   5.988   6.111
 1060SOL     OW20321   2.718   5.659   6.667
 1060SOL    HW120322   2.707   5.717   6.592
 1060SOL    HW220323   2.813   5.653   6.679
 1061SOL     OW20324   5.814   5.069   1.871
 1061SOL    HW120325   5.879   5.108   1.812
 1061SOL    HW220326   5.775   4.998   1.821
 1062SOL     OW20327   3.384   4.752   6.107
 1062SOL    HW120328   3.433   4.774   6.028
 1062SOL    HW220329   3.316   4.818   6.113
 1063SOL     OW20330   0.875   5.920   7.408
 1063SOL    HW120331   0.867   5.844   7.466
 1063SOL    HW220332   0.847   5.994   7.462
 1064SOL     OW20333   4.294   5.737   6.466
 1064SOL    HW120334   4.347   5.662   6.490
 1064SOL    HW220335   4.299   5.741   6.370
 1065SOL     OW20336   1.088   3.096   1.423
 1065SOL    HW120337   1.029   3.066   1.492
 1065SOL    HW220338   1.083   3.028   1.356
 1066SOL     OW20339   1.785   5.982   1.658
 1066SOL    HW120340   1.841   6.038   1.711
 1066SOL    HW220341   1.816   5.994   1.568
 1067SOL     OW20342   2.041   2.311   6.548
 1067SOL    HW120343   1.948   2.326   6.529
 1067SOL    HW220344   2.080   2.398   6.549
 1068SOL     OW20345   5.597   3.028   1.602
 1068SOL    HW120346   5.523   2.999   1.549
 1068SOL    HW220347   5.557   3.065   1.681
 1069SOL     OW20348   6.387   2.119   2.314
 1069SOL    HW120349   6.315   2.152   2.367
 1069SOL    HW220350   6.454   2.188   2.319
 1070SOL     OW20351   3.786   4.365   7.845
 1070SOL    HW120352   3.732   4.440   7.872
 1070SOL    HW220353   3.776   4.302   7.916
 1071SOL     OW20354   0.130   5.928   5.984
 1071SOL    HW120355   0.206   5.918   6.042
 1071SOL    HW220356   0.138   5.856   5.921
 1072SOL     OW20357   0.555   0.641   1.197
 1072SOL    HW120358   0.480   0.610   1.248
 1072SOL    HW220359   0.563   0.733   1.219
 1073SOL     OW20360   1.079   3.776   1.186
 1073SOL    HW120361   1.052   3.709   1.248
 1073SOL    HW220362   1.126   3.728   1.118
 1074SOL     OW20363   2.613   3.228   0.253
 1074SOL    HW120364   2.613   3.283   0.175
 1074SOL    HW220365   2.705   3.210   0.269
 1075SOL     OW20366   1.650   1.862   2.088
 1075SOL    HW120367   1.697   1.840   2.169
 1075SOL    HW220368   1.719   1.881   2.025
 1076SOL     OW20369   1.136   5.979   6.212
 1076SOL    HW120370   1.142   5.886   6.189
 1076SOL    HW220371   1.042   5.998   6.210
 1077SOL     OW20372   3.369   5.227   0.491
 1077SOL    HW120373   3.452   5.268   0.467
 1077SOL    HW220374   3.310   5.301   0.509
 1078SOL     OW20375   1.561   2.477   1.481
 1078SOL    HW120376   1.604   2.480   1.567
 1078SOL    HW220377   1.615   2.532   1.425
 1079SOL     OW20378   3.773   3.194   0.423
 1079SOL    HW120379   3.819   3.118   0.388
 1079SOL    HW220380   3.842   3.257   0.442
 1080SOL     OW20381   5.943   5.971   1.031
 1080SOL    HW120382   6.017   5.934   1.080
 1080SOL    HW220383   5.882   6.001   1.098
 1081SOL     OW20384   1.974   5.004   6.073
 1081SOL    HW120385   1.908   5.067   6.044
 1081SOL    HW220386   2.038   5.003   6.002
 1082SOL     OW20387   3.488   0.940   6.213
 1082SOL    HW120388   3.465   1.033   6.211
 1082SOL    HW220389   3.464   0.912   6.302
 1083SOL     OW20390   2.575   0.813   6.462
 1083SOL    HW120391   2.523   0.892   6.449
 1083SOL    HW220392   2.513   0.750   6.500
 1084SOL     OW20393   6.164   4.088   7.806
 1084SOL    HW120394   6.104   4.090   7.731
 1084SOL    HW220395   6.201   3.999   7.805
 1085SOL     OW20396   2.607   0.087   2.071
 1085SOL    HW120397   2.635   0.176   2.050
 1085SOL    HW220398   2.678   0.051   2.124
 1086SOL     OW20399   4.679   1.736   0.657
 1086SOL    HW120400   4.631   1.664   0.697
 1086SOL    HW220401   4.612   1.791   0.616
 1087SOL     OW20402   5.598   5.356   7.834
 1087SOL    HW120403   5.688   5.360   7.867
 1087SOL    HW220404   5.555   5.433   7.872
 1088SOL     OW20405   4.717   2.168   0.983
 1088SOL    HW120406   4.793   2.218   1.014
 1088SOL    HW220407   4.642   2.223   1.005
 1089SOL     OW20408   2.319   1.316   0.460
 1089SOL    HW120409   2.361   1.392   0.498
 1089SOL    HW220410   2.225   1.331   0.473
 1090SOL     OW20411   1.405   2.360   1.102
 1090SOL    HW120412   1.493   2.363   1.140
 1090SOL    HW220413   1.395   2.271   1.070
 1091SOL     OW20414   5.025   5.236   1.375
 1091SOL    HW120415   5.005   5.324   1.407
 1091SOL    HW220416   5.071   5.251   1.292
 1092SOL     OW20417   1.678   6.348   7.648
 1092SOL    HW120418   1.589   6.379   7.664
 1092SOL    HW220419   1.668   6.280   7.582
 1093SOL     OW20420   1.617   2.544   6.346
 1093SOL    HW120421   1.704   2.578   6.367
 1093SOL    HW220422   1.558   2.617   6.366
 1094SOL     OW20423   0.494   4.186   7.172
 1094SOL    HW120424   0.460   4.231   7.249
 1094SOL    HW220425   0.558   4.247   7.135
 1095SOL     OW20426   3.700   1.314   0.350
 1095SOL    HW120427   3.753   1.234   0.356
 1095SOL    HW220428   3.752   1.372   0.294
 1096SOL     OW20429   5.996   0.443   1.758
 1096SOL    HW120430   6.086   0.463   1.784
 1096SOL    HW220431   5.962   0.389   1.829
 1097SOL     OW20432   1.056   4.673   0.415
 1097SOL    HW120433   1.096   4.721   0.487
 1097SOL    HW220434   0.971   4.645   0.449
 1098SOL     OW20435   5.538   2.129   0.240
 1098SOL    HW120436   5.570   2.112   0.151
 1098SOL    HW220437   5.456   2.176   0.228
 1099SOL     OW20438   6.271   1.680   0.277
 1099SOL    HW120439   6.216   1.758   0.265
 1099SOL    HW220440   6.360   1.713   0.271
 1100SOL     OW20441   5.574   3.495   0.398
 1100SOL    HW120442   5.580   3.415   0.346
 1100SOL    HW220443   5.498   3.541   0.361
 1101SOL     OW20444   2.782   6.346   7.251
 1101SOL    HW120445   2.720   6.384   7.312
 1101SOL    HW220446   2.732   6.279   7.204
 1102SOL     OW20447   0.420   0.560   6.268
 1102SOL    HW120448   0.414   0.483   6.211
 1102SOL    HW220449   0.337   0.605   6.256
 1103SOL     OW20450   4.048   4.193   2.009
 1103SOL    HW120451   4.120   4.132   1.993
 1103SOL    HW220452   4.076   4.275   1.969
 1104SOL     OW20453   5.324   6.224   6.486
 1104SOL    HW120454   5.355   6.276   6.412
 1104SOL    HW220455   5.355   6.272   6.563
 1105SOL     OW20456   3.468   1.189   0.396
 1105SOL    HW120457   3.462   1.152   0.308
 1105SOL    HW220458   3.540   1.252   0.391
 1106SOL     OW20459   0.357   5.369   1.802
 1106SOL    HW120460   0.292   5.392   1.736
 1106SOL    HW220461   0.328   5.285   1.836
 1107SOL     OW20462   6.322   4.637   0.139
 1107SOL    HW120463   6.249   4.575   0.143
 1107SOL    HW220464   6.305   4.688   0.060
 1108SOL     OW20465   0.046   2.698   5.034
 1108SOL    HW120466   0.114   2.679   5.098
 1108SOL    HW220467   0.083   2.765   4.978
 1109SOL     OW20468   3.585   0.490   6.466
 1109SOL    HW120469   3.602   0.397   6.480
 1109SOL    HW220470   3.663   0.534   6.498
 1110SOL     OW20471   0.043   4.222   1.874
 1110SOL    HW120472   0.046   4.318   1.881
 1110SOL    HW220473  -0.002   4.194   1.954
 1111SOL     OW20474   2.349   0.531   7.320
 1111SOL    HW120475   2.280   0.549   7.384
 1111SOL    HW220476   2.301   0.510   7.239
 1112SOL     OW20477   6.389   2.251   6.084
 1112SOL    HW120478   6.294   2.246   6.070
 1112SOL    HW220479   6.401   2.330   6.137
 1113SOL     OW20480   0.709   5.297   0.456
 1113SOL    HW120481   0.624   5.314   0.497
 1113SOL    HW220482   0.688   5.242   0.380
 1114SOL     OW20483   3.204   2.183   6.245
 1114SOL    HW120484   3.189   2.239   6.169
 1114SOL    HW220485   3.260   2.113   6.213
 1115SOL     OW20486   4.699   3.953   5.352
 1115SOL    HW120487   4.758   4.020   5.317
 1115SOL    HW220488   4.643   3.999   5.414
 1116SOL     OW20489   3.019   6.264   0.365
 1116SOL    HW120490   2.957   6.297   0.429
 1116SOL    HW220491   2.967   6.209   0.306
 1117SOL     OW20492   5.451   1.414   6.902
 1117SOL    HW120493   5.382   1.451   6.957
 1117SOL    HW220494   5.519   1.386   6.964
 1118SOL     OW20495   4.199   5.952   7.798
 1118SOL    HW120496   4.170   5.862   7.816
 1118SOL    HW220497   4.129   5.988   7.742
 1119SOL     OW20498   3.194   5.789   0.856
 1119SOL    HW120499   3.112   5.751   0.824
 1119SOL    HW220500   3.196   5.877   0.820
 1120SOL     OW20501   2.751   2.355   1.714
 1120SOL    HW120502   2.714   2.279   1.759
 1120SOL    HW220503   2.838   2.327   1.687
 1121SOL     OW20504   3.767   0.799   0.632
 1121SOL    HW120505   3.692   0.740   0.637
 1121SOL    HW220506   3.824   0.773   0.705
 1122SOL     OW20507   4.874   6.042   0.387
 1122SOL    HW120508   4.957   6.087   0.371
 1122SOL    HW220509   4.829   6.097   0.452
 1123SOL     OW20510   0.294   2.818   6.550
 1123SOL    HW120511   0.229   2.871   6.505
 1123SOL    HW220512   0.377   2.841   6.508
 1124SOL     OW20513   0.246   4.157   6.952
 1124SOL    HW120514   0.203   4.082   6.994
 1124SOL    HW220515   0.318   4.180   7.010
 1125SOL     OW20516   4.902   2.985   0.033
 1125SOL    HW120517   4.908   3.065   0.084
 1125SOL    HW220518   4.952   2.920   0.083
 1126SOL     OW20519   2.098   1.811   7.655
 1126SOL    HW120520   2.045   1.747   7.609
 1126SOL    HW220521   2.108   1.774   7.743
 1127SOL     OW20522   4.434   5.488   7.083
 1127SOL    HW120523   4.396   5.458   7.000
 1127SOL    HW220524   4.422   5.583   7.082
 1128SOL     OW20525   3.471   0.950   1.522
 1128SOL    HW120526   3.540   0.884   1.527
 1128SOL    HW220527   3.390   0.901   1.540
 1129SOL     OW20528   4.641   2.315   7.318
 1129SOL    HW120529   4.698   2.245   7.349
 1129SOL    HW220530   4.615   2.362   7.397
 1130SOL     OW20531   0.165   5.465   6.700
 1130SOL    HW120532   0.234   5.447   6.764
 1130SOL    HW220533   0.146   5.379   6.661
 1131SOL     OW20534   4.428   5.413   6.262
 1131SOL    HW120535   4.484   5.345   6.224
 1131SOL    HW220536   4.438   5.488   6.204
 1132SOL     OW20537   2.498   5.588   2.211
 1132SOL    HW120538   2.487   5.645   2.288
 1132SOL    HW220539   2.507   5.500   2.247
 1133SOL     OW20540   0.517   3.591   6.763
 1133SOL    HW120541   0.528   3.580   6.857
 1133SOL    HW220542   0.551   3.510   6.725
 1134SOL     OW20543   5.520   0.645  -0.003
 1134SOL    HW120544   5.532   0.577   0.063
 1134SOL    HW220545   5.429   0.670   0.004
 1135SOL     OW20546   4.989   3.833   6.451
 1135SOL    HW120547   4.976   3.882   6.370
 1135SOL    HW220548   5.084   3.832   6.463
 1136SOL     OW20549   0.551   5.936   1.204
 1136SOL    HW120550   0.555   5.859   1.148
 1136SOL    HW220551   0.497   5.910   1.278
 1137SOL     OW20552   0.421   0.277   6.488
 1137SOL    HW120553   0.457   0.365   6.480
 1137SOL    HW220554   0.344   0.287   6.544
 1138SOL     OW20555   1.054   4.718   7.316
 1138SOL    HW120556   0.993   4.650   7.346
 1138SOL    HW220557   1.069   4.698   7.224
 1139SOL     OW20558   1.664   4.532   1.086
 1139SOL    HW120559   1.698   4.513   1.174
 1139SOL    HW220560   1.612   4.612   1.098
 1140SOL     OW20561   0.146   6.369   0.214
 1140SOL    HW120562   0.184   6.451   0.185
 1140SOL    HW220563   0.112   6.387   0.301
 1141SOL     OW20564   0.910   6.338   0.611
 1141SOL    HW120565   0.996   6.317   0.575
 1141SOL    HW220566   0.928   6.397   0.684
 1142SOL     OW20567   2.420   3.581   7.517
 1142SOL    HW120568   2.376   3.610   7.437
 1142SOL    HW220569   2.430   3.661   7.569
 1143SOL     OW20570   3.743   0.391   0.455
 1143SOL    HW120571   3.737   0.388   0.550
 1143SOL    HW220572   3.662   0.432   0.427
 1144SOL     OW20573   2.254   1.801   6.628
 1144SOL    HW120574   2.322   1.740   6.655
 1144SOL    HW220575   2.265   1.809   6.533
 1145SOL     OW20576   2.917   1.153   5.644
 1145SOL    HW120577   2.828   1.132   5.673
 1145SOL    HW220578   2.969   1.077   5.671
 1146SOL     OW20579   0.862   6.015   6.109
 1146SOL    HW120580   0.916   6.034   6.032
 1146SOL    HW220581   0.836   5.924   6.099
 1147SOL     OW20582   5.237   5.127   5.832
 1147SOL    HW120583   5.182   5.069   5.779
 1147SOL    HW220584   5.208   5.215   5.810
 1148SOL     OW20585   2.255   4.534   0.108
 1148SOL    HW120586   2.255   4.504   0.199
 1148SOL    HW220587   2.342   4.571   0.095
 1149SOL     OW20588   4.369   4.459   6.170
 1149SOL    HW120589   4.361   4.542   6.124
 1149SOL    HW220590   4.316   4.470   6.249
 1150SOL     OW20591   5.950   5.703   6.299
 1150SOL    HW120592   5.981   5.761   6.229
 1150SOL    HW220593   5.970   5.750   6.380
 1151SOL     OW20594   0.579   4.485   0.568
 1151SOL    HW120595   0.485   4.487   0.583
 1151SOL    HW220596   0.609   4.405   0.612
 1152SOL     OW20597   6.212   6.187   0.884
 1152SOL    HW120598   6.189   6.151   0.798
 1152SOL    HW220599   6.266   6.120   0.924
 1153SOL     OW20600   0.262   0.712   6.855
 1153SOL    HW120601   0.256   0.745   6.765
 1153SOL    HW220602   0.274   0.618   6.846
 1154SOL     OW20603   0.446   5.417   6.151
 1154SOL    HW120604   0.460   5.329   6.185
 1154SOL    HW220605   0.430   5.404   6.057
 1155SOL     OW20606   2.052   2.951   7.526
 1155SOL    HW120607   2.110   2.989   7.460
 1155SOL    HW220608   2.077   2.858   7.529
 1156SOL     OW20609   3.022   4.586   0.580
 1156SOL    HW120610   2.968   4.511   0.555
 1156SOL    HW220611   3.105   4.571   0.534
 1157SOL     OW20612   2.471   4.456   6.129
 1157SOL    HW120613   2.397   4.475   6.071
 1157SOL    HW220614   2.521   4.389   6.083
 1158SOL     OW20615   1.013   1.841   6.757
 1158SOL    HW120616   1.103   1.864   6.779
 1158SOL    HW220617   1.018   1.749   6.732
 1159SOL     OW20618   5.724   5.438   7.094
 1159SOL    HW120619   5.729   5.524   7.053
 1159SOL    HW220620   5.718   5.456   7.187
 1160SOL     OW20621   3.073   6.116   0.070
 1160SOL    HW120622   3.141   6.180   0.089
 1160SOL    HW220623   3.120   6.035   0.053
 1161SOL     OW20624   0.801   6.033   0.088
 1161SOL    HW120625   0.789   6.038   0.182
 1161SOL    HW220626   0.894   6.054   0.074
 1162SOL     OW20627   3.818   1.565   1.496
 1162SOL    HW120628   3.837   1.482   1.539
 1162SOL    HW220629   3.723   1.566   1.486
 1163SOL     OW20630   3.296   0.564   0.086
 1163SOL    HW120631   3.349   0.573   0.007
 1163SOL    HW220632   3.206   0.561   0.054
 1164SOL     OW20633   6.183   3.899   0.472
 1164SOL    HW120634   6.112   3.934   0.526
 1164SOL    HW220635   6.140   3.870   0.392
 1165SOL     OW20636   2.884   1.936   7.007
 1165SOL    HW120637   2.882   2.002   6.937
 1165SOL    HW220638   2.802   1.887   6.996
 1166SOL     OW20639   2.978   5.692   6.626
 1166SOL    HW120640   2.952   5.750   6.554
 1166SOL    HW220641   3.058   5.731   6.660
 1167SOL     OW20642   6.102   1.666   7.006
 1167SOL    HW120643   6.023   1.715   7.029
 1167SOL    HW220644   6.073   1.575   6.999
 1168SOL     OW20645   3.262   4.484   7.811
 1168SOL    HW120646   3.191   4.430   7.846
 1168SOL    HW220647   3.259   4.470   7.717
 1169SOL     OW20648   4.515   1.320   1.559
 1169SOL    HW120649   4.541   1.228   1.562
 1169SOL    HW220650   4.482   1.338   1.647
 1170SOL     OW20651   2.490   3.076   6.775
 1170SOL    HW120652   2.466   3.037   6.690
 1170SOL    HW220653   2.414   3.059   6.831
 1171SOL     OW20654   2.530   0.080   6.176
 1171SOL    HW120655   2.599   0.144   6.194
 1171SOL    HW220656   2.481   0.117   6.102
 1172SOL     OW20657   1.191   1.485   0.025
 1172SOL    HW120658   1.234   1.555  -0.024
 1172SOL    HW220659   1.107   1.521   0.051
 1173SOL     OW20660   0.688   6.171   0.600
 1173SOL    HW120661   0.624   6.230   0.560
 1173SOL    HW220662   0.766   6.225   0.611
 1174SOL     OW20663   5.467   3.408   7.578
 1174SOL    HW120664   5.532   3.369   7.520
 1174SOL    HW220665   5.394   3.345   7.578
 1175SOL     OW20666   4.738   1.329   1.876
 1175SOL    HW120667   4.828   1.297   1.873
 1175SOL    HW220668   4.703   1.294   1.958
 1176SOL     OW20669   5.860   4.247   6.054
 1176SOL    HW120670   5.795   4.245   5.983
 1176SOL    HW220671   5.819   4.200   6.126
 1177SOL     OW20672   2.439   3.322   7.364
 1177SOL    HW120673   2.441   3.337   7.459
 1177SOL    HW220674   2.448   3.227   7.355
 1178SOL     OW20675   3.564   3.462   6.030
 1178SOL    HW120676   3.507   3.431   6.099
 1178SOL    HW220677   3.650   3.469   6.071
 1179SOL     OW20678   1.463   3.128   2.559
 1179SOL    HW120679   1.512   3.198   2.602
 1179SOL    HW220680   1.417   3.172   2.487
 1180SOL     OW20681   0.346   4.492   6.958
 1180SOL    HW120682   0.322   4.517   7.047
 1180SOL    HW220683   0.308   4.405   6.946
 1181SOL     OW20684   5.987   3.966   0.642
 1181SOL    HW120685   5.948   3.928   0.721
 1181SOL    HW220686   6.038   4.040   0.673
 1182SOL     OW20687   3.279   3.353   7.645
 1182SOL    HW120688   3.242   3.438   7.622
 1182SOL    HW220689   3.295   3.310   7.561
 1183SOL     OW20690   4.008   2.717   7.005
 1183SOL    HW120691   3.970   2.738   7.091
 1183SOL    HW220692   3.939   2.738   6.942
 1184SOL     OW20693   1.656   4.372   0.875
 1184SOL    HW120694   1.662   4.433   0.949
 1184SOL    HW220695   1.739   4.383   0.829
 1185SOL     OW20696   4.167   6.335   0.486
 1185SOL    HW120697   4.125   6.249   0.488
 1185SOL    HW220698   4.099   6.395   0.454
 1186SOL     OW20699   1.029   4.722   1.146
 1186SOL    HW120700   0.976   4.665   1.091
 1186SOL    HW220701   1.090   4.663   1.191
 1187SOL     OW20702   4.104   5.458   6.804
 1187SOL    HW120703   4.036   5.455   6.872
 1187SOL    HW220704   4.060   5.499   6.729
 1188SOL     OW20705   5.007   4.515   7.707
 1188SOL    HW120706   5.085   4.473   7.673
 1188SOL    HW220707   5.013   4.505   7.802
 1189SOL     OW20708   4.392   1.381   0.951
 1189SOL    HW120709   4.386   1.438   1.028
 1189SOL    HW220710   4.463   1.320   0.971
 1190SOL     OW20711   1.400   2.110   6.621
 1190SOL    HW120712   1.328   2.053   6.594
 1190SOL    HW220713   1.392   2.187   6.566
 1191SOL     OW20714   0.474   2.084   5.094
 1191SOL    HW120715   0.489   2.161   5.150
 1191SOL    HW220716   0.379   2.069   5.099
 1192SOL     OW20717   5.186   1.203   0.874
 1192SOL    HW120718   5.201   1.131   0.936
 1192SOL    HW220719   5.229   1.279   0.914
 1193SOL     OW20720   0.236   4.328   0.908
 1193SOL    HW120721   0.251   4.340   1.002
 1193SOL    HW220722   0.278   4.245   0.886
 1194SOL     OW20723   0.522   3.256   7.292
 1194SOL    HW120724   0.600   3.297   7.257
 1194SOL    HW220725   0.452   3.320   7.276
 1195SOL     OW20726   1.445   3.167   0.051
 1195SOL    HW120727   1.518   3.217   0.013
 1195SOL    HW220728   1.369   3.225   0.043
 1196SOL     OW20729   5.294   0.679   0.664
 1196SOL    HW120730   5.214   0.714   0.702
 1196SOL    HW220731   5.305   0.593   0.705
 1197SOL     OW20732   1.035   2.915   0.871
 1197SOL    HW120733   1.048   3.008   0.886
 1197SOL    HW220734   1.048   2.904   0.776
 1198SOL     OW20735   0.431   0.232   1.398
 1198SOL    HW120736   0.381   0.308   1.428
 1198SOL    HW220737   0.420   0.167   1.467
 1199SOL     OW20738   0.478   3.376   2.240
 1199SOL    HW120739   0.394   3.387   2.285
 1199SOL    HW220740   0.535   3.335   2.306
 1200SOL     OW20741   0.487   0.520   7.849
 1200SOL    HW120742   0.567   0.563   7.818
 1200SOL    HW220743   0.438   0.500   7.769
 1201SOL     OW20744   4.682   1.522   6.449
 1201SOL    HW120745   4.717   1.432   6.451
 1201SOL    HW220746   4.588   1.511   6.436
 1202SOL     OW20747   0.085   2.598   0.875
 1202SOL    HW120748   0.032   2.611   0.953
 1202SOL    HW220749   0.152   2.666   0.880
 1203SOL     OW20750   1.325   0.982   5.499
 1203SOL    HW120751   1.285   0.919   5.559
 1203SOL    HW220752   1.384   0.930   5.445
 1204SOL     OW20753   5.045   5.986   7.067
 1204SOL    HW120754   5.042   5.966   7.160
 1204SOL    HW220755   5.001   6.071   7.059
 1205SOL     OW20756   6.026   3.189   1.375
 1205SOL    HW120757   5.948   3.164   1.425
 1205SOL    HW220758   6.018   3.141   1.293
 1206SOL     OW20759   5.742   2.332   0.177
 1206SOL    HW120760   5.685   2.399   0.138
 1206SOL    HW220761   5.681   2.266   0.211
 1207SOL     OW20762   0.733   1.264   1.951
 1207SOL    HW120763   0.777   1.314   1.882
 1207SOL    HW220764   0.764   1.304   2.032
 1208SOL     OW20765   3.108   2.589   1.243
 1208SOL    HW120766   3.090   2.558   1.332
 1208SOL    HW220767   3.186   2.541   1.216
 1209SOL     OW20768   3.864   6.040   7.225
 1209SOL    HW120769   3.839   6.066   7.136
 1209SOL    HW220770   3.893   5.949   7.216
 1210SOL     OW20771   6.211   0.760   6.452
 1210SOL    HW120772   6.118   0.736   6.456
 1210SOL    HW220773   6.253   0.707   6.520
 1211SOL     OW20774   0.551   2.384   7.165
 1211SOL    HW120775   0.538   2.368   7.259
 1211SOL    HW220776   0.463   2.391   7.130
 1212SOL     OW20777   3.085   6.160   2.140
 1212SOL    HW120778   3.045   6.180   2.224
 1212SOL    HW220779   3.014   6.125   2.087
 1213SOL     OW20780   1.303   3.073   1.158
 1213SOL    HW120781   1.223   3.125   1.162
 1213SOL    HW220782   1.290   3.005   1.225
 1214SOL     OW20783   3.247   5.747   1.826
 1214SOL    HW120784   3.227   5.655   1.811
 1214SOL    HW220785   3.310   5.770   1.757
 1215SOL     OW20786   2.064   1.602   1.416
 1215SOL    HW120787   2.035   1.611   1.507
 1215SOL    HW220788   1.983   1.604   1.364
 1216SOL     OW20789   4.286   1.415   6.836
 1216SOL    HW120790   4.210   1.385   6.787
 1216SOL    HW220791   4.292   1.356   6.911
 1217SOL     OW20792   4.196   2.022   6.114
 1217SOL    HW120793   4.143   2.036   6.192
 1217SOL    HW220794   4.287   2.026   6.146
 1218SOL     OW20795   3.898   2.466   2.000
 1218SOL    HW120796   3.942   2.552   2.005
 1218SOL    HW220797   3.805   2.486   2.012
 1219SOL     OW20798   2.742   2.787   6.303
 1219SOL    HW120799   2.753   2.873   6.264
 1219SOL    HW220800   2.819   2.775   6.358
 1220SOL     OW20801   1.981   2.429   0.522
 1220SOL    HW120802   2.048   2.401   0.460
 1220SOL    HW220803   2.008   2.516   0.550
 1221SOL     OW20804   4.497   2.171   6.500
 1221SOL    HW120805   4.522   2.208   6.585
 1221SOL    HW220806   4.561   2.207   6.438
 1222SOL     OW20807   0.800   4.571   6.650
 1222SOL    HW120808   0.716   4.589   6.693
 1222SOL    HW220809   0.866   4.604   6.711
 1223SOL     OW20810   3.310   1.600   6.406
 1223SOL    HW120811   3.304   1.568   6.496
 1223SOL    HW220812   3.242   1.552   6.360
 1224SOL     OW20813   0.880   6.261   1.011
 1224SOL    HW120814   0.898   6.197   1.080
 1224SOL    HW220815   0.868   6.208   0.932
 1225SOL     OW20816   4.646   1.101   2.027
 1225SOL    HW120817   4.575   1.121   2.088
 1225SOL    HW220818   4.631   1.010   2.001
 1226SOL     OW20819   2.401   1.986   6.113
 1226SOL    HW120820   2.315   1.944   6.118
 1226SOL    HW220821   2.424   1.983   6.020
 1227SOL     OW20822   3.482   6.400   7.066
 1227SOL    HW120823   3.412   6.412   7.130
 1227SOL    HW220824   3.449   6.442   6.986
 1228SOL     OW20825   3.899   4.792   6.699
 1228SOL    HW120826   3.971   4.782   6.761
 1228SOL    HW220827   3.875   4.884   6.705
 1229SOL     OW20828   0.083   3.472   6.678
 1229SOL    HW120829   0.155   3.527   6.648
 1229SOL    HW220830   0.102   3.385   6.643
 1230SOL     OW20831   3.772   2.318   0.419
 1230SOL    HW120832   3.856   2.286   0.388
 1230SOL    HW220833   3.730   2.242   0.458
 1231SOL     OW20834   4.065   1.875   0.534
 1231SOL    HW120835   4.150   1.882   0.491
 1231SOL    HW220836   4.084   1.842   0.621
 1232SOL     OW20837   1.611   2.742   6.093
 1232SOL    HW120838   1.661   2.685   6.033
 1232SOL    HW220839   1.638   2.714   6.180
 1233SOL     OW20840   4.612   4.116   0.300
 1233SOL    HW120841   4.634   4.060   0.226
 1233SOL    HW220842   4.526   4.151   0.279
 1234SOL     OW20843   4.935   1.826   6.614
 1234SOL    HW120844   4.914   1.897   6.553
 1234SOL    HW220845   4.948   1.750   6.559
 1235SOL     OW20846   0.530   0.801   6.900
 1235SOL    HW120847   0.536   0.866   6.829
 1235SOL    HW220848   0.450   0.753   6.882
 1236SOL     OW20849   1.261   3.673   0.997
 1236SOL    HW120850   1.356   3.658   1.000
 1236SOL    HW220851   1.226   3.594   0.955
 1237SOL     OW20852   0.452   0.042   0.868
 1237SOL    HW120853   0.493   0.009   0.947
 1237SOL    HW220854   0.453   0.137   0.878
 1238SOL     OW20855   5.346   0.848   0.447
 1238SOL    HW120856   5.330   0.774   0.507
 1238SOL    HW220857   5.440   0.864   0.455
 1239SOL     OW20858   0.481   3.715   5.598
 1239SOL    HW120859   0.459   3.637   5.648
 1239SOL    HW220860   0.572   3.734   5.622
 1240SOL     OW20861   6.292   2.961   6.823
 1240SOL    HW120862   6.203   2.983   6.850
 1240SOL    HW220863   6.288   2.870   6.796
 1241SOL     OW20864   5.786   2.767   0.244
 1241SOL    HW120865   5.809   2.858   0.224
 1241SOL    HW220866   5.864   2.717   0.221
 1242SOL     OW20867   3.963   5.778   7.516
 1242SOL    HW120868   3.946   5.797   7.423
 1242SOL    HW220869   4.056   5.754   7.518
 1243SOL     OW20870   5.253   1.942   6.968
 1243SOL    HW120871   5.304   1.863   6.985
 1243SOL    HW220872   5.272   1.963   6.877
 1244SOL     OW20873   5.308   2.260   5.655
 1244SOL    HW120874   5.334   2.176   5.692
 1244SOL    HW220875   5.227   2.283   5.700
 1245SOL     OW20876   5.838   3.417   0.803
 1245SOL    HW120877   5.902   3.488   0.813
 1245SOL    HW220878   5.859   3.378   0.718
 1246SOL     OW20879   4.956   2.501   1.669
 1246SOL    HW120880   4.971   2.567   1.737
 1246SOL    HW220881   4.876   2.456   1.696
 1247SOL     OW20882   4.628   2.028   6.947
 1247SOL    HW120883   4.699   1.978   6.986
 1247SOL    HW220884   4.628   2.003   6.855
 1248SOL     OW20885   2.503   1.357   5.591
 1248SOL    HW120886   2.579   1.359   5.650
 1248SOL    HW220887   2.468   1.268   5.601
 1249SOL     OW20888   4.538   3.261   7.719
 1249SOL    HW120889   4.516   3.306   7.800
 1249SOL    HW220890   4.516   3.169   7.734
 1250SOL     OW20891   4.055   6.112   5.405
 1250SOL    HW120892   4.073   6.026   5.367
 1250SOL    HW220893   3.960   6.121   5.400
 1251SOL     OW20894   4.724   0.398   7.214
 1251SOL    HW120895   4.817   0.380   7.224
 1251SOL    HW220896   4.680   0.326   7.259
 1252SOL     OW20897   0.867   1.291   7.662
 1252SOL    HW120898   0.893   1.383   7.665
 1252SOL    HW220899   0.950   1.243   7.659
 1253SOL     OW20900   1.961   4.308   7.537
 1253SOL    HW120901   1.955   4.246   7.610
 1253SOL    HW220902   1.872   4.310   7.501
 1254SOL     OW20903   3.273   3.449   1.113
 1254SOL    HW120904   3.286   3.416   1.202
 1254SOL    HW220905   3.222   3.529   1.125
 1255SOL     OW20906   2.189   4.244   1.472
 1255SOL    HW120907   2.124   4.267   1.539
 1255SOL    HW220908   2.211   4.152   1.491
 1256SOL     OW20909   4.032   3.308   0.496
 1256SOL    HW120910   4.017   3.401   0.514
 1256SOL    HW220911   4.092   3.279   0.564
 1257SOL     OW20912   1.690   0.914   6.478
 1257SOL    HW120913   1.691   0.998   6.433
 1257SOL    HW220914   1.609   0.872   6.448
 1258SOL     OW20915   1.986   0.248   6.996
 1258SOL    HW120916   1.916   0.186   6.973
 1258SOL    HW220917   2.035   0.204   7.065
 1259SOL     OW20918   5.705   5.092   6.797
 1259SOL    HW120919   5.663   5.144   6.865
 1259SOL    HW220920   5.724   5.155   6.727
 1260SOL     OW20921   0.282   3.476   0.562
 1260SOL    HW120922   0.230   3.549   0.597
 1260SOL    HW220923   0.271   3.482   0.467
 1261SOL     OW20924   3.989   2.938   7.445
 1261SOL    HW120925   3.951   3.011   7.493
 1261SOL    HW220926   4.050   2.897   7.506
 1262SOL     OW20927   5.748   3.826   0.773
 1262SOL    HW120928   5.779   3.761   0.710
 1262SOL    HW220929   5.701   3.890   0.720
 1263SOL     OW20930   1.191   3.132   2.148
 1263SOL    HW120931   1.270   3.180   2.126
 1263SOL    HW220932   1.148   3.185   2.216
 1264SOL     OW20933   5.440   5.095   0.026
 1264SOL    HW120934   5.478   5.178  -0.002
 1264SOL    HW220935   5.369   5.078  -0.036
 1265SOL     OW20936   5.353   3.276   7.121
 1265SOL    HW120937   5.265   3.240   7.127
 1265SOL    HW220938   5.351   3.335   7.046
 1266SOL     OW20939   2.326   4.019   0.892
 1266SOL    HW120940   2.257   3.955   0.875
 1266SOL    HW220941   2.297   4.065   0.971
 1267SOL     OW20942   0.207   5.915   1.234
 1267SOL    HW120943   0.275   5.891   1.297
 1267SOL    HW220944   0.253   5.931   1.152
 1268SOL     OW20945   6.142   2.634   6.599
 1268SOL    HW120946   6.052   2.641   6.630
 1268SOL    HW220947   6.159   2.716   6.553
 1269SOL     OW20948   4.921   6.085   7.681
 1269SOL    HW120949   4.958   6.092   7.593
 1269SOL    HW220950   4.856   6.155   7.685
 1270SOL     OW20951   3.234   2.241   1.273
 1270SOL    HW120952   3.329   2.232   1.263
 1270SOL    HW220953   3.207   2.162   1.320
 1271SOL     OW20954   2.354   2.959   1.141
 1271SOL    HW120955   2.449   2.951   1.136
 1271SOL    HW220956   2.330   2.920   1.225
 1272SOL     OW20957   3.857   0.585   2.129
 1272SOL    HW120958   3.802   0.549   2.199
 1272SOL    HW220959   3.837   0.679   2.130
 1273SOL     OW20960   5.301   0.862   6.140
 1273SOL    HW120961   5.290   0.952   6.169
 1273SOL    HW220962   5.240   0.812   6.194
 1274SOL     OW20963   3.336   2.360   6.400
 1274SOL    HW120964   3.288   2.290   6.356
 1274SOL    HW220965   3.396   2.316   6.460
 1275SOL     OW20966   4.036   1.095   7.245
 1275SOL    HW120967   4.007   1.120   7.333
 1275SOL    HW220968   3.976   1.141   7.187
 1276SOL     OW20969   5.537   1.022   6.348
 1276SOL    HW120970   5.601   1.090   6.328
 1276SOL    HW220971   5.454   1.056   6.315
 1277SOL     OW20972   5.642   3.921   6.727
 1277SOL    HW120973   5.675   3.894   6.641
 1277SOL    HW220974   5.558   3.962   6.708
 1278SOL     OW20975   4.315   3.722   6.987
 1278SOL    HW120976   4.304   3.733   6.893
 1278SOL    HW220977   4.408   3.704   6.998
 1279SOL     OW20978   4.694   3.679   5.491
 1279SOL    HW120979   4.718   3.755   5.438
 1279SOL    HW220980   4.611   3.648   5.452
 1280SOL     OW20981   5.206   0.209   5.932
 1280SOL    HW120982   5.192   0.121   5.967
 1280SOL    HW220983   5.124   0.230   5.887
 1281SOL     OW20984   2.372   4.782   0.616
 1281SOL    HW120985   2.293   4.792   0.562
 1281SOL    HW220986   2.382   4.867   0.659
 1282SOL     OW20987   5.620   3.952   1.929
 1282SOL    HW120988   5.547   3.893   1.912
 1282SOL    HW220989   5.679   3.902   1.986
 1283SOL     OW20990   2.585   6.127   0.818
 1283SOL    HW120991   2.540   6.092   0.894
 1283SOL    HW220992   2.656   6.064   0.802
 1284SOL     OW20993   5.002   1.980   1.839
 1284SOL    HW120994   5.068   1.938   1.784
 1284SOL    HW220995   5.052   2.020   1.910
 1285SOL     OW20996   3.599   3.089   0.681
 1285SOL    HW120997   3.688   3.115   0.708
 1285SOL    HW220998   3.572   3.157   0.619
 1286SOL     OW20999   1.109   0.449   0.204
 1286SOL    HW121000   1.044   0.380   0.219
 1286SOL    HW221001   1.189   0.401   0.184
 1287SOL     OW21002   4.914   3.616   2.192
 1287SOL    HW121003   4.902   3.703   2.154
 1287SOL    HW221004   4.832   3.598   2.238
 1288SOL     OW21005   0.605   4.716   1.371
 1288SOL    HW121006   0.685   4.751   1.332
 1288SOL    HW221007   0.629   4.630   1.405
 1289SOL     OW21008   4.735   4.065   2.187
 1289SOL    HW121009   4.650   4.107   2.198
 1289SOL    HW221010   4.763   4.091   2.099
 1290SOL     OW21011   1.284   2.077   5.709
 1290SOL    HW121012   1.224   2.107   5.777
 1290SOL    HW221013   1.346   2.149   5.699
 1291SOL     OW21014   6.402   3.238   6.930
 1291SOL    HW121015   6.329   3.236   6.869
 1291SOL    HW221016   6.367   3.203   7.012
 1292SOL     OW21017   4.460   0.084   1.890
 1292SOL    HW121018   4.429   0.154   1.947
 1292SOL    HW221019   4.440   0.004   1.938
 1293SOL     OW21020   2.025   4.564   2.131
 1293SOL    HW121021   2.101   4.508   2.116
 1293SOL    HW221022   2.002   4.598   2.045
 1294SOL     OW21023   5.105   5.060   1.883
 1294SOL    HW121024   5.036   5.074   1.949
 1294SOL    HW221025   5.070   5.099   1.803
 1295SOL     OW21026   4.982   2.839   7.266
 1295SOL    HW121027   5.029   2.802   7.191
 1295SOL    HW221028   4.980   2.768   7.330
 1296SOL     OW21029   3.583   0.719   1.632
 1296SOL    HW121030   3.565   0.625   1.624
 1296SOL    HW221031   3.654   0.735   1.570
 1297SOL     OW21032   3.638   1.100   5.954
 1297SOL    HW121033   3.684   1.144   6.025
 1297SOL    HW221034   3.549   1.134   5.958
 1298SOL     OW21035   0.571   6.031   7.777
 1298SOL    HW121036   0.646   6.047   7.835
 1298SOL    HW221037   0.495   6.050   7.832
 1299SOL     OW21038   3.287   5.615   7.779
 1299SOL    HW121039   3.354   5.565   7.735
 1299SOL    HW221040   3.332   5.658   7.852
 1300SOL     OW21041   1.920   2.855   5.590
 1300SOL    HW121042   1.892   2.943   5.617
 1300SOL    HW221043   1.841   2.801   5.598
 1301SOL     OW21044   5.311   3.531   0.343
 1301SOL    HW121045   5.278   3.442   0.360
 1301SOL    HW221046   5.254   3.588   0.393
 1302SOL     OW21047   2.114   1.773   5.600
 1302SOL    HW121048   2.142   1.840   5.663
 1302SOL    HW221049   2.105   1.821   5.517
 1303SOL     OW21050   2.870   0.640   7.551
 1303SOL    HW121051   2.778   0.642   7.574
 1303SOL    HW221052   2.895   0.732   7.543
 1304SOL     OW21053   4.252   4.810   6.719
 1304SOL    HW121054   4.245   4.811   6.624
 1304SOL    HW221055   4.235   4.719   6.744
 1305SOL     OW21056   2.775   3.286   7.788
 1305SOL    HW121057   2.718   3.351   7.830
 1305SOL    HW221058   2.803   3.327   7.707
 1306SOL     OW21059   2.570   3.777   0.045
 1306SOL    HW121060   2.585   3.715   0.116
 1306SOL    HW221061   2.505   3.734  -0.011
 1307SOL     OW21062   5.119   6.258   0.308
 1307SOL    HW121063   5.204   6.284   0.271
 1307SOL    HW221064   5.140   6.234   0.399
 1308SOL     OW21065   4.027   0.069   5.311
 1308SOL    HW121066   4.050   0.152   5.352
 1308SOL    HW221067   3.932   0.062   5.320
 1309SOL     OW21068   0.688   2.528   6.974
 1309SOL    HW121069   0.631   2.605   6.968
 1309SOL    HW221070   0.641   2.468   7.031
 1310SOL     OW21071   3.519   2.041   0.737
 1310SOL    HW121072   3.535   2.108   0.804
 1310SOL    HW221073   3.473   2.087   0.668
 1311SOL     OW21074   0.055   1.503   0.362
 1311SOL    HW121075   0.019   1.453   0.288
 1311SOL    HW221076   0.106   1.573   0.321
 1312SOL     OW21077   1.618   1.588   6.985
 1312SOL    HW121078   1.556   1.646   7.030
 1312SOL    HW221079   1.681   1.564   7.053
 1313SOL     OW21080   6.229   1.708   1.574
 1313SOL    HW121081   6.195   1.797   1.570
 1313SOL    HW221082   6.270   1.701   1.660
 1314SOL     OW21083   5.713   3.526   7.642
 1314SOL    HW121084   5.695   3.620   7.631
 1314SOL    HW221085   5.631   3.490   7.675
 1315SOL     OW21086   0.183   1.999   0.351
 1315SOL    HW121087   0.169   2.078   0.298
 1315SOL    HW221088   0.271   2.010   0.387
 1316SOL     OW21089   4.582   5.979   0.555
 1316SOL    HW121090   4.543   5.993   0.469
 1316SOL    HW221091   4.509   5.953   0.611
 1317SOL     OW21092   5.536   4.963   6.184
 1317SOL    HW121093   5.498   4.995   6.103
 1317SOL    HW221094   5.623   5.003   6.187
 1318SOL     OW21095   5.386   0.533   6.310
 1318SOL    HW121096   5.386   0.517   6.216
 1318SOL    HW221097   5.391   0.628   6.319
 1319SOL     OW21098   4.126   5.387   6.284
 1319SOL    HW121099   4.082   5.429   6.211
 1319SOL    HW221100   4.218   5.408   6.273
 1320SOL     OW21101   5.045   6.022   0.061
 1320SOL    HW121102   5.028   6.112   0.088
 1320SOL    HW221103   5.012   6.017  -0.028
 1321SOL     OW21104   1.587   3.288   1.514
 1321SOL    HW121105   1.560   3.247   1.596
 1321SOL    HW221106   1.579   3.218   1.448
 1322SOL     OW21107   3.850   6.081   0.061
 1322SOL    HW121108   3.854   6.166   0.106
 1322SOL    HW221109   3.893   6.020   0.122
 1323SOL     OW21110   2.392   0.064   1.231
 1323SOL    HW121111   2.388   0.113   1.313
 1323SOL    HW221112   2.396  -0.028   1.257
 1324SOL     OW21113   0.027   4.123   7.593
 1324SOL    HW121114  -0.053   4.164   7.558
 1324SOL    HW221115   0.000   4.033   7.614
 1325SOL     OW21116   0.459   5.059   0.888
 1325SOL    HW121117   0.545   5.071   0.929
 1325SOL    HW221118   0.473   4.990   0.823
 1326SOL     OW21119   0.559   5.641   5.473
 1326SOL    HW121120   0.522   5.600   5.394
 1326SOL    HW221121   0.488   5.695   5.508
 1327SOL     OW21122   0.625   1.701   7.170
 1327SOL    HW121123   0.563   1.727   7.102
 1327SOL    HW221124   0.690   1.648   7.124
 1328SOL     OW21125   6.137   4.520   7.373
 1328SOL    HW121126   6.105   4.464   7.444
 1328SOL    HW221127   6.062   4.528   7.314
 1329SOL     OW21128   5.959   6.223   1.350
 1329SOL    HW121129   6.037   6.250   1.399
 1329SOL    HW221130   5.968   6.264   1.264
 1330SOL     OW21131   3.650   3.469   7.834
 1330SOL    HW121132   3.657   3.374   7.821
 1330SOL    HW221133   3.739   3.496   7.859
 1331SOL     OW21134   3.426   3.632   7.319
 1331SOL    HW121135   3.480   3.618   7.397
 1331SOL    HW221136   3.489   3.632   7.247
 1332SOL     OW21137   5.140   4.802   0.746
 1332SOL    HW121138   5.116   4.751   0.669
 1332SOL    HW221139   5.140   4.739   0.818
 1333SOL     OW21140   5.160   2.954   6.373
 1333SOL    HW121141   5.117   3.017   6.430
 1333SOL    HW221142   5.117   2.964   6.288
 1334SOL     OW21143   0.800   1.103   7.098
 1334SOL    HW121144   0.880   1.069   7.137
 1334SOL    HW221145   0.730   1.055   7.142
 1335SOL     OW21146   5.420   5.948   7.106
 1335SOL    HW121147   5.375   5.867   7.081
 1335SOL    HW221148   5.465   5.926   7.188
 1336SOL     OW21149   2.812   4.664   6.802
 1336SOL    HW121150   2.758   4.630   6.731
 1336SOL    HW221151   2.845   4.586   6.847
 1337SOL     OW21152   1.500   2.303   5.701
 1337SOL    HW121153   1.584   2.260   5.688
 1337SOL    HW221154   1.517   2.370   5.768
 1338SOL     OW21155   0.473   1.505   0.361
 1338SOL    HW121156   0.416   1.430   0.341
 1338SOL    HW221157   0.447   1.572   0.298
 1339SOL     OW21158   0.540   2.874   7.079
 1339SOL    HW121159   0.481   2.823   7.023
 1339SOL    HW221160   0.583   2.935   7.018
 1340SOL     OW21161   3.074   4.283   0.038
 1340SOL    HW121162   3.038   4.275   0.126
 1340SOL    HW221163   3.037   4.210  -0.011
 1341SOL     OW21164   3.680   4.442   0.904
 1341SOL    HW121165   3.610   4.484   0.956
 1341SOL    HW221166   3.661   4.349   0.909
 1342SOL     OW21167   3.086   4.694   2.052
 1342SOL    HW121168   3.041   4.642   2.118
 1342SOL    HW221169   3.017   4.745   2.009
 1343SOL     OW21170   2.091   0.662   6.983
 1343SOL    HW121171   2.108   0.636   6.892
 1343SOL    HW221172   2.005   0.624   7.003
 1344SOL     OW21173   5.815   4.751   1.243
 1344SOL    HW121174   5.856   4.731   1.159
 1344SOL    HW221175   5.792   4.666   1.280
 1345SOL     OW21176   4.369   2.327   1.359
 1345SOL    HW121177   4.386   2.420   1.373
 1345SOL    HW221178   4.354   2.292   1.447
 1346SOL     OW21179   6.334   4.637   5.381
 1346SOL    HW121180   6.325   4.572   5.311
 1346SOL    HW221181   6.302   4.593   5.459
 1347SOL     OW21182   1.633   3.365   0.503
 1347SOL    HW121183   1.682   3.298   0.454
 1347SOL    HW221184   1.701   3.427   0.531
 1348SOL     OW21185   0.473   2.168   1.479
 1348SOL    HW121186   0.481   2.255   1.441
 1348SOL    HW221187   0.486   2.181   1.573
 1349SOL     OW21188   2.796   3.167   5.962
 1349SOL    HW121189   2.885   3.149   5.932
 1349SOL    HW221190   2.754   3.212   5.888
 1350SOL     OW21191   1.494   4.590   1.386
 1350SOL    HW121192   1.576   4.541   1.396
 1350SOL    HW221193   1.461   4.599   1.475
 1351SOL     OW21194   5.513   5.302   0.526
 1351SOL    HW121195   5.502   5.268   0.437
 1351SOL    HW221196   5.584   5.250   0.563
 1352SOL     OW21197   3.531   3.428   0.961
 1352SOL    HW121198   3.440   3.440   0.988
 1352SOL    HW221199   3.578   3.501   1.002
 1353SOL     OW21200   4.570   5.198   6.134
 1353SOL    HW121201   4.561   5.130   6.068
 1353SOL    HW221202   4.658   5.187   6.168
 1354SOL     OW21203   4.290   4.989   1.338
 1354SOL    HW121204   4.317   4.910   1.385
 1354SOL    HW221205   4.233   5.035   1.400
 1355SOL     OW21206   2.974   1.328   6.508
 1355SOL    HW121207   2.908   1.295   6.569
 1355SOL    HW221208   2.924   1.381   6.445
 1356SOL     OW21209   4.903   3.802   7.041
 1356SOL    HW121210   4.860   3.720   7.018
 1356SOL    HW221211   4.941   3.833   6.959
 1357SOL     OW21212   4.932   0.976   6.595
 1357SOL    HW121213   4.935   1.071   6.590
 1357SOL    HW221214   5.015   0.947   6.557
 1358SOL     OW21215   4.109   0.836   0.236
 1358SOL    HW121216   4.049   0.794   0.297
 1358SOL    HW221217   4.119   0.773   0.165
 1359SOL     OW21218   5.920   4.507   0.997
 1359SOL    HW121219   5.895   4.470   0.912
 1359SOL    HW221220   5.963   4.436   1.043
 1360SOL     OW21221   3.921   0.423   1.666
 1360SOL    HW121222   3.983   0.351   1.652
 1360SOL    HW221223   3.921   0.437   1.760
 1361SOL     OW21224   4.610   0.102   0.209
 1361SOL    HW121225   4.542   0.166   0.230
 1361SOL    HW221226   4.631   0.119   0.118
 1362SOL     OW21227   0.973   0.142   0.724
 1362SOL    HW121228   1.035   0.193   0.777
 1362SOL    HW221229   0.887   0.175   0.750
 1363SOL     OW21230   1.778   0.856   7.303
 1363SOL    HW121231   1.858   0.871   7.354
 1363SOL    HW221232   1.809   0.814   7.223
 1364SOL     OW21233   3.440   0.174   0.428
 1364SOL    HW121234   3.433   0.230   0.351
 1364SOL    HW221235   3.350   0.147   0.447
 1365SOL     OW21236   3.775   6.359   6.316
 1365SOL    HW121237   3.845   6.370   6.380
 1365SOL    HW221238   3.752   6.448   6.291
 1366SOL     OW21239   3.606   4.520   7.688
 1366SOL    HW121240   3.594   4.425   7.681
 1366SOL    HW221241   3.576   4.542   7.776
 1367SOL     OW21242   4.593   1.196   1.059
 1367SOL    HW121243   4.635   1.110   1.053
 1367SOL    HW221244   4.639   1.240   1.131
 1368SOL     OW21245   4.738   2.620   7.469
 1368SOL    HW121246   4.815   2.573   7.438
 1368SOL    HW221247   4.765   2.658   7.553
 1369SOL     OW21248   2.215   2.524   6.208
 1369SOL    HW121249   2.124   2.527   6.176
 1369SOL    HW221250   2.212   2.461   6.281
 1370SOL     OW21251   5.827   4.063   1.063
 1370SOL    HW121252   5.738   4.097   1.063
 1370SOL    HW221253   5.817   3.969   1.049
 1371SOL     OW21254   3.925   3.889   6.900
 1371SOL    HW121255   3.900   3.980   6.887
 1371SOL    HW221256   4.012   3.882   6.861
 1372SOL     OW21257   5.964   2.887   7.326
 1372SOL    HW121258   5.955   2.967   7.378
 1372SOL    HW221259   5.951   2.816   7.388
 1373SOL     OW21260   0.604   2.506   5.354
 1373SOL    HW121261   0.535   2.475   5.413
 1373SOL    HW221262   0.606   2.600   5.368
 1374SOL     OW21263   1.708   1.589   1.455
 1374SOL    HW121264   1.725   1.635   1.538
 1374SOL    HW221265   1.651   1.516   1.480
 1375SOL     OW21266   1.586   6.024   1.170
 1375SOL    HW121267   1.568   5.954   1.108
 1375SOL    HW221268   1.666   6.066   1.138
 1376SOL     OW21269   4.483   0.396   1.203
 1376SOL    HW121270   4.433   0.476   1.217
 1376SOL    HW221271   4.496   0.360   1.290
 1377SOL     OW21272   2.359   3.657   6.969
 1377SOL    HW121273   2.356   3.580   7.026
 1377SOL    HW221274   2.317   3.726   7.020
 1378SOL     OW21275   3.508   4.274   7.648
 1378SOL    HW121276   3.428   4.261   7.699
 1378SOL    HW221277   3.477   4.300   7.561
 1379SOL     OW21278   1.702   2.343   0.896
 1379SOL    HW121279   1.699   2.344   0.992
 1379SOL    HW221280   1.794   2.323   0.876
 1380SOL     OW21281   3.617   0.038   5.718
 1380SOL    HW121282   3.573   0.095   5.782
 1380SOL    HW221283   3.548  -0.020   5.687
 1381SOL     OW21284   2.167   0.746   5.549
 1381SOL    HW121285   2.206   0.791   5.623
 1381SOL    HW221286   2.234   0.748   5.481
 1382SOL     OW21287   6.049   2.852   6.848
 1382SOL    HW121288   6.004   2.814   6.773
 1382SOL    HW221289   5.994   2.828   6.923
 1383SOL     OW21290   0.423  -0.003   6.518
 1383SOL    HW121291   0.515  -0.024   6.500
 1383SOL    HW221292   0.417   0.092   6.507
 1384SOL     OW21293   0.781   5.131   7.840
 1384SOL    HW121294   0.870   5.163   7.843
 1384SOL    HW221295   0.751   5.149   7.751
 1385SOL     OW21296   4.991   4.061   7.040
 1385SOL    HW121297   5.030   4.108   7.113
 1385SOL    HW221298   4.948   3.985   7.079
 1386SOL     OW21299   5.864   0.225   1.137
 1386SOL    HW121300   5.851   0.134   1.165
 1386SOL    HW221301   5.952   0.225   1.099
 1387SOL     OW21302   5.691   5.960   6.338
 1387SOL    HW121303   5.672   5.931   6.248
 1387SOL    HW221304   5.666   6.053   6.338
 1388SOL     OW21305   2.102   5.134   6.974
 1388SOL    HW121306   2.142   5.175   7.050
 1388SOL    HW221307   2.053   5.059   7.010
 1389SOL     OW21308   5.249   4.798   6.922
 1389SOL    HW121309   5.282   4.887   6.908
 1389SOL    HW221310   5.238   4.792   7.017
 1390SOL     OW21311   0.400   4.565   7.433
 1390SOL    HW121312   0.405   4.493   7.496
 1390SOL    HW221313   0.343   4.533   7.364
 1391SOL     OW21314   5.868   1.399   6.362
 1391SOL    HW121315   5.806   1.408   6.435
 1391SOL    HW221316   5.927   1.473   6.371
 1392SOL     OW21317   6.189   3.946   7.410
 1392SOL    HW121318   6.113   3.905   7.368
 1392SOL    HW221319   6.264   3.896   7.377
 1393SOL     OW21320   5.403   2.521   1.695
 1393SOL    HW121321   5.425   2.552   1.607
 1393SOL    HW221322   5.471   2.558   1.751
 1394SOL     OW21323   5.998   0.465   7.014
 1394SOL    HW121324   5.990   0.372   7.033
 1394SOL    HW221325   5.928   0.506   7.064
 1395SOL     OW21326   4.431   3.137   7.194
 1395SOL    HW121327   4.374   3.080   7.246
 1395SOL    HW221328   4.375   3.211   7.170
 1396SOL     OW21329   4.374   2.052   6.828
 1396SOL    HW121330   4.436   2.010   6.768
 1396SOL    HW221331   4.406   2.029   6.916
 1397SOL     OW21332   1.392   6.426   0.755
 1397SOL    HW121333   1.426   6.341   0.785
 1397SOL    HW221334   1.412   6.486   0.827
 1398SOL     OW21335   4.949   0.471   6.559
 1398SOL    HW121336   4.864   0.433   6.536
 1398SOL    HW221337   4.991   0.488   6.475
 1399SOL     OW21338   1.391   3.085   6.970
 1399SOL    HW121339   1.370   3.029   7.044
 1399SOL    HW221340   1.451   3.151   7.005
 1400SOL     OW21341   0.903   5.000   1.954
 1400SOL    HW121342   0.894   5.087   1.917
 1400SOL    HW221343   0.969   4.957   1.900
 1401SOL     OW21344   3.379   5.019   0.670
 1401SOL    HW121345   3.398   5.098   0.620
 1401SOL    HW221346   3.442   5.020   0.742
 1402SOL     OW21347   6.309   5.919   7.602
 1402SOL    HW121348   6.331   5.839   7.554
 1402SOL    HW221349   6.288   5.889   7.691
 1403SOL     OW21350   5.085   3.619   1.188
 1403SOL    HW121351   5.001   3.588   1.219
 1403SOL    HW221352   5.102   3.569   1.108
 1404SOL     OW21353   3.205   1.381   7.304
 1404SOL    HW121354   3.207   1.400   7.210
 1404SOL    HW221355   3.234   1.290   7.311
 1405SOL     OW21356   1.421   4.858   0.245
 1405SOL    HW121357   1.391   4.921   0.179
 1405SOL    HW221358   1.383   4.775   0.218
 1406SOL     OW21359   5.200   0.288   0.005
 1406SOL    HW121360   5.232   0.252   0.088
 1406SOL    HW221361   5.161   0.372   0.029
 1407SOL     OW21362   0.141   3.859   0.840
 1407SOL    HW121363   0.060   3.839   0.793
 1407SOL    HW221364   0.117   3.850   0.933
 1408SOL     OW21365   3.917   1.155   7.472
 1408SOL    HW121366   3.854   1.139   7.542
 1408SOL    HW221367   3.961   1.236   7.497
 1409SOL     OW21368   3.747   6.376   5.450
 1409SOL    HW121369   3.695   6.449   5.415
 1409SOL    HW221370   3.729   6.378   5.545
 1410SOL     OW21371   5.364   5.715   7.444
 1410SOL    HW121372   5.433   5.764   7.398
 1410SOL    HW221373   5.306   5.683   7.375
 1411SOL     OW21374   0.754   5.842   5.358
 1411SOL    HW121375   0.717   5.921   5.398
 1411SOL    HW221376   0.705   5.770   5.398
 1412SOL     OW21377   0.996   1.549   0.258
 1412SOL    HW121378   1.005   1.458   0.287
 1412SOL    HW221379   0.914   1.579   0.297
 1413SOL     OW21380   1.321   2.534   0.543
 1413SOL    HW121381   1.363   2.588   0.476
 1413SOL    HW221382   1.318   2.446   0.504
 1414SOL     OW21383   2.170   6.001   6.575
 1414SOL    HW121384   2.223   6.067   6.621
 1414SOL    HW221385   2.204   5.917   6.605
 1415SOL     OW21386   0.168   1.298   1.111
 1415SOL    HW121387   0.140   1.226   1.168
 1415SOL    HW221388   0.262   1.286   1.102
 1416SOL     OW21389   0.050   0.185   6.034
 1416SOL    HW121390   0.090   0.156   5.953
 1416SOL    HW221391  -0.041   0.155   6.028
 1417SOL     OW21392   5.566   1.153   0.729
 1417SOL    HW121393   5.483   1.170   0.684
 1417SOL    HW221394   5.626   1.218   0.693
 1418SOL     OW21395   4.537   2.969   7.003
 1418SOL    HW121396   4.495   3.038   7.056
 1418SOL    HW221397   4.486   2.890   7.023
 1419SOL     OW21398   4.548   0.087   6.464
 1419SOL    HW121399   4.490   0.097   6.388
 1419SOL    HW221400   4.634   0.067   6.428
 1420SOL     OW21401   1.637   5.140   0.450
 1420SOL    HW121402   1.557   5.172   0.493
 1420SOL    HW221403   1.630   5.170   0.360
 1421SOL     OW21404   0.642   0.513   5.495
 1421SOL    HW121405   0.662   0.579   5.429
 1421SOL    HW221406   0.558   0.539   5.530
 1422SOL     OW21407   1.336   6.387   0.341
 1422SOL    HW121408   1.295   6.403   0.426
 1422SOL    HW221409   1.399   6.317   0.358
 1423SOL     OW21410   5.157   0.414   7.450
 1423SOL    HW121411   5.173   0.345   7.515
 1423SOL    HW221412   5.232   0.409   7.391
 1424SOL     OW21413   5.204   0.669   7.092
 1424SOL    HW121414   5.275   0.604   7.098
 1424SOL    HW221415   5.152   0.640   7.018
 1425SOL     OW21416   4.063   2.301   7.075
 1425SOL    HW121417   4.147   2.338   7.048
 1425SOL    HW221418   3.997   2.356   7.031
 1426SOL     OW21419   2.910   1.186   1.479
 1426SOL    HW121420   2.942   1.123   1.543
 1426SOL    HW221421   2.936   1.151   1.395
 1427SOL     OW21422   2.569   3.898   6.454
 1427SOL    HW121423   2.502   3.866   6.394
 1427SOL    HW221424   2.529   3.891   6.541
 1428SOL     OW21425   4.533   3.649   7.604
 1428SOL    HW121426   4.617   3.641   7.559
 1428SOL    HW221427   4.469   3.616   7.541
 1429SOL     OW21428   0.862   4.810   0.683
 1429SOL    HW121429   0.958   4.819   0.684
 1429SOL    HW221430   0.846   4.737   0.623
 1430SOL     OW21431   4.388   1.268   5.543
 1430SOL    HW121432   4.441   1.209   5.596
 1430SOL    HW221433   4.299   1.259   5.578
 1431SOL     OW21434   4.011   4.659   6.004
 1431SOL    HW121435   3.926   4.646   6.045
 1431SOL    HW221436   3.991   4.675   5.912
 1432SOL     OW21437   6.122   1.934   5.857
 1432SOL    HW121438   6.181   1.875   5.904
 1432SOL    HW221439   6.180   2.003   5.823
 1433SOL     OW21440   2.531   4.808   6.267
 1433SOL    HW121441   2.551   4.827   6.359
 1433SOL    HW221442   2.606   4.843   6.218
 1434SOL     OW21443   4.954   4.173   6.585
 1434SOL    HW121444   5.044   4.175   6.618
 1434SOL    HW221445   4.900   4.165   6.664
 1435SOL     OW21446   2.025   6.375   1.351
 1435SOL    HW121447   1.986   6.308   1.295
 1435SOL    HW221448   2.018   6.340   1.440
 1436SOL     OW21449   0.193   5.797   6.594
 1436SOL    HW121450   0.231   5.735   6.656
 1436SOL    HW221451   0.266   5.822   6.537
 1437SOL     OW21452   1.009   5.137   7.136
 1437SOL    HW121453   0.951   5.144   7.060
 1437SOL    HW221454   1.085   5.191   7.113
 1438SOL     OW21455   1.681   0.084   2.021
 1438SOL    HW121456   1.754   0.129   2.065
 1438SOL    HW221457   1.656   0.143   1.950
 1439SOL     OW21458   4.196   0.183   5.541
 1439SOL    HW121459   4.178   0.103   5.590
 1439SOL    HW221460   4.202   0.251   5.607
 1440SOL     OW21461   4.492   5.645   1.047
 1440SOL    HW121462   4.426   5.677   0.986
 1440SOL    HW221463   4.560   5.713   1.045
 1441SOL     OW21464   0.030   0.381   7.818
 1441SOL    HW121465   0.061   0.431   7.894
 1441SOL    HW221466  -0.054   0.344   7.846
 1442SOL     OW21467   4.014   1.513   7.607
 1442SOL    HW121468   4.062   1.568   7.668
 1442SOL    HW221469   3.925   1.508   7.644
 1443SOL     OW21470   3.647   1.327   1.401
 1443SOL    HW121471   3.734   1.307   1.367
 1443SOL    HW221472   3.645   1.285   1.487
 1444SOL     OW21473   2.192   1.019   7.577
 1444SOL    HW121474   2.239   0.962   7.638
 1444SOL    HW221475   2.259   1.045   7.514
 1445SOL     OW21476   6.301   1.539   1.349
 1445SOL    HW121477   6.251   1.605   1.397
 1445SOL    HW221478   6.299   1.569   1.258
 1446SOL     OW21479   1.826   4.197   7.166
 1446SOL    HW121480   1.820   4.283   7.125
 1446SOL    HW221481   1.776   4.205   7.247
 1447SOL     OW21482   6.104   0.432   0.606
 1447SOL    HW121483   6.027   0.403   0.655
 1447SOL    HW221484   6.092   0.526   0.595
 1448SOL     OW21485   5.605   2.885   7.115
 1448SOL    HW121486   5.701   2.888   7.118
 1448SOL    HW221487   5.582   2.942   7.042
 1449SOL     OW21488   3.398   3.977   7.087
 1449SOL    HW121489   3.476   3.975   7.142
 1449SOL    HW221490   3.422   4.032   7.013
 1450SOL     OW21491   2.902   3.541   0.311
 1450SOL    HW121492   2.983   3.497   0.282
 1450SOL    HW221493   2.930   3.632   0.328
 1451SOL     OW21494   6.002   5.277   7.629
 1451SOL    HW121495   5.948   5.198   7.620
 1451SOL    HW221496   6.089   5.244   7.651
 1452SOL     OW21497   2.077   2.064   7.553
 1452SOL    HW121498   2.097   1.980   7.593
 1452SOL    HW221499   2.072   2.125   7.627
 1453SOL     OW21500   1.721   3.591   0.292
 1453SOL    HW121501   1.796   3.539   0.262
 1453SOL    HW221502   1.738   3.603   0.386
 1454SOL     OW21503   4.204   5.780   1.906
 1454SOL    HW121504   4.133   5.720   1.880
 1454SOL    HW221505   4.159   5.857   1.940
 1455SOL     OW21506   0.086   4.764   7.631
 1455SOL    HW121507   0.118   4.789   7.718
 1455SOL    HW221508   0.023   4.695   7.647
 1456SOL     OW21509   3.225   3.556   0.794
 1456SOL    HW121510   3.193   3.622   0.732
 1456SOL    HW221511   3.267   3.490   0.740
 1457SOL     OW21512   0.537   2.242   7.395
 1457SOL    HW121513   0.507   2.159   7.358
 1457SOL    HW221514   0.531   2.230   7.490
 1458SOL     OW21515   5.096   3.315   5.734
 1458SOL    HW121516   5.107   3.220   5.730
 1458SOL    HW221517   5.160   3.349   5.672
 1459SOL     OW21518   3.488   5.158   7.518
 1459SOL    HW121519   3.569   5.161   7.569
 1459SOL    HW221520   3.515   5.123   7.433
 1460SOL     OW21521   0.423   4.200   0.193
 1460SOL    HW121522   0.485   4.131   0.170
 1460SOL    HW221523   0.355   4.194   0.127
 1461SOL     OW21524   2.989   1.996   6.743
 1461SOL    HW121525   2.993   2.079   6.696
 1461SOL    HW221526   3.080   1.976   6.765
 1462SOL     OW21527   3.563   4.501   5.666
 1462SOL    HW121528   3.531   4.445   5.595
 1462SOL    HW221529   3.484   4.526   5.714
 1463SOL     OW21530   2.683   0.342   5.367
 1463SOL    HW121531   2.707   0.351   5.275
 1463SOL    HW221532   2.685   0.431   5.401
 1464SOL     OW21533   2.459   3.126   5.701
 1464SOL    HW121534   2.393   3.186   5.667
 1464SOL    HW221535   2.539   3.178   5.706
 1465SOL     OW21536   1.476   2.278   0.768
 1465SOL    HW121537   1.542   2.260   0.701
 1465SOL    HW221538   1.527   2.291   0.848
 1466SOL     OW21539   4.415   3.083   0.180
 1466SOL    HW121540   4.437   3.169   0.216
 1466SOL    HW221541   4.496   3.053   0.138
 1467SOL     OW21542   3.788   1.270   0.707
 1467SOL    HW121543   3.758   1.191   0.661
 1467SOL    HW221544   3.884   1.265   0.702
 1468SOL     OW21545   4.665   6.304   0.889
 1468SOL    HW121546   4.689   6.245   0.817
 1468SOL    HW221547   4.609   6.250   0.945
 1469SOL     OW21548   2.814   5.309   6.819
 1469SOL    HW121549   2.727   5.322   6.781
 1469SOL    HW221550   2.842   5.397   6.846
 1470SOL     OW21551   5.007   5.264   1.673
 1470SOL    HW121552   4.961   5.347   1.659
 1470SOL    HW221553   5.012   5.225   1.586
 1471SOL     OW21554   1.281   0.257   7.367
 1471SOL    HW121555   1.191   0.266   7.336
 1471SOL    HW221556   1.317   0.184   7.316
 1472SOL     OW21557   3.007   1.764   7.172
 1472SOL    HW121558   3.084   1.778   7.227
 1472SOL    HW221559   3.000   1.843   7.118
 1473SOL     OW21560   3.307   2.975   7.733
 1473SOL    HW121561   3.270   2.994   7.646
 1473SOL    HW221562   3.307   3.059   7.778
 1474SOL     OW21563   5.330   3.044   7.446
 1474SOL    HW121564   5.285   3.100   7.509
 1474SOL    HW221565   5.268   3.035   7.374
 1475SOL     OW21566   4.392   5.181   0.397
 1475SOL    HW121567   4.408   5.232   0.476
 1475SOL    HW221568   4.432   5.096   0.414
 1476SOL     OW21569   3.233   3.815   6.919
 1476SOL    HW121570   3.305   3.833   6.979
 1476SOL    HW221571   3.212   3.901   6.881
 1477SOL     OW21572   1.448   0.827   5.317
 1477SOL    HW121573   1.519   0.762   5.318
 1477SOL    HW221574   1.488   0.905   5.279
 1478SOL     OW21575   5.284   6.005   1.366
 1478SOL    HW121576   5.289   5.929   1.309
 1478SOL    HW221577   5.370   6.009   1.409
 1479SOL     OW21578   1.260   1.111   5.984
 1479SOL    HW121579   1.280   1.065   5.902
 1479SOL    HW221580   1.334   1.171   5.995
 1480SOL     OW21581   5.293   3.303   1.151
 1480SOL    HW121582   5.331   3.388   1.173
 1480SOL    HW221583   5.338   3.277   1.070
 1481SOL     OW21584   0.018   2.655   7.171
 1481SOL    HW121585   0.048   2.684   7.258
 1481SOL    HW221586  -0.071   2.687   7.164
 1482SOL     OW21587   4.871   6.369   1.467
 1482SOL    HW121588   4.877   6.361   1.562
 1482SOL    HW221589   4.895   6.282   1.435
 1483SOL     OW21590   5.258   5.664   0.414
 1483SOL    HW121591   5.353   5.669   0.405
 1483SOL    HW221592   5.225   5.718   0.342
 1484SOL     OW21593   2.924   2.264   6.672
 1484SOL    HW121594   2.851   2.313   6.633
 1484SOL    HW221595   2.970   2.226   6.598
 1485SOL     OW21596   1.877   5.676   7.031
 1485SOL    HW121597   1.944   5.677   6.963
 1485SOL    HW221598   1.794   5.680   6.983
 1486SOL     OW21599   5.145   2.764   7.055
 1486SOL    HW121600   5.208   2.836   7.058
 1486SOL    HW221601   5.131   2.748   6.962
 1487SOL     OW21602   4.150   3.361   6.413
 1487SOL    HW121603   4.112   3.301   6.349
 1487SOL    HW221604   4.215   3.309   6.459
 1488SOL     OW21605   2.941   2.249   1.203
 1488SOL    HW121606   2.903   2.199   1.275
 1488SOL    HW221607   3.032   2.264   1.229
 1489SOL     OW21608   2.839   6.251   7.823
 1489SOL    HW121609   2.868   6.323   7.768
 1489SOL    HW221610   2.919   6.205   7.847
 1490SOL     OW21611   0.962   5.961   6.925
 1490SOL    HW121612   1.021   5.976   6.852
 1490SOL    HW221613   1.020   5.943   6.999
 1491SOL     OW21614   1.882   1.656   6.339
 1491SOL    HW121615   1.810   1.707   6.377
 1491SOL    HW221616   1.949   1.655   6.407
 1492SOL     OW21617   3.050   0.508   1.478
 1492SOL    HW121618   3.109   0.533   1.549
 1492SOL    HW221619   3.034   0.590   1.430
 1493SOL     OW21620   3.405   3.976   6.334
 1493SOL    HW121621   3.493   3.938   6.341
 1493SOL    HW221622   3.350   3.903   6.306
 1494SOL     OW21623   2.738   6.194   6.726
 1494SOL    HW121624   2.693   6.251   6.788
 1494SOL    HW221625   2.772   6.122   6.780
 1495SOL     OW21626   2.224   3.078   5.829
 1495SOL    HW121627   2.312   3.098   5.798
 1495SOL    HW221628   2.173   3.157   5.808
 1496SOL     OW21629   1.259   2.544   5.595
 1496SOL    HW121630   1.220   2.505   5.517
 1496SOL    HW221631   1.237   2.483   5.666
 1497SOL     OW21632   2.951   3.949   1.021
 1497SOL    HW121633   2.938   3.873   0.964
 1497SOL    HW221634   3.034   3.931   1.066
 1498SOL     OW21635   0.710   1.644   0.837
 1498SOL    HW121636   0.641   1.609   0.780
 1498SOL    HW221637   0.689   1.610   0.924
 1499SOL     OW21638   5.541   0.809   7.065
 1499SOL    HW121639   5.502   0.760   6.992
 1499SOL    HW221640   5.559   0.742   7.131
 1500SOL     OW21641   6.251   3.146   6.540
 1500SOL    HW121642   6.253   3.233   6.579
 1500SOL    HW221643   6.303   3.091   6.598
 1501SOL     OW21644   5.009   5.995   6.077
 1501SOL    HW121645   5.060   6.069   6.046
 1501SOL    HW221646   5.052   5.969   6.159
 1502SOL     OW21647   2.238   4.034   1.638
 1502SOL    HW121648   2.260   3.945   1.668
 1502SOL    HW221649   2.246   4.088   1.716
 1503SOL     OW21650   2.431   0.534   0.043
 1503SOL    HW121651   2.362   0.523  -0.023
 1503SOL    HW221652   2.448   0.445   0.075
 1504SOL     OW21653   4.570   3.658   7.857
 1504SOL    HW121654   4.540   3.633   7.770
 1504SOL    HW221655   4.542   3.749   7.867
 1505SOL     OW21656   2.970   4.602   7.796
 1505SOL    HW121657   3.062   4.618   7.777
 1505SOL    HW221658   2.968   4.571   7.886
 1506SOL     OW21659   4.955   6.129   1.353
 1506SOL    HW121660   4.932   6.129   1.260
 1506SOL    HW221661   5.044   6.165   1.355
 1507SOL     OW21662   2.536   3.899   2.365
 1507SOL    HW121663   2.525   3.961   2.437
 1507SOL    HW221664   2.529   3.813   2.406
 1508SOL     OW21665   4.338   3.655   0.539
 1508SOL    HW121666   4.419   3.665   0.489
 1508SOL    HW221667   4.311   3.745   0.558
 1509SOL     OW21668   5.515   0.405   0.708
 1509SOL    HW121669   5.443   0.356   0.749
 1509SOL    HW221670   5.577   0.420   0.779
 1510SOL     OW21671   0.029   3.149   0.938
 1510SOL    HW121672   0.056   3.207   0.867
 1510SOL    HW221673  -0.063   3.172   0.954
 1511SOL     OW21674   4.053   0.199   1.380
 1511SOL    HW121675   3.960   0.222   1.379
 1511SOL    HW221676   4.068   0.166   1.469
 1512SOL     OW21677   2.753   2.599   7.438
 1512SOL    HW121678   2.687   2.650   7.391
 1512SOL    HW221679   2.742   2.624   7.530
 1513SOL     OW21680   2.597   2.608   7.768
 1513SOL    HW121681   2.649   2.653   7.835
 1513SOL    HW221682   2.542   2.677   7.730
 1514SOL     OW21683   0.615   1.013   7.284
 1514SOL    HW121684   0.521   1.000   7.275
 1514SOL    HW221685   0.624   1.095   7.331
 1515SOL     OW21686   3.905   3.431   2.020
 1515SOL    HW121687   3.965   3.506   2.022
 1515SOL    HW221688   3.915   3.391   2.106
 1516SOL     OW21689   0.369   3.685   7.493
 1516SOL    HW121690   0.277   3.676   7.470
 1516SOL    HW221691   0.395   3.770   7.458
 1517SOL     OW21692   5.048   3.123   6.976
 1517SOL    HW121693   5.051   3.158   6.887
 1517SOL    HW221694   4.961   3.084   6.983
 1518SOL     OW21695   2.817   4.778   7.690
 1518SOL    HW121696   2.805   4.833   7.767
 1518SOL    HW221697   2.887   4.717   7.714
 1519SOL     OW21698   2.229   3.220   0.518
 1519SOL    HW121699   2.259   3.129   0.518
 1519SOL    HW221700   2.180   3.228   0.600
 1520SOL     OW21701   3.936   0.492   0.197
 1520SOL    HW121702   3.973   0.417   0.244
 1520SOL    HW221703   4.011   0.550   0.183
 1521SOL     OW21704   5.933   1.436   7.165
 1521SOL    HW121705   5.890   1.353   7.183
 1521SOL    HW221706   5.968   1.426   7.076
 1522SOL     OW21707   2.413   5.200   0.176
 1522SOL    HW121708   2.355   5.124   0.178
 1522SOL    HW221709   2.490   5.170   0.127
 1523SOL     OW21710   3.252   4.864   1.566
 1523SOL    HW121711   3.318   4.795   1.575
 1523SOL    HW221712   3.170   4.817   1.550
 1524SOL     OW21713   0.134   6.239   1.725
 1524SOL    HW121714   0.137   6.302   1.797
 1524SOL    HW221715   0.086   6.285   1.656
 1525SOL     OW21716   1.224   5.161   7.361
 1525SOL    HW121717   1.158   5.160   7.292
 1525SOL    HW221718   1.303   5.195   7.319
 1526SOL     OW21719   5.041   1.996   7.545
 1526SOL    HW121720   5.019   2.053   7.619
 1526SOL    HW221721   4.957   1.959   7.517
 1527SOL     OW21722   6.365   4.522   7.668
 1527SOL    HW121723   6.386   4.483   7.583
 1527SOL    HW221724   6.366   4.448   7.729
 1528SOL     OW21725   3.919   4.559   1.528
 1528SOL    HW121726   3.835   4.516   1.545
 1528SOL    HW221727   3.932   4.616   1.605
 1529SOL     OW21728   2.680   4.032   1.753
 1529SOL    HW121729   2.670   4.072   1.840
 1529SOL    HW221730   2.631   4.089   1.694
 1530SOL     OW21731   5.894   4.040   6.693
 1530SOL    HW121732   5.826   4.009   6.752
 1530SOL    HW221733   5.946   3.962   6.673
 1531SOL     OW21734   1.080   3.698   6.131
 1531SOL    HW121735   1.047   3.788   6.133
 1531SOL    HW221736   1.164   3.704   6.085
 1532SOL     OW21737   5.587   3.691   0.141
 1532SOL    HW121738   5.554   3.765   0.089
 1532SOL    HW221739   5.627   3.633   0.076
 1533SOL     OW21740   3.778   0.813   6.218
 1533SOL    HW121741   3.773   0.848   6.129
 1533SOL    HW221742   3.696   0.764   6.229
 1534SOL     OW21743   5.052   3.123   0.704
 1534SOL    HW121744   5.010   3.084   0.627
 1534SOL    HW221745   5.012   3.209   0.712
 1535SOL     OW21746   0.355   5.086   0.598
 1535SOL    HW121747   0.415   5.021   0.635
 1535SOL    HW221748   0.272   5.070   0.643
 1536SOL     OW21749   1.639   3.023   7.119
 1536SOL    HW121750   1.670   3.001   7.207
 1536SOL    HW221751   1.591   3.105   7.130
 1537SOL     OW21752   2.563   1.120   0.063
 1537SOL    HW121753   2.623   1.131   0.137
 1537SOL    HW221754   2.603   1.051   0.011
 1538SOL     OW21755   3.347   2.008   0.334
 1538SOL    HW121756   3.429   1.964   0.357
 1538SOL    HW221757   3.285   1.980   0.401
 1539SOL     OW21758   1.374   1.728   6.225
 1539SOL    HW121759   1.428   1.799   6.261
 1539SOL    HW221760   1.436   1.670   6.182
 1540SOL     OW21761   5.346   0.857   7.561
 1540SOL    HW121762   5.341   0.951   7.543
 1540SOL    HW221763   5.374   0.852   7.653
 1541SOL     OW21764   1.319   6.261   7.507
 1541SOL    HW121765   1.357   6.182   7.469
 1541SOL    HW221766   1.227   6.239   7.523
 1542SOL     OW21767   2.197   2.161   6.008
 1542SOL    HW121768   2.221   2.140   6.099
 1542SOL    HW221769   2.253   2.105   5.955
 1543SOL     OW21770   0.285   4.484   0.276
 1543SOL    HW121771   0.337   4.416   0.234
 1543SOL    HW221772   0.230   4.519   0.206
 1544SOL     OW21773   1.226   3.503   1.860
 1544SOL    HW121774   1.272   3.423   1.838
 1544SOL    HW221775   1.295   3.566   1.882
 1545SOL     OW21776   3.961   4.833   7.316
 1545SOL    HW121777   4.039   4.830   7.261
 1545SOL    HW221778   3.980   4.772   7.387
 1546SOL     OW21779   4.208   5.397   0.281
 1546SOL    HW121780   4.257   5.470   0.318
 1546SOL    HW221781   4.268   5.322   0.288
 1547SOL     OW21782   4.628   4.461   7.217
 1547SOL    HW121783   4.660   4.535   7.269
 1547SOL    HW221784   4.651   4.384   7.270
 1548SOL     OW21785   0.826   2.130   1.736
 1548SOL    HW121786   0.819   2.037   1.714
 1548SOL    HW221787   0.740   2.167   1.715
 1549SOL     OW21788   0.692   2.358   1.196
 1549SOL    HW121789   0.634   2.377   1.122
 1549SOL    HW221790   0.641   2.383   1.273
 1550SOL     OW21791   1.251   2.216   5.337
 1550SOL    HW121792   1.281   2.289   5.284
 1550SOL    HW221793   1.329   2.188   5.385
 1551SOL     OW21794   6.313   3.133   1.361
 1551SOL    HW121795   6.223   3.165   1.360
 1551SOL    HW221796   6.366   3.209   1.337
 1552SOL     OW21797   0.547   4.010   1.388
 1552SOL    HW121798   0.451   4.017   1.394
 1552SOL    HW221799   0.572   3.968   1.471
 1553SOL     OW21800   4.412   4.516   0.219
 1553SOL    HW121801   4.354   4.590   0.237
 1553SOL    HW221802   4.461   4.542   0.141
 1554SOL     OW21803   1.987   2.984   0.422
 1554SOL    HW121804   1.964   2.958   0.511
 1554SOL    HW221805   2.018   3.075   0.431
 1555SOL     OW21806   4.804   1.608   1.254
 1555SOL    HW121807   4.772   1.687   1.210
 1555SOL    HW221808   4.896   1.625   1.272
 1556SOL     OW21809   1.650   5.590   6.894
 1556SOL    HW121810   1.674   5.531   6.822
 1556SOL    HW221811   1.560   5.616   6.875
 1557SOL     OW21812   4.175   0.300   0.006
 1557SOL    HW121813   4.159   0.394   0.001
 1557SOL    HW221814   4.197   0.284   0.097
 1558SOL     OW21815   1.732   0.446   7.717
 1558SOL    HW121816   1.682   0.438   7.636
 1558SOL    HW221817   1.714   0.535   7.748
 1559SOL     OW21818   2.697   2.667   0.990
 1559SOL    HW121819   2.699   2.622   0.906
 1559SOL    HW221820   2.736   2.605   1.051
 1560SOL     OW21821   5.410   4.021   6.500
 1560SOL    HW121822   5.337   4.075   6.470
 1560SOL    HW221823   5.369   3.943   6.537
 1561SOL     OW21824   1.525   4.483   7.485
 1561SOL    HW121825   1.444   4.445   7.451
 1561SOL    HW221826   1.532   4.569   7.444
 1562SOL     OW21827   1.904   1.399   5.947
 1562SOL    HW121828   1.840   1.373   5.881
 1562SOL    HW221829   1.983   1.422   5.897
 1563SOL     OW21830   0.258   4.766   0.568
 1563SOL    HW121831   0.266   4.671   0.582
 1563SOL    HW221832   0.345   4.793   0.539
 1564SOL     OW21833   2.033   5.487   0.188
 1564SOL    HW121834   2.118   5.497   0.230
 1564SOL    HW221835   1.989   5.571   0.199
 1565SOL     OW21836   1.698   4.656   0.021
 1565SOL    HW121837   1.626   4.602   0.054
 1565SOL    HW221838   1.772   4.597   0.017
 1566SOL     OW21839   1.659   5.518   0.124
 1566SOL    HW121840   1.706   5.560   0.052
 1566SOL    HW221841   1.709   5.439   0.143
 1567SOL     OW21842   2.492   1.967   0.867
 1567SOL    HW121843   2.455   1.885   0.835
 1567SOL    HW221844   2.444   1.985   0.948
 1568SOL     OW21845   0.816   0.722   6.874
 1568SOL    HW121846   0.724   0.748   6.885
 1568SOL    HW221847   0.860   0.753   6.953
 1569SOL     OW21848   3.162   2.822   0.469
 1569SOL    HW121849   3.185   2.915   0.474
 1569SOL    HW221850   3.237   2.778   0.510
 1570SOL     OW21851   5.687   5.340   2.479
 1570SOL    HW121852   5.666   5.424   2.438
 1570SOL    HW221853   5.781   5.329   2.465
 1571SOL     OW21854   6.437   4.935   6.565
 1571SOL    HW121855   6.406   4.913   6.653
 1571SOL    HW221856   6.372   4.997   6.532
 1572SOL     OW21857   3.537   6.181   1.446
 1572SOL    HW121858   3.594   6.216   1.515
 1572SOL    HW221859   3.493   6.257   1.410
 1573SOL     OW21860   4.603   4.835   7.802
 1573SOL    HW121861   4.686   4.816   7.757
 1573SOL    HW221862   4.623   4.912   7.855
 1574SOL     OW21863   3.702   6.338   7.828
 1574SOL    HW121864   3.615   6.376   7.837
 1574SOL    HW221865   3.688   6.257   7.778
 1575SOL     OW21866   5.991   3.096   1.124
 1575SOL    HW121867   6.027   3.179   1.090
 1575SOL    HW221868   5.916   3.078   1.068
 1576SOL     OW21869   2.591   1.334   5.315
 1576SOL    HW121870   2.574   1.378   5.398
 1576SOL    HW221871   2.685   1.315   5.316
 1577SOL     OW21872   0.529   0.011   1.116
 1577SOL    HW121873   0.563  -0.062   1.169
 1577SOL    HW221874   0.496   0.073   1.181
 1578SOL     OW21875   1.488   2.122   7.501
 1578SOL    HW121876   1.575   2.160   7.496
 1578SOL    HW221877   1.444   2.171   7.571
 1579SOL     OW21878   6.133   5.248   5.806
 1579SOL    HW121879   6.078   5.256   5.884
 1579SOL    HW221880   6.092   5.307   5.742
 1580SOL     OW21881   1.800   3.053   7.340
 1580SOL    HW121882   1.800   3.139   7.383
 1580SOL    HW221883   1.891   3.039   7.315
 1581SOL     OW21884   4.474   5.542   6.516
 1581SOL    HW121885   4.523   5.500   6.586
 1581SOL    HW221886   4.453   5.472   6.455
 1582SOL     OW21887   2.517   4.311   6.776
 1582SOL    HW121888   2.556   4.324   6.689
 1582SOL    HW221889   2.572   4.244   6.816
 1583SOL     OW21890   4.778   5.520   6.413
 1583SOL    HW121891   4.712   5.534   6.345
 1583SOL    HW221892   4.773   5.599   6.468
 1584SOL     OW21893   5.809   4.501   1.364
 1584SOL    HW121894   5.769   4.420   1.395
 1584SOL    HW221895   5.794   4.564   1.435
 1585SOL     OW21896   6.065   4.444   2.450
 1585SOL    HW121897   6.135   4.509   2.444
 1585SOL    HW221898   5.987   4.489   2.416
 1586SOL     OW21899   1.497   1.355   6.890
 1586SOL    HW121900   1.547   1.434   6.911
 1586SOL    HW221901   1.437   1.344   6.964
 1587SOL     OW21902   2.932   3.642   6.140
 1587SOL    HW121903   2.844   3.674   6.162
 1587SOL    HW221904   2.942   3.661   6.047
 1588SOL     OW21905   2.951   2.811   6.036
 1588SOL    HW121906   2.972   2.887   6.092
 1588SOL    HW221907   2.970   2.841   5.947
 1589SOL     OW21908   1.822   2.434   0.195
 1589SOL    HW121909   1.871   2.380   0.257
 1589SOL    HW221910   1.733   2.399   0.199
 1590SOL     OW21911   1.339   6.046   7.298
 1590SOL    HW121912   1.359   5.954   7.283
 1590SOL    HW221913   1.248   6.055   7.269
 1591SOL     OW21914   2.493   4.650   0.103
 1591SOL    HW121915   2.563   4.709   0.075
 1591SOL    HW221916   2.474   4.676   0.193
 1592SOL     OW21917   2.947   5.253   6.557
 1592SOL    HW121918   2.946   5.339   6.514
 1592SOL    HW221919   2.901   5.268   6.640
 1593SOL     OW21920   4.456   2.017   6.156
 1593SOL    HW121921   4.485   2.105   6.131
 1593SOL    HW221922   4.524   1.959   6.123
 1594SOL     OW21923   5.920   6.031   0.402
 1594SOL    HW121924   5.996   6.076   0.365
 1594SOL    HW221925   5.956   5.950   0.438
 1595SOL     OW21926   2.641   3.368   0.992
 1595SOL    HW121927   2.680   3.455   0.978
 1595SOL    HW221928   2.713   3.313   1.021
 1596SOL     OW21929   0.008   0.436   6.160
 1596SOL    HW121930   0.028   0.358   6.108
 1596SOL    HW221931   0.004   0.406   6.250
 1597SOL     OW21932   4.105   3.876   5.676
 1597SOL    HW121933   4.110   3.800   5.734
 1597SOL    HW221934   4.057   3.845   5.600
 1598SOL     OW21935   4.302   1.141   6.453
 1598SOL    HW121936   4.238   1.212   6.442
 1598SOL    HW221937   4.335   1.125   6.365
 1599SOL     OW21938   3.578   1.556   1.238
 1599SOL    HW121939   3.517   1.536   1.167
 1599SOL    HW221940   3.571   1.481   1.298
 1600SOL     OW21941   2.005   3.173   6.334
 1600SOL    HW121942   2.046   3.144   6.253
 1600SOL    HW221943   1.998   3.268   6.325
 1601SOL     OW21944   3.576   2.645   1.546
 1601SOL    HW121945   3.588   2.616   1.637
 1601SOL    HW221946   3.641   2.714   1.534
 1602SOL     OW21947   2.187   2.796   5.674
 1602SOL    HW121948   2.098   2.792   5.641
 1602SOL    HW221949   2.189   2.876   5.727
 1603SOL     OW21950   4.662   5.437   6.873
 1603SOL    HW121951   4.674   5.347   6.844
 1603SOL    HW221952   4.567   5.448   6.875
 1604SOL     OW21953   1.172   5.210   0.716
 1604SOL    HW121954   1.144   5.135   0.768
 1604SOL    HW221955   1.096   5.232   0.662
 1605SOL     OW21956   4.358   0.345   6.955
 1605SOL    HW121957   4.273   0.346   6.912
 1605SOL    HW221958   4.339   0.358   7.048
 1606SOL     OW21959   3.064   3.612   6.953
 1606SOL    HW121960   3.130   3.677   6.928
 1606SOL    HW221961   3.035   3.639   7.040
 1607SOL     OW21962   1.913   4.356   6.243
 1607SOL    HW121963   1.977   4.321   6.180
 1607SOL    HW221964   1.932   4.450   6.247
 1608SOL     OW21965   0.909   1.321   6.886
 1608SOL    HW121966   0.867   1.264   6.950
 1608SOL    HW221967   0.894   1.410   6.919
 1609SOL     OW21968   1.856   5.190   6.811
 1609SOL    HW121969   1.927   5.171   6.872
 1609SOL    HW221970   1.862   5.120   6.746
 1610SOL     OW21971   2.187   1.592   7.223
 1610SOL    HW121972   2.143   1.507   7.223
 1610SOL    HW221973   2.226   1.599   7.136
 1611SOL     OW21974   0.969   2.292   1.112
 1611SOL    HW121975   0.946   2.261   1.024
 1611SOL    HW221976   0.888   2.285   1.162
 1612SOL     OW21977   0.869   6.093   1.870
 1612SOL    HW121978   0.938   6.129   1.925
 1612SOL    HW221979   0.915   6.056   1.795
 1613SOL     OW21980   5.198   2.760   7.628
 1613SOL    HW121981   5.192   2.712   7.545
 1613SOL    HW221982   5.179   2.851   7.604
 1614SOL     OW21983   5.138   3.767   0.882
 1614SOL    HW121984   5.220   3.759   0.834
 1614SOL    HW221985   5.136   3.690   0.938
 1615SOL     OW21986   1.640   3.152   1.786
 1615SOL    HW121987   1.672   3.191   1.867
 1615SOL    HW221988   1.685   3.068   1.781
 1616SOL     OW21989   2.254   5.740   0.826
 1616SOL    HW121990   2.233   5.689   0.748
 1616SOL    HW221991   2.235   5.681   0.899
 1617SOL     OW21992   3.121   2.021   1.401
 1617SOL    HW121993   3.100   1.939   1.356
 1617SOL    HW221994   3.128   1.996   1.494
 1618SOL     OW21995   3.522   5.571   1.347
 1618SOL    HW121996   3.555   5.607   1.265
 1618SOL    HW221997   3.596   5.577   1.407
 1619SOL     OW21998   2.199   4.206   6.612
 1619SOL    HW121999   2.181   4.237   6.701
 1619SOL    HW222000   2.157   4.271   6.555
 1620SOL     OW22001   1.455   3.841   0.821
 1620SOL    HW122002   1.467   3.917   0.878
 1620SOL    HW222003   1.501   3.770   0.866
 1621SOL     OW22004   0.451   3.051   7.453
 1621SOL    HW122005   0.469   3.067   7.546
 1621SOL    HW222006   0.494   3.124   7.409
 1622SOL     OW22007   4.926   1.696   0.853
 1622SOL    HW122008   4.849   1.655   0.891
 1622SOL    HW222009   4.897   1.730   0.769
 1623SOL     OW22010   5.147   2.594   0.594
 1623SOL    HW122011   5.234   2.581   0.632
 1623SOL    HW222012   5.103   2.509   0.605
 1624SOL     OW22013   3.391   1.882   5.637
 1624SOL    HW122014   3.401   1.836   5.553
 1624SOL    HW222015   3.427   1.822   5.702
 1625SOL     OW22016   3.038   1.984   0.189
 1625SOL    HW122017   3.048   2.075   0.161
 1625SOL    HW222018   3.090   1.978   0.269
 1626SOL     OW22019   1.014   1.077   0.547
 1626SOL    HW122020   1.000   1.140   0.618
 1626SOL    HW222021   0.970   0.998   0.576
 1627SOL     OW22022   4.600   3.131   6.603
 1627SOL    HW122023   4.586   3.071   6.676
 1627SOL    HW222024   4.624   3.074   6.530
 1628SOL     OW22025   4.239   4.098   7.836
 1628SOL    HW122026   4.219   4.191   7.824
 1628SOL    HW222027   4.232   4.061   7.749
 1629SOL     OW22028   1.303   0.259   1.544
 1629SOL    HW122029   1.339   0.284   1.629
 1629SOL    HW222030   1.235   0.325   1.526
 1630SOL     OW22031   3.480   5.833   5.859
 1630SOL    HW122032   3.508   5.910   5.909
 1630SOL    HW222033   3.492   5.759   5.920
 1631SOL     OW22034   4.007   2.138   0.297
 1631SOL    HW122035   3.950   2.131   0.220
 1631SOL    HW222036   4.064   2.061   0.292
 1632SOL     OW22037   3.190   1.265   7.699
 1632SOL    HW122038   3.278   1.262   7.736
 1632SOL    HW222039   3.161   1.355   7.713
 1633SOL     OW22040   4.746   1.334   1.233
 1633SOL    HW122041   4.838   1.332   1.208
 1633SOL    HW222042   4.724   1.427   1.237
 1634SOL     OW22043   3.568   5.794   1.922
 1634SOL    HW122044   3.502   5.793   1.853
 1634SOL    HW222045   3.650   5.815   1.878
 1635SOL     OW22046   1.738   3.311   1.236
 1635SOL    HW122047   1.644   3.311   1.219
 1635SOL    HW222048   1.750   3.372   1.308
 1636SOL     OW22049   3.220   1.016   1.349
 1636SOL    HW122050   3.231   1.070   1.427
 1636SOL    HW222051   3.296   1.036   1.295
 1637SOL     OW22052   1.022   0.248   1.236
 1637SOL    HW122053   0.927   0.240   1.236
 1637SOL    HW222054   1.040   0.329   1.285
 1638SOL     OW22055   3.258   6.400   6.428
 1638SOL    HW122056   3.223   6.433   6.510
 1638SOL    HW222057   3.211   6.318   6.413
 1639SOL     OW22058   4.549   4.204   7.794
 1639SOL    HW122059   4.514   4.247   7.716
 1639SOL    HW222060   4.636   4.173   7.767
 1640SOL     OW22061   3.941   1.133   6.572
 1640SOL    HW122062   3.958   1.110   6.481
 1640SOL    HW222063   3.846   1.125   6.581
 1641SOL     OW22064   4.006   0.044   7.205
 1641SOL    HW122065   3.913   0.060   7.190
 1641SOL    HW222066   4.042   0.029   7.117
 1642SOL     OW22067   3.093   5.507   2.051
 1642SOL    HW122068   3.142   5.584   2.080
 1642SOL    HW222069   3.102   5.507   1.956
 1643SOL     OW22070   4.129   4.646   6.250
 1643SOL    HW122071   4.093   4.680   6.168
 1643SOL    HW222072   4.062   4.665   6.315
 1644SOL     OW22073   5.517   4.490   0.383
 1644SOL    HW122074   5.430   4.451   0.396
 1644SOL    HW222075   5.544   4.517   0.471
 1645SOL     OW22076   3.153   6.034   1.819
 1645SOL    HW122077   3.203   5.959   1.850
 1645SOL    HW222078   3.115   6.072   1.898
 1646SOL     OW22079   1.312   4.419   0.701
 1646SOL    HW122080   1.288   4.331   0.731
 1646SOL    HW222081   1.336   4.406   0.609
 1647SOL     OW22082   2.267   3.300   5.376
 1647SOL    HW122083   2.243   3.281   5.467
 1647SOL    HW222084   2.277   3.396   5.374
 1648SOL     OW22085   3.407   4.751   0.825
 1648SOL    HW122086   3.405   4.824   0.763
 1648SOL    HW222087   3.385   4.790   0.910
 1649SOL     OW22088   1.818   5.204   5.961
 1649SOL    HW122089   1.900   5.247   5.937
 1649SOL    HW222090   1.763   5.213   5.883
 1650SOL     OW22091   0.854   0.834   6.428
 1650SOL    HW122092   0.801   0.904   6.467
 1650SOL    HW222093   0.802   0.803   6.354
 1651SOL     OW22094   1.184   2.752   5.745
 1651SOL    HW122095   1.267   2.772   5.788
 1651SOL    HW222096   1.204   2.678   5.688
 1652SOL     OW22097   5.439   2.988   0.501
 1652SOL    HW122098   5.464   2.918   0.562
 1652SOL    HW222099   5.387   2.943   0.434
 1653SOL     OW22100   1.765   1.544   4.894
 1653SOL    HW122101   1.830   1.480   4.921
 1653SOL    HW222102   1.681   1.504   4.919
 1654SOL     OW22103   3.791   5.024   7.196
 1654SOL    HW122104   3.710   4.981   7.223
 1654SOL    HW222105   3.860   4.961   7.219
 1655SOL     OW22106   2.226   5.543   1.971
 1655SOL    HW122107   2.222   5.633   2.003
 1655SOL    HW222108   2.241   5.490   2.049
 1656SOL     OW22109   4.959   5.779   0.505
 1656SOL    HW122110   4.957   5.868   0.470
 1656SOL    HW222111   4.922   5.725   0.435
 1657SOL     OW22112   4.944   0.120   7.773
 1657SOL    HW122113   5.017   0.067   7.806
 1657SOL    HW222114   4.926   0.182   7.844
 1658SOL     OW22115   4.527   2.369   6.713
 1658SOL    HW122116   4.500   2.339   6.800
 1658SOL    HW222117   4.470   2.443   6.694
 1659SOL     OW22118   5.566   1.624   1.212
 1659SOL    HW122119   5.484   1.634   1.163
 1659SOL    HW222120   5.578   1.708   1.257
 1660SOL     OW22121   1.528   3.750   0.576
 1660SOL    HW122122   1.441   3.716   0.554
 1660SOL    HW222123   1.516   3.791   0.662
 1661SOL     OW22124   2.635   3.004   0.448
 1661SOL    HW122125   2.564   3.068   0.445
 1661SOL    HW222126   2.714   3.054   0.429
 1662SOL     OW22127   4.403   2.963   1.679
 1662SOL    HW122128   4.316   3.000   1.667
 1662SOL    HW222129   4.432   2.995   1.764
 1663SOL     OW22130   3.977   0.095   0.427
 1663SOL    HW122131   3.951   0.130   0.513
 1663SOL    HW222132   3.897   0.059   0.391
 1664SOL     OW22133   5.881   0.796   0.039
 1664SOL    HW122134   5.954   0.821  -0.016
 1664SOL    HW222135   5.840   0.723  -0.007
 1665SOL     OW22136   4.688   3.693   0.662
 1665SOL    HW122137   4.694   3.756   0.734
 1665SOL    HW222138   4.634   3.737   0.596
 1666SOL     OW22139   1.961   5.378   6.156
 1666SOL    HW122140   1.872   5.358   6.127
 1666SOL    HW222141   2.014   5.377   6.076
 1667SOL     OW22142   1.227   5.830   7.064
 1667SOL    HW122143   1.278   5.784   7.130
 1667SOL    HW222144   1.282   5.903   7.037
 1668SOL     OW22145   4.712   5.665   0.675
 1668SOL    HW122146   4.748   5.577   0.664
 1668SOL    HW222147   4.769   5.721   0.622
 1669SOL     OW22148   0.659   4.875   6.972
 1669SOL    HW122149   0.744   4.876   6.928
 1669SOL    HW222150   0.620   4.959   6.950
 1670SOL     OW22151   2.450   1.301   6.979
 1670SOL    HW122152   2.407   1.383   6.954
 1670SOL    HW222153   2.400   1.271   7.055
 1671SOL     OW22154   4.272   2.289   1.634
 1671SOL    HW122155   4.197   2.298   1.576
 1671SOL    HW222156   4.240   2.322   1.719
 1672SOL     OW22157   2.992   1.990   2.052
 1672SOL    HW122158   3.003   1.997   2.147
 1672SOL    HW222159   3.079   2.009   2.017
 1673SOL     OW22160   1.933   1.103   7.563
 1673SOL    HW122161   1.897   1.071   7.646
 1673SOL    HW222162   2.027   1.101   7.575
 1674SOL     OW22163   3.761   5.519   7.281
 1674SOL    HW122164   3.803   5.441   7.317
 1674SOL    HW222165   3.668   5.505   7.296
 1675SOL     OW22166   3.135   1.929   0.483
 1675SOL    HW122167   3.100   1.978   0.557
 1675SOL    HW222168   3.118   1.837   0.505
 1676SOL     OW22169   3.383   0.529   7.244
 1676SOL    HW122170   3.429   0.546   7.161
 1676SOL    HW222171   3.295   0.564   7.230
 1677SOL     OW22172   6.334   1.215   6.190
 1677SOL    HW122173   6.272   1.155   6.232
 1677SOL    HW222174   6.287   1.250   6.114
 1678SOL     OW22175   0.013   5.134   0.369
 1678SOL    HW122176   0.021   5.191   0.446
 1678SOL    HW222177  -0.026   5.054   0.402
 1679SOL     OW22178   3.879   3.399   5.943
 1679SOL    HW122179   3.926   3.479   5.922
 1679SOL    HW222180   3.829   3.421   6.022
 1680SOL     OW22181   3.957   2.057   1.356
 1680SOL    HW122182   3.995   2.144   1.360
 1680SOL    HW222183   4.028   2.001   1.324
 1681SOL     OW22184   3.787   1.761   6.401
 1681SOL    HW122185   3.834   1.843   6.416
 1681SOL    HW222186   3.750   1.738   6.486
 1682SOL     OW22187   3.910   5.283   6.018
 1682SOL    HW122188   3.872   5.356   6.065
 1682SOL    HW222189   3.835   5.237   5.980
 1683SOL     OW22190   1.068   2.398   6.891
 1683SOL    HW122191   1.044   2.311   6.859
 1683SOL    HW222192   1.067   2.453   6.813
 1684SOL     OW22193   2.336   0.214   6.530
 1684SOL    HW122194   2.374   0.128   6.513
 1684SOL    HW222195   2.384   0.273   6.472
 1685SOL     OW22196   2.139   5.071   0.779
 1685SOL    HW122197   2.233   5.054   0.779
 1685SOL    HW222198   2.126   5.129   0.704
 1686SOL     OW22199   5.280   6.163   7.264
 1686SOL    HW122200   5.259   6.073   7.239
 1686SOL    HW222201   5.209   6.216   7.227
 1687SOL     OW22202   2.689   2.737   0.651
 1687SOL    HW122203   2.718   2.652   0.684
 1687SOL    HW222204   2.770   2.782   0.628
 1688SOL     OW22205   6.096   4.352   6.160
 1688SOL    HW122206   6.160   4.368   6.091
 1688SOL    HW222207   6.021   4.313   6.114
 1689SOL     OW22208   3.331   1.456   1.654
 1689SOL    HW122209   3.288   1.468   1.738
 1689SOL    HW222210   3.272   1.496   1.590
 1690SOL     OW22211   6.222   2.788   4.997
 1690SOL    HW122212   6.313   2.758   4.997
 1690SOL    HW222213   6.174   2.716   4.957
 1691SOL     OW22214   3.007   3.161   6.320
 1691SOL    HW122215   3.061   3.236   6.345
 1691SOL    HW222216   2.940   3.156   6.388
 1692SOL     OW22217   4.482   0.947   6.329
 1692SOL    HW122218   4.489   1.040   6.305
 1692SOL    HW222219   4.539   0.938   6.406
 1693SOL     OW22220   5.546   6.160   0.108
 1693SOL    HW122221   5.463   6.206   0.122
 1693SOL    HW222222   5.530   6.107   0.029
 1694SOL     OW22223   5.054   6.375   6.216
 1694SOL    HW122224   5.082   6.400   6.128
 1694SOL    HW222225   5.129   6.394   6.272
 1695SOL     OW22226   5.333   6.196   1.130
 1695SOL    HW122227   5.329   6.269   1.068
 1695SOL    HW222228   5.277   6.223   1.203
 1696SOL     OW22229   0.380   5.455   0.193
 1696SOL    HW122230   0.472   5.472   0.215
 1696SOL    HW222231   0.373   5.359   0.191
 1697SOL     OW22232   3.161   1.785   2.443
 1697SOL    HW122233   3.234   1.790   2.505
 1697SOL    HW222234   3.203   1.777   2.357
 1698SOL     OW22235   6.197   1.674   6.054
 1698SOL    HW122236   6.213   1.594   6.103
 1698SOL    HW222237   6.130   1.650   5.990
 1699SOL     OW22238   2.977   5.397   1.644
 1699SOL    HW122239   3.055   5.413   1.697
 1699SOL    HW222240   2.934   5.323   1.686
 1700SOL     OW22241   6.066   2.149   6.800
 1700SOL    HW122242   6.036   2.181   6.714
 1700SOL    HW222243   6.151   2.190   6.812
 1701SOL     OW22244   4.070   3.840   1.255
 1701SOL    HW122245   4.022   3.846   1.173
 1701SOL    HW222246   4.158   3.812   1.230
 1702SOL     OW22247   2.097   0.309   1.226
 1702SOL    HW122248   2.036   0.326   1.298
 1702SOL    HW222249   2.080   0.218   1.202
 1703SOL     OW22250   0.207   2.146   7.497
 1703SOL    HW122251   0.242   2.074   7.550
 1703SOL    HW222252   0.258   2.222   7.523
 1704SOL     OW22253   5.723   5.585   0.423
 1704SOL    HW122254   5.770   5.659   0.461
 1704SOL    HW222255   5.667   5.624   0.355
 1705SOL     OW22256   3.320   4.749   0.359
 1705SOL    HW122257   3.277   4.665   0.377
 1705SOL    HW222258   3.332   4.749   0.264
 1706SOL     OW22259   1.154   4.838   5.484
 1706SOL    HW122260   1.124   4.922   5.519
 1706SOL    HW222261   1.171   4.855   5.392
 1707SOL     OW22262   4.841   1.587   2.758
 1707SOL    HW122263   4.860   1.603   2.851
 1707SOL    HW222264   4.927   1.568   2.720
 1708SOL     OW22265   5.117   3.058   5.789
 1708SOL    HW122266   5.187   3.031   5.848
 1708SOL    HW222267   5.047   2.995   5.805
 1709SOL     OW22268   3.266   3.654   5.634
 1709SOL    HW122269   3.308   3.599   5.700
 1709SOL    HW222270   3.264   3.741   5.673
 1710SOL     OW22271   1.276   3.607   2.165
 1710SOL    HW122272   1.309   3.610   2.075
 1710SOL    HW222273   1.349   3.572   2.216
 1711SOL     OW22274   2.817   3.943   6.584
 1711SOL    HW122275   2.830   3.866   6.640
 1711SOL    HW222276   2.737   3.924   6.535
 1712SOL     OW22277   2.626   1.411   6.611
 1712SOL    HW122278   2.603   1.400   6.519
 1712SOL    HW222279   2.682   1.336   6.631
 1713SOL     OW22280   6.160   4.670   0.867
 1713SOL    HW122281   6.094   4.736   0.848
 1713SOL    HW222282   6.230   4.688   0.804
 1714SOL     OW22283   2.361   5.743   6.299
 1714SOL    HW122284   2.282   5.691   6.290
 1714SOL    HW222285   2.341   5.825   6.253
 1715SOL     OW22286   1.662   0.388   6.583
 1715SOL    HW122287   1.588   0.356   6.634
 1715SOL    HW222288   1.661   0.336   6.503
 1716SOL     OW22289   0.911   4.100   6.541
 1716SOL    HW122290   0.854   4.025   6.525
 1716SOL    HW222291   0.855   4.176   6.525
 1717SOL     OW22292   1.735   2.870   1.804
 1717SOL    HW122293   1.641   2.857   1.817
 1717SOL    HW222294   1.765   2.911   1.886
 1718SOL     OW22295   0.217   3.223   7.844
 1718SOL    HW122296   0.237   3.136   7.810
 1718SOL    HW222297   0.142   3.210   7.902
 1719SOL     OW22298   1.464   1.796   0.033
 1719SOL    HW122299   1.558   1.785   0.014
 1719SOL    HW222300   1.421   1.732  -0.023
 1720SOL     OW22301   4.706   5.031   0.156
 1720SOL    HW122302   4.702   5.089   0.079
 1720SOL    HW222303   4.746   5.085   0.224
 1721SOL     OW22304   3.223   3.971   1.118
 1721SOL    HW122305   3.256   4.051   1.077
 1721SOL    HW222306   3.295   3.942   1.175
 1722SOL     OW22307   3.649   6.204   7.022
 1722SOL    HW122308   3.574   6.263   7.032
 1722SOL    HW222309   3.651   6.184   6.929
 1723SOL     OW22310   3.276   3.833   0.883
 1723SOL    HW122311   3.265   3.738   0.885
 1723SOL    HW222312   3.261   3.861   0.973
 1724SOL     OW22313   4.899   4.392   6.037
 1724SOL    HW122314   4.809   4.404   6.006
 1724SOL    HW222315   4.954   4.420   5.963
 1725SOL     OW22316   5.077   6.061   1.606
 1725SOL    HW122317   5.029   6.035   1.527
 1725SOL    HW222318   5.037   6.144   1.632
 1726SOL     OW22319   3.301   5.784   6.446
 1726SOL    HW122320   3.396   5.782   6.461
 1726SOL    HW222321   3.264   5.819   6.527
 1727SOL     OW22322   3.778   5.578   0.734
 1727SOL    HW122323   3.813   5.514   0.797
 1727SOL    HW222324   3.733   5.524   0.669
 1728SOL     OW22325   0.257   5.383   7.391
 1728SOL    HW122326   0.331   5.357   7.446
 1728SOL    HW222327   0.200   5.306   7.390
 1729SOL     OW22328   0.169   6.341   1.277
 1729SOL    HW122329   0.252   6.327   1.230
 1729SOL    HW222330   0.154   6.435   1.272
 1730SOL     OW22331   5.435   0.995   2.244
 1730SOL    HW122332   5.352   0.964   2.208
 1730SOL    HW222333   5.499   0.929   2.217
 1731SOL     OW22334   6.284   4.091   1.751
 1731SOL    HW122335   6.314   4.004   1.777
 1731SOL    HW222336   6.365   4.143   1.745
 1732SOL     OW22337   5.470   3.801   7.374
 1732SOL    HW122338   5.505   3.794   7.463
 1732SOL    HW222339   5.402   3.868   7.380
 1733SOL     OW22340   5.892   2.815   6.382
 1733SOL    HW122341   5.969   2.870   6.393
 1733SOL    HW222342   5.884   2.768   6.465
 1734SOL     OW22343   3.032   3.394   0.504
 1734SOL    HW122344   2.955   3.423   0.457
 1734SOL    HW222345   3.011   3.407   0.597
 1735SOL     OW22346   2.097   3.078   7.287
 1735SOL    HW122347   2.190   3.074   7.262
 1735SOL    HW222348   2.050   3.063   7.205
 1736SOL     OW22349   2.716   1.051   6.008
 1736SOL    HW122350   2.663   1.044   5.929
 1736SOL    HW222351   2.806   1.056   5.977
 1737SOL     OW22352   2.165   5.326   6.742
 1737SOL    HW122353   2.149   5.267   6.816
 1737SOL    HW222354   2.130   5.279   6.666
 1738SOL     OW22355   3.439   4.689   1.602
 1738SOL    HW122356   3.506   4.754   1.580
 1738SOL    HW222357   3.445   4.678   1.697
 1739SOL     OW22358   1.696   0.149   0.285
 1739SOL    HW122359   1.630   0.113   0.226
 1739SOL    HW222360   1.727   0.229   0.240
 1740SOL     OW22361   5.267   6.158   6.916
 1740SOL    HW122362   5.258   6.101   6.993
 1740SOL    HW222363   5.274   6.098   6.842
 1741SOL     OW22364   3.802   4.970   2.020
 1741SOL    HW122365   3.791   4.880   1.988
 1741SOL    HW222366   3.780   4.965   2.113
 1742SOL     OW22367   1.532   1.463   0.967
 1742SOL    HW122368   1.540   1.534   1.031
 1742SOL    HW222369   1.510   1.507   0.885
 1743SOL     OW22370   5.211   2.399   6.730
 1743SOL    HW122371   5.214   2.441   6.816
 1743SOL    HW222372   5.252   2.463   6.671
 1744SOL     OW22373   4.791   4.451   0.225
 1744SOL    HW122374   4.696   4.437   0.216
 1744SOL    HW222375   4.822   4.457   0.135
 1745SOL     OW22376   4.899   5.301   5.620
 1745SOL    HW122377   4.877   5.388   5.589
 1745SOL    HW222378   4.979   5.314   5.672
 1746SOL     OW22379   2.690   1.217   7.083
 1746SOL    HW122380   2.599   1.237   7.061
 1746SOL    HW222381   2.711   1.277   7.154
 1747SOL     OW22382   1.763   0.434   1.813
 1747SOL    HW122383   1.784   0.484   1.891
 1747SOL    HW222384   1.679   0.392   1.833
 1748SOL     OW22385   1.554   1.122   0.756
 1748SOL    HW122386   1.647   1.135   0.734
 1748SOL    HW222387   1.550   1.137   0.850
 1749SOL     OW22388   6.408   3.821   7.315
 1749SOL    HW122389   6.432   3.768   7.239
 1749SOL    HW222390   6.457   3.783   7.388
 1750SOL     OW22391   4.692   5.379   7.533
 1750SOL    HW122392   4.679   5.398   7.440
 1750SOL    HW222393   4.611   5.336   7.559
 1751SOL     OW22394   3.005   5.861   7.653
 1751SOL    HW122395   2.913   5.837   7.665
 1751SOL    HW222396   3.018   5.862   7.558
 1752SOL     OW22397   0.800   5.465   6.965
 1752SOL    HW122398   0.823   5.431   7.051
 1752SOL    HW222399   0.738   5.400   6.930
 1753SOL     OW22400   4.443   0.542   0.865
 1753SOL    HW122401   4.449   0.625   0.912
 1753SOL    HW222402   4.525   0.536   0.816
 1754SOL     OW22403   3.030   3.141   1.455
 1754SOL    HW122404   3.106   3.186   1.419
 1754SOL    HW222405   2.958   3.204   1.447
 1755SOL     OW22406   5.497   6.049   0.566
 1755SOL    HW122407   5.576   6.098   0.543
 1755SOL    HW222408   5.522   5.999   0.644
 1756SOL     OW22409   4.355   6.076   5.509
 1756SOL    HW122410   4.357   6.075   5.413
 1756SOL    HW222411   4.360   6.169   5.532
 1757SOL     OW22412   4.383   1.901   6.445
 1757SOL    HW122413   4.477   1.887   6.436
 1757SOL    HW222414   4.370   1.993   6.422
 1758SOL     OW22415   5.084   1.624   5.648
 1758SOL    HW122416   5.177   1.647   5.651
 1758SOL    HW222417   5.080   1.549   5.589
 1759SOL     OW22418   0.867   2.899   2.274
 1759SOL    HW122419   0.864   2.981   2.323
 1759SOL    HW222420   0.776   2.868   2.273
 1760SOL     OW22421   2.308   0.653   1.304
 1760SOL    HW122422   2.216   0.641   1.283
 1760SOL    HW222423   2.352   0.661   1.220
 1761SOL     OW22424   2.708   4.507   7.668
 1761SOL    HW122425   2.715   4.567   7.594
 1761SOL    HW222426   2.784   4.527   7.723
 1762SOL     OW22427   1.150   0.116   7.719
 1762SOL    HW122428   1.086   0.045   7.717
 1762SOL    HW222429   1.109   0.183   7.774
 1763SOL     OW22430   4.662   3.984   7.389
 1763SOL    HW122431   4.596   4.024   7.333
 1763SOL    HW222432   4.646   3.890   7.382
 1764SOL     OW22433   5.313   5.341   7.672
 1764SOL    HW122434   5.254   5.379   7.737
 1764SOL    HW222435   5.256   5.287   7.617
 1765SOL     OW22436   4.841   3.313   7.853
 1765SOL    HW122437   4.824   3.401   7.819
 1765SOL    HW222438   4.841   3.257   7.775
 1766SOL     OW22439   3.388   4.136   6.073
 1766SOL    HW122440   3.371   4.071   6.141
 1766SOL    HW222441   3.470   4.107   6.033
 1767SOL     OW22442   1.760   6.208   0.988
 1767SOL    HW122443   1.741   6.298   0.963
 1767SOL    HW222444   1.798   6.168   0.910
 1768SOL     OW22445   6.122   4.953   1.320
 1768SOL    HW122446   6.074   5.035   1.305
 1768SOL    HW222447   6.092   4.895   1.250
 1769SOL     OW22448   0.764   4.795   0.933
 1769SOL    HW122449   0.788   4.812   0.842
 1769SOL    HW222450   0.765   4.700   0.941
 1770SOL     OW22451   3.675   5.229   7.717
 1770SOL    HW122452   3.738   5.278   7.664
 1770SOL    HW222453   3.689   5.262   7.806
 1771SOL     OW22454   4.666   0.549   7.003
 1771SOL    HW122455   4.733   0.517   6.942
 1771SOL    HW222456   4.658   0.480   7.068
 1772SOL     OW22457   0.760   4.544   1.518
 1772SOL    HW122458   0.854   4.560   1.508
 1772SOL    HW222459   0.746   4.544   1.613
 1773SOL     OW22460   5.643   4.041   0.391
 1773SOL    HW122461   5.633   4.100   0.465
 1773SOL    HW222462   5.716   4.076   0.341
 1774SOL     OW22463   1.660   2.383   1.193
 1774SOL    HW122464   1.753   2.362   1.198
 1774SOL    HW222465   1.653   2.471   1.230
 1775SOL     OW22466   5.909   5.901   6.503
 1775SOL    HW122467   5.937   5.991   6.519
 1775SOL    HW222468   5.818   5.910   6.473
 1776SOL     OW22469   0.287   6.263   7.796
 1776SOL    HW122470   0.316   6.238   7.708
 1776SOL    HW222471   0.257   6.353   7.786
 1777SOL     OW22472   1.949   1.189   0.162
 1777SOL    HW122473   1.931   1.230   0.247
 1777SOL    HW222474   2.033   1.143   0.176
 1778SOL     OW22475   4.445   4.514   1.014
 1778SOL    HW122476   4.367   4.484   1.059
 1778SOL    HW222477   4.453   4.606   1.039
 1779SOL     OW22478   2.976   0.135   0.148
 1779SOL    HW122479   3.069   0.133   0.171
 1779SOL    HW222480   2.974   0.157   0.055
 1780SOL     OW22481   2.852   4.459   0.850
 1780SOL    HW122482   2.801   4.471   0.930
 1780SOL    HW222483   2.878   4.547   0.824
 1781SOL     OW22484   3.689   4.400   7.199
 1781SOL    HW122485   3.740   4.429   7.275
 1781SOL    HW222486   3.610   4.454   7.202
 1782SOL     OW22487   5.400   0.544   5.749
 1782SOL    HW122488   5.406   0.606   5.822
 1782SOL    HW222489   5.476   0.487   5.760
 1783SOL     OW22490   5.812   0.891   0.299
 1783SOL    HW122491   5.905   0.871   0.306
 1783SOL    HW222492   5.792   0.882   0.206
 1784SOL     OW22493   3.218   1.576   5.624
 1784SOL    HW122494   3.150   1.630   5.665
 1784SOL    HW222495   3.273   1.638   5.576
 1785SOL     OW22496   1.282   4.785   6.370
 1785SOL    HW122497   1.275   4.880   6.381
 1785SOL    HW222498   1.203   4.761   6.321
 1786SOL     OW22499   4.533   2.653   2.495
 1786SOL    HW122500   4.462   2.705   2.531
 1786SOL    HW222501   4.575   2.711   2.432
 1787SOL     OW22502   5.160   5.392   7.216
 1787SOL    HW122503   5.252   5.388   7.241
 1787SOL    HW222504   5.149   5.321   7.152
 1788SOL     OW22505   6.397   5.598   6.896
 1788SOL    HW122506   6.439   5.634   6.975
 1788SOL    HW222507   6.470   5.578   6.838
 1789SOL     OW22508   6.243   3.395   0.706
 1789SOL    HW122509   6.332   3.405   0.671
 1789SOL    HW222510   6.196   3.346   0.639
 1790SOL     OW22511   5.050   2.159   2.352
 1790SOL    HW122512   5.120   2.213   2.314
 1790SOL    HW222513   4.971   2.189   2.308
 1791SOL     OW22514   6.388   1.619   6.554
 1791SOL    HW122515   6.308   1.623   6.606
 1791SOL    HW222516   6.430   1.704   6.568
 1792SOL     OW22517   3.391   5.139   6.315
 1792SOL    HW122518   3.398   5.047   6.340
 1792SOL    HW222519   3.366   5.184   6.396
 1793SOL     OW22520   3.805   2.032   0.066
 1793SOL    HW122521   3.810   2.125   0.041
 1793SOL    HW222522   3.796   1.986  -0.017
 1794SOL     OW22523   2.957   1.103   1.220
 1794SOL    HW122524   3.046   1.070   1.218
 1794SOL    HW222525   2.952   1.165   1.148
 1795SOL     OW22526   3.689   0.198   7.594
 1795SOL    HW122527   3.771   0.176   7.550
 1795SOL    HW222528   3.716   0.221   7.683
 1796SOL     OW22529   4.305   4.748   0.319
 1796SOL    HW122530   4.284   4.735   0.412
 1796SOL    HW222531   4.370   4.819   0.319
 1797SOL     OW22532   3.383   4.232   1.631
 1797SOL    HW122533   3.388   4.138   1.646
 1797SOL    HW222534   3.409   4.272   1.714
 1798SOL     OW22535   5.925   3.604   7.812
 1798SOL    HW122536   5.937   3.679   7.753
 1798SOL    HW222537   5.876   3.540   7.760
 1799SOL     OW22538   1.677   4.751   6.734
 1799SOL    HW122539   1.613   4.786   6.671
 1799SOL    HW222540   1.707   4.828   6.782
 1800SOL     OW22541   3.601   2.340   7.560
 1800SOL    HW122542   3.685   2.294   7.560
 1800SOL    HW222543   3.576   2.346   7.652
 1801SOL     OW22544   2.917   4.004   0.628
 1801SOL    HW122545   2.915   4.097   0.653
 1801SOL    HW222546   2.968   4.003   0.547
 1802SOL     OW22547   2.268   1.004   7.020
 1802SOL    HW122548   2.254   0.915   7.050
 1802SOL    HW222549   2.242   1.059   7.094
 1803SOL     OW22550   1.791   6.359   0.489
 1803SOL    HW122551   1.726   6.427   0.507
 1803SOL    HW222552   1.761   6.317   0.409
 1804SOL     OW22553   2.710   0.601   5.422
 1804SOL    HW122554   2.764   0.672   5.388
 1804SOL    HW222555   2.649   0.643   5.483
 1805SOL     OW22556   4.172   4.454   5.869
 1805SOL    HW122557   4.166   4.548   5.849
 1805SOL    HW222558   4.221   4.418   5.795
 1806SOL     OW22559   3.461   1.864   6.771
 1806SOL    HW122560   3.514   1.920   6.713
 1806SOL    HW222561   3.519   1.792   6.796
 1807SOL     OW22562   1.541   2.384   6.907
 1807SOL    HW122563   1.489   2.422   6.978
 1807SOL    HW222564   1.487   2.395   6.829
 1808SOL     OW22565   5.753   0.958   0.708
 1808SOL    HW122566   5.682   1.019   0.728
 1808SOL    HW222567   5.823   0.982   0.769
 1809SOL     OW22568   4.827   3.441   6.594
 1809SOL    HW122569   4.759   3.497   6.557
 1809SOL    HW222570   4.829   3.365   6.537
 1810SOL     OW22571   5.565   3.764   1.680
 1810SOL    HW122572   5.491   3.756   1.740
 1810SOL    HW222573   5.639   3.791   1.735
 1811SOL     OW22574   2.727   2.218   1.440
 1811SOL    HW122575   2.728   2.307   1.405
 1811SOL    HW222576   2.785   2.221   1.516
 1812SOL     OW22577   1.825   5.300   0.771
 1812SOL    HW122578   1.877   5.238   0.822
 1812SOL    HW222579   1.734   5.275   0.789
 1813SOL     OW22580   4.243   0.546   7.695
 1813SOL    HW122581   4.297   0.470   7.671
 1813SOL    HW222582   4.249   0.604   7.618
 1814SOL     OW22583   5.697   1.429   6.570
 1814SOL    HW122584   5.628   1.487   6.538
 1814SOL    HW222585   5.651   1.363   6.622
 1815SOL     OW22586   5.781   4.645   1.598
 1815SOL    HW122587   5.867   4.685   1.608
 1815SOL    HW222588   5.743   4.646   1.686
 1816SOL     OW22589   3.919   4.804   1.385
 1816SOL    HW122590   3.921   4.712   1.412
 1816SOL    HW222591   3.970   4.806   1.304
 1817SOL     OW22592   1.728   3.905   7.085
 1817SOL    HW122593   1.745   3.911   7.179
 1817SOL    HW222594   1.685   3.987   7.062
 1818SOL     OW22595   6.333   2.397   7.095
 1818SOL    HW122596   6.377   2.354   7.168
 1818SOL    HW222597   6.362   2.488   7.099
 1819SOL     OW22598   4.632   2.848   1.455
 1819SOL    HW122599   4.702   2.819   1.397
 1819SOL    HW222600   4.633   2.785   1.528
 1820SOL     OW22601   2.594   5.110   7.813
 1820SOL    HW122602   2.569   5.103   7.721
 1820SOL    HW222603   2.679   5.154   7.811
 1821SOL     OW22604   3.371   0.703   1.401
 1821SOL    HW122605   3.320   0.672   1.327
 1821SOL    HW222606   3.332   0.660   1.477
 1822SOL     OW22607   2.961   3.749   0.788
 1822SOL    HW122608   2.930   3.827   0.742
 1822SOL    HW222609   3.013   3.702   0.722
 1823SOL     OW22610   1.966   6.125   1.802
 1823SOL    HW122611   2.032   6.089   1.861
 1823SOL    HW222612   1.935   6.203   1.847
 1824SOL     OW22613   0.767   1.256   6.354
 1824SOL    HW122614   0.814   1.188   6.403
 1824SOL    HW222615   0.746   1.323   6.419
 1825SOL     OW22616   1.107   1.458   5.600
 1825SOL    HW122617   1.131   1.461   5.693
 1825SOL    HW222618   1.038   1.524   5.592
 1826SOL     OW22619   1.151   1.478   7.494
 1826SOL    HW122620   1.177   1.545   7.431
 1826SOL    HW222621   1.228   1.422   7.502
 1827SOL     OW22622   0.851   2.200   7.418
 1827SOL    HW122623   0.764   2.211   7.379
 1827SOL    HW222624   0.912   2.209   7.345
 1828SOL     OW22625   0.439   0.257   7.463
 1828SOL    HW122626   0.425   0.215   7.547
 1828SOL    HW222627   0.375   0.216   7.405
 1829SOL     OW22628   0.674   1.239   1.529
 1829SOL    HW122629   0.604   1.204   1.584
 1829SOL    HW222630   0.733   1.284   1.589
 1830SOL     OW22631   2.103   0.480   1.655
 1830SOL    HW122632   2.065   0.506   1.739
 1830SOL    HW222633   2.174   0.543   1.640
 1831SOL     OW22634   5.577   3.351   0.632
 1831SOL    HW122635   5.625   3.271   0.610
 1831SOL    HW222636   5.552   3.388   0.547
 1832SOL     OW22637   1.021   4.867   0.207
 1832SOL    HW122638   0.957   4.814   0.160
 1832SOL    HW222639   1.050   4.811   0.280
 1833SOL     OW22640   1.355   4.958   7.518
 1833SOL    HW122641   1.320   5.031   7.466
 1833SOL    HW222642   1.447   4.954   7.494
 1834SOL     OW22643   0.288   4.442   6.633
 1834SOL    HW122644   0.318   4.489   6.555
 1834SOL    HW222645   0.355   4.375   6.647
 1835SOL     OW22646   5.462   2.593   1.425
 1835SOL    HW122647   5.528   2.651   1.388
 1835SOL    HW222648   5.405   2.571   1.350
 1836SOL     OW22649   6.321   3.539   1.071
 1836SOL    HW122650   6.243   3.521   1.019
 1836SOL    HW222651   6.392   3.545   1.008
 1837SOL     OW22652   0.383   1.849   5.306
 1837SOL    HW122653   0.406   1.924   5.251
 1837SOL    HW222654   0.292   1.831   5.284
 1838SOL     OW22655   0.686   0.718   7.601
 1838SOL    HW122656   0.618   0.690   7.540
 1838SOL    HW222657   0.757   0.750   7.544
 1839SOL     OW22658   0.651   1.902   6.828
 1839SOL    HW122659   0.626   1.966   6.895
 1839SOL    HW222660   0.577   1.843   6.823
 1840SOL     OW22661   5.438   4.351   2.244
 1840SOL    HW122662   5.476   4.323   2.161
 1840SOL    HW222663   5.513   4.378   2.297
 1841SOL     OW22664   0.823   5.241   6.330
 1841SOL    HW122665   0.887   5.199   6.387
 1841SOL    HW222666   0.752   5.178   6.323
 1842SOL     OW22667   3.840   6.178   7.452
 1842SOL    HW122668   3.826   6.128   7.372
 1842SOL    HW222669   3.753   6.205   7.480
 1843SOL     OW22670   1.639   0.393   0.121
 1843SOL    HW122671   1.662   0.354   0.037
 1843SOL    HW222672   1.606   0.480   0.100
 1844SOL     OW22673   4.889   4.655   1.651
 1844SOL    HW122674   4.810   4.686   1.695
 1844SOL    HW222675   4.951   4.728   1.659
 1845SOL     OW22676   5.567   5.971   6.086
 1845SOL    HW122677   5.607   5.991   6.001
 1845SOL    HW222678   5.473   5.980   6.070
 1846SOL     OW22679   2.272   2.000   0.567
 1846SOL    HW122680   2.330   1.927   0.586
 1846SOL    HW222681   2.300   2.069   0.628
 1847SOL     OW22682   0.200   3.571   1.964
 1847SOL    HW122683   0.218   3.660   1.934
 1847SOL    HW222684   0.204   3.577   2.059
 1848SOL     OW22685   3.465   4.912   6.458
 1848SOL    HW122686   3.427   4.840   6.508
 1848SOL    HW222687   3.532   4.948   6.516
 1849SOL     OW22688   2.503   6.035   5.696
 1849SOL    HW122689   2.460   6.068   5.617
 1849SOL    HW222690   2.432   6.029   5.761
 1850SOL     OW22691   4.159   4.368   0.487
 1850SOL    HW122692   4.205   4.319   0.555
 1850SOL    HW222693   4.222   4.433   0.456
 1851SOL     OW22694   1.103   4.658   6.224
 1851SOL    HW122695   1.095   4.587   6.161
 1851SOL    HW222696   1.014   4.676   6.253
 1852SOL     OW22697   3.462   3.036   5.342
 1852SOL    HW122698   3.543   3.027   5.292
 1852SOL    HW222699   3.396   2.993   5.288
 1853SOL     OW22700   2.419   2.106   6.936
 1853SOL    HW122701   2.437   2.188   6.890
 1853SOL    HW222702   2.358   2.131   7.005
 1854SOL     OW22703   4.332   5.275   5.512
 1854SOL    HW122704   4.289   5.349   5.555
 1854SOL    HW222705   4.420   5.273   5.550
 1855SOL     OW22706   4.404   2.767   0.955
 1855SOL    HW122707   4.352   2.765   1.036
 1855SOL    HW222708   4.349   2.813   0.892
 1856SOL     OW22709   1.860   4.868   1.417
 1856SOL    HW122710   1.809   4.854   1.497
 1856SOL    HW222711   1.794   4.874   1.348
 1857SOL     OW22712   3.248   1.085   7.298
 1857SOL    HW122713   3.242   1.030   7.377
 1857SOL    HW222714   3.158   1.092   7.267
 1858SOL     OW22715   5.543   2.385   7.632
 1858SOL    HW122716   5.559   2.470   7.592
 1858SOL    HW222717   5.517   2.329   7.559
 1859SOL     OW22718   6.417   4.427   7.417
 1859SOL    HW122719   6.337   4.478   7.409
 1859SOL    HW222720   6.388   4.336   7.414
 1860SOL     OW22721   2.677   2.380   5.654
 1860SOL    HW122722   2.760   2.369   5.700
 1860SOL    HW222723   2.610   2.348   5.715
 1861SOL     OW22724   6.270   3.297   1.617
 1861SOL    HW122725   6.342   3.352   1.584
 1861SOL    HW222726   6.301   3.265   1.701
 1862SOL     OW22727   1.526   5.599   2.005
 1862SOL    HW122728   1.537   5.661   2.077
 1862SOL    HW222729   1.577   5.522   2.032
 1863SOL     OW22730   2.378   1.113   6.770
 1863SOL    HW122731   2.370   1.041   6.832
 1863SOL    HW222732   2.421   1.183   6.820
 1864SOL     OW22733   1.716   5.400   6.689
 1864SOL    HW122734   1.781   5.375   6.755
 1864SOL    HW222735   1.744   5.353   6.609
 1865SOL     OW22736   0.845   4.562   0.582
 1865SOL    HW122737   0.901   4.487   0.603
 1865SOL    HW222738   0.759   4.524   0.568
 1866SOL     OW22739   5.534   5.991   1.545
 1866SOL    HW122740   5.561   6.082   1.554
 1866SOL    HW222741   5.454   5.984   1.597
 1867SOL     OW22742   3.827   0.544   1.302
 1867SOL    HW122743   3.800   0.482   1.370
 1867SOL    HW222744   3.807   0.499   1.220
 1868SOL     OW22745   4.102   4.816   1.159
 1868SOL    HW122746   4.168   4.858   1.214
 1868SOL    HW222747   4.151   4.752   1.108
 1869SOL     OW22748   3.413   5.665   6.068
 1869SOL    HW122749   3.484   5.653   6.131
 1869SOL    HW222750   3.339   5.695   6.120
 1870SOL     OW22751   4.129   3.910   5.150
 1870SOL    HW122752   4.190   3.949   5.213
 1870SOL    HW222753   4.171   3.829   5.123
 1871SOL     OW22754   0.935   0.868   1.408
 1871SOL    HW122755   1.025   0.895   1.391
 1871SOL    HW222756   0.881   0.929   1.358
 1872SOL     OW22757   3.125   1.099   0.861
 1872SOL    HW122758   3.119   1.165   0.792
 1872SOL    HW222759   3.168   1.144   0.934
 1873SOL     OW22760   6.071   1.875   0.162
 1873SOL    HW122761   6.045   1.964   0.135
 1873SOL    HW222762   6.084   1.828   0.080
 1874SOL     OW22763   5.110   3.545   7.291
 1874SOL    HW122764   5.060   3.625   7.304
 1874SOL    HW222765   5.058   3.494   7.228
 1875SOL     OW22766   6.120   3.630   6.395
 1875SOL    HW122767   6.112   3.611   6.302
 1875SOL    HW222768   6.032   3.614   6.431
 1876SOL     OW22769   1.803   1.835   1.698
 1876SOL    HW122770   1.850   1.754   1.718
 1876SOL    HW222771   1.816   1.890   1.776
 1877SOL     OW22772   2.891   4.537   0.215
 1877SOL    HW122773   2.927   4.453   0.242
 1877SOL    HW222774   2.800   4.535   0.246
 1878SOL     OW22775   5.678   0.549   6.855
 1878SOL    HW122776   5.707   0.557   6.946
 1878SOL    HW222777   5.583   0.541   6.861
 1879SOL     OW22778   5.735   1.450   1.756
 1879SOL    HW122779   5.753   1.485   1.668
 1879SOL    HW222780   5.787   1.504   1.815
 1880SOL     OW22781   1.372   3.791   7.548
 1880SOL    HW122782   1.336   3.861   7.602
 1880SOL    HW222783   1.371   3.713   7.604
 1881SOL     OW22784   5.429   2.704   7.094
 1881SOL    HW122785   5.503   2.761   7.115
 1881SOL    HW222786   5.444   2.679   7.002
 1882SOL     OW22787   4.574   0.805   6.711
 1882SOL    HW122788   4.573   0.734   6.647
 1882SOL    HW222789   4.492   0.796   6.759
 1883SOL     OW22790   4.485   0.992   0.919
 1883SOL    HW122791   4.394   1.017   0.905
 1883SOL    HW222792   4.481   0.917   0.977
 1884SOL     OW22793   0.307   3.623   6.571
 1884SOL    HW122794   0.361   3.671   6.508
 1884SOL    HW222795   0.366   3.605   6.644
 1885SOL     OW22796   2.656   2.271   0.920
 1885SOL    HW122797   2.621   2.228   0.997
 1885SOL    HW222798   2.731   2.216   0.894
 1886SOL     OW22799   4.239   1.923   0.200
 1886SOL    HW122800   4.204   1.876   0.124
 1886SOL    HW222801   4.331   1.937   0.178
 1887SOL     OW22802   5.916   0.013   0.775
 1887SOL    HW122803   5.969  -0.036   0.712
 1887SOL    HW222804   5.855  -0.051   0.810
 1888SOL     OW22805   2.459   2.454   0.822
 1888SOL    HW122806   2.531   2.412   0.869
 1888SOL    HW222807   2.494   2.539   0.796
 1889SOL     OW22808   5.992   1.619   5.871
 1889SOL    HW122809   5.933   1.545   5.856
 1889SOL    HW222810   5.956   1.689   5.817
 1890SOL     OW22811   1.719   2.448   2.160
 1890SOL    HW122812   1.784   2.385   2.129
 1890SOL    HW222813   1.758   2.533   2.140
 1891SOL     OW22814   0.214   5.206   5.797
 1891SOL    HW122815   0.160   5.128   5.806
 1891SOL    HW222816   0.291   5.177   5.748
 1892SOL     OW22817   5.478   2.225   7.404
 1892SOL    HW122818   5.403   2.244   7.347
 1892SOL    HW222819   5.473   2.131   7.419
 1893SOL     OW22820   2.126   0.510   6.417
 1893SOL    HW122821   2.130   0.435   6.358
 1893SOL    HW222822   2.033   0.520   6.438
 1894SOL     OW22823   5.639   3.865   6.997
 1894SOL    HW122824   5.599   3.779   6.992
 1894SOL    HW222825   5.656   3.889   6.906
 1895SOL     OW22826   4.744   6.327   7.717
 1895SOL    HW122827   4.680   6.311   7.787
 1895SOL    HW222828   4.787   6.408   7.742
 1896SOL     OW22829   0.412   2.031   6.571
 1896SOL    HW122830   0.445   1.945   6.547
 1896SOL    HW222831   0.395   2.075   6.488
 1897SOL     OW22832   2.716   3.784   7.686
 1897SOL    HW122833   2.789   3.727   7.710
 1897SOL    HW222834   2.664   3.791   7.766
 1898SOL     OW22835   5.655   5.212   6.495
 1898SOL    HW122836   5.595   5.180   6.428
 1898SOL    HW222837   5.633   5.304   6.505
 1899SOL     OW22838   2.486   1.571   6.761
 1899SOL    HW122839   2.563   1.560   6.818
 1899SOL    HW222840   2.510   1.526   6.680
 1900SOL     OW22841   1.216   4.996   0.068
 1900SOL    HW122842   1.143   4.942   0.100
 1900SOL    HW222843   1.219   4.979  -0.026
 1901SOL     OW22844   3.610   6.209   6.749
 1901SOL    HW122845   3.552   6.280   6.722
 1901SOL    HW222846   3.660   6.188   6.670
 1902SOL     OW22847   0.735   6.105   6.962
 1902SOL    HW122848   0.745   6.129   7.054
 1902SOL    HW222849   0.813   6.054   6.941
 1903SOL     OW22850   4.681   0.911   5.713
 1903SOL    HW122851   4.711   0.940   5.627
 1903SOL    HW222852   4.685   0.816   5.709
 1904SOL     OW22853   3.096   4.629   1.008
 1904SOL    HW122854   3.130   4.547   0.972
 1904SOL    HW222855   3.060   4.675   0.932
 1905SOL     OW22856   3.181   2.122   7.652
 1905SOL    HW122857   3.149   2.165   7.573
 1905SOL    HW222858   3.258   2.174   7.678
 1906SOL     OW22859   0.249   2.736   7.040
 1906SOL    HW122860   0.169   2.711   7.087
 1906SOL    HW222861   0.228   2.719   6.948
 1907SOL     OW22862   5.748   4.728   5.705
 1907SOL    HW122863   5.753   4.778   5.623
 1907SOL    HW222864   5.726   4.639   5.677
 1908SOL     OW22865   0.393   0.551   1.871
 1908SOL    HW122866   0.359   0.470   1.907
 1908SOL    HW222867   0.469   0.572   1.926
 1909SOL     OW22868   6.064   6.340   0.558
 1909SOL    HW122869   6.129   6.273   0.582
 1909SOL    HW222870   6.092   6.371   0.472
 1910SOL     OW22871   3.640   2.041   6.566
 1910SOL    HW122872   3.725   2.082   6.582
 1910SOL    HW222873   3.634   2.036   6.470
 1911SOL     OW22874   3.848   4.129   0.139
 1911SOL    HW122875   3.915   4.067   0.111
 1911SOL    HW222876   3.774   4.112   0.081
 1912SOL     OW22877   3.202   3.090   0.479
 1912SOL    HW122878   3.284   3.140   0.482
 1912SOL    HW222879   3.162   3.103   0.564
 1913SOL     OW22880   0.961   4.338   0.708
 1913SOL    HW122881   1.018   4.371   0.778
 1913SOL    HW222882   0.952   4.244   0.727
 1914SOL     OW22883   4.961   1.556   7.135
 1914SOL    HW122884   5.038   1.501   7.121
 1914SOL    HW222885   4.917   1.557   7.051
 1915SOL     OW22886   4.410   2.046   7.580
 1915SOL    HW122887   4.361   2.113   7.532
 1915SOL    HW222888   4.477   2.016   7.519
 1916SOL     OW22889   1.038   6.299   7.281
 1916SOL    HW122890   0.955   6.263   7.250
 1916SOL    HW222891   1.014   6.355   7.355
 1917SOL     OW22892   6.179   3.785   6.100
 1917SOL    HW122893   6.187   3.880   6.096
 1917SOL    HW222894   6.127   3.762   6.023
 1918SOL     OW22895   6.387   5.546   7.810
 1918SOL    HW122896   6.380   5.522   7.717
 1918SOL    HW222897   6.478   5.528   7.833
 1919SOL     OW22898   4.737   5.501   1.806
 1919SOL    HW122899   4.667   5.437   1.793
 1919SOL    HW222900   4.710   5.576   1.753
 1920SOL     OW22901   5.287   2.509   0.126
 1920SOL    HW122902   5.245   2.535   0.044
 1920SOL    HW222903   5.215   2.506   0.189
 1921SOL     OW22904   4.430   1.936   7.200
 1921SOL    HW122905   4.345   1.895   7.181
 1921SOL    HW222906   4.408   2.023   7.232
 1922SOL     OW22907   2.808   5.464   5.513
 1922SOL    HW122908   2.839   5.536   5.568
 1922SOL    HW222909   2.722   5.493   5.483
 1923SOL     OW22910   2.145   3.953   6.398
 1923SOL    HW122911   2.125   4.003   6.477
 1923SOL    HW222912   2.177   4.019   6.336
 1924SOL     OW22913   4.193   2.149   0.747
 1924SOL    HW122914   4.231   2.078   0.695
 1924SOL    HW222915   4.099   2.146   0.726
 1925SOL     OW22916   6.075   3.161   6.340
 1925SOL    HW122917   6.118   3.165   6.425
 1925SOL    HW222918   6.145   3.174   6.277
 1926SOL     OW22919   4.882   0.436   6.021
 1926SOL    HW122920   4.912   0.347   6.039
 1926SOL    HW222921   4.864   0.437   5.927
 1927SOL     OW22922   4.313   3.261   5.510
 1927SOL    HW122923   4.272   3.181   5.476
 1927SOL    HW222924   4.315   3.321   5.435
 1928SOL     OW22925   2.249   5.624   0.560
 1928SOL    HW122926   2.269   5.662   0.475
 1928SOL    HW222927   2.315   5.556   0.573
 1929SOL     OW22928   5.030   0.834   0.789
 1929SOL    HW122929   4.945   0.840   0.745
 1929SOL    HW222930   5.065   0.923   0.785
 1930SOL     OW22931   1.195   5.007   6.061
 1930SOL    HW122932   1.122   4.947   6.042
 1930SOL    HW222933   1.255   4.995   5.988
 1931SOL     OW22934   0.721   2.928   6.621
 1931SOL    HW122935   0.804   2.975   6.624
 1931SOL    HW222936   0.733   2.861   6.554
 1932SOL     OW22937   2.151   1.554   5.331
 1932SOL    HW122938   2.077   1.522   5.279
 1932SOL    HW222939   2.228   1.514   5.289
 1933SOL     OW22940   4.127   0.730   7.273
 1933SOL    HW122941   4.078   0.725   7.356
 1933SOL    HW222942   4.190   0.801   7.287
 1934SOL     OW22943   5.101   0.692   7.500
 1934SOL    HW122944   5.190   0.727   7.511
 1934SOL    HW222945   5.112   0.597   7.505
 1935SOL     OW22946   3.511   0.032   0.964
 1935SOL    HW122947   3.586   0.091   0.971
 1935SOL    HW222948   3.549  -0.053   0.940
 1936SOL     OW22949   5.560   1.546   0.688
 1936SOL    HW122950   5.622   1.614   0.662
 1936SOL    HW222951   5.474   1.581   0.664
 1937SOL     OW22952   1.039   2.889   0.602
 1937SOL    HW122953   0.995   2.846   0.528
 1937SOL    HW222954   1.127   2.908   0.569
 1938SOL     OW22955   1.437   1.038   1.276
 1938SOL    HW122956   1.445   1.092   1.355
 1938SOL    HW222957   1.479   1.089   1.207
 1939SOL     OW22958   1.860   2.312   1.482
 1939SOL    HW122959   1.871   2.294   1.576
 1939SOL    HW222960   1.791   2.378   1.479
 1940SOL     OW22961   3.366   1.044   2.083
 1940SOL    HW122962   3.329   0.977   2.026
 1940SOL    HW222963   3.349   1.126   2.037
 1941SOL     OW22964   4.600   5.058   5.908
 1941SOL    HW122965   4.581   4.964   5.908
 1941SOL    HW222966   4.694   5.063   5.890
 1942SOL     OW22967   5.230   4.436   6.390
 1942SOL    HW122968   5.246   4.531   6.391
 1942SOL    HW222969   5.302   4.401   6.338
 1943SOL     OW22970   0.260   0.386   0.934
 1943SOL    HW122971   0.189   0.335   0.973
 1943SOL    HW222972   0.217   0.442   0.869
 1944SOL     OW22973   2.116   2.133   1.626
 1944SOL    HW122974   2.096   2.056   1.573
 1944SOL    HW222975   2.096   2.107   1.716
 1945SOL     OW22976   0.043   6.145   7.594
 1945SOL    HW122977  -0.018   6.071   7.603
 1945SOL    HW222978   0.023   6.202   7.668
 1946SOL     OW22979   0.524   3.571   2.505
 1946SOL    HW122980   0.465   3.623   2.450
 1946SOL    HW222981   0.600   3.627   2.519
 1947SOL     OW22982   2.645   4.240   7.291
 1947SOL    HW122983   2.603   4.166   7.335
 1947SOL    HW222984   2.574   4.287   7.249
 1948SOL     OW22985   1.283   1.808   6.815
 1948SOL    HW122986   1.310   1.760   6.737
 1948SOL    HW222987   1.234   1.744   6.867
 1949SOL     OW22988   1.151   5.771   1.656
 1949SOL    HW122989   1.205   5.735   1.726
 1949SOL    HW222990   1.099   5.697   1.624
 1950SOL     OW22991   4.521   5.997   1.271
 1950SOL    HW122992   4.478   5.915   1.248
 1950SOL    HW222993   4.506   6.007   1.365
 1951SOL     OW22994   1.061   0.266   6.439
 1951SOL    HW122995   1.096   0.177   6.446
 1951SOL    HW222996   1.133   0.318   6.404
 1952SOL     OW22997   5.449   5.553   0.623
 1952SOL    HW122998   5.479   5.467   0.593
 1952SOL    HW222999   5.524   5.589   0.671
 1953SOL     OW23000   3.201   0.856   0.707
 1953SOL    HW123001   3.176   0.928   0.764
 1953SOL    HW223002   3.238   0.899   0.629
 1954SOL     OW23003   6.349   3.871   6.752
 1954SOL    HW123004   6.256   3.888   6.764
 1954SOL    HW223005   6.382   3.946   6.702
 1955SOL     OW23006   2.517   0.394   5.702
 1955SOL    HW123007   2.608   0.391   5.674
 1955SOL    HW223008   2.474   0.323   5.655
 1956SOL     OW23009   3.585   1.581   6.034
 1956SOL    HW123010   3.678   1.558   6.039
 1956SOL    HW223011   3.561   1.600   6.125
 1957SOL     OW23012   5.022   5.598   6.309
 1957SOL    HW123013   5.028   5.689   6.337
 1957SOL    HW223014   4.934   5.571   6.336
 1958SOL     OW23015   3.334   6.212   0.107
 1958SOL    HW123016   3.380   6.233   0.189
 1958SOL    HW223017   3.401   6.171   0.052
 1959SOL     OW23018   0.303   3.173   0.333
 1959SOL    HW123019   0.372   3.239   0.331
 1959SOL    HW223020   0.318   3.120   0.254
 1960SOL     OW23021   1.194   3.348   5.910
 1960SOL    HW123022   1.232   3.333   5.997
 1960SOL    HW223023   1.268   3.371   5.854
 1961SOL     OW23024   3.121   3.381   6.458
 1961SOL    HW123025   3.133   3.316   6.527
 1961SOL    HW223026   3.062   3.446   6.496
 1962SOL     OW23027   3.978   5.254   2.050
 1962SOL    HW123028   3.926   5.202   1.989
 1962SOL    HW223029   3.937   5.237   2.135
 1963SOL     OW23030   4.689   5.163   1.044
 1963SOL    HW123031   4.625   5.229   1.018
 1963SOL    HW223032   4.765   5.214   1.073
 1964SOL     OW23033   0.674   0.498   7.136
 1964SOL    HW123034   0.699   0.463   7.051
 1964SOL    HW223035   0.705   0.589   7.135
 1965SOL     OW23036   5.399   2.565   5.467
 1965SOL    HW123037   5.337   2.571   5.539
 1965SOL    HW223038   5.473   2.619   5.494
 1966SOL     OW23039   5.183   5.453   1.272
 1966SOL    HW123040   5.137   5.524   1.317
 1966SOL    HW223041   5.204   5.489   1.187
 1967SOL     OW23042   1.571   1.304   6.084
 1967SOL    HW123043   1.561   1.394   6.115
 1967SOL    HW223044   1.600   1.313   5.993
 1968SOL     OW23045   4.429   6.051   0.037
 1968SOL    HW123046   4.439   6.137  -0.004
 1968SOL    HW223047   4.338   6.026   0.017
 1969SOL     OW23048   0.564   3.366   0.323
 1969SOL    HW123049   0.646   3.334   0.360
 1969SOL    HW223050   0.530   3.426   0.390
 1970SOL     OW23051   3.069   3.756   1.939
 1970SOL    HW123052   3.073   3.674   1.989
 1970SOL    HW223053   3.156   3.764   1.900
 1971SOL     OW23054   2.362   3.552   6.266
 1971SOL    HW123055   2.363   3.464   6.228
 1971SOL    HW223056   2.323   3.540   6.353
 1972SOL     OW23057   2.476   0.564   6.990
 1972SOL    HW123058   2.398   0.510   6.988
 1972SOL    HW223059   2.480   0.605   6.903
 1973SOL     OW23060   2.483   2.312   5.825
 1973SOL    HW123061   2.457   2.221   5.836
 1973SOL    HW223062   2.454   2.355   5.906
 1974SOL     OW23063   1.531   1.045   7.737
 1974SOL    HW123064   1.537   1.012   7.648
 1974SOL    HW223065   1.596   0.994   7.786
 1975SOL     OW23066   0.947   4.368   7.002
 1975SOL    HW123067   0.975   4.343   7.090
 1975SOL    HW223068   0.942   4.286   6.954
 1976SOL     OW23069   2.748   5.796   7.630
 1976SOL    HW123070   2.695   5.842   7.695
 1976SOL    HW223071   2.698   5.803   7.549
 1977SOL     OW23072   6.278   2.086   1.853
 1977SOL    HW123073   6.190   2.053   1.835
 1977SOL    HW223074   6.265   2.177   1.880
 1978SOL     OW23075   1.889   4.674   7.008
 1978SOL    HW123076   1.882   4.700   6.916
 1978SOL    HW223077   1.901   4.756   7.055
 1979SOL     OW23078   2.159   4.739   6.033
 1979SOL    HW123079   2.188   4.648   6.022
 1979SOL    HW223080   2.211   4.772   6.105
 1980SOL     OW23081   5.899   0.789   2.208
 1980SOL    HW123082   5.962   0.825   2.146
 1980SOL    HW223083   5.884   0.699   2.178
 1981SOL     OW23084   3.139   4.005   2.223
 1981SOL    HW123085   3.204   4.068   2.255
 1981SOL    HW223086   3.177   3.970   2.142
 1982SOL     OW23087   6.182   4.178   6.376
 1982SOL    HW123088   6.129   4.223   6.442
 1982SOL    HW223089   6.237   4.247   6.339
 1983SOL     OW23090   1.048   4.624   7.802
 1983SOL    HW123091   1.082   4.682   7.733
 1983SOL    HW223092   0.955   4.616   7.783
 1984SOL     OW23093   2.240   6.056   1.525
 1984SOL    HW123094   2.225   6.002   1.602
 1984SOL    HW223095   2.162   6.111   1.519
 1985SOL     OW23096   1.174   5.321   0.327
 1985SOL    HW123097   1.149   5.365   0.246
 1985SOL    HW223098   1.118   5.243   0.330
 1986SOL     OW23099   1.808   4.187   1.218
 1986SOL    HW123100   1.726   4.225   1.250
 1986SOL    HW223101   1.784   4.145   1.135
 1987SOL     OW23102   1.466   0.174   0.971
 1987SOL    HW123103   1.518   0.232   0.915
 1987SOL    HW223104   1.388   0.225   0.992
 1988SOL     OW23105   3.885   4.206   6.228
 1988SOL    HW123106   3.944   4.274   6.194
 1988SOL    HW223107   3.868   4.231   6.319
 1989SOL     OW23108   4.907   5.497   2.018
 1989SOL    HW123109   4.934   5.406   2.022
 1989SOL    HW223110   4.860   5.504   1.935
 1990SOL     OW23111   1.072   2.735   2.416
 1990SOL    HW123112   1.007   2.720   2.348
 1990SOL    HW223113   1.033   2.803   2.472
 1991SOL     OW23114   6.178   0.272   1.962
 1991SOL    HW123115   6.172   0.198   1.901
 1991SOL    HW223116   6.106   0.258   2.023
 1992SOL     OW23117   4.237   1.557   7.799
 1992SOL    HW123118   4.212   1.588   7.887
 1992SOL    HW223119   4.302   1.490   7.816
 1993SOL     OW23120   4.617   1.761   0.972
 1993SOL    HW123121   4.586   1.797   1.055
 1993SOL    HW223122   4.615   1.836   0.912
 1994SOL     OW23123   2.785   0.875   6.840
 1994SOL    HW123124   2.862   0.842   6.886
 1994SOL    HW223125   2.727   0.907   6.909
 1995SOL     OW23126   5.597   0.189   7.764
 1995SOL    HW123127   5.659   0.134   7.813
 1995SOL    HW223128   5.529   0.128   7.736
 1996SOL     OW23129   4.138   1.289   7.696
 1996SOL    HW123130   4.081   1.262   7.769
 1996SOL    HW223131   4.109   1.377   7.675
 1997SOL     OW23132   3.209   2.724   6.648
 1997SOL    HW123133   3.299   2.717   6.680
 1997SOL    HW223134   3.206   2.664   6.573
 1998SOL     OW23135   5.282   1.754   2.298
 1998SOL    HW123136   5.333   1.826   2.261
 1998SOL    HW223137   5.230   1.721   2.225
 1999SOL     OW23138   5.802   0.879   7.574
 1999SOL    HW123139   5.795   0.797   7.623
 1999SOL    HW223140   5.895   0.903   7.582
 2000SOL     OW23141   0.528   1.919   6.136
 2000SOL    HW123142   0.600   1.948   6.192
 2000SOL    HW223143   0.496   2.000   6.096
 2001SOL     OW23144   4.972   1.062   7.376
 2001SOL    HW123145   4.910   1.032   7.310
 2001SOL    HW223146   5.058   1.043   7.338
 2002SOL     OW23147   0.731   5.778   2.044
 2002SOL    HW123148   0.747   5.771   1.950
 2002SOL    HW223149   0.642   5.812   2.051
 2003SOL     OW23150   1.904   6.187   0.759
 2003SOL    HW123151   1.972   6.154   0.700
 2003SOL    HW223152   1.945   6.262   0.803
 2004SOL     OW23153   0.107   0.279   1.695
 2004SOL    HW123154   0.121   0.360   1.646
 2004SOL    HW223155   0.156   0.292   1.777
 2005SOL     OW23156   4.264   5.954   7.435
 2005SOL    HW123157   4.215   5.875   7.456
 2005SOL    HW223158   4.199   6.024   7.435
 2006SOL     OW23159   4.663   0.772   7.657
 2006SOL    HW123160   4.687   0.840   7.595
 2006SOL    HW223161   4.593   0.722   7.614
 2007SOL     OW23162   1.579   3.516   2.052
 2007SOL    HW123163   1.534   3.570   1.988
 2007SOL    HW223164   1.595   3.574   2.126
 2008SOL     OW23165   3.521   2.265   1.258
 2008SOL    HW123166   3.564   2.344   1.290
 2008SOL    HW223167   3.589   2.221   1.206
 2009SOL     OW23168   1.808   4.003   6.624
 2009SOL    HW123169   1.802   4.057   6.702
 2009SOL    HW223170   1.866   4.051   6.566
 2010SOL     OW23171   4.667   3.837   6.152
 2010SOL    HW123172   4.587   3.800   6.188
 2010SOL    HW223173   4.722   3.761   6.132
 2011SOL     OW23174   6.238   3.532   5.363
 2011SOL    HW123175   6.284   3.468   5.310
 2011SOL    HW223176   6.149   3.535   5.327
 2012SOL     OW23177   0.552   3.301   2.557
 2012SOL    HW123178   0.602   3.303   2.638
 2012SOL    HW223179   0.539   3.393   2.534
 2013SOL     OW23180   0.367   0.901   0.656
 2013SOL    HW123181   0.319   0.979   0.683
 2013SOL    HW223182   0.449   0.906   0.704
 2014SOL     OW23183   6.095   4.524   1.359
 2014SOL    HW123184   6.009   4.508   1.398
 2014SOL    HW223185   6.077   4.580   1.283
 2015SOL     OW23186   2.218   1.428   2.059
 2015SOL    HW123187   2.225   1.356   1.996
 2015SOL    HW223188   2.155   1.488   2.020
 2016SOL     OW23189   0.297   2.442   7.544
 2016SOL    HW123190   0.313   2.450   7.450
 2016SOL    HW223191   0.213   2.486   7.558
 2017SOL     OW23192   5.631   4.459   0.663
 2017SOL    HW123193   5.709   4.515   0.663
 2017SOL    HW223194   5.666   4.369   0.664
 2018SOL     OW23195   0.156   1.118   0.124
 2018SOL    HW123196   0.085   1.091   0.064
 2018SOL    HW223197   0.114   1.122   0.210
 2019SOL     OW23198   2.291   3.832   5.600
 2019SOL    HW123199   2.270   3.894   5.670
 2019SOL    HW223200   2.380   3.855   5.573
 2020SOL     OW23201   0.024   2.441   7.590
 2020SOL    HW123202   0.017   2.385   7.512
 2020SOL    HW223203  -0.042   2.509   7.576
 2021SOL     OW23204   4.546   3.542   7.132
 2021SOL    HW123205   4.487   3.491   7.188
 2021SOL    HW223206   4.556   3.625   7.179
 2022SOL     OW23207   5.908   5.261   6.575
 2022SOL    HW123208   5.817   5.255   6.549
 2022SOL    HW223209   5.944   5.332   6.522
 2023SOL     OW23210   2.417   2.384   6.058
 2023SOL    HW123211   2.359   2.442   6.106
 2023SOL    HW223212   2.417   2.302   6.108
 2024SOL     OW23213   0.418   2.011   0.492
 2024SOL    HW123214   0.416   1.973   0.580
 2024SOL    HW223215   0.502   1.984   0.455
 2025SOL     OW23216   5.505   1.390   7.233
 2025SOL    HW123217   5.593   1.420   7.257
 2025SOL    HW223218   5.454   1.470   7.223
 2026SOL     OW23219   1.949   1.934   0.342
 2026SOL    HW123220   1.902   1.920   0.260
 2026SOL    HW223221   2.039   1.952   0.315
 2027SOL     OW23222   2.547   2.351   7.627
 2027SOL    HW123223   2.525   2.375   7.536
 2027SOL    HW223224   2.583   2.432   7.664
 2028SOL     OW23225   1.671   1.327   5.833
 2028SOL    HW123226   1.640   1.238   5.852
 2028SOL    HW223227   1.592   1.374   5.805
 2029SOL     OW23228   5.921   3.239   6.753
 2029SOL    HW123229   5.890   3.167   6.808
 2029SOL    HW223230   6.005   3.263   6.791
 2030SOL     OW23231   5.210   2.158   6.067
 2030SOL    HW123232   5.119   2.145   6.091
 2030SOL    HW223233   5.246   2.211   6.138
 2031SOL     OW23234   3.214   1.263   6.626
 2031SOL    HW123235   3.273   1.338   6.632
 2031SOL    HW223236   3.137   1.297   6.581
 2032SOL     OW23237   5.646   1.286   6.229
 2032SOL    HW123238   5.577   1.336   6.273
 2032SOL    HW223239   5.726   1.333   6.250
 2033SOL     OW23240   3.874   0.131   7.828
 2033SOL    HW123241   3.947   0.124   7.765
 2033SOL    HW223242   3.839   0.042   7.832
 2034SOL     OW23243   2.452   2.571   0.278
 2034SOL    HW123244   2.509   2.645   0.300
 2034SOL    HW223245   2.477   2.502   0.338
 2035SOL     OW23246   3.806   4.557   5.533
 2035SOL    HW123247   3.851   4.607   5.600
 2035SOL    HW223248   3.718   4.544   5.568
 2036SOL     OW23249   1.287   4.697   5.655
 2036SOL    HW123250   1.296   4.747   5.736
 2036SOL    HW223251   1.238   4.756   5.597
 2037SOL     OW23252   2.631   0.355   0.317
 2037SOL    HW123253   2.667   0.270   0.290
 2037SOL    HW223254   2.637   0.354   0.412
 2038SOL     OW23255   4.846   6.185   7.012
 2038SOL    HW123256   4.764   6.140   6.994
 2038SOL    HW223257   4.889   6.192   6.927
 2039SOL     OW23258   0.573   0.959   5.627
 2039SOL    HW123259   0.516   0.894   5.587
 2039SOL    HW223260   0.552   1.041   5.583
 2040SOL     OW23261   0.961   1.621   6.567
 2040SOL    HW123262   1.004   1.630   6.482
 2040SOL    HW223263   0.914   1.538   6.562
 2041SOL     OW23264   4.354   1.082   1.210
 2041SOL    HW123265   4.420   1.073   1.141
 2041SOL    HW223266   4.271   1.086   1.163
 2042SOL     OW23267   4.477   5.993   1.537
 2042SOL    HW123268   4.447   5.912   1.578
 2042SOL    HW223269   4.560   6.013   1.580
 2043SOL     OW23270   4.320   3.393   6.961
 2043SOL    HW123271   4.319   3.468   7.020
 2043SOL    HW223272   4.404   3.399   6.915
 2044SOL     OW23273   1.587   4.972   6.549
 2044SOL    HW123274   1.563   5.011   6.465
 2044SOL    HW223275   1.682   4.957   6.543
 2045SOL     OW23276   5.109   5.447   2.241
 2045SOL    HW123277   5.052   5.414   2.172
 2045SOL    HW223278   5.162   5.372   2.266
 2046SOL     OW23279   2.004   4.513   0.468
 2046SOL    HW123280   2.071   4.530   0.534
 2046SOL    HW223281   2.027   4.571   0.395
 2047SOL     OW23282   4.615   0.006   7.354
 2047SOL    HW123283   4.533   0.035   7.395
 2047SOL    HW223284   4.621  -0.087   7.375
 2048SOL     OW23285   5.566   4.204   2.732
 2048SOL    HW123286   5.646   4.160   2.762
 2048SOL    HW223287   5.558   4.281   2.788
 2049SOL     OW23288   1.262   3.350   7.784
 2049SOL    HW123289   1.184   3.384   7.827
 2049SOL    HW223290   1.232   3.269   7.741
 2050SOL     OW23291   0.765   2.786   7.768
 2050SOL    HW123292   0.821   2.730   7.822
 2050SOL    HW223293   0.717   2.725   7.712
 2051SOL     OW23294   4.938   2.605   6.614
 2051SOL    HW123295   4.904   2.685   6.655
 2051SOL    HW223296   4.898   2.534   6.664
 2052SOL     OW23297   2.100   5.287   1.353
 2052SOL    HW123298   2.008   5.305   1.374
 2052SOL    HW223299   2.107   5.307   1.259
 2053SOL     OW23300   2.010   1.932   0.614
 2053SOL    HW123301   1.969   1.962   0.533
 2053SOL    HW223302   2.104   1.939   0.597
 2054SOL     OW23303   3.118   3.760   5.970
 2054SOL    HW123304   3.210   3.754   5.946
 2054SOL    HW223305   3.074   3.696   5.914
 2055SOL     OW23306   2.576   3.847   6.915
 2055SOL    HW123307   2.498   3.890   6.950
 2055SOL    HW223308   2.564   3.755   6.936
 2056SOL     OW23309   2.139   1.008   0.139
 2056SOL    HW123310   2.127   0.925   0.094
 2056SOL    HW223311   2.218   0.996   0.192
 2057SOL     OW23312   0.678   0.481   1.974
 2057SOL    HW123313   0.659   0.543   2.045
 2057SOL    HW223314   0.774   0.477   1.971
 2058SOL     OW23315   1.833   0.945   5.799
 2058SOL    HW123316   1.817   0.927   5.892
 2058SOL    HW223317   1.771   0.889   5.753
 2059SOL     OW23318   4.173   5.720   6.867
 2059SOL    HW123319   4.168   5.638   6.819
 2059SOL    HW223320   4.141   5.786   6.806
 2060SOL     OW23321   3.206   2.681   7.531
 2060SOL    HW123322   3.175   2.764   7.495
 2060SOL    HW223323   3.299   2.679   7.511
 2061SOL     OW23324   5.091   0.586   0.853
 2061SOL    HW123325   5.079   0.681   0.852
 2061SOL    HW223326   5.077   0.560   0.944
 2062SOL     OW23327   0.944   0.480   5.725
 2062SOL    HW123328   1.004   0.433   5.782
 2062SOL    HW223329   0.996   0.500   5.647
 2063SOL     OW23330   2.004   0.542   0.811
 2063SOL    HW123331   1.926   0.511   0.763
 2063SOL    HW223332   2.077   0.500   0.766
 2064SOL     OW23333   6.205   5.581   7.311
 2064SOL    HW123334   6.251   5.659   7.279
 2064SOL    HW223335   6.212   5.519   7.239
 2065SOL     OW23336   4.981   5.720   6.968
 2065SOL    HW123337   5.039   5.717   6.892
 2065SOL    HW223338   4.984   5.812   6.997
 2066SOL     OW23339   2.960   2.313   7.735
 2066SOL    HW123340   2.947   2.273   7.649
 2066SOL    HW223341   2.999   2.398   7.716
 2067SOL     OW23342   4.652   6.192   0.215
 2067SOL    HW123343   4.634   6.124   0.150
 2067SOL    HW223344   4.576   6.191   0.272
 2068SOL     OW23345   3.573   1.627   1.633
 2068SOL    HW123346   3.503   1.692   1.624
 2068SOL    HW223347   3.527   1.543   1.634
 2069SOL     OW23348   5.769   1.461   5.843
 2069SOL    HW123349   5.739   1.499   5.760
 2069SOL    HW223350   5.717   1.382   5.853
 2070SOL     OW23351   3.435   2.222   0.182
 2070SOL    HW123352   3.344   2.244   0.161
 2070SOL    HW223353   3.430   2.136   0.224
 2071SOL     OW23354   4.163   4.268   0.998
 2071SOL    HW123355   4.071   4.273   1.027
 2071SOL    HW223356   4.197   4.357   1.010
 2072SOL     OW23357   2.673   2.380   6.604
 2072SOL    HW123358   2.642   2.461   6.645
 2072SOL    HW223359   2.629   2.377   6.519
 2073SOL     OW23360   2.156   2.023   6.839
 2073SOL    HW123361   2.194   2.105   6.806
 2073SOL    HW223362   2.161   1.963   6.765
 2074SOL     OW23363   1.617   5.851   0.563
 2074SOL    HW123364   1.670   5.772   0.548
 2074SOL    HW223365   1.664   5.899   0.631
 2075SOL     OW23366   3.301   4.153   7.829
 2075SOL    HW123367   3.280   4.093   7.758
 2075SOL    HW223368   3.223   4.207   7.839
 2076SOL     OW23369   4.230   0.423   0.585
 2076SOL    HW123370   4.310   0.450   0.629
 2076SOL    HW223371   4.243   0.330   0.567
 2077SOL     OW23372   4.888   3.869   2.091
 2077SOL    HW123373   4.845   3.923   2.158
 2077SOL    HW223374   4.964   3.921   2.064
 2078SOL     OW23375   5.894   1.700   7.643
 2078SOL    HW123376   5.923   1.766   7.579
 2078SOL    HW223377   5.925   1.617   7.607
 2079SOL     OW23378   1.113   5.087   1.266
 2079SOL    HW123379   1.174   5.023   1.229
 2079SOL    HW223380   1.119   5.074   1.360
 2080SOL     OW23381   5.490   5.531   0.144
 2080SOL    HW123382   5.531   5.616   0.131
 2080SOL    HW223383   5.400   5.543   0.112
 2081SOL     OW23384   4.520   3.255   1.173
 2081SOL    HW123385   4.457   3.257   1.245
 2081SOL    HW223386   4.540   3.162   1.160
 2082SOL     OW23387   1.759   6.159   0.298
 2082SOL    HW123388   1.679   6.202   0.267
 2082SOL    HW223389   1.800   6.124   0.219
 2083SOL     OW23390   1.828   0.077   7.805
 2083SOL    HW123391   1.749   0.117   7.841
 2083SOL    HW223392   1.798  -0.004   7.764
 2084SOL     OW23393   1.742   2.189   7.464
 2084SOL    HW123394   1.820   2.134   7.458
 2084SOL    HW223395   1.771   2.265   7.514
 2085SOL     OW23396   3.521   0.593   0.387
 2085SOL    HW123397   3.500   0.598   0.480
 2085SOL    HW223398   3.448   0.636   0.343
 2086SOL     OW23399   4.668   4.208   0.542
 2086SOL    HW123400   4.627   4.294   0.535
 2086SOL    HW223401   4.675   4.178   0.451
 2087SOL     OW23402   4.573   4.565   0.006
 2087SOL    HW123403   4.589   4.658   0.023
 2087SOL    HW223404   4.542   4.561  -0.084
 2088SOL     OW23405   4.236   2.369   1.904
 2088SOL    HW123406   4.329   2.350   1.914
 2088SOL    HW223407   4.207   2.397   1.991
 2089SOL     OW23408   4.727   6.078   5.265
 2089SOL    HW123409   4.632   6.062   5.266
 2089SOL    HW223410   4.735   6.173   5.264
 2090SOL     OW23411   0.327   3.563   7.746
 2090SOL    HW123412   0.395   3.575   7.812
 2090SOL    HW223413   0.371   3.578   7.662
 2091SOL     OW23414   4.972   5.261   0.657
 2091SOL    HW123415   4.887   5.302   0.669
 2091SOL    HW223416   4.957   5.168   0.675
 2092SOL     OW23417   3.528   4.306   6.372
 2092SOL    HW123418   3.543   4.383   6.316
 2092SOL    HW223419   3.504   4.343   6.457
 2093SOL     OW23420   0.758   0.360   7.366
 2093SOL    HW123421   0.827   0.426   7.353
 2093SOL    HW223422   0.705   0.366   7.286
 2094SOL     OW23423   5.440   5.393   2.146
 2094SOL    HW123424   5.522   5.348   2.127
 2094SOL    HW223425   5.375   5.349   2.091
 2095SOL     OW23426   2.677   3.856   7.431
 2095SOL    HW123427   2.640   3.781   7.384
 2095SOL    HW223428   2.679   3.829   7.522
 2096SOL     OW23429   6.239   0.800   5.963
 2096SOL    HW123430   6.278   0.815   6.049
 2096SOL    HW223431   6.189   0.719   5.972
 2097SOL     OW23432   4.695   0.717   0.077
 2097SOL    HW123433   4.722   0.805   0.104
 2097SOL    HW223434   4.674   0.726  -0.016
 2098SOL     OW23435   1.185   1.325   5.395
 2098SOL    HW123436   1.262   1.377   5.373
 2098SOL    HW223437   1.129   1.384   5.445
 2099SOL     OW23438   3.064   1.777   1.300
 2099SOL    HW123439   3.131   1.726   1.346
 2099SOL    HW223440   3.099   1.787   1.211
 2100SOL     OW23441   0.720   4.297   0.259
 2100SOL    HW123442   0.758   4.253   0.336
 2100SOL    HW223443   0.694   4.225   0.201
 2101SOL     OW23444   5.501   4.725   1.961
 2101SOL    HW123445   5.461   4.701   2.044
 2101SOL    HW223446   5.455   4.804   1.933
 2102SOL     OW23447   4.216   3.180   7.396
 2102SOL    HW123448   4.193   3.209   7.484
 2102SOL    HW223449   4.258   3.095   7.409
 2103SOL     OW23450   4.113   6.336   5.682
 2103SOL    HW123451   4.084   6.326   5.592
 2103SOL    HW223452   4.034   6.362   5.730
 2104SOL     OW23453   1.980   0.346   2.067
 2104SOL    HW123454   2.075   0.359   2.067
 2104SOL    HW223455   1.968   0.253   2.051
 2105SOL     OW23456   6.206   2.784   7.207
 2105SOL    HW123457   6.138   2.833   7.252
 2105SOL    HW223458   6.160   2.739   7.136
 2106SOL     OW23459   1.406   1.681   1.445
 2106SOL    HW123460   1.446   1.742   1.508
 2106SOL    HW223461   1.404   1.597   1.491
 2107SOL     OW23462   2.280   2.275   7.122
 2107SOL    HW123463   2.366   2.272   7.163
 2107SOL    HW223464   2.234   2.345   7.168
 2108SOL     OW23465   0.825   2.885   1.718
 2108SOL    HW123466   0.745   2.867   1.767
 2108SOL    HW223467   0.818   2.828   1.641
 2109SOL     OW23468   0.443   3.867   6.961
 2109SOL    HW123469   0.353   3.836   6.968
 2109SOL    HW223470   0.461   3.868   6.867
 2110SOL     OW23471   3.214   6.106   6.386
 2110SOL    HW123472   3.208   6.071   6.297
 2110SOL    HW223473   3.129   6.087   6.425
 2111SOL     OW23474   1.454   5.776   0.056
 2111SOL    HW123475   1.493   5.774   0.144
 2111SOL    HW223476   1.399   5.854   0.056
 2112SOL     OW23477   1.246   5.190   6.708
 2112SOL    HW123478   1.161   5.233   6.703
 2112SOL    HW223479   1.310   5.260   6.696
 2113SOL     OW23480   1.900   0.774   1.217
 2113SOL    HW123481   1.845   0.796   1.142
 2113SOL    HW223482   1.955   0.702   1.186
 2114SOL     OW23483   4.352   5.969   0.703
 2114SOL    HW123484   4.273   5.986   0.652
 2114SOL    HW223485   4.376   6.055   0.739
 2115SOL     OW23486   5.109   0.757   0.294
 2115SOL    HW123487   5.038   0.808   0.332
 2115SOL    HW223488   5.187   0.784   0.343
 2116SOL     OW23489   3.510   3.733   0.051
 2116SOL    HW123490   3.581   3.749   0.113
 2116SOL    HW223491   3.524   3.643   0.022
 2117SOL     OW23492   2.302   2.977   0.697
 2117SOL    HW123493   2.267   2.900   0.742
 2117SOL    HW223494   2.286   3.049   0.758
 2118SOL     OW23495   5.770   1.667   2.031
 2118SOL    HW123496   5.822   1.604   2.081
 2118SOL    HW223497   5.821   1.683   1.952
 2119SOL     OW23498   4.985   3.382   1.932
 2119SOL    HW123499   5.022   3.456   1.980
 2119SOL    HW223500   5.047   3.311   1.945
 2120SOL     OW23501   4.469   0.709   7.446
 2120SOL    HW123502   4.546   0.693   7.392
 2120SOL    HW223503   4.434   0.792   7.412
 2121SOL     OW23504   5.506   5.839   0.361
 2121SOL    HW123505   5.546   5.909   0.309
 2121SOL    HW223506   5.524   5.863   0.451
 2122SOL     OW23507   1.246   6.073   0.379
 2122SOL    HW123508   1.317   6.110   0.430
 2122SOL    HW223509   1.179   6.049   0.443
 2123SOL     OW23510   0.888   2.122   0.101
 2123SOL    HW123511   0.866   2.123   0.008
 2123SOL    HW223512   0.879   2.030   0.126
 2124SOL     OW23513   5.614   3.510   1.884
 2124SOL    HW123514   5.629   3.449   1.956
 2124SOL    HW223515   5.549   3.466   1.829
 2125SOL     OW23516   3.536   6.380   6.496
 2125SOL    HW123517   3.445   6.351   6.498
 2125SOL    HW223518   3.570   6.350   6.412
 2126SOL     OW23519   5.514   2.576   0.536
 2126SOL    HW123520   5.472   2.491   0.524
 2126SOL    HW223521   5.507   2.618   0.451
 2127SOL     OW23522   0.905   5.208   1.193
 2127SOL    HW123523   0.981   5.157   1.222
 2127SOL    HW223524   0.939   5.264   1.123
 2128SOL     OW23525   4.590   2.315   0.343
 2128SOL    HW123526   4.611   2.403   0.312
 2128SOL    HW223527   4.565   2.327   0.434
 2129SOL     OW23528   5.020   4.930   1.161
 2129SOL    HW123529   4.944   4.960   1.212
 2129SOL    HW223530   5.077   5.006   1.154
 2130SOL     OW23531   5.128   2.710   5.897
 2130SOL    HW123532   5.051   2.767   5.898
 2130SOL    HW223533   5.180   2.740   5.972
 2131SOL     OW23534   0.491   2.275   5.872
 2131SOL    HW123535   0.399   2.282   5.848
 2131SOL    HW223536   0.538   2.317   5.800
 2132SOL     OW23537   3.433   3.574   6.913
 2132SOL    HW123538   3.460   3.587   6.822
 2132SOL    HW223539   3.344   3.608   6.916
 2133SOL     OW23540   4.323   2.605   0.453
 2133SOL    HW123541   4.331   2.700   0.462
 2133SOL    HW223542   4.286   2.576   0.536
 2134SOL     OW23543   4.502   6.125   1.022
 2134SOL    HW123544   4.440   6.198   1.030
 2134SOL    HW223545   4.511   6.091   1.111
 2135SOL     OW23546   4.604   3.518   6.389
 2135SOL    HW123547   4.514   3.516   6.421
 2135SOL    HW223548   4.596   3.506   6.294
 2136SOL     OW23549   5.058   5.757   7.735
 2136SOL    HW123550   5.012   5.748   7.818
 2136SOL    HW223551   4.990   5.744   7.668
 2137SOL     OW23552   0.965   1.543   1.103
 2137SOL    HW123553   1.013   1.495   1.171
 2137SOL    HW223554   0.919   1.476   1.053
 2138SOL     OW23555   5.242   2.463   1.285
 2138SOL    HW123556   5.245   2.514   1.204
 2138SOL    HW223557   5.209   2.377   1.259
 2139SOL     OW23558   3.530   1.851   0.430
 2139SOL    HW123559   3.568   1.810   0.508
 2139SOL    HW223560   3.480   1.781   0.388
 2140SOL     OW23561   2.841   5.499   0.336
 2140SOL    HW123562   2.875   5.411   0.352
 2140SOL    HW223563   2.879   5.525   0.252
 2141SOL     OW23564   5.451   3.617   5.848
 2141SOL    HW123565   5.542   3.648   5.856
 2141SOL    HW223566   5.398   3.694   5.864
 2142SOL     OW23567   3.882   3.924   1.031
 2142SOL    HW123568   3.789   3.909   1.017
 2142SOL    HW223569   3.925   3.847   0.994
 2143SOL     OW23570   2.468   2.863   5.288
 2143SOL    HW123571   2.388   2.915   5.283
 2143SOL    HW223572   2.443   2.784   5.336
 2144SOL     OW23573   3.803   0.228   1.863
 2144SOL    HW123574   3.841   0.299   1.914
 2144SOL    HW223575   3.873   0.200   1.805
 2145SOL     OW23576   5.718   3.722   7.352
 2145SOL    HW123577   5.725   3.641   7.301
 2145SOL    HW223578   5.626   3.747   7.345
 2146SOL     OW23579   1.205   3.611   0.204
 2146SOL    HW123580   1.136   3.546   0.189
 2146SOL    HW223581   1.277   3.560   0.241
 2147SOL     OW23582   2.144   4.217   1.074
 2147SOL    HW123583   2.108   4.140   1.118
 2147SOL    HW223584   2.105   4.215   0.986
 2148SOL     OW23585   0.879   5.124   6.893
 2148SOL    HW123586   0.891   5.035   6.859
 2148SOL    HW223587   0.788   5.126   6.923
 2149SOL     OW23588   3.823   5.291   6.880
 2149SOL    HW123589   3.734   5.279   6.913
 2149SOL    HW223590   3.862   5.354   6.941
 2150SOL     OW23591   3.934   3.713   1.446
 2150SOL    HW123592   3.982   3.726   1.528
 2150SOL    HW223593   3.987   3.756   1.379
 2151SOL     OW23594   6.400   3.804   0.630
 2151SOL    HW123595   6.325   3.852   0.595
 2151SOL    HW223596   6.408   3.727   0.572
 2152SOL     OW23597   4.759   3.104   0.586
 2152SOL    HW123598   4.837   3.060   0.551
 2152SOL    HW223599   4.729   3.161   0.516
 2153SOL     OW23600   6.223   1.297   0.524
 2153SOL    HW123601   6.221   1.373   0.583
 2153SOL    HW223602   6.244   1.223   0.581
 2154SOL     OW23603   4.072   3.633   2.054
 2154SOL    HW123604   4.088   3.642   2.148
 2154SOL    HW223605   4.158   3.645   2.013
 2155SOL     OW23606   3.772   6.329   0.230
 2155SOL    HW123607   3.732   6.314   0.144
 2155SOL    HW223608   3.723   6.403   0.266
 2156SOL     OW23609   6.224   0.304   0.073
 2156SOL    HW123610   6.134   0.278   0.057
 2156SOL    HW223611   6.258   0.238   0.134
 2157SOL     OW23612   1.298   6.422   7.273
 2157SOL    HW123613   1.210   6.389   7.254
 2157SOL    HW223614   1.324   6.375   7.352
 2158SOL     OW23615   2.437   0.972   6.076
 2158SOL    HW123616   2.385   0.944   6.152
 2158SOL    HW223617   2.510   1.020   6.114
 2159SOL     OW23618   0.793   1.097   1.313
 2159SOL    HW123619   0.740   1.132   1.384
 2159SOL    HW223620   0.871   1.153   1.311
 2160SOL     OW23621   3.754   4.688   6.134
 2160SOL    HW123622   3.752   4.676   6.039
 2160SOL    HW223623   3.669   4.656   6.163
 2161SOL     OW23624   1.447   3.257   2.120
 2161SOL    HW123625   1.498   3.337   2.112
 2161SOL    HW223626   1.474   3.203   2.045
 2162SOL     OW23627   3.872   4.954   1.025
 2162SOL    HW123628   3.819   4.874   1.017
 2162SOL    HW223629   3.958   4.923   1.054
 2163SOL     OW23630   0.983   2.951   2.557
 2163SOL    HW123631   0.963   3.027   2.503
 2163SOL    HW223632   1.021   2.988   2.637
 2164SOL     OW23633   5.464   3.840   0.342
 2164SOL    HW123634   5.527   3.912   0.349
 2164SOL    HW223635   5.517   3.765   0.316
 2165SOL     OW23636   5.451   4.081   0.660
 2165SOL    HW123637   5.424   4.081   0.752
 2165SOL    HW223638   5.546   4.086   0.662
 2166SOL     OW23639   1.395   4.710   6.600
 2166SOL    HW123640   1.400   4.781   6.663
 2166SOL    HW223641   1.377   4.753   6.516
 2167SOL     OW23642   6.344   5.803   0.823
 2167SOL    HW123643   6.347   5.842   0.911
 2167SOL    HW223644   6.314   5.874   0.766
 2168SOL     OW23645   5.284   6.029   6.681
 2168SOL    HW123646   5.192   6.006   6.672
 2168SOL    HW223647   5.304   6.081   6.602
 2169SOL     OW23648   1.032   3.105   0.162
 2169SOL    HW123649   1.047   3.113   0.068
 2169SOL    HW223650   1.050   3.193   0.196
 2170SOL     OW23651   0.517   4.771   6.598
 2170SOL    HW123652   0.552   4.727   6.676
 2170SOL    HW223653   0.464   4.843   6.633
 2171SOL     OW23654   4.778   3.575   7.497
 2171SOL    HW123655   4.833   3.628   7.438
 2171SOL    HW223656   4.765   3.493   7.450
 2172SOL     OW23657   6.362   1.531   1.924
 2172SOL    HW123658   6.319   1.608   1.887
 2172SOL    HW223659   6.444   1.565   1.960
 2173SOL     OW23660   2.706   5.097   1.362
 2173SOL    HW123661   2.655   5.028   1.319
 2173SOL    HW223662   2.768   5.050   1.417
 2174SOL     OW23663   4.619   0.181   0.866
 2174SOL    HW123664   4.700   0.138   0.891
 2174SOL    HW223665   4.644   0.272   0.849
 2175SOL     OW23666   2.301   4.575   6.308
 2175SOL    HW123667   2.353   4.643   6.268
 2175SOL    HW223668   2.348   4.493   6.289
 2176SOL     OW23669   3.696   5.335   1.375
 2176SOL    HW123670   3.719   5.244   1.356
 2176SOL    HW223671   3.735   5.352   1.461
 2177SOL     OW23672   2.065   0.595   7.338
 2177SOL    HW123673   2.074   0.531   7.408
 2177SOL    HW223674   2.004   0.555   7.276
 2178SOL     OW23675   2.695   2.285   0.381
 2178SOL    HW123676   2.697   2.343   0.306
 2178SOL    HW223677   2.709   2.198   0.345
 2179SOL     OW23678   5.325   3.213   6.152
 2179SOL    HW123679   5.312   3.127   6.113
 2179SOL    HW223680   5.303   3.275   6.082
 2180SOL     OW23681   5.198   1.827   1.695
 2180SOL    HW123682   5.248   1.772   1.635
 2180SOL    HW223683   5.245   1.820   1.778
 2181SOL     OW23684   5.709   2.874   6.749
 2181SOL    HW123685   5.659   2.946   6.710
 2181SOL    HW223686   5.754   2.914   6.824
 2182SOL     OW23687   0.206   1.807   6.434
 2182SOL    HW123688   0.298   1.833   6.440
 2182SOL    HW223689   0.206   1.735   6.371
 2183SOL     OW23690   4.192   3.778   7.733
 2183SOL    HW123691   4.223   3.852   7.681
 2183SOL    HW223692   4.199   3.808   7.824
 2184SOL     OW23693   3.014   1.129   7.147
 2184SOL    HW123694   2.924   1.159   7.134
 2184SOL    HW223695   3.063   1.167   7.074
 2185SOL     OW23696   4.459   3.833   6.446
 2185SOL    HW123697   4.386   3.889   6.472
 2185SOL    HW223698   4.420   3.747   6.431
 2186SOL     OW23699   6.425   1.387   0.745
 2186SOL    HW123700   6.439   1.324   0.816
 2186SOL    HW223701   6.406   1.470   0.790
 2187SOL     OW23702   3.910   4.454   7.372
 2187SOL    HW123703   3.959   4.471   7.291
 2187SOL    HW223704   3.957   4.380   7.412
 2188SOL     OW23705   4.807   4.730   0.782
 2188SOL    HW123706   4.830   4.816   0.747
 2188SOL    HW223707   4.717   4.715   0.753
 2189SOL     OW23708   4.686   6.040   6.429
 2189SOL    HW123709   4.765   6.076   6.390
 2189SOL    HW223710   4.712   5.953   6.460
 2190SOL     OW23711   1.190   0.557   6.763
 2190SOL    HW123712   1.138   0.623   6.717
 2190SOL    HW223713   1.144   0.475   6.748
 2191SOL     OW23714   0.644   4.899   5.990
 2191SOL    HW123715   0.610   4.812   5.972
 2191SOL    HW223716   0.567   4.956   5.991
 2192SOL     OW23717   2.070   2.555   1.134
 2192SOL    HW123718   2.010   2.481   1.144
 2192SOL    HW223719   2.121   2.535   1.056
 2193SOL     OW23720   2.988   3.513   1.161
 2193SOL    HW123721   3.050   3.575   1.200
 2193SOL    HW223722   2.971   3.449   1.230
 2194SOL     OW23723   2.971   1.188   0.631
 2194SOL    HW123724   2.970   1.098   0.664
 2194SOL    HW223725   2.893   1.228   0.670
 2195SOL     OW23726   4.792   0.782   2.018
 2195SOL    HW123727   4.697   0.784   2.012
 2195SOL    HW223728   4.821   0.861   1.972
 2196SOL     OW23729   3.389   0.013   7.541
 2196SOL    HW123730   3.344  -0.032   7.612
 2196SOL    HW223731   3.349   0.100   7.538
 2197SOL     OW23732   5.385   2.907   1.448
 2197SOL    HW123733   5.324   2.844   1.410
 2197SOL    HW223734   5.411   2.962   1.374
 2198SOL     OW23735   3.579   1.175   1.639
 2198SOL    HW123736   3.548   1.098   1.591
 2198SOL    HW223737   3.601   1.141   1.726
 2199SOL     OW23738   4.366   1.341   0.377
 2199SOL    HW123739   4.368   1.436   0.386
 2199SOL    HW223740   4.342   1.327   0.285
 2200SOL     OW23741   1.122   1.658   6.325
 2200SOL    HW123742   1.216   1.676   6.316
 2200SOL    HW223743   1.105   1.588   6.262
 2201SOL     OW23744   2.002   1.684   0.894
 2201SOL    HW123745   1.950   1.616   0.850
 2201SOL    HW223746   1.957   1.766   0.872
 2202SOL     OW23747   1.469   1.961   6.313
 2202SOL    HW123748   1.390   1.962   6.367
 2202SOL    HW223749   1.535   2.008   6.364
 2203SOL     OW23750   0.308   4.575   2.290
 2203SOL    HW123751   0.273   4.641   2.350
 2203SOL    HW223752   0.400   4.600   2.277
 2204SOL     OW23753   3.095   3.032   0.752
 2204SOL    HW123754   3.187   3.008   0.755
 2204SOL    HW223755   3.086   3.100   0.819
 2205SOL     OW23756   5.974   4.347   6.809
 2205SOL    HW123757   5.898   4.385   6.852
 2205SOL    HW223758   5.944   4.327   6.720
 2206SOL     OW23759   4.308   2.773   7.794
 2206SOL    HW123760   4.358   2.701   7.831
 2206SOL    HW223761   4.366   2.849   7.800
 2207SOL     OW23762   1.873   2.087   1.101
 2207SOL    HW123763   1.794   2.048   1.063
 2207SOL    HW223764   1.945   2.053   1.047
 2208SOL     OW23765   6.393   2.496   0.658
 2208SOL    HW123766   6.386   2.403   0.679
 2208SOL    HW223767   6.436   2.535   0.734
 2209SOL     OW23768   5.251   6.029   0.451
 2209SOL    HW123769   5.340   6.014   0.483
 2209SOL    HW223770   5.239   5.965   0.381
 2210SOL     OW23771   5.341   2.166   7.680
 2210SOL    HW123772   5.346   2.088   7.625
 2210SOL    HW223773   5.431   2.183   7.707
 2211SOL     OW23774   0.784   3.714   2.495
 2211SOL    HW123775   0.753   3.791   2.446
 2211SOL    HW223776   0.850   3.674   2.438
 2212SOL     OW23777   1.176   1.974   7.535
 2212SOL    HW123778   1.099   1.939   7.491
 2212SOL    HW223779   1.143   2.014   7.615
 2213SOL     OW23780   0.074   3.130   7.428
 2213SOL    HW123781   0.160   3.117   7.389
 2213SOL    HW223782   0.065   3.225   7.434
 2214SOL     OW23783   5.797   0.460   0.921
 2214SOL    HW123784   5.837   0.546   0.935
 2214SOL    HW223785   5.819   0.411   1.000
 2215SOL     OW23786   4.411   5.339   5.877
 2215SOL    HW123787   4.466   5.265   5.853
 2215SOL    HW223788   4.363   5.360   5.797
 2216SOL     OW23789   5.205   1.038   6.509
 2216SOL    HW123790   5.269   1.097   6.548
 2216SOL    HW223791   5.156   1.093   6.448
 2217SOL     OW23792   5.008   3.815   7.605
 2217SOL    HW123793   4.946   3.752   7.642
 2217SOL    HW223794   4.995   3.809   7.511
 2218SOL     OW23795   1.939   4.197   7.782
 2218SOL    HW123796   1.869   4.137   7.810
 2218SOL    HW223797   2.016   4.170   7.832
 2219SOL     OW23798   3.810   2.547   6.580
 2219SOL    HW123799   3.760   2.495   6.517
 2219SOL    HW223800   3.874   2.485   6.616
 2220SOL     OW23801   4.434   0.735   1.054
 2220SOL    HW123802   4.395   0.697   1.132
 2220SOL    HW223803   4.511   0.781   1.085
 2221SOL     OW23804   0.153   2.623   0.422
 2221SOL    HW123805   0.063   2.608   0.448
 2221SOL    HW223806   0.198   2.647   0.503
 2222SOL     OW23807   1.402   2.187   7.121
 2222SOL    HW123808   1.436   2.122   7.059
 2222SOL    HW223809   1.359   2.135   7.188
 2223SOL     OW23810   3.266   3.315   0.646
 2223SOL    HW123811   3.177   3.316   0.611
 2223SOL    HW223812   3.315   3.372   0.586
 2224SOL     OW23813   1.405   4.239   6.811
 2224SOL    HW123814   1.484   4.266   6.764
 2224SOL    HW223815   1.404   4.144   6.804
 2225SOL     OW23816   4.419   4.221   7.032
 2225SOL    HW123817   4.449   4.132   7.016
 2225SOL    HW223818   4.494   4.265   7.072
 2226SOL     OW23819   1.483   1.243   0.072
 2226SOL    HW123820   1.412   1.243   0.136
 2226SOL    HW223821   1.486   1.153   0.039
 2227SOL     OW23822   3.819   3.500   1.781
 2227SOL    HW123823   3.826   3.461   1.868
 2227SOL    HW223824   3.785   3.588   1.796
 2228SOL     OW23825   2.156   1.437   5.828
 2228SOL    HW123826   2.228   1.382   5.857
 2228SOL    HW223827   2.169   1.445   5.733
 2229SOL     OW23828   0.376   0.598   1.379
 2229SOL    HW123829   0.284   0.600   1.352
 2229SOL    HW223830   0.374   0.557   1.466
 2230SOL     OW23831   1.095   5.856   7.661
 2230SOL    HW123832   1.012   5.809   7.663
 2230SOL    HW223833   1.159   5.792   7.631
 2231SOL     OW23834   2.119   0.932   1.260
 2231SOL    HW123835   2.164   0.890   1.333
 2231SOL    HW223836   2.047   0.874   1.238
 2232SOL     OW23837   5.182   3.937   7.784
 2232SOL    HW123838   5.117   3.874   7.751
 2232SOL    HW223839   5.158   3.947   7.877
 2233SOL     OW23840   1.073   3.887   0.248
 2233SOL    HW123841   1.036   3.895   0.335
 2233SOL    HW223842   1.121   3.804   0.250
 2234SOL     OW23843   5.653   4.572   6.482
 2234SOL    HW123844   5.572   4.612   6.451
 2234SOL    HW223845   5.677   4.624   6.559
 2235SOL     OW23846   2.529   1.542   7.271
 2235SOL    HW123847   2.624   1.544   7.259
 2235SOL    HW223848   2.494   1.574   7.188
 2236SOL     OW23849   3.245   5.276   6.518
 2236SOL    HW123850   3.245   5.278   6.613
 2236SOL    HW223851   3.156   5.248   6.494
 2237SOL     OW23852   4.130   3.046   1.706
 2237SOL    HW123853   4.074   2.982   1.749
 2237SOL    HW223854   4.129   3.122   1.765
 2238SOL     OW23855   4.407   0.434   7.500
 2238SOL    HW123856   4.423   0.528   7.491
 2238SOL    HW223857   4.382   0.405   7.412
 2239SOL     OW23858   1.912   4.867   7.173
 2239SOL    HW123859   1.981   4.926   7.204
 2239SOL    HW223860   1.858   4.850   7.250
 2240SOL     OW23861   5.871   0.913   6.569
 2240SOL    HW123862   5.876   0.921   6.473
 2240SOL    HW223863   5.909   0.827   6.587
 2241SOL     OW23864   6.349   1.668   0.574
 2241SOL    HW123865   6.440   1.664   0.603
 2241SOL    HW223866   6.349   1.629   0.486
 2242SOL     OW23867   3.447   6.293   0.346
 2242SOL    HW123868   3.542   6.279   0.348
 2242SOL    HW223869   3.433   6.374   0.395
 2243SOL     OW23870   5.987   6.114   7.469
 2243SOL    HW123871   5.970   6.124   7.562
 2243SOL    HW223872   6.060   6.052   7.464
 2244SOL     OW23873   0.947   0.482   6.896
 2244SOL    HW123874   0.892   0.559   6.883
 2244SOL    HW223875   0.887   0.408   6.882
 2245SOL     OW23876   5.163   3.964   1.054
 2245SOL    HW123877   5.201   3.915   1.127
 2245SOL    HW223878   5.145   3.897   0.988
 2246SOL     OW23879   4.158   2.192  -0.001
 2246SOL    HW123880   4.136   2.109   0.042
 2246SOL    HW223881   4.241   2.219   0.039
 2247SOL     OW23882   3.595   0.620   6.222
 2247SOL    HW123883   3.609   0.592   6.312
 2247SOL    HW223884   3.500   0.612   6.209
 2248SOL     OW23885   6.428   0.274   2.056
 2248SOL    HW123886   6.336   0.277   2.028
 2248SOL    HW223887   6.431   0.335   2.130
 2249SOL     OW23888   1.376   1.047   0.245
 2249SOL    HW123889   1.467   1.018   0.244
 2249SOL    HW223890   1.346   1.030   0.335
 2250SOL     OW23891   5.833   5.843   7.405
 2250SOL    HW123892   5.924   5.834   7.376
 2250SOL    HW223893   5.839   5.889   7.489
 2251SOL     OW23894   6.391   2.680   5.332
 2251SOL    HW123895   6.476   2.674   5.289
 2251SOL    HW223896   6.405   2.643   5.419
 2252SOL     OW23897   0.846   1.648   6.888
 2252SOL    HW123898   0.852   1.739   6.859
 2252SOL    HW223899   0.937   1.621   6.899
 2253SOL     OW23900   1.109   1.023   0.140
 2253SOL    HW123901   1.198   1.030   0.175
 2253SOL    HW223902   1.103   1.092   0.074
 2254SOL     OW23903   4.425   3.734   5.370
 2254SOL    HW123904   4.455   3.686   5.293
 2254SOL    HW223905   4.330   3.718   5.374
 2255SOL     OW23906   1.495   5.571   0.762
 2255SOL    HW123907   1.440   5.627   0.707
 2255SOL    HW223908   1.435   5.509   0.802
 2256SOL     OW23909   3.901   2.425   1.703
 2256SOL    HW123910   3.896   2.520   1.693
 2256SOL    HW223911   3.932   2.412   1.793
 2257SOL     OW23912   3.782   6.227   2.313
 2257SOL    HW123913   3.814   6.188   2.232
 2257SOL    HW223914   3.797   6.321   2.302
 2258SOL     OW23915   1.114   4.114   0.465
 2258SOL    HW123916   1.029   4.157   0.478
 2258SOL    HW223917   1.155   4.164   0.394
 2259SOL     OW23918   2.168   4.603   6.747
 2259SOL    HW123919   2.078   4.574   6.760
 2259SOL    HW223920   2.221   4.535   6.787
 2260SOL     OW23921   5.587   0.774   6.156
 2260SOL    HW123922   5.611   0.737   6.071
 2260SOL    HW223923   5.497   0.806   6.144
 2261SOL     OW23924   3.878   2.212   7.582
 2261SOL    HW123925   3.906   2.278   7.644
 2261SOL    HW223926   3.959   2.179   7.542
 2262SOL     OW23927   0.654   0.028   5.613
 2262SOL    HW123928   0.725   0.022   5.676
 2262SOL    HW223929   0.678   0.101   5.556
 2263SOL     OW23930   5.252   5.858   2.251
 2263SOL    HW123931   5.309   5.784   2.272
 2263SOL    HW223932   5.178   5.819   2.206
 2264SOL     OW23933   4.982   1.590   6.141
 2264SOL    HW123934   5.064   1.623   6.102
 2264SOL    HW223935   4.954   1.521   6.082
 2265SOL     OW23936   4.546   1.446   6.721
 2265SOL    HW123937   4.572   1.366   6.677
 2265SOL    HW223938   4.457   1.428   6.753
 2266SOL     OW23939   1.633   5.339   2.087
 2266SOL    HW123940   1.649   5.247   2.064
 2266SOL    HW223941   1.603   5.335   2.178
 2267SOL     OW23942   4.868   5.270   7.080
 2267SOL    HW123943   4.832   5.356   7.106
 2267SOL    HW223944   4.951   5.264   7.126
 2268SOL     OW23945   2.144   0.436   0.105
 2268SOL    HW123946   2.170   0.474   0.022
 2268SOL    HW223947   2.161   0.342   0.095
 2269SOL     OW23948   4.571   5.567   5.736
 2269SOL    HW123949   4.618   5.535   5.813
 2269SOL    HW223950   4.479   5.562   5.761
 2270SOL     OW23951   1.333   5.467   2.282
 2270SOL    HW123952   1.295   5.388   2.244
 2270SOL    HW223953   1.418   5.439   2.317
 2271SOL     OW23954   1.716   4.258   7.439
 2271SOL    HW123955   1.663   4.336   7.460
 2271SOL    HW223956   1.651   4.190   7.421
 2272SOL     OW23957   1.734   2.619   1.347
 2272SOL    HW123958   1.749   2.685   1.279
 2272SOL    HW223959   1.790   2.646   1.419
 2273SOL     OW23960   5.013   0.996   0.043
 2273SOL    HW123961   4.997   0.956  -0.042
 2273SOL    HW223962   4.939   0.968   0.097
 2274SOL     OW23963   2.000   1.801   5.892
 2274SOL    HW123964   2.082   1.833   5.855
 2274SOL    HW223965   1.980   1.722   5.842
 2275SOL     OW23966   0.868   3.926   0.085
 2275SOL    HW123967   0.891   3.935  -0.007
 2275SOL    HW223968   0.953   3.922   0.130
 2276SOL     OW23969   2.959   0.897   7.438
 2276SOL    HW123970   2.894   0.967   7.445
 2276SOL    HW223971   3.028   0.922   7.500
 2277SOL     OW23972   2.862   5.826   6.427
 2277SOL    HW123973   2.812   5.905   6.449
 2277SOL    HW223974   2.861   5.822   6.332
 2278SOL     OW23975   3.057   5.088   0.196
 2278SOL    HW123976   3.086   5.178   0.182
 2278SOL    HW223977   3.135   5.043   0.228
 2279SOL     OW23978   5.604   1.878   7.576
 2279SOL    HW123979   5.627   1.787   7.591
 2279SOL    HW223980   5.605   1.888   7.480
 2280SOL     OW23981   5.410   1.220   7.411
 2280SOL    HW123982   5.457   1.267   7.342
 2280SOL    HW223983   5.471   1.154   7.442
 2281SOL     OW23984   3.187   0.264   0.961
 2281SOL    HW123985   3.170   0.336   1.021
 2281SOL    HW223986   3.258   0.294   0.906
 2282SOL     OW23987   5.699   2.132   1.201
 2282SOL    HW123988   5.663   2.217   1.228
 2282SOL    HW223989   5.790   2.150   1.179
 2283SOL     OW23990   2.725   1.531   6.905
 2283SOL    HW123991   2.806   1.562   6.865
 2283SOL    HW223992   2.703   1.451   6.858
 2284SOL     OW23993   6.279   0.367   1.015
 2284SOL    HW123994   6.291   0.400   0.926
 2284SOL    HW223995   6.362   0.325   1.036
 2285SOL     OW23996   4.846   5.605   1.189
 2285SOL    HW123997   4.807   5.683   1.149
 2285SOL    HW223998   4.788   5.583   1.261
 2286SOL     OW23999   3.355   1.789   1.677
 2286SOL    HW124000   3.373   1.807   1.769
 2286SOL    HW224001   3.280   1.846   1.656
 2287SOL     OW24002   0.185   4.550   7.238
 2287SOL    HW124003   0.130   4.627   7.226
 2287SOL    HW224004   0.134   4.493   7.295
 2288SOL     OW24005   4.272   1.457   7.343
 2288SOL    HW124006   4.298   1.411   7.423
 2288SOL    HW224007   4.225   1.535   7.374
 2289SOL     OW24008   2.355   2.715   6.764
 2289SOL    HW124009   2.311   2.792   6.728
 2289SOL    HW224010   2.305   2.693   6.842
 2290SOL     OW24011   3.655   5.140   0.491
 2290SOL    HW124012   3.596   5.066   0.475
 2290SOL    HW224013   3.739   5.099   0.512
 2291SOL     OW24014   3.235   4.475   2.605
 2291SOL    HW124015   3.330   4.466   2.595
 2291SOL    HW224016   3.200   4.455   2.519
 2292SOL     OW24017   1.814   3.328   7.541
 2292SOL    HW124018   1.810   3.408   7.489
 2292SOL    HW224019   1.722   3.300   7.550
 2293SOL     OW24020   1.154   6.231   1.413
 2293SOL    HW124021   1.221   6.180   1.367
 2293SOL    HW224022   1.161   6.319   1.375
 2294SOL     OW24023   5.005   6.416   7.464
 2294SOL    HW124024   4.966   6.499   7.490
 2294SOL    HW224025   4.941   6.377   7.404
 2295SOL     OW24026   1.266   2.457   2.261
 2295SOL    HW124027   1.347   2.410   2.241
 2295SOL    HW224028   1.272   2.476   2.355
 2296SOL     OW24029   1.148   0.350   7.033
 2296SOL    HW124030   1.114   0.294   7.103
 2296SOL    HW224031   1.071   0.397   7.001
 2297SOL     OW24032   5.242   0.788   0.039
 2297SOL    HW124033   5.168   0.801   0.100
 2297SOL    HW224034   5.294   0.868   0.049
 2298SOL     OW24035   1.637   3.048   6.836
 2298SOL    HW124036   1.647   2.997   6.916
 2298SOL    HW224037   1.548   3.085   6.843
 2299SOL     OW24038   1.878   5.327   0.434
 2299SOL    HW124039   1.794   5.342   0.390
 2299SOL    HW224040   1.854   5.299   0.523
 2300SOL     OW24041   0.482   3.464   1.217
 2300SOL    HW124042   0.456   3.417   1.296
 2300SOL    HW224043   0.510   3.396   1.157
 2301SOL     OW24044   5.658   3.990   2.275
 2301SOL    HW124045   5.620   4.059   2.220
 2301SOL    HW224046   5.688   4.036   2.353
 2302SOL     OW24047   0.488   2.334   7.708
 2302SOL    HW124048   0.421   2.364   7.647
 2302SOL    HW224049   0.472   2.383   7.788
 2303SOL     OW24050   5.586   2.873   1.109
 2303SOL    HW124051   5.501   2.905   1.139
 2303SOL    HW224052   5.629   2.949   1.070
 2304SOL     OW24053   1.292   4.507   7.295
 2304SOL    HW124054   1.268   4.487   7.204
 2304SOL    HW224055   1.240   4.585   7.316
 2305SOL     OW24056   2.773   5.193   7.352
 2305SOL    HW124057   2.773   5.204   7.257
 2305SOL    HW224058   2.802   5.103   7.366
 2306SOL     OW24059   4.108   6.238   7.259
 2306SOL    HW124060   4.095   6.333   7.250
 2306SOL    HW224061   4.025   6.206   7.294
 2307SOL     OW24062   5.993   3.564   0.225
 2307SOL    HW124063   6.074   3.513   0.224
 2307SOL    HW224064   5.953   3.547   0.139
 2308SOL     OW24065   3.223   6.070   1.240
 2308SOL    HW124066   3.255   5.994   1.191
 2308SOL    HW224067   3.188   6.129   1.172
 2309SOL     OW24068   1.673   0.121   6.125
 2309SOL    HW124069   1.621   0.200   6.108
 2309SOL    HW224070   1.675   0.075   6.041
 2310SOL     OW24071   4.867   2.789   6.859
 2310SOL    HW124072   4.850   2.865   6.915
 2310SOL    HW224073   4.826   2.811   6.776
 2311SOL     OW24074   5.329   2.055   0.484
 2311SOL    HW124075   5.234   2.053   0.488
 2311SOL    HW224076   5.349   2.073   0.392
 2312SOL     OW24077   0.452   0.144   5.792
 2312SOL    HW124078   0.426   0.206   5.723
 2312SOL    HW224079   0.548   0.149   5.794
 2313SOL     OW24080   4.163   3.606   5.706
 2313SOL    HW124081   4.109   3.599   5.785
 2313SOL    HW224082   4.235   3.546   5.720
 2314SOL     OW24083   1.291   0.877   6.151
 2314SOL    HW124084   1.273   0.956   6.100
 2314SOL    HW224085   1.301   0.808   6.086
 2315SOL     OW24086   2.095   2.684   0.569
 2315SOL    HW124087   2.045   2.763   0.585
 2315SOL    HW224088   2.184   2.706   0.597
 2316SOL     OW24089   5.511   0.752   6.428
 2316SOL    HW124090   5.571   0.722   6.359
 2316SOL    HW224091   5.497   0.845   6.409
 2317SOL     OW24092   2.145   0.404   0.615
 2317SOL    HW124093   2.224   0.355   0.639
 2317SOL    HW224094   2.077   0.338   0.607
 2318SOL     OW24095   2.998   5.486   6.452
 2318SOL    HW124096   3.090   5.504   6.470
 2318SOL    HW224097   2.951   5.560   6.491
 2319SOL     OW24098   0.406   0.934   6.637
 2319SOL    HW124099   0.352   0.940   6.716
 2319SOL    HW224100   0.347   0.959   6.566
 2320SOL     OW24101   3.144   2.224   0.129
 2320SOL    HW124102   3.139   2.230   0.033
 2320SOL    HW224103   3.083   2.290   0.161
 2321SOL     OW24104   2.101   1.850   5.334
 2321SOL    HW124105   2.076   1.766   5.297
 2321SOL    HW224106   2.170   1.882   5.276
 2322SOL     OW24107   1.151   1.627   6.976
 2322SOL    HW124108   1.216   1.571   7.018
 2322SOL    HW224109   1.101   1.665   7.048
 2323SOL     OW24110   2.318   6.243   0.264
 2323SOL    HW124111   2.263   6.267   0.338
 2323SOL    HW224112   2.256   6.226   0.193
 2324SOL     OW24113   0.294   4.507   2.036
 2324SOL    HW124114   0.207   4.492   2.000
 2324SOL    HW224115   0.283   4.501   2.130
 2325SOL     OW24116   1.160   3.211   7.327
 2325SOL    HW124117   1.172   3.276   7.258
 2325SOL    HW224118   1.120   3.260   7.399
 2326SOL     OW24119   4.662   0.412   7.570
 2326SOL    HW124120   4.692   0.480   7.510
 2326SOL    HW224121   4.574   0.391   7.541
 2327SOL     OW24122   4.475   2.580   1.436
 2327SOL    HW124123   4.420   2.656   1.456
 2327SOL    HW224124   4.526   2.566   1.516
 2328SOL     OW24125   1.334   5.450   7.232
 2328SOL    HW124126   1.315   5.479   7.142
 2328SOL    HW224127   1.365   5.360   7.222
 2329SOL     OW24128   1.388   0.660   0.982
 2329SOL    HW124129   1.354   0.689   1.066
 2329SOL    HW224130   1.332   0.703   0.917
 2330SOL     OW24131   0.679   1.090   0.222
 2330SOL    HW124132   0.745   1.021   0.228
 2330SOL    HW224133   0.601   1.047   0.187
 2331SOL     OW24134   4.293   1.020   0.315
 2331SOL    HW124135   4.227   0.963   0.276
 2331SOL    HW224136   4.266   1.108   0.288
 2332SOL     OW24137   0.812   4.028   7.342
 2332SOL    HW124138   0.737   4.049   7.287
 2332SOL    HW224139   0.775   3.978   7.415
 2333SOL     OW24140   3.464   0.035   1.383
 2333SOL    HW124141   3.550   0.019   1.344
 2333SOL    HW224142   3.402   0.009   1.315
 2334SOL     OW24143   3.148   2.579   6.424
 2334SOL    HW124144   3.218   2.516   6.404
 2334SOL    HW224145   3.067   2.528   6.415
 2335SOL     OW24146   5.680   6.356   6.535
 2335SOL    HW124147   5.614   6.402   6.588
 2335SOL    HW224148   5.637   6.338   6.452
 2336SOL     OW24149   3.541   6.030   7.239
 2336SOL    HW124150   3.470   6.068   7.187
 2336SOL    HW224151   3.614   6.092   7.229
 2337SOL     OW24152   2.765   0.962   6.568
 2337SOL    HW124153   2.724   0.897   6.512
 2337SOL    HW224154   2.796   0.913   6.644
 2338SOL     OW24155   5.707   1.016   7.174
 2338SOL    HW124156   5.764   0.940   7.157
 2338SOL    HW224157   5.622   0.991   7.137
 2339SOL     OW24158   3.063   0.314   7.242
 2339SOL    HW124159   3.021   0.400   7.242
 2339SOL    HW224160   3.057   0.284   7.152
 2340SOL     OW24161   1.003   3.475   1.558
 2340SOL    HW124162   1.044   3.522   1.486
 2340SOL    HW224163   1.032   3.384   1.548
 2341SOL     OW24164   5.499   4.774   6.382
 2341SOL    HW124165   5.505   4.848   6.322
 2341SOL    HW224166   5.406   4.754   6.387
 2342SOL     OW24167   2.851   5.402   2.121
 2342SOL    HW124168   2.837   5.413   2.215
 2342SOL    HW224169   2.934   5.445   2.104
 2343SOL     OW24170   3.309   1.511   6.677
 2343SOL    HW124171   3.394   1.550   6.696
 2343SOL    HW224172   3.248   1.560   6.733
 2344SOL     OW24173   5.958   1.795   0.372
 2344SOL    HW124174   6.005   1.824   0.293
 2344SOL    HW224175   5.895   1.864   0.389
 2345SOL     OW24176   0.899   3.992   1.633
 2345SOL    HW124177   0.885   4.049   1.558
 2345SOL    HW224178   0.876   3.905   1.602
 2346SOL     OW24179   5.842   3.625   1.762
 2346SOL    HW124180   5.911   3.559   1.757
 2346SOL    HW224181   5.767   3.578   1.799
 2347SOL     OW24182   1.230   2.760   2.772
 2347SOL    HW124183   1.308   2.813   2.756
 2347SOL    HW224184   1.159   2.823   2.777
 2348SOL     OW24185   3.345   1.270   0.770
 2348SOL    HW124186   3.415   1.325   0.735
 2348SOL    HW224187   3.385   1.226   0.845
 2349SOL     OW24188   6.005   1.012   1.213
 2349SOL    HW124189   5.916   1.029   1.183
 2349SOL    HW224190   6.007   0.917   1.228
 2350SOL     OW24191   0.731   6.394   6.418
 2350SOL    HW124192   0.756   6.474   6.464
 2350SOL    HW224193   0.805   6.376   6.360
 2351SOL     OW24194   1.298   1.094   0.967
 2351SOL    HW124195   1.273   1.186   0.971
 2351SOL    HW224196   1.386   1.092   1.003
 2352SOL     OW24197   5.369   4.591   7.281
 2352SOL    HW124198   5.415   4.615   7.200
 2352SOL    HW224199   5.405   4.506   7.305
 2353SOL     OW24200   4.277   3.079   1.130
 2353SOL    HW124201   4.295   3.080   1.036
 2353SOL    HW224202   4.353   3.036   1.169
 2354SOL     OW24203   1.786   5.529   7.381
 2354SOL    HW124204   1.840   5.554   7.456
 2354SOL    HW224205   1.842   5.470   7.330
 2355SOL     OW24206   4.807   5.561   7.107
 2355SOL    HW124207   4.753   5.523   7.038
 2355SOL    HW224208   4.863   5.623   7.061
 2356SOL     OW24209   2.419   4.068   0.384
 2356SOL    HW124210   2.380   4.142   0.431
 2356SOL    HW224211   2.481   4.031   0.447
 2357SOL     OW24212   1.879   4.915   5.448
 2357SOL    HW124213   1.794   4.872   5.443
 2357SOL    HW224214   1.871   4.991   5.390
 2358SOL     OW24215   1.645   2.798   1.131
 2358SOL    HW124216   1.662   2.892   1.140
 2358SOL    HW224217   1.550   2.790   1.144
 2359SOL     OW24218   2.364   5.122   6.075
 2359SOL    HW124219   2.420   5.059   6.030
 2359SOL    HW224220   2.295   5.142   6.012
 2360SOL     OW24221   3.928   2.178   2.076
 2360SOL    HW124222   3.990   2.178   2.004
 2360SOL    HW224223   3.911   2.271   2.093
 2361SOL     OW24224   4.646   2.911   0.087
 2361SOL    HW124225   4.730   2.943   0.054
 2361SOL    HW224226   4.663   2.889   0.179
 2362SOL     OW24227   2.855   6.410   6.988
 2362SOL    HW124228   2.834   6.353   7.062
 2362SOL    HW224229   2.775   6.458   6.970
 2363SOL     OW24230   3.127   5.154   6.235
 2363SOL    HW124231   3.127   5.082   6.172
 2363SOL    HW224232   3.220   5.174   6.248
 2364SOL     OW24233   3.282   4.432   7.346
 2364SOL    HW124234   3.243   4.347   7.365
 2364SOL    HW224235   3.209   4.494   7.356
 2365SOL     OW24236   5.015   2.357   7.121
 2365SOL    HW124237   4.978   2.412   7.051
 2365SOL    HW224238   5.007   2.268   7.088
 2366SOL     OW24239   2.126   5.906   7.015
 2366SOL    HW124240   2.190   5.961   6.970
 2366SOL    HW224241   2.099   5.842   6.950
 2367SOL     OW24242   5.268   3.314   2.282
 2367SOL    HW124243   5.331   3.361   2.336
 2367SOL    HW224244   5.318   3.285   2.206
 2368SOL     OW24245   1.737   5.571   2.257
 2368SOL    HW124246   1.692   5.650   2.227
 2368SOL    HW224247   1.830   5.591   2.245
 2369SOL     OW24248   2.805   0.118   5.471
 2369SOL    HW124249   2.751   0.173   5.414
 2369SOL    HW224250   2.825   0.041   5.418
 2370SOL     OW24251   2.959   4.072   7.786
 2370SOL    HW124252   2.923   3.998   7.835
 2370SOL    HW224253   2.883   4.129   7.770
 2371SOL     OW24254   5.392   4.965   1.876
 2371SOL    HW124255   5.403   4.982   1.783
 2371SOL    HW224256   5.298   4.973   1.892
 2372SOL     OW24257   1.742   0.752   0.807
 2372SOL    HW124258   1.830   0.789   0.817
 2372SOL    HW224259   1.700   0.765   0.892
 2373SOL     OW24260   2.916   1.350   0.950
 2373SOL    HW124261   2.916   1.400   1.032
 2373SOL    HW224262   2.995   1.380   0.904
 2374SOL     OW24263   5.142   3.290   7.481
 2374SOL    HW124264   5.148   3.373   7.433
 2374SOL    HW224265   5.141   3.223   7.413
 2375SOL     OW24266   4.229   0.596   1.529
 2375SOL    HW124267   4.257   0.510   1.561
 2375SOL    HW224268   4.184   0.577   1.447
 2376SOL     OW24269   1.418   3.415   0.671
 2376SOL    HW124270   1.468   3.409   0.752
 2376SOL    HW224271   1.480   3.389   0.602
 2377SOL     OW24272   4.285   5.265   0.917
 2377SOL    HW124273   4.220   5.332   0.939
 2377SOL    HW224274   4.234   5.186   0.901
 2378SOL     OW24275   1.945   0.852   0.470
 2378SOL    HW124276   1.958   0.759   0.453
 2378SOL    HW224277   2.029   0.893   0.450
 2379SOL     OW24278   4.441   4.339   7.567
 2379SOL    HW124279   4.406   4.356   7.480
 2379SOL    HW224280   4.369   4.361   7.627
 2380SOL     OW24281   1.525   0.128   0.067
 2380SOL    HW124282   1.478   0.080  -0.002
 2380SOL    HW224283   1.459   0.185   0.106
 2381SOL     OW24284   4.818   5.086   6.181
 2381SOL    HW124285   4.840   5.148   6.250
 2381SOL    HW224286   4.887   5.098   6.115
 2382SOL     OW24287   2.345   3.503   1.220
 2382SOL    HW124288   2.337   3.511   1.125
 2382SOL    HW224289   2.435   3.475   1.234
 2383SOL     OW24290   2.242   4.983   0.205
 2383SOL    HW124291   2.316   4.929   0.233
 2383SOL    HW224292   2.178   4.974   0.275
 2384SOL     OW24293   4.472   2.561   0.016
 2384SOL    HW124294   4.558   2.519   0.017
 2384SOL    HW224295   4.437   2.546   0.104
 2385SOL     OW24296   2.364   6.263   6.622
 2385SOL    HW124297   2.364   6.290   6.531
 2385SOL    HW224298   2.324   6.336   6.669
 2386SOL     OW24299   6.062   5.524   0.896
 2386SOL    HW124300   6.115   5.490   0.968
 2386SOL    HW224301   6.005   5.589   0.936
 2387SOL     OW24302   2.504   5.704   6.889
 2387SOL    HW124303   2.553   5.685   6.809
 2387SOL    HW224304   2.414   5.679   6.868
 2388SOL     OW24305   0.164   4.600   6.116
 2388SOL    HW124306   0.200   4.674   6.065
 2388SOL    HW224307   0.112   4.642   6.185
 2389SOL     OW24308   5.976   5.372   1.822
 2389SOL    HW124309   6.058   5.398   1.779
 2389SOL    HW224310   5.920   5.342   1.750
 2390SOL     OW24311   0.250   3.045   1.034
 2390SOL    HW124312   0.169   3.082   0.999
 2390SOL    HW224313   0.224   2.960   1.070
 2391SOL     OW24314   6.321   1.496   5.389
 2391SOL    HW124315   6.347   1.432   5.455
 2391SOL    HW224316   6.375   1.475   5.313
 2392SOL     OW24317   5.697   5.141   0.597
 2392SOL    HW124318   5.778   5.145   0.546
 2392SOL    HW224319   5.724   5.106   0.682
 2393SOL     OW24320   5.289   2.929   1.714
 2393SOL    HW124321   5.344   2.930   1.635
 2393SOL    HW224322   5.249   2.842   1.714
 2394SOL     OW24323   2.503   2.665   6.446
 2394SOL    HW124324   2.597   2.647   6.440
 2394SOL    HW224325   2.485   2.723   6.372
 2395SOL     OW24326   1.095   4.994   0.895
 2395SOL    HW124327   1.115   5.004   0.988
 2395SOL    HW224328   1.000   4.988   0.891
 2396SOL     OW24329   0.939   4.969   7.337
 2396SOL    HW124330   0.949   5.028   7.262
 2396SOL    HW224331   0.977   4.886   7.308
 2397SOL     OW24332   4.267   2.292   1.115
 2397SOL    HW124333   4.279   2.301   1.210
 2397SOL    HW224334   4.275   2.198   1.099
 2398SOL     OW24335   3.842   1.499   1.219
 2398SOL    HW124336   3.756   1.540   1.219
 2398SOL    HW224337   3.862   1.485   1.311
 2399SOL     OW24338   2.045   4.520   1.642
 2399SOL    HW124339   2.080   4.485   1.724
 2399SOL    HW224340   1.961   4.559   1.666
 2400SOL     OW24341   1.697   2.449   7.229
 2400SOL    HW124342   1.682   2.415   7.141
 2400SOL    HW224343   1.779   2.407   7.257
 2401SOL     OW24344   1.730   0.484   1.056
 2401SOL    HW124345   1.729   0.397   1.095
 2401SOL    HW224346   1.743   0.468   0.963
 2402SOL     OW24347   1.754   2.082   6.179
 2402SOL    HW124348   1.800   2.064   6.097
 2402SOL    HW224349   1.665   2.107   6.152
 2403SOL     OW24350   3.625   6.320   7.512
 2403SOL    HW124351   3.690   6.388   7.525
 2403SOL    HW224352   3.541   6.362   7.533
 2404SOL     OW24353   4.047   1.547   0.875
 2404SOL    HW124354   4.051   1.503   0.959
 2404SOL    HW224355   4.051   1.476   0.810
 2405SOL     OW24356   1.939   2.512   7.829
 2405SOL    HW124357   1.877   2.469   7.888
 2405SOL    HW224358   1.957   2.596   7.871
 2406SOL     OW24359   5.783   6.123   6.716
 2406SOL    HW124360   5.722   6.196   6.717
 2406SOL    HW224361   5.741   6.056   6.770
 2407SOL     OW24362   1.857   3.725   0.789
 2407SOL    HW124363   1.861   3.755   0.880
 2407SOL    HW224364   1.906   3.790   0.740
 2408SOL     OW24365   5.830   5.917   7.031
 2408SOL    HW124366   5.866   5.848   7.086
 2408SOL    HW224367   5.884   5.916   6.952
 2409SOL     OW24368   0.478   1.718   6.734
 2409SOL    HW124369   0.398   1.729   6.682
 2409SOL    HW224370   0.548   1.708   6.669
 2410SOL     OW24371   0.263   3.196   6.288
 2410SOL    HW124372   0.347   3.171   6.250
 2410SOL    HW224373   0.210   3.222   6.212
 2411SOL     OW24374   0.023   2.308   1.786
 2411SOL    HW124375   0.111   2.294   1.751
 2411SOL    HW224376   0.037   2.361   1.865
 2412SOL     OW24377   5.937   5.630   5.917
 2412SOL    HW124378   6.029   5.658   5.912
 2412SOL    HW224379   5.887   5.711   5.918
 2413SOL     OW24380   3.242   6.059   0.718
 2413SOL    HW124381   3.208   6.056   0.629
 2413SOL    HW224382   3.241   6.152   0.741
 2414SOL     OW24383   3.329   1.729   5.392
 2414SOL    HW124384   3.239   1.749   5.367
 2414SOL    HW224385   3.379   1.807   5.367
 2415SOL     OW24386   3.759   3.716   6.753
 2415SOL    HW124387   3.809   3.778   6.807
 2415SOL    HW224388   3.768   3.750   6.664
 2416SOL     OW24389   5.618   4.643   0.200
 2416SOL    HW124390   5.535   4.664   0.156
 2416SOL    HW224391   5.592   4.601   0.282
 2417SOL     OW24392   5.289   0.782   6.571
 2417SOL    HW124393   5.368   0.754   6.525
 2417SOL    HW224394   5.264   0.864   6.529
 2418SOL     OW24395   1.389   3.432   7.318
 2418SOL    HW124396   1.367   3.426   7.411
 2418SOL    HW224397   1.304   3.432   7.273
 2419SOL     OW24398   5.075   3.152   1.218
 2419SOL    HW124399   5.142   3.207   1.178
 2419SOL    HW224400   5.011   3.138   1.149
 2420SOL     OW24401   2.903   1.603   0.452
 2420SOL    HW124402   2.901   1.635   0.362
 2420SOL    HW224403   2.863   1.516   0.447
 2421SOL     OW24404   1.241   2.388   1.644
 2421SOL    HW124405   1.256   2.377   1.550
 2421SOL    HW224406   1.244   2.299   1.680
 2422SOL     OW24407   2.991   4.301   0.334
 2422SOL    HW124408   3.043   4.231   0.374
 2422SOL    HW224409   2.907   4.259   0.313
 2423SOL     OW24410   2.322   5.912   1.287
 2423SOL    HW124411   2.267   5.838   1.314
 2423SOL    HW224412   2.326   5.967   1.365
 2424SOL     OW24413   0.228   2.139   6.768
 2424SOL    HW124414   0.181   2.212   6.727
 2424SOL    HW224415   0.289   2.109   6.701
 2425SOL     OW24416   0.562   3.661   6.091
 2425SOL    HW124417   0.644   3.663   6.041
 2425SOL    HW224418   0.506   3.726   6.048
 2426SOL     OW24419   0.850   3.567   1.271
 2426SOL    HW124420   0.773   3.550   1.217
 2426SOL    HW224421   0.883   3.480   1.292
 2427SOL     OW24422   3.520   4.317   5.466
 2427SOL    HW124423   3.601   4.293   5.421
 2427SOL    HW224424   3.484   4.389   5.414
 2428SOL     OW24425   3.786   1.974   2.198
 2428SOL    HW124426   3.835   1.940   2.273
 2428SOL    HW224427   3.846   2.036   2.157
 2429SOL     OW24428   4.323   0.086   7.377
 2429SOL    HW124429   4.338   0.064   7.285
 2429SOL    HW224430   4.248   0.146   7.375
 2430SOL     OW24431   5.796   3.480   6.688
 2430SOL    HW124432   5.836   3.485   6.601
 2430SOL    HW224433   5.808   3.389   6.715
 2431SOL     OW24434   6.368   3.983   6.448
 2431SOL    HW124435   6.296   4.040   6.424
 2431SOL    HW224436   6.332   3.894   6.444
 2432SOL     OW24437   6.394   4.358   0.446
 2432SOL    HW124438   6.412   4.451   0.460
 2432SOL    HW224439   6.445   4.313   0.514
 2433SOL     OW24440   5.369   1.228   0.565
 2433SOL    HW124441   5.320   1.155   0.528
 2433SOL    HW224442   5.302   1.289   0.596
 2434SOL     OW24443   1.381   1.601   7.704
 2434SOL    HW124444   1.452   1.536   7.699
 2434SOL    HW224445   1.365   1.625   7.613
 2435SOL     OW24446   6.108   4.751   0.385
 2435SOL    HW124447   6.076   4.745   0.295
 2435SOL    HW224448   6.085   4.666   0.424
 2436SOL     OW24449   1.929   2.890   6.247
 2436SOL    HW124450   1.990   2.964   6.248
 2436SOL    HW224451   1.902   2.881   6.156
 2437SOL     OW24452   2.722   4.545   1.683
 2437SOL    HW124453   2.748   4.469   1.630
 2437SOL    HW224454   2.662   4.509   1.748
 2438SOL     OW24455   5.113   1.482   7.728
 2438SOL    HW124456   5.151   1.423   7.664
 2438SOL    HW224457   5.173   1.480   7.802
 2439SOL     OW24458   6.419   2.883   0.830
 2439SOL    HW124459   6.341   2.875   0.886
 2439SOL    HW224460   6.472   2.949   0.874
 2440SOL     OW24461   0.697   1.747   5.850
 2440SOL    HW124462   0.729   1.726   5.762
 2440SOL    HW224463   0.690   1.843   5.850
 2441SOL     OW24464   0.993   5.777   6.608
 2441SOL    HW124465   0.971   5.823   6.526
 2441SOL    HW224466   1.014   5.688   6.580
 2442SOL     OW24467   0.653   6.125   6.437
 2442SOL    HW124468   0.636   6.129   6.532
 2442SOL    HW224469   0.716   6.195   6.421
 2443SOL     OW24470   1.386   5.290   0.477
 2443SOL    HW124471   1.345   5.245   0.551
 2443SOL    HW224472   1.324   5.278   0.404
 2444SOL     OW24473   0.376   2.006   1.289
 2444SOL    HW124474   0.422   2.047   1.362
 2444SOL    HW224475   0.446   1.978   1.230
 2445SOL     OW24476   3.631   1.004   2.190
 2445SOL    HW124477   3.538   1.027   2.190
 2445SOL    HW224478   3.654   1.000   2.283
 2446SOL     OW24479   4.275   5.467   1.771
 2446SOL    HW124480   4.226   5.470   1.853
 2446SOL    HW224481   4.244   5.388   1.727
 2447SOL     OW24482   0.733   1.791   7.404
 2447SOL    HW124483   0.720   1.764   7.313
 2447SOL    HW224484   0.659   1.753   7.451
 2448SOL     OW24485   1.772   6.202   6.049
 2448SOL    HW124486   1.856   6.217   6.004
 2448SOL    HW224487   1.717   6.161   5.982
 2449SOL     OW24488   4.313   2.439   7.080
 2449SOL    HW124489   4.353   2.487   7.153
 2449SOL    HW224490   4.386   2.395   7.037
 2450SOL     OW24491   2.400   2.744   6.202
 2450SOL    HW124492   2.335   2.803   6.164
 2450SOL    HW224493   2.369   2.656   6.182
 2451SOL     OW24494   2.362   0.420   6.082
 2451SOL    HW124495   2.373   0.487   6.014
 2451SOL    HW224496   2.377   0.337   6.037
 2452SOL     OW24497   5.608   3.720   2.277
 2452SOL    HW124498   5.679   3.668   2.239
 2452SOL    HW224499   5.628   3.810   2.254
 2453SOL     OW24500   5.868   3.724   6.175
 2453SOL    HW124501   5.946   3.745   6.123
 2453SOL    HW224502   5.803   3.787   6.145
 2454SOL     OW24503   0.929   0.375   6.141
 2454SOL    HW124504   0.961   0.316   6.074
 2454SOL    HW224505   1.008   0.412   6.181
 2455SOL     OW24506   5.354   2.261   1.545
 2455SOL    HW124507   5.389   2.349   1.552
 2455SOL    HW224508   5.268   2.266   1.587
 2456SOL     OW24509   5.271   0.064   6.314
 2456SOL    HW124510   5.314   0.101   6.391
 2456SOL    HW224511   5.341   0.056   6.249
 2457SOL     OW24512   0.613   2.719   7.306
 2457SOL    HW124513   0.606   2.789   7.241
 2457SOL    HW224514   0.707   2.702   7.313
 2458SOL     OW24515   1.513   2.499   7.424
 2458SOL    HW124516   1.572   2.452   7.365
 2458SOL    HW224517   1.453   2.432   7.456
 2459SOL     OW24518   1.272   1.069   0.501
 2459SOL    HW124519   1.303   1.152   0.538
 2459SOL    HW224520   1.178   1.069   0.519
 2460SOL     OW24521   3.538   1.827   1.334
 2460SOL    HW124522   3.600   1.880   1.285
 2460SOL    HW224523   3.562   1.737   1.314
 2461SOL     OW24524   0.779   1.408   1.727
 2461SOL    HW124525   0.874   1.418   1.712
 2461SOL    HW224526   0.743   1.494   1.707
 2462SOL     OW24527   6.222   0.133   7.191
 2462SOL    HW124528   6.137   0.171   7.171
 2462SOL    HW224529   6.208   0.084   7.271
 2463SOL     OW24530   6.150   2.406   1.326
 2463SOL    HW124531   6.142   2.500   1.316
 2463SOL    HW224532   6.230   2.393   1.377
 2464SOL     OW24533   2.224   1.429   1.300
 2464SOL    HW124534   2.260   1.364   1.361
 2464SOL    HW224535   2.189   1.498   1.357
 2465SOL     OW24536   1.001   1.173   6.071
 2465SOL    HW124537   1.088   1.190   6.035
 2465SOL    HW224538   1.017   1.151   6.163
 2466SOL     OW24539   2.209   4.402   1.849
 2466SOL    HW124540   2.242   4.314   1.832
 2466SOL    HW224541   2.257   4.432   1.926
 2467SOL     OW24542   4.940   0.919   0.500
 2467SOL    HW124543   4.881   0.846   0.517
 2467SOL    HW224544   4.884   0.987   0.462
 2468SOL     OW24545   4.221   3.008   2.374
 2468SOL    HW124546   4.148   2.981   2.318
 2468SOL    HW224547   4.261   3.082   2.328
 2469SOL     OW24548   4.052   5.995   1.663
 2469SOL    HW124549   4.022   6.003   1.754
 2469SOL    HW224550   4.059   5.900   1.649
 2470SOL     OW24551   0.011   3.372   1.280
 2470SOL    HW124552   0.027   3.329   1.196
 2470SOL    HW224553  -0.024   3.458   1.257
 2471SOL     OW24554   4.242   1.557   1.940
 2471SOL    HW124555   4.223   1.522   2.027
 2471SOL    HW224556   4.299   1.492   1.899
 2472SOL     OW24557   3.702   3.021   5.207
 2472SOL    HW124558   3.750   2.982   5.280
 2472SOL    HW224559   3.769   3.041   5.142
 2473SOL     OW24560   0.608   0.810   0.169
 2473SOL    HW124561   0.563   0.755   0.233
 2473SOL    HW224562   0.701   0.800   0.191
 2474SOL     OW24563   5.697   2.113   6.400
 2474SOL    HW124564   5.777   2.063   6.379
 2474SOL    HW224565   5.729   2.188   6.450
 2475SOL     OW24566   4.087   0.387   6.919
 2475SOL    HW124567   4.066   0.480   6.908
 2475SOL    HW224568   4.002   0.346   6.933
 2476SOL     OW24569   3.436   6.256   5.610
 2476SOL    HW124570   3.475   6.170   5.594
 2476SOL    HW224571   3.366   6.240   5.672
 2477SOL     OW24572   5.605   3.709   2.564
 2477SOL    HW124573   5.537   3.642   2.569
 2477SOL    HW224574   5.612   3.730   2.471
 2478SOL     OW24575   6.377   6.342   7.847
 2478SOL    HW124576   6.463   6.340   7.888
 2478SOL    HW224577   6.321   6.385   7.912
 2479SOL     OW24578   3.952   6.227   1.185
 2479SOL    HW124579   3.947   6.221   1.280
 2479SOL    HW224580   4.001   6.308   1.168
 2480SOL     OW24581   6.318   2.208   0.776
 2480SOL    HW124582   6.389   2.245   0.829
 2480SOL    HW224583   6.327   2.114   0.786
 2481SOL     OW24584   0.499   4.877   0.691
 2481SOL    HW124585   0.451   4.803   0.729
 2481SOL    HW224586   0.534   4.844   0.609
 2482SOL     OW24587   2.253   0.838   6.207
 2482SOL    HW124588   2.223   0.847   6.116
 2482SOL    HW224589   2.182   0.876   6.259
 2483SOL     OW24590   3.512   3.011   5.628
 2483SOL    HW124591   3.533   2.920   5.649
 2483SOL    HW224592   3.517   3.015   5.532
 2484SOL     OW24593   2.169   1.123   1.079
 2484SOL    HW124594   2.117   1.198   1.107
 2484SOL    HW224595   2.155   1.056   1.146
 2485SOL     OW24596   1.656   1.113   6.829
 2485SOL    HW124597   1.615   1.027   6.825
 2485SOL    HW224598   1.590   1.169   6.872
 2486SOL     OW24599   5.558   1.983   5.782
 2486SOL    HW124600   5.468   1.974   5.811
 2486SOL    HW224601   5.562   1.935   5.699
 2487SOL     OW24602   4.805   3.688   5.732
 2487SOL    HW124603   4.724   3.670   5.779
 2487SOL    HW224604   4.779   3.691   5.640
 2488SOL     OW24605   5.692   1.643   0.256
 2488SOL    HW124606   5.718   1.553   0.236
 2488SOL    HW224607   5.741   1.696   0.193
 2489SOL     OW24608   5.922   4.693   6.421
 2489SOL    HW124609   6.004   4.652   6.451
 2489SOL    HW224610   5.853   4.636   6.455
 2490SOL     OW24611   3.133   1.830   1.049
 2490SOL    HW124612   3.218   1.816   1.006
 2490SOL    HW224613   3.069   1.825   0.978
 2491SOL     OW24614   2.358   5.357   0.651
 2491SOL    HW124615   2.381   5.362   0.744
 2491SOL    HW224616   2.441   5.337   0.607
 2492SOL     OW24617   4.885   4.612   7.193
 2492SOL    HW124618   4.860   4.552   7.122
 2492SOL    HW224619   4.948   4.563   7.245
 2493SOL     OW24620   2.973   2.678   0.299
 2493SOL    HW124621   2.923   2.747   0.255
 2493SOL    HW224622   3.016   2.723   0.372
 2494SOL     OW24623   2.879   5.748   1.002
 2494SOL    HW124624   2.818   5.731   1.074
 2494SOL    HW224625   2.858   5.836   0.972
 2495SOL     OW24626   2.315   0.652   1.570
 2495SOL    HW124627   2.332   0.628   1.479
 2495SOL    HW224628   2.356   0.738   1.580
 2496SOL     OW24629   1.308   5.708   1.877
 2496SOL    HW124630   1.345   5.796   1.880
 2496SOL    HW224631   1.367   5.656   1.931
 2497SOL     OW24632   1.147   0.004   6.468
 2497SOL    HW124633   1.228  -0.045   6.452
 2497SOL    HW224634   1.134  -0.002   6.562
 2498SOL     OW24635   1.094   1.473   0.773
 2498SOL    HW124636   1.034   1.464   0.699
 2498SOL    HW224637   1.103   1.568   0.785
 2499SOL     OW24638   0.247   5.144   1.858
 2499SOL    HW124639   0.281   5.133   1.947
 2499SOL    HW224640   0.164   5.097   1.858
 2500SOL     OW24641   5.619   5.655   6.947
 2500SOL    HW124642   5.524   5.658   6.941
 2500SOL    HW224643   5.649   5.728   6.894
 2501SOL     OW24644   0.441   5.580   1.327
 2501SOL    HW124645   0.502   5.530   1.381
 2501SOL    HW224646   0.354   5.559   1.362
 2502SOL     OW24647   1.547   5.796   1.332
 2502SOL    HW124648   1.577   5.884   1.311
 2502SOL    HW224649   1.453   5.804   1.344
 2503SOL     OW24650   0.578   3.937   7.178
 2503SOL    HW124651   0.541   4.024   7.193
 2503SOL    HW224652   0.532   3.904   7.101
 2504SOL     OW24653   4.787   2.572   0.715
 2504SOL    HW124654   4.829   2.486   0.708
 2504SOL    HW224655   4.708   2.565   0.662
 2505SOL     OW24656   6.431   5.398   0.247
 2505SOL    HW124657   6.357   5.393   0.188
 2505SOL    HW224658   6.442   5.309   0.281
 2506SOL     OW24659   2.283   1.430   7.496
 2506SOL    HW124660   2.319   1.453   7.410
 2506SOL    HW224661   2.353   1.380   7.539
 2507SOL     OW24662   2.114   0.695   6.697
 2507SOL    HW124663   2.035   0.741   6.670
 2507SOL    HW224664   2.113   0.614   6.647
 2508SOL     OW24665   1.843   1.278   5.024
 2508SOL    HW124666   1.786   1.280   5.100
 2508SOL    HW224667   1.827   1.193   4.983
 2509SOL     OW24668   3.796   5.130   6.288
 2509SOL    HW124669   3.734   5.058   6.273
 2509SOL    HW224670   3.750   5.208   6.257
 2510SOL     OW24671   0.175   2.106   6.082
 2510SOL    HW124672   0.224   2.118   6.001
 2510SOL    HW224673   0.099   2.164   6.073
 2511SOL     OW24674   4.137   1.223   1.827
 2511SOL    HW124675   4.135   1.235   1.922
 2511SOL    HW224676   4.048   1.201   1.803
 2512SOL     OW24677   5.746   6.128   5.824
 2512SOL    HW124678   5.835   6.144   5.791
 2512SOL    HW224679   5.700   6.086   5.751
 2513SOL     OW24680   1.984   5.554   7.561
 2513SOL    HW124681   2.043   5.480   7.577
 2513SOL    HW224682   2.041   5.631   7.560
 2514SOL     OW24683   2.694   3.502   7.524
 2514SOL    HW124684   2.704   3.582   7.575
 2514SOL    HW224685   2.601   3.500   7.499
 2515SOL     OW24686   0.571   3.557   7.347
 2515SOL    HW124687   0.508   3.593   7.410
 2515SOL    HW224688   0.636   3.514   7.402
 2516SOL     OW24689   0.117   5.221   6.586
 2516SOL    HW124690   0.058   5.147   6.594
 2516SOL    HW224691   0.136   5.226   6.492
 2517SOL     OW24692   4.277   6.281   6.202
 2517SOL    HW124693   4.207   6.255   6.263
 2517SOL    HW224694   4.357   6.271   6.253
 2518SOL     OW24695   3.225   0.804   1.686
 2518SOL    HW124696   3.294   0.836   1.745
 2518SOL    HW224697   3.235   0.709   1.686
 2519SOL     OW24698   3.905   4.317   0.368
 2519SOL    HW124699   3.923   4.275   0.284
 2519SOL    HW224700   3.991   4.339   0.403
 2520SOL     OW24701   2.325   2.609   0.039
 2520SOL    HW124702   2.402   2.593  -0.016
 2520SOL    HW224703   2.356   2.597   0.128
 2521SOL     OW24704   6.222   4.065   6.110
 2521SOL    HW124705   6.182   4.088   6.194
 2521SOL    HW224706   6.226   4.148   6.062
 2522SOL     OW24707   0.607   4.202   6.823
 2522SOL    HW124708   0.631   4.235   6.910
 2522SOL    HW224709   0.673   4.136   6.803
 2523SOL     OW24710   1.985   3.003   0.033
 2523SOL    HW124711   1.915   3.042  -0.019
 2523SOL    HW224712   1.951   2.998   0.122
 2524SOL     OW24713   2.251   2.255   6.289
 2524SOL    HW124714   2.156   2.254   6.277
 2524SOL    HW224715   2.268   2.182   6.348
 2525SOL     OW24716   5.989   5.465   6.411
 2525SOL    HW124717   6.021   5.405   6.343
 2525SOL    HW224718   5.980   5.549   6.367
 2526SOL     OW24719   3.891   4.711   1.730
 2526SOL    HW124720   3.933   4.794   1.749
 2526SOL    HW224721   3.812   4.711   1.785
 2527SOL     OW24722   1.468   1.369   7.419
 2527SOL    HW124723   1.561   1.362   7.443
 2527SOL    HW224724   1.424   1.304   7.474
 2528SOL     OW24725   4.563   1.673   7.614
 2528SOL    HW124726   4.602   1.591   7.585
 2528SOL    HW224727   4.617   1.741   7.574
 2529SOL     OW24728   1.630   5.460   0.425
 2529SOL    HW124729   1.597   5.503   0.346
 2529SOL    HW224730   1.560   5.400   0.450
 2530SOL     OW24731   0.901   2.757   1.070
 2530SOL    HW124732   0.935   2.822   1.008
 2530SOL    HW224733   0.952   2.678   1.053
 2531SOL     OW24734   3.823   5.961   6.647
 2531SOL    HW124735   3.790   6.044   6.612
 2531SOL    HW224736   3.785   5.894   6.590
 2532SOL     OW24737   3.374   1.158   5.215
 2532SOL    HW124738   3.449   1.112   5.253
 2532SOL    HW224739   3.340   1.212   5.286
 2533SOL     OW24740   3.196   4.558   5.699
 2533SOL    HW124741   3.183   4.464   5.713
 2533SOL    HW224742   3.111   4.597   5.720
 2534SOL     OW24743   5.806   5.023   0.863
 2534SOL    HW124744   5.827   5.112   0.892
 2534SOL    HW224745   5.711   5.017   0.870
 2535SOL     OW24746   4.188   0.009   0.105
 2535SOL    HW124747   4.206   0.092   0.060
 2535SOL    HW224748   4.161   0.035   0.193
 2536SOL     OW24749   3.958   0.426   0.965
 2536SOL    HW124750   4.015   0.406   0.890
 2536SOL    HW224751   4.011   0.482   1.021
 2537SOL     OW24752   0.693   1.936   0.388
 2537SOL    HW124753   0.711   1.861   0.332
 2537SOL    HW224754   0.759   1.932   0.457
 2538SOL     OW24755   1.535   3.516   6.992
 2538SOL    HW124756   1.563   3.581   7.057
 2538SOL    HW224757   1.565   3.552   6.908
 2539SOL     OW24758   5.830   4.296   7.277
 2539SOL    HW124759   5.800   4.209   7.303
 2539SOL    HW224760   5.808   4.352   7.352
 2540SOL     OW24761   4.159   3.840   6.757
 2540SOL    HW124762   4.191   3.751   6.742
 2540SOL    HW224763   4.144   3.875   6.669
 2541SOL     OW24764   3.361   3.491   5.826
 2541SOL    HW124765   3.287   3.438   5.856
 2541SOL    HW224766   3.432   3.472   5.888
 2542SOL     OW24767   1.018   4.596   6.853
 2542SOL    HW124768   0.998   4.523   6.911
 2542SOL    HW224769   1.075   4.652   6.904
 2543SOL     OW24770   2.309   0.937   2.018
 2543SOL    HW124771   2.364   1.009   2.048
 2543SOL    HW224772   2.302   0.949   1.923
 2544SOL     OW24773   4.799   3.057   6.996
 2544SOL    HW124774   4.715   3.016   6.976
 2544SOL    HW224775   4.788   3.148   6.971
 2545SOL     OW24776   1.681   2.030   5.297
 2545SOL    HW124777   1.774   2.052   5.292
 2545SOL    HW224778   1.671   1.952   5.242
 2546SOL     OW24779   1.315   1.411   6.639
 2546SOL    HW124780   1.245   1.358   6.676
 2546SOL    HW224781   1.377   1.424   6.711
 2547SOL     OW24782   0.056   5.958   0.586
 2547SOL    HW124783   0.122   5.945   0.655
 2547SOL    HW224784   0.093   6.025   0.529
 2548SOL     OW24785   2.727   5.378   1.351
 2548SOL    HW124786   2.812   5.404   1.385
 2548SOL    HW224787   2.720   5.285   1.371
 2549SOL     OW24788   2.716   5.944   1.183
 2549SOL    HW124789   2.789   5.998   1.212
 2549SOL    HW224790   2.662   6.004   1.130
 2550SOL     OW24791   1.785   4.515   1.329
 2550SOL    HW124792   1.789   4.524   1.424
 2550SOL    HW224793   1.876   4.511   1.301
 2551SOL     OW24794   3.653   5.780   6.187
 2551SOL    HW124795   3.632   5.863   6.143
 2551SOL    HW224796   3.736   5.797   6.231
 2552SOL     OW24797   5.423   2.829   7.801
 2552SOL    HW124798   5.447   2.743   7.835
 2552SOL    HW224799   5.347   2.812   7.745
 2553SOL     OW24800   3.200   4.988   0.409
 2553SOL    HW124801   3.239   4.901   0.411
 2553SOL    HW224802   3.269   5.046   0.441
 2554SOL     OW24803   1.116   5.462   0.045
 2554SOL    HW124804   1.084   5.372   0.033
 2554SOL    HW224805   1.211   5.453   0.050
 2555SOL     OW24806   1.146   2.391   5.773
 2555SOL    HW124807   1.051   2.405   5.781
 2555SOL    HW224808   1.164   2.316   5.831
 2556SOL     OW24809   2.455   0.171   7.184
 2556SOL    HW124810   2.522   0.182   7.117
 2556SOL    HW224811   2.486   0.223   7.258
 2557SOL     OW24812   1.345   5.668   6.493
 2557SOL    HW124813   1.358   5.643   6.401
 2557SOL    HW224814   1.261   5.629   6.517
 2558SOL     OW24815   3.200   6.096   7.631
 2558SOL    HW124816   3.137   6.025   7.625
 2558SOL    HW224817   3.262   6.081   7.559
 2559SOL     OW24818   4.594   4.917   6.233
 2559SOL    HW124819   4.615   4.825   6.220
 2559SOL    HW224820   4.669   4.965   6.196
 2560SOL     OW24821   5.032   1.319   1.579
 2560SOL    HW124822   5.019   1.292   1.670
 2560SOL    HW224823   4.952   1.291   1.535
 2561SOL     OW24824   2.838   2.279   0.637
 2561SOL    HW124825   2.788   2.277   0.556
 2561SOL    HW224826   2.836   2.188   0.668
 2562SOL     OW24827   5.037   6.299   7.182
 2562SOL    HW124828   5.019   6.389   7.207
 2562SOL    HW224829   4.957   6.268   7.141
 2563SOL     OW24830   1.646   0.364   7.015
 2563SOL    HW124831   1.566   0.416   7.004
 2563SOL    HW224832   1.617   0.273   7.011
 2564SOL     OW24833   0.374   2.325   6.928
 2564SOL    HW124834   0.312   2.334   7.000
 2564SOL    HW224835   0.377   2.231   6.911
 2565SOL     OW24836   5.276   0.295   6.996
 2565SOL    HW124837   5.181   0.288   7.000
 2565SOL    HW224838   5.308   0.206   7.006
 2566SOL     OW24839   1.119   4.314   7.442
 2566SOL    HW124840   1.162   4.378   7.384
 2566SOL    HW224841   1.175   4.237   7.437
 2567SOL     OW24842   1.147   5.893   5.813
 2567SOL    HW124843   1.109   5.979   5.828
 2567SOL    HW224844   1.232   5.910   5.772
 2568SOL     OW24845   1.445   5.319   5.581
 2568SOL    HW124846   1.381   5.249   5.591
 2568SOL    HW224847   1.521   5.291   5.631
 2569SOL     OW24848   5.926   5.049   5.657
 2569SOL    HW124849   5.932   5.145   5.652
 2569SOL    HW224850   5.896   5.023   5.570
 2570SOL     OW24851   3.886   2.657   5.644
 2570SOL    HW124852   3.947   2.590   5.672
 2570SOL    HW224853   3.802   2.612   5.635
 2571SOL     OW24854   4.538   3.089   1.453
 2571SOL    HW124855   4.584   3.005   1.442
 2571SOL    HW224856   4.474   3.073   1.522
 2572SOL     OW24857   3.155   3.737   6.512
 2572SOL    HW124858   3.150   3.807   6.578
 2572SOL    HW224859   3.081   3.680   6.532
 2573SOL     OW24860   0.225   1.224   5.597
 2573SOL    HW124861   0.316   1.193   5.592
 2573SOL    HW224862   0.222   1.300   5.538
 2574SOL     OW24863   2.654   0.615   0.195
 2574SOL    HW124864   2.673   0.532   0.238
 2574SOL    HW224865   2.584   0.595   0.133
 2575SOL     OW24866   0.230   2.053   7.211
 2575SOL    HW124867   0.243   2.120   7.278
 2575SOL    HW224868   0.310   2.001   7.213
 2576SOL     OW24869   5.550   3.197   0.374
 2576SOL    HW124870   5.526   3.119   0.424
 2576SOL    HW224871   5.554   3.167   0.283
 2577SOL     OW24872   6.330   5.882   6.550
 2577SOL    HW124873   6.421   5.854   6.544
 2577SOL    HW224874   6.319   5.908   6.642
 2578SOL     OW24875   4.912   2.531   1.387
 2578SOL    HW124876   4.938   2.440   1.403
 2578SOL    HW224877   4.845   2.549   1.454
 2579SOL     OW24878   2.780   0.661   0.528
 2579SOL    HW124879   2.784   0.644   0.622
 2579SOL    HW224880   2.825   0.745   0.517
 2580SOL     OW24881   1.180   5.599   7.559
 2580SOL    HW124882   1.275   5.592   7.550
 2580SOL    HW224883   1.155   5.519   7.605
 2581SOL     OW24884   2.029   5.755   0.091
 2581SOL    HW124885   2.083   5.815   0.142
 2581SOL    HW224886   2.092   5.699   0.045
 2582SOL     OW24887   5.131   0.193   0.323
 2582SOL    HW124888   5.055   0.221   0.271
 2582SOL    HW224889   5.130   0.253   0.398
 2583SOL     OW24890   5.779   1.272   0.589
 2583SOL    HW124891   5.835   1.329   0.642
 2583SOL    HW224892   5.836   1.241   0.519
 2584SOL     OW24893   0.311   2.974   6.850
 2584SOL    HW124894   0.256   2.929   6.915
 2584SOL    HW224895   0.387   3.005   6.900
 2585SOL     OW24896   5.141   2.319   7.339
 2585SOL    HW124897   5.128   2.229   7.309
 2585SOL    HW224898   5.118   2.373   7.264
 2586SOL     OW24899   1.252   0.838   0.837
 2586SOL    HW124900   1.246   0.840   0.742
 2586SOL    HW224901   1.263   0.929   0.863
 2587SOL     OW24902   3.016   4.229   1.204
 2587SOL    HW124903   3.086   4.222   1.268
 2587SOL    HW224904   3.049   4.183   1.127
 2588SOL     OW24905   3.882   5.244   0.877
 2588SOL    HW124906   3.911   5.246   0.786
 2588SOL    HW224907   3.904   5.156   0.908
 2589SOL     OW24908   5.092   0.355   1.062
 2589SOL    HW124909   5.010   0.346   1.110
 2589SOL    HW224910   5.150   0.402   1.122
 2590SOL     OW24911   5.749   2.976   6.211
 2590SOL    HW124912   5.823   2.935   6.257
 2590SOL    HW224913   5.777   3.066   6.197
 2591SOL     OW24914   0.706   2.987   6.191
 2591SOL    HW124915   0.622   3.023   6.165
 2591SOL    HW224916   0.686   2.897   6.218
 2592SOL     OW24917   5.270   4.355   0.406
 2592SOL    HW124918   5.311   4.271   0.382
 2592SOL    HW224919   5.230   4.339   0.491
 2593SOL     OW24920   4.177   3.516   1.095
 2593SOL    HW124921   4.232   3.531   1.018
 2593SOL    HW224922   4.154   3.423   1.090
 2594SOL     OW24923   0.439   0.338   0.637
 2594SOL    HW124924   0.364   0.393   0.613
 2594SOL    HW224925   0.484   0.388   0.705
 2595SOL     OW24926   0.612   0.920   1.168
 2595SOL    HW124927   0.681   0.910   1.103
 2595SOL    HW224928   0.647   0.984   1.230
 2596SOL     OW24929   0.401   5.978   5.790
 2596SOL    HW124930   0.367   5.889   5.787
 2596SOL    HW224931   0.425   5.997   5.699
 2597SOL     OW24932   4.271   2.568   5.494
 2597SOL    HW124933   4.230   2.503   5.551
 2597SOL    HW224934   4.351   2.593   5.542
 2598SOL     OW24935   5.782   3.081   0.157
 2598SOL    HW124936   5.857   3.084   0.099
 2598SOL    HW224937   5.793   3.157   0.215
 2599SOL     OW24938   5.914   3.944   2.467
 2599SOL    HW124939   5.978   4.013   2.481
 2599SOL    HW224940   5.940   3.902   2.385
 2600SOL     OW24941   6.404   5.949   5.663
 2600SOL    HW124942   6.408   5.867   5.711
 2600SOL    HW224943   6.318   5.949   5.621
 2601SOL     OW24944   3.918   5.632   6.691
 2601SOL    HW124945   3.946   5.594   6.608
 2601SOL    HW224946   3.953   5.721   6.691
 2602SOL     OW24947   0.032   3.893   7.008
 2602SOL    HW124948   0.084   3.823   7.048
 2602SOL    HW224949   0.014   3.861   6.920
 2603SOL     OW24950   3.808   1.022   0.195
 2603SOL    HW124951   3.730   1.069   0.167
 2603SOL    HW224952   3.775   0.935   0.220
 2604SOL     OW24953   4.605   3.372   7.394
 2604SOL    HW124954   4.526   3.373   7.340
 2604SOL    HW224955   4.581   3.323   7.472
 2605SOL     OW24956   5.288   3.967   7.018
 2605SOL    HW124957   5.341   3.887   7.008
 2605SOL    HW224958   5.197   3.936   7.013
 2606SOL     OW24959   1.753   6.130   7.421
 2606SOL    HW124960   1.818   6.120   7.352
 2606SOL    HW224961   1.676   6.167   7.377
 2607SOL     OW24962   5.242   1.922   1.429
 2607SOL    HW124963   5.327   1.964   1.419
 2607SOL    HW224964   5.203   1.966   1.505
 2608SOL     OW24965   2.513   1.892   6.793
 2608SOL    HW124966   2.475   1.959   6.849
 2608SOL    HW224967   2.574   1.844   6.850
 2609SOL     OW24968   5.800   2.371   7.721
 2609SOL    HW124969   5.713   2.364   7.681
 2609SOL    HW224970   5.824   2.281   7.743
 2610SOL     OW24971   3.103   3.434   0.171
 2610SOL    HW124972   3.158   3.359   0.149
 2610SOL    HW224973   3.139   3.506   0.120
 2611SOL     OW24974   5.418   1.652   7.511
 2611SOL    HW124975   5.377   1.738   7.521
 2611SOL    HW224976   5.425   1.619   7.600
 2612SOL     OW24977   1.190   1.889   6.515
 2612SOL    HW124978   1.115   1.839   6.482
 2612SOL    HW224979   1.247   1.824   6.555
 2613SOL     OW24980   0.869   5.869   0.303
 2613SOL    HW124981   0.948   5.900   0.347
 2613SOL    HW224982   0.892   5.783   0.269
 2614SOL     OW24983   5.512   6.237   1.800
 2614SOL    HW124984   5.548   6.321   1.771
 2614SOL    HW224985   5.475   6.198   1.721
 2615SOL     OW24986   1.137   2.379   6.430
 2615SOL    HW124987   1.181   2.295   6.445
 2615SOL    HW224988   1.185   2.419   6.357
 2616SOL     OW24989   4.885   1.016   1.006
 2616SOL    HW124990   4.832   1.031   0.928
 2616SOL    HW224991   4.906   0.923   1.004
 2617SOL     OW24992   2.064   4.721   6.499
 2617SOL    HW124993   2.092   4.812   6.489
 2617SOL    HW224994   2.111   4.690   6.576
 2618SOL     OW24995   2.122   0.392   7.522
 2618SOL    HW124996   2.169   0.319   7.482
 2618SOL    HW224997   2.051   0.351   7.571
 2619SOL     OW24998   0.126   0.005   1.896
 2619SOL    HW124999   0.067   0.080   1.907
 2619SOL    HW225000   0.213   0.040   1.915
 2620SOL     OW25001   4.819   5.885   5.462
 2620SOL    HW125002   4.738   5.907   5.509
 2620SOL    HW225003   4.819   5.944   5.387
 2621SOL     OW25004   0.920   0.976   7.741
 2621SOL    HW125005   0.887   1.053   7.786
 2621SOL    HW225006   0.914   0.905   7.806
 2622SOL     OW25007   0.199   2.557   1.205
 2622SOL    HW125008   0.132   2.499   1.170
 2622SOL    HW225009   0.173   2.573   1.296
 2623SOL     OW25010   5.169   1.057   0.421
 2623SOL    HW125011   5.101   1.014   0.473
 2623SOL    HW225012   5.228   0.986   0.395
 2624SOL     OW25013   2.089   3.238   0.283
 2624SOL    HW125014   2.152   3.271   0.347
 2624SOL    HW225015   2.143   3.191   0.219
 2625SOL     OW25016   4.862   4.834   6.707
 2625SOL    HW125017   4.838   4.848   6.616
 2625SOL    HW225018   4.799   4.888   6.756
 2626SOL     OW25019   5.651   6.157   2.154
 2626SOL    HW125020   5.589   6.090   2.123
 2626SOL    HW225021   5.595   6.229   2.184
 2627SOL     OW25022   2.641   2.133   1.794
 2627SOL    HW125023   2.551   2.100   1.788
 2627SOL    HW225024   2.686   2.068   1.849
 2628SOL     OW25025   3.906   5.139   0.056
 2628SOL    HW125026   3.893   5.230   0.085
 2628SOL    HW225027   3.940   5.147  -0.033
 2629SOL     OW25028   0.730   1.574   0.243
 2629SOL    HW125029   0.722   1.517   0.166
 2629SOL    HW225030   0.654   1.551   0.298
 2630SOL     OW25031   4.522   1.686   5.657
 2630SOL    HW125032   4.553   1.647   5.575
 2630SOL    HW225033   4.597   1.736   5.689
 2631SOL     OW25034   2.759   1.508   7.498
 2631SOL    HW125035   2.797   1.596   7.505
 2631SOL    HW225036   2.761   1.474   7.587
 2632SOL     OW25037   5.484   3.619   6.618
 2632SOL    HW125038   5.574   3.644   6.635
 2632SOL    HW225039   5.478   3.527   6.642
 2633SOL     OW25040   3.429   4.362   1.849
 2633SOL    HW125041   3.409   4.337   1.940
 2633SOL    HW225042   3.444   4.456   1.853
 2634SOL     OW25043   1.854   3.419   0.942
 2634SOL    HW125044   1.844   3.472   1.021
 2634SOL    HW225045   1.783   3.355   0.947
 2635SOL     OW25046   4.689   2.920   0.386
 2635SOL    HW125047   4.659   2.968   0.463
 2635SOL    HW225048   4.777   2.889   0.409
 2636SOL     OW25049   1.539   4.303   1.560
 2636SOL    HW125050   1.521   4.339   1.647
 2636SOL    HW225051   1.631   4.278   1.563
 2637SOL     OW25052   1.475   4.105   1.073
 2637SOL    HW125053   1.512   4.152   1.147
 2637SOL    HW225054   1.499   4.158   0.997
 2638SOL     OW25055   4.175   4.680   0.060
 2638SOL    HW125056   4.214   4.722   0.136
 2638SOL    HW225057   4.084   4.710   0.060
 2639SOL     OW25058   3.864   5.750   7.253
 2639SOL    HW125059   3.811   5.765   7.174
 2639SOL    HW225060   3.843   5.661   7.280
 2640SOL     OW25061   2.455   1.089   6.508
 2640SOL    HW125062   2.460   1.086   6.604
 2640SOL    HW225063   2.362   1.099   6.489
 2641SOL     OW25064   1.192   2.170   6.220
 2641SOL    HW125065   1.097   2.180   6.227
 2641SOL    HW225066   1.205   2.080   6.190
 2642SOL     OW25067   6.329   4.670   1.307
 2642SOL    HW125068   6.238   4.641   1.298
 2642SOL    HW225069   6.354   4.698   1.219
 2643SOL     OW25070   0.122   1.387   1.368
 2643SOL    HW125071   0.058   1.458   1.366
 2643SOL    HW225072   0.154   1.381   1.278
 2644SOL     OW25073   3.087   0.764   1.319
 2644SOL    HW125074   3.113   0.708   1.245
 2644SOL    HW225075   3.138   0.844   1.308
 2645SOL     OW25076   3.499   5.857   0.721
 2645SOL    HW125077   3.419   5.910   0.722
 2645SOL    HW225078   3.473   5.776   0.678
 2646SOL     OW25079   5.027   2.110   6.979
 2646SOL    HW125080   5.010   2.158   6.898
 2646SOL    HW225081   5.107   2.062   6.961
 2647SOL     OW25082   5.391   4.829   7.576
 2647SOL    HW125083   5.316   4.821   7.517
 2647SOL    HW225084   5.359   4.880   7.650
 2648SOL     OW25085   3.051   1.263   6.912
 2648SOL    HW125086   3.114   1.250   6.841
 2648SOL    HW225087   3.054   1.356   6.930
 2649SOL     OW25088   2.690   3.485   0.133
 2649SOL    HW125089   2.612   3.505   0.185
 2649SOL    HW225090   2.763   3.511   0.189
 2650SOL     OW25091   5.093   0.113   6.713
 2650SOL    HW125092   5.147   0.189   6.694
 2650SOL    HW225093   5.050   0.134   6.796
 2651SOL     OW25094   4.585   5.121   1.578
 2651SOL    HW125095   4.625   5.170   1.507
 2651SOL    HW225096   4.557   5.039   1.538
 2652SOL     OW25097   1.976   5.777   1.058
 2652SOL    HW125098   2.005   5.851   1.004
 2652SOL    HW225099   1.978   5.702   1.000
 2653SOL     OW25100   1.500   2.097   0.093
 2653SOL    HW125101   1.590   2.088   0.059
 2653SOL    HW225102   1.461   2.011   0.081
 2654SOL     OW25103   5.736   1.581   6.956
 2654SOL    HW125104   5.771   1.521   7.022
 2654SOL    HW225105   5.642   1.563   6.956
 2655SOL     OW25106   2.453   4.687   7.170
 2655SOL    HW125107   2.494   4.603   7.147
 2655SOL    HW225108   2.359   4.672   7.155
 2656SOL     OW25109   5.804   4.888   7.805
 2656SOL    HW125110   5.779   4.922   7.719
 2656SOL    HW225111   5.749   4.936   7.867
 2657SOL     OW25112   0.443   0.138   7.714
 2657SOL    HW125113   0.507   0.067   7.717
 2657SOL    HW225114   0.439   0.170   7.804
 2658SOL     OW25115   5.689   1.410   0.920
 2658SOL    HW125116   5.641   1.480   0.875
 2658SOL    HW225117   5.722   1.354   0.850
 2659SOL     OW25118   1.148   2.159   5.922
 2659SOL    HW125119   1.053   2.163   5.930
 2659SOL    HW225120   1.179   2.136   6.009
 2660SOL     OW25121   2.640   5.507   7.027
 2660SOL    HW125122   2.570   5.561   6.990
 2660SOL    HW225123   2.716   5.525   6.972
 2661SOL     OW25124   1.890   3.942   7.580
 2661SOL    HW125125   1.838   3.979   7.652
 2661SOL    HW225126   1.892   3.848   7.598
 2662SOL     OW25127   0.183   2.206   1.501
 2662SOL    HW125128   0.244   2.192   1.429
 2662SOL    HW225129   0.240   2.230   1.575
 2663SOL     OW25130   6.186   2.920   0.514
 2663SOL    HW125131   6.106   2.875   0.485
 2663SOL    HW225132   6.244   2.849   0.542
 2664SOL     OW25133   2.343   0.676   6.409
 2664SOL    HW125134   2.259   0.631   6.417
 2664SOL    HW225135   2.336   0.726   6.328
 2665SOL     OW25136   2.711   2.477   1.339
 2665SOL    HW125137   2.616   2.491   1.335
 2665SOL    HW225138   2.738   2.466   1.248
 2666SOL     OW25139   1.000   3.433   0.051
 2666SOL    HW125140   0.954   3.393  -0.023
 2666SOL    HW225141   0.950   3.513   0.069
 2667SOL     OW25142   5.427   3.797   0.867
 2667SOL    HW125143   5.466   3.710   0.857
 2667SOL    HW225144   5.500   3.854   0.890
 2668SOL     OW25145   6.291   1.196   7.849
 2668SOL    HW125146   6.376   1.192   7.804
 2668SOL    HW225147   6.243   1.119   7.817
 2669SOL     OW25148   3.425   3.380   6.255
 2669SOL    HW125149   3.405   3.293   6.289
 2669SOL    HW225150   3.340   3.420   6.237
 2670SOL     OW25151   3.356   2.496   1.149
 2670SOL    HW125152   3.370   2.404   1.171
 2670SOL    HW225153   3.437   2.540   1.176
 2671SOL     OW25154   2.657   1.880   2.295
 2671SOL    HW125155   2.651   1.941   2.369
 2671SOL    HW225156   2.746   1.845   2.300
 2672SOL     OW25157   3.306   5.482   6.291
 2672SOL    HW125158   3.221   5.511   6.257
 2672SOL    HW225159   3.286   5.451   6.379
 2673SOL     OW25160   1.049   3.247   1.140
 2673SOL    HW125161   1.022   3.269   1.229
 2673SOL    HW225162   0.968   3.222   1.096
 2674SOL     OW25163   1.424   0.085   1.357
 2674SOL    HW125164   1.402   0.155   1.419
 2674SOL    HW225165   1.341   0.040   1.341
 2675SOL     OW25166   4.256   5.788   0.950
 2675SOL    HW125167   4.205   5.863   0.982
 2675SOL    HW225168   4.279   5.811   0.860
 2676SOL     OW25169   3.074   1.163   5.252
 2676SOL    HW125170   3.076   1.090   5.313
 2676SOL    HW225171   3.158   1.158   5.206
 2677SOL     OW25172   3.110   0.101   6.941
 2677SOL    HW125173   3.111   0.176   6.881
 2677SOL    HW225174   3.017   0.080   6.950
 2678SOL     OW25175   0.489   2.261   5.286
 2678SOL    HW125176   0.532   2.347   5.285
 2678SOL    HW225177   0.476   2.242   5.379
 2679SOL     OW25178   4.165   5.863   1.318
 2679SOL    HW125179   4.186   5.786   1.264
 2679SOL    HW225180   4.229   5.860   1.390
 2680SOL     OW25181   3.954   2.015   6.379
 2680SOL    HW125182   3.949   2.056   6.293
 2680SOL    HW225183   3.926   2.083   6.440
 2681SOL     OW25184   3.849   0.855   2.112
 2681SOL    HW125185   3.772   0.903   2.144
 2681SOL    HW225186   3.923   0.911   2.135
 2682SOL     OW25187   5.504   2.386   0.875
 2682SOL    HW125188   5.585   2.338   0.858
 2682SOL    HW225189   5.531   2.477   0.883
 2683SOL     OW25190   0.276   5.645   7.505
 2683SOL    HW125191   0.277   5.552   7.482
 2683SOL    HW225192   0.271   5.690   7.421
 2684SOL     OW25193   0.640   2.440   1.636
 2684SOL    HW125194   0.589   2.503   1.688
 2684SOL    HW225195   0.601   2.355   1.658
 2685SOL     OW25196   5.745   0.632   7.706
 2685SOL    HW125197   5.738   0.552   7.654
 2685SOL    HW225198   5.667   0.631   7.762
 2686SOL     OW25199   2.745   2.005   0.728
 2686SOL    HW125200   2.670   1.988   0.785
 2686SOL    HW225201   2.740   1.938   0.660
 2687SOL     OW25202   1.429   2.693   0.331
 2687SOL    HW125203   1.424   2.781   0.293
 2687SOL    HW225204   1.491   2.646   0.275
 2688SOL     OW25205   3.908   6.006   6.904
 2688SOL    HW125206   3.839   6.010   6.838
 2688SOL    HW225207   3.912   5.913   6.928
 2689SOL     OW25208   5.453   3.505   7.831
 2689SOL    HW125209   5.384   3.526   7.893
 2689SOL    HW225210   5.410   3.455   7.762
 2690SOL     OW25211   1.312   6.064   1.245
 2690SOL    HW125212   1.273   6.004   1.181
 2690SOL    HW225213   1.404   6.038   1.248
 2691SOL     OW25214   3.322   4.703   0.088
 2691SOL    HW125215   3.309   4.623   0.037
 2691SOL    HW225216   3.234   4.741   0.096
 2692SOL     OW25217   5.284   2.752   6.137
 2692SOL    HW125218   5.308   2.783   6.224
 2692SOL    HW225219   5.367   2.750   6.088
 2693SOL     OW25220   5.913   1.156   0.381
 2693SOL    HW125221   5.882   1.082   0.328
 2693SOL    HW225222   5.996   1.181   0.340
 2694SOL     OW25223   1.185   3.722   6.429
 2694SOL    HW125224   1.181   3.808   6.388
 2694SOL    HW225225   1.244   3.671   6.372
 2695SOL     OW25226   4.520   4.746   2.384
 2695SOL    HW125227   4.497   4.656   2.406
 2695SOL    HW225228   4.478   4.762   2.299
 2696SOL     OW25229   0.170   4.936   0.764
 2696SOL    HW125230   0.200   4.919   0.853
 2696SOL    HW225231   0.208   4.865   0.712
 2697SOL     OW25232   2.687   0.020   0.816
 2697SOL    HW125233   2.727   0.076   0.882
 2697SOL    HW225234   2.594   0.041   0.819
 2698SOL     OW25235   2.245   1.267   6.150
 2698SOL    HW125236   2.163   1.218   6.149
 2698SOL    HW225237   2.287   1.247   6.067
 2699SOL     OW25238   4.642   5.887   5.899
 2699SOL    HW125239   4.639   5.943   5.976
 2699SOL    HW225240   4.730   5.851   5.898
 2700SOL     OW25241   0.029   2.994   6.287
 2700SOL    HW125242   0.016   2.919   6.345
 2700SOL    HW225243   0.122   2.994   6.267
 2701SOL     OW25244   4.943   2.126   6.193
 2701SOL    HW125245   4.917   2.131   6.285
 2701SOL    HW225246   4.861   2.131   6.144
 2702SOL     OW25247   1.653   0.432   5.744
 2702SOL    HW125248   1.615   0.505   5.793
 2702SOL    HW225249   1.605   0.355   5.776
 2703SOL     OW25250   1.352   4.458   7.026
 2703SOL    HW125251   1.354   4.393   6.956
 2703SOL    HW225252   1.418   4.523   7.001
 2704SOL     OW25253   5.242   5.408   6.353
 2704SOL    HW125254   5.160   5.457   6.358
 2704SOL    HW225255   5.306   5.464   6.398
 2705SOL     OW25256   0.034   2.880   7.785
 2705SOL    HW125257   0.128   2.895   7.793
 2705SOL    HW225258   0.008   2.845   7.870
 2706SOL     OW25259   3.173   1.509   0.089
 2706SOL    HW125260   3.225   1.562   0.029
 2706SOL    HW225261   3.087   1.551   0.090
 2707SOL     OW25262   4.364   0.170   0.771
 2707SOL    HW125263   4.354   0.161   0.676
 2707SOL    HW225264   4.451   0.135   0.789
 2708SOL     OW25265   4.174   3.635   5.419
 2708SOL    HW125266   4.172   3.548   5.380
 2708SOL    HW225267   4.176   3.619   5.514
 2709SOL     OW25268   1.810   2.829   6.739
 2709SOL    HW125269   1.732   2.882   6.753
 2709SOL    HW225270   1.776   2.741   6.721
 2710SOL     OW25271   0.236   6.213   2.105
 2710SOL    HW125272   0.208   6.249   2.189
 2710SOL    HW225273   0.307   6.270   2.077
 2711SOL     OW25274   3.283   5.550   0.371
 2711SOL    HW125275   3.220   5.505   0.427
 2711SOL    HW225276   3.243   5.635   0.353
 2712SOL     OW25277   4.018   5.359   5.453
 2712SOL    HW125278   3.998   5.401   5.537
 2712SOL    HW225279   4.100   5.313   5.469
 2713SOL     OW25280   0.899   4.540   7.442
 2713SOL    HW125281   0.892   4.445   7.454
 2713SOL    HW225282   0.810   4.569   7.422
 2714SOL     OW25283   4.033   2.113   7.360
 2714SOL    HW125284   3.966   2.070   7.307
 2714SOL    HW225285   4.061   2.188   7.309
 2715SOL     OW25286   6.136   0.679   7.480
 2715SOL    HW125287   6.107   0.592   7.508
 2715SOL    HW225288   6.092   0.694   7.397
 2716SOL     OW25289   3.457   5.076   7.220
 2716SOL    HW125290   3.425   5.032   7.299
 2716SOL    HW225291   3.439   5.014   7.150
 2717SOL     OW25292   0.752   5.928   0.774
 2717SOL    HW125293   0.660   5.905   0.791
 2717SOL    HW225294   0.748   6.005   0.719
 2718SOL     OW25295   0.319   5.923   7.316
 2718SOL    HW125296   0.409   5.908   7.345
 2718SOL    HW225297   0.304   5.854   7.250
 2719SOL     OW25298   5.619   1.839   1.370
 2719SOL    HW125299   5.702   1.886   1.380
 2719SOL    HW225300   5.552   1.907   1.383
 2720SOL     OW25301   5.289   1.039   1.322
 2720SOL    HW125302   5.373   1.017   1.363
 2720SOL    HW225303   5.228   0.974   1.357
 2721SOL     OW25304   3.549   5.085   6.784
 2721SOL    HW125305   3.463   5.044   6.783
 2721SOL    HW225306   3.542   5.156   6.847
 2722SOL     OW25307   5.411   3.297   0.907
 2722SOL    HW125308   5.479   3.357   0.875
 2722SOL    HW225309   5.332   3.323   0.859
 2723SOL     OW25310   0.514   3.778   0.289
 2723SOL    HW125311   0.455   3.840   0.331
 2723SOL    HW225312   0.523   3.707   0.352
 2724SOL     OW25313   2.580   0.857   0.318
 2724SOL    HW125314   2.627   0.778   0.294
 2724SOL    HW225315   2.553   0.843   0.409
 2725SOL     OW25316   5.699   0.570   6.578
 2725SOL    HW125317   5.697   0.556   6.673
 2725SOL    HW225318   5.621   0.622   6.560
 2726SOL     OW25319   5.488   1.881   7.147
 2726SOL    HW125320   5.441   1.963   7.133
 2726SOL    HW225321   5.567   1.906   7.194
 2727SOL     OW25322   4.579   1.862   0.230
 2727SOL    HW125323   4.587   1.855   0.135
 2727SOL    HW225324   4.658   1.909   0.257
 2728SOL     OW25325   5.847   2.369   2.138
 2728SOL    HW125326   5.794   2.328   2.206
 2728SOL    HW225327   5.801   2.451   2.119
 2729SOL     OW25328   1.956   1.830   7.268
 2729SOL    HW125329   1.996   1.786   7.343
 2729SOL    HW225330   2.028   1.839   7.205
 2730SOL     OW25331   6.009   2.392   7.081
 2730SOL    HW125332   5.979   2.302   7.084
 2730SOL    HW225333   6.101   2.388   7.107
 2731SOL     OW25334   2.339   2.715   5.476
 2731SOL    HW125335   2.368   2.623   5.478
 2731SOL    HW225336   2.294   2.727   5.560
 2732SOL     OW25337   1.446   5.040   0.901
 2732SOL    HW125338   1.502   5.117   0.894
 2732SOL    HW225339   1.417   5.024   0.812
 2733SOL     OW25340   0.437   1.314   1.157
 2733SOL    HW125341   0.461   1.282   1.244
 2733SOL    HW225342   0.489   1.394   1.146
 2734SOL     OW25343   6.179   0.550   6.080
 2734SOL    HW125344   6.172   0.484   6.011
 2734SOL    HW225345   6.259   0.528   6.127
 2735SOL     OW25346   3.312   3.491   0.443
 2735SOL    HW125347   3.380   3.498   0.376
 2735SOL    HW225348   3.234   3.465   0.396
 2736SOL     OW25349   3.169   0.251   7.847
 2736SOL    HW125350   3.126   0.335   7.830
 2736SOL    HW225351   3.259   0.265   7.819
 2737SOL     OW25352   4.486   1.574   0.252
 2737SOL    HW125353   4.553   1.580   0.320
 2737SOL    HW225354   4.478   1.664   0.219
 2738SOL     OW25355   4.956   5.857   7.303
 2738SOL    HW125356   4.956   5.901   7.388
 2738SOL    HW225357   4.881   5.798   7.306
 2739SOL     OW25358   2.420   1.192   2.105
 2739SOL    HW125359   2.396   1.276   2.145
 2739SOL    HW225360   2.383   1.196   2.017
 2740SOL     OW25361   3.318   1.013   6.690
 2740SOL    HW125362   3.285   1.100   6.672
 2740SOL    HW225363   3.299   0.998   6.782
 2741SOL     OW25364   5.303   3.714   0.086
 2741SOL    HW125365   5.363   3.685   0.155
 2741SOL    HW225366   5.243   3.775   0.130
 2742SOL     OW25367   4.605   6.325   6.748
 2742SOL    HW125368   4.532   6.379   6.777
 2742SOL    HW225369   4.586   6.237   6.782
 2743SOL     OW25370   6.266   6.415   6.904
 2743SOL    HW125371   6.214   6.444   6.979
 2743SOL    HW225372   6.355   6.404   6.939
 2744SOL     OW25373   3.432   5.651   0.921
 2744SOL    HW125374   3.483   5.712   0.868
 2744SOL    HW225375   3.344   5.687   0.921
 2745SOL     OW25376   1.900   3.409   6.705
 2745SOL    HW125377   1.910   3.477   6.638
 2745SOL    HW225378   1.906   3.455   6.788
 2746SOL     OW25379   5.582   1.333   0.396
 2746SOL    HW125380   5.651   1.301   0.455
 2746SOL    HW225381   5.500   1.303   0.437
 2747SOL     OW25382   1.508   2.184   5.414
 2747SOL    HW125383   1.576   2.131   5.371
 2747SOL    HW225384   1.546   2.205   5.500
 2748SOL     OW25385   1.278   5.508   6.975
 2748SOL    HW125386   1.321   5.571   6.918
 2748SOL    HW225387   1.186   5.512   6.951
 2749SOL     OW25388   0.018   5.248   0.618
 2749SOL    HW125389  -0.016   5.204   0.696
 2749SOL    HW225390  -0.053   5.307   0.591
 2750SOL     OW25391   0.511   2.797   5.352
 2750SOL    HW125392   0.594   2.838   5.327
 2750SOL    HW225393   0.464   2.867   5.398
 2751SOL     OW25394   1.564   3.556   6.635
 2751SOL    HW125395   1.608   3.627   6.682
 2751SOL    HW225396   1.581   3.574   6.543
 2752SOL     OW25397   5.657   5.685   0.788
 2752SOL    HW125398   5.615   5.766   0.816
 2752SOL    HW225399   5.717   5.662   0.859
 2753SOL     OW25400   5.041   3.549   0.054
 2753SOL    HW125401   5.110   3.615   0.043
 2753SOL    HW225402   4.968   3.582   0.002
 2754SOL     OW25403   5.155   4.320   0.660
 2754SOL    HW125404   5.077   4.357   0.702
 2754SOL    HW225405   5.187   4.255   0.722
 2755SOL     OW25406   4.581   4.147   5.454
 2755SOL    HW125407   4.491   4.162   5.484
 2755SOL    HW225408   4.625   4.231   5.468
 2756SOL     OW25409   4.272   3.873   0.941
 2756SOL    HW125410   4.176   3.863   0.938
 2756SOL    HW225411   4.304   3.804   0.883
 2757SOL     OW25412   2.772   4.926   6.171
 2757SOL    HW125413   2.807   4.988   6.107
 2757SOL    HW225414   2.850   4.881   6.205
 2758SOL     OW25415   1.217   1.347   0.966
 2758SOL    HW125416   1.257   1.400   1.035
 2758SOL    HW225417   1.176   1.411   0.908
 2759SOL     OW25418   3.287   6.407   7.277
 2759SOL    HW125419   3.330   6.392   7.361
 2759SOL    HW225420   3.193   6.409   7.298
 2760SOL     OW25421   0.109   2.323   0.895
 2760SOL    HW125422   0.187   2.267   0.885
 2760SOL    HW225423   0.143   2.412   0.887
 2761SOL     OW25424   1.801   2.843   0.267
 2761SOL    HW125425   1.848   2.760   0.258
 2761SOL    HW225426   1.855   2.896   0.326
 2762SOL     OW25427   2.644   4.310   0.486
 2762SOL    HW125428   2.588   4.301   0.562
 2762SOL    HW225429   2.666   4.404   0.483
 2763SOL     OW25430   1.804   3.977   0.928
 2763SOL    HW125431   1.737   3.987   0.860
 2763SOL    HW225432   1.881   4.023   0.894
 2764SOL     OW25433   2.068   5.071   7.271
 2764SOL    HW125434   2.006   5.076   7.344
 2764SOL    HW225435   2.125   5.147   7.283
 2765SOL     OW25436   4.829   3.621   7.755
 2765SOL    HW125437   4.821   3.590   7.665
 2765SOL    HW225438   4.739   3.641   7.782
 2766SOL     OW25439   1.980   5.223   0.174
 2766SOL    HW125440   2.002   5.313   0.151
 2766SOL    HW225441   1.987   5.221   0.269
 2767SOL     OW25442   3.793   3.515   6.166
 2767SOL    HW125443   3.849   3.592   6.158
 2767SOL    HW225444   3.762   3.517   6.256
 2768SOL     OW25445   5.757   4.476   7.525
 2768SOL    HW125446   5.746   4.434   7.610
 2768SOL    HW225447   5.765   4.569   7.545
 2769SOL     OW25448   2.499   3.004   1.454
 2769SOL    HW125449   2.422   2.953   1.428
 2769SOL    HW225450   2.560   2.994   1.381
 2770SOL     OW25451   3.489   1.110   1.301
 2770SOL    HW125452   3.542   1.188   1.314
 2770SOL    HW225453   3.482   1.072   1.389
 2771SOL     OW25454   5.842   4.335   0.507
 2771SOL    HW125455   5.918   4.292   0.469
 2771SOL    HW225456   5.874   4.418   0.540
 2772SOL     OW25457   5.508   4.680   5.402
 2772SOL    HW125458   5.474   4.633   5.325
 2772SOL    HW225459   5.575   4.621   5.438
 2773SOL     OW25460   6.397   2.552   5.573
 2773SOL    HW125461   6.375   2.570   5.664
 2773SOL    HW225462   6.351   2.470   5.553
 2774SOL     OW25463   4.680   0.973   6.520
 2774SOL    HW125464   4.775   0.973   6.526
 2774SOL    HW225465   4.651   0.924   6.597
 2775SOL     OW25466   2.895   4.873   0.421
 2775SOL    HW125467   2.842   4.898   0.497
 2775SOL    HW225468   2.985   4.873   0.452
 2776SOL     OW25469   4.905   5.846   0.936
 2776SOL    HW125470   4.847   5.901   0.883
 2776SOL    HW225471   4.931   5.775   0.877
 2777SOL     OW25472   1.044   3.684   7.563
 2777SOL    HW125473   1.106   3.636   7.617
 2777SOL    HW225474   1.080   3.679   7.474
 2778SOL     OW25475   1.874   1.876   6.785
 2778SOL    HW125476   1.859   1.849   6.876
 2778SOL    HW225477   1.923   1.957   6.792
 2779SOL     OW25478   1.534   2.942   0.203
 2779SOL    HW125479   1.534   3.025   0.156
 2779SOL    HW225480   1.624   2.910   0.195
 2780SOL     OW25481   1.014   6.140   5.879
 2780SOL    HW125482   1.002   6.232   5.903
 2780SOL    HW225483   0.956   6.126   5.805
 2781SOL     OW25484   4.022   2.410   0.656
 2781SOL    HW125485   4.069   2.423   0.738
 2781SOL    HW225486   3.950   2.350   0.678
 2782SOL     OW25487   6.202   3.385   0.330
 2782SOL    HW125488   6.212   3.328   0.406
 2782SOL    HW225489   6.170   3.326   0.261
 2783SOL     OW25490   5.851   3.991   7.067
 2783SOL    HW125491   5.763   3.958   7.047
 2783SOL    HW225492   5.848   4.012   7.160
 2784SOL     OW25493   5.106   1.325   0.383
 2784SOL    HW125494   5.079   1.276   0.460
 2784SOL    HW225495   5.165   1.266   0.336
 2785SOL     OW25496   5.247   4.178   7.181
 2785SOL    HW125497   5.227   4.249   7.121
 2785SOL    HW225498   5.266   4.103   7.125
 2786SOL     OW25499   3.244   1.646   5.941
 2786SOL    HW125500   3.224   1.555   5.964
 2786SOL    HW225501   3.172   1.672   5.884
 2787SOL     OW25502   3.905   5.505   1.273
 2787SOL    HW125503   3.820   5.461   1.280
 2787SOL    HW225504   3.916   5.520   1.179
 2788SOL     OW25505   3.614   1.259   6.396
 2788SOL    HW125506   3.684   1.248   6.332
 2788SOL    HW225507   3.534   1.237   6.348
 2789SOL     OW25508   3.420   4.745   6.816
 2789SOL    HW125509   3.481   4.740   6.742
 2789SOL    HW225510   3.349   4.685   6.793
 2790SOL     OW25511   4.566   6.194   7.487
 2790SOL    HW125512   4.545   6.109   7.523
 2790SOL    HW225513   4.615   6.239   7.556
 2791SOL     OW25514   5.237   4.863   7.237
 2791SOL    HW125515   5.285   4.783   7.258
 2791SOL    HW225516   5.171   4.871   7.306
 2792SOL     OW25517   4.701   5.222   7.823
 2792SOL    HW125518   4.784   5.268   7.810
 2792SOL    HW225519   4.660   5.222   7.736
 2793SOL     OW25520   5.178   5.874   0.239
 2793SOL    HW125521   5.126   5.917   0.170
 2793SOL    HW225522   5.267   5.870   0.203
 2794SOL     OW25523   5.238   1.731   2.563
 2794SOL    HW125524   5.269   1.753   2.476
 2794SOL    HW225525   5.251   1.811   2.614
 2795SOL     OW25526   3.628   4.931   6.232
 2795SOL    HW125527   3.616   4.866   6.162
 2795SOL    HW225528   3.563   4.908   6.298
 2796SOL     OW25529   1.499   2.752   6.443
 2796SOL    HW125530   1.509   2.708   6.527
 2796SOL    HW225531   1.418   2.803   6.451
 2797SOL     OW25532   4.383   1.333   1.325
 2797SOL    HW125533   4.378   1.238   1.311
 2797SOL    HW225534   4.451   1.344   1.390
 2798SOL     OW25535   1.648   3.774   1.247
 2798SOL    HW125536   1.564   3.798   1.208
 2798SOL    HW225537   1.629   3.695   1.297
 2799SOL     OW25538   2.281   0.692   0.240
 2799SOL    HW125539   2.306   0.602   0.263
 2799SOL    HW225540   2.270   0.690   0.145
 2800SOL     OW25541   4.334   0.598   1.260
 2800SOL    HW125542   4.260   0.538   1.268
 2800SOL    HW225543   4.297   0.684   1.282
 2801SOL     OW25544   0.148   0.680   6.200
 2801SOL    HW125545   0.067   0.730   6.186
 2801SOL    HW225546   0.120   0.588   6.200
 2802SOL     OW25547   5.813   0.087   1.431
 2802SOL    HW125548   5.778   0.086   1.521
 2802SOL    HW225549   5.908   0.092   1.443
 2803SOL     OW25550   4.694   4.269   7.407
 2803SOL    HW125551   4.621   4.271   7.469
 2803SOL    HW225552   4.684   4.186   7.362
 2804SOL     OW25553   4.021   4.546   0.770
 2804SOL    HW125554   4.047   4.473   0.713
 2804SOL    HW225555   4.094   4.607   0.764
 2805SOL     OW25556   3.922   4.254   1.726
 2805SOL    HW125557   3.844   4.303   1.749
 2805SOL    HW225558   3.994   4.303   1.767
 2806SOL     OW25559   0.513   2.925   0.504
 2806SOL    HW125560   0.588   2.900   0.558
 2806SOL    HW225561   0.442   2.869   0.535
 2807SOL     OW25562   4.891   5.824   5.908
 2807SOL    HW125563   4.917   5.736   5.936
 2807SOL    HW225564   4.946   5.883   5.958
 2808SOL     OW25565   4.005   6.108   7.679
 2808SOL    HW125566   3.941   6.128   7.611
 2808SOL    HW225567   3.955   6.107   7.760
 2809SOL     OW25568   3.045   2.568   7.704
 2809SOL    HW125569   2.990   2.609   7.770
 2809SOL    HW225570   3.095   2.640   7.666
 2810SOL     OW25571   5.248   0.993   1.043
 2810SOL    HW125572   5.271   0.902   1.055
 2810SOL    HW225573   5.259   1.033   1.129
 2811SOL     OW25574   5.916   0.400   0.064
 2811SOL    HW125575   5.980   0.470   0.051
 2811SOL    HW225576   5.907   0.393   0.159
 2812SOL     OW25577   0.543   3.912   6.712
 2812SOL    HW125578   0.466   3.921   6.657
 2812SOL    HW225579   0.614   3.890   6.651
 2813SOL     OW25580   3.303   2.263   0.585
 2813SOL    HW125581   3.214   2.280   0.554
 2813SOL    HW225582   3.359   2.307   0.522
 2814SOL     OW25583   2.072   3.105   5.518
 2814SOL    HW125584   2.068   3.146   5.604
 2814SOL    HW225585   1.990   3.056   5.511
 2815SOL     OW25586   5.414   3.793   1.461
 2815SOL    HW125587   5.457   3.772   1.544
 2815SOL    HW225588   5.485   3.793   1.396
 2816SOL     OW25589   3.280   1.696   2.212
 2816SOL    HW125590   3.367   1.692   2.174
 2816SOL    HW225591   3.225   1.647   2.152
 2817SOL     OW25592   1.650   2.007   0.933
 2817SOL    HW125593   1.674   2.053   0.853
 2817SOL    HW225594   1.586   2.064   0.976
 2818SOL     OW25595   2.840   3.504   7.299
 2818SOL    HW125596   2.778   3.504   7.371
 2818SOL    HW225597   2.818   3.582   7.248
 2819SOL     OW25598   3.807   4.663   7.091
 2819SOL    HW125599   3.730   4.684   7.038
 2819SOL    HW225600   3.802   4.725   7.165
 2820SOL     OW25601   4.133   6.130   6.998
 2820SOL    HW125602   4.049   6.090   6.975
 2820SOL    HW225603   4.127   6.145   7.093
 2821SOL     OW25604   1.074   4.235   1.888
 2821SOL    HW125605   1.160   4.256   1.852
 2821SOL    HW225606   1.015   4.300   1.850
 2822SOL     OW25607   0.072   4.213   0.637
 2822SOL    HW125608   0.093   4.122   0.614
 2822SOL    HW225609   0.027   4.205   0.722
 2823SOL     OW25610   2.903   5.012   1.545
 2823SOL    HW125611   2.844   5.051   1.610
 2823SOL    HW225612   2.914   4.922   1.573
 2824SOL     OW25613   2.348   5.463   6.544
 2824SOL    HW125614   2.361   5.402   6.471
 2824SOL    HW225615   2.269   5.430   6.588
 2825SOL     OW25616   1.831   2.691   2.091
 2825SOL    HW125617   1.921   2.665   2.069
 2825SOL    HW225618   1.833   2.787   2.090
 2826SOL     OW25619   6.020   0.447   7.547
 2826SOL    HW125620   6.081   0.374   7.542
 2826SOL    HW225621   5.942   0.410   7.587
 2827SOL     OW25622   2.745   1.956   1.961
 2827SOL    HW125623   2.699   1.942   2.044
 2827SOL    HW225624   2.834   1.980   1.987
 2828SOL     OW25625   0.220   4.189   7.373
 2828SOL    HW125626   0.179   4.176   7.459
 2828SOL    HW225627   0.149   4.174   7.310
 2829SOL     OW25628   3.754   0.565   6.885
 2829SOL    HW125629   3.768   0.542   6.977
 2829SOL    HW225630   3.830   0.619   6.862
 2830SOL     OW25631   5.146   6.353   7.668
 2830SOL    HW125632   5.130   6.356   7.574
 2830SOL    HW225633   5.067   6.313   7.705
 2831SOL     OW25634   3.963   6.179   1.450
 2831SOL    HW125635   3.959   6.254   1.509
 2831SOL    HW225636   4.018   6.115   1.495
 2832SOL     OW25637   1.821   5.796   7.284
 2832SOL    HW125638   1.854   5.750   7.207
 2832SOL    HW225639   1.806   5.727   7.349
 2833SOL     OW25640   0.271   0.981   7.589
 2833SOL    HW125641   0.200   0.946   7.643
 2833SOL    HW225642   0.351   0.953   7.634
 2834SOL     OW25643   2.479   0.147   7.665
 2834SOL    HW125644   2.569   0.159   7.634
 2834SOL    HW225645   2.442   0.082   7.604
 2835SOL     OW25646   5.423   6.002   2.107
 2835SOL    HW125647   5.365   6.070   2.072
 2835SOL    HW225648   5.364   5.937   2.145
 2836SOL     OW25649   1.394   3.860   7.091
 2836SOL    HW125650   1.395   3.894   7.180
 2836SOL    HW225651   1.302   3.866   7.064
 2837SOL     OW25652   4.516   4.186   0.869
 2837SOL    HW125653   4.467   4.155   0.945
 2837SOL    HW225654   4.529   4.108   0.814
 2838SOL     OW25655   2.397   2.649   0.631
 2838SOL    HW125656   2.416   2.569   0.582
 2838SOL    HW225657   2.483   2.684   0.655
 2839SOL     OW25658   2.607   3.785   5.786
 2839SOL    HW125659   2.576   3.804   5.698
 2839SOL    HW225660   2.638   3.695   5.781
 2840SOL     OW25661   4.245   3.249   2.238
 2840SOL    HW125662   4.274   3.339   2.254
 2840SOL    HW225663   4.149   3.254   2.237
 2841SOL     OW25664   2.596   5.372   1.754
 2841SOL    HW125665   2.588   5.427   1.832
 2841SOL    HW225666   2.538   5.413   1.690
 2842SOL     OW25667   3.463   2.245   6.595
 2842SOL    HW125668   3.417   2.243   6.680
 2842SOL    HW225669   3.505   2.160   6.588
 2843SOL     OW25670   6.268   1.094   1.036
 2843SOL    HW125671   6.327   1.152   0.988
 2843SOL    HW225672   6.269   1.127   1.126
 2844SOL     OW25673   1.959   0.108   0.345
 2844SOL    HW125674   1.864   0.098   0.335
 2844SOL    HW225675   1.995   0.089   0.259
 2845SOL     OW25676   5.040   4.120   0.476
 2845SOL    HW125677   5.096   4.050   0.509
 2845SOL    HW225678   5.034   4.183   0.549
 2846SOL     OW25679   3.752   4.856   2.276
 2846SOL    HW125680   3.827   4.838   2.332
 2846SOL    HW225681   3.676   4.826   2.326
 2847SOL     OW25682   2.366   0.280   1.392
 2847SOL    HW125683   2.418   0.335   1.450
 2847SOL    HW225684   2.305   0.340   1.349
 2848SOL     OW25685   4.535   1.146   6.929
 2848SOL    HW125686   4.491   1.069   6.964
 2848SOL    HW225687   4.495   1.161   6.843
 2849SOL     OW25688   5.720   5.943   7.657
 2849SOL    HW125689   5.689   6.022   7.614
 2849SOL    HW225690   5.685   5.947   7.745
 2850SOL     OW25691   6.364   1.484   5.707
 2850SOL    HW125692   6.343   1.426   5.634
 2850SOL    HW225693   6.302   1.556   5.700
 2851SOL     OW25694   2.997   2.145   2.282
 2851SOL    HW125695   3.046   2.215   2.326
 2851SOL    HW225696   2.905   2.173   2.287
 2852SOL     OW25697   5.077   5.683   2.109
 2852SOL    HW125698   5.009   5.629   2.069
 2852SOL    HW225699   5.121   5.624   2.170
 2853SOL     OW25700   3.196   2.514   6.846
 2853SOL    HW125701   3.127   2.510   6.912
 2853SOL    HW225702   3.179   2.596   6.799
 2854SOL     OW25703   0.268   1.539   6.701
 2854SOL    HW125704   0.228   1.458   6.732
 2854SOL    HW225705   0.311   1.515   6.619
 2855SOL     OW25706   2.630   3.787   1.053
 2855SOL    HW125707   2.652   3.820   1.141
 2855SOL    HW225708   2.695   3.718   1.037
 2856SOL     OW25709   0.455   0.668   7.410
 2856SOL    HW125710   0.364   0.684   7.385
 2856SOL    HW225711   0.492   0.620   7.335
 2857SOL     OW25712   2.392   0.628   6.693
 2857SOL    HW125713   2.366   0.538   6.712
 2857SOL    HW225714   2.312   0.679   6.706
 2858SOL     OW25715   2.118   5.612   1.239
 2858SOL    HW125716   2.065   5.680   1.198
 2858SOL    HW225717   2.145   5.650   1.323
 2859SOL     OW25718   1.730   2.738   0.624
 2859SOL    HW125719   1.698   2.667   0.679
 2859SOL    HW225720   1.684   2.727   0.541
 2860SOL     OW25721   2.025   3.455   6.342
 2860SOL    HW125722   2.116   3.458   6.372
 2860SOL    HW225723   1.994   3.545   6.351
 2861SOL     OW25724   0.213   5.405   7.102
 2861SOL    HW125725   0.195   5.311   7.110
 2861SOL    HW225726   0.248   5.430   7.187
 2862SOL     OW25727   5.986   0.776   7.251
 2862SOL    HW125728   5.893   0.760   7.266
 2862SOL    HW225729   6.009   0.716   7.180
 2863SOL     OW25730   3.136   3.840   7.715
 2863SOL    HW125731   3.203   3.895   7.673
 2863SOL    HW225732   3.059   3.849   7.658
 2864SOL     OW25733   1.189   2.470   6.155
 2864SOL    HW125734   1.250   2.435   6.090
 2864SOL    HW225735   1.178   2.562   6.130
 2865SOL     OW25736   3.911   1.774   6.650
 2865SOL    HW125737   3.981   1.822   6.606
 2865SOL    HW225738   3.920   1.798   6.742
 2866SOL     OW25739   2.994   1.066   0.156
 2866SOL    HW125740   3.031   1.146   0.193
 2866SOL    HW225741   2.982   1.085   0.063
 2867SOL     OW25742   5.423   1.332   0.014
 2867SOL    HW125743   5.355   1.265   0.025
 2867SOL    HW225744   5.505   1.287   0.033
 2868SOL     OW25745   4.846   5.235   6.379
 2868SOL    HW125746   4.940   5.244   6.391
 2868SOL    HW225747   4.813   5.325   6.384
 2869SOL     OW25748   3.600   3.174   1.036
 2869SOL    HW125749   3.573   3.259   1.001
 2869SOL    HW225750   3.607   3.188   1.131
 2870SOL     OW25751   2.538   6.211   6.120
 2870SOL    HW125752   2.488   6.235   6.042
 2870SOL    HW225753   2.541   6.292   6.172
 2871SOL     OW25754   6.029   3.819   2.248
 2871SOL    HW125755   6.059   3.802   2.159
 2871SOL    HW225756   6.106   3.805   2.303
 2872SOL     OW25757   6.162   6.059   0.646
 2872SOL    HW125758   6.186   5.988   0.586
 2872SOL    HW225759   6.073   6.037   0.674
 2873SOL     OW25760   1.277   5.792   0.981
 2873SOL    HW125761   1.211   5.831   1.038
 2873SOL    HW225762   1.257   5.828   0.894
 2874SOL     OW25763   0.826   3.534   0.443
 2874SOL    HW125764   0.779   3.518   0.525
 2874SOL    HW225765   0.901   3.474   0.445
 2875SOL     OW25766   6.384   4.057   0.340
 2875SOL    HW125767   6.305   4.008   0.364
 2875SOL    HW225768   6.359   4.149   0.353
 2876SOL     OW25769   3.832   4.616   0.301
 2876SOL    HW125770   3.860   4.524   0.301
 2876SOL    HW225771   3.737   4.612   0.312
 2877SOL     OW25772   4.444   4.006   1.091
 2877SOL    HW125773   4.380   3.958   1.039
 2877SOL    HW225774   4.514   3.943   1.109
 2878SOL     OW25775   2.555   2.937   0.788
 2878SOL    HW125776   2.605   2.864   0.752
 2878SOL    HW225777   2.497   2.964   0.717
 2879SOL     OW25778   2.051   4.220   0.572
 2879SOL    HW125779   2.054   4.302   0.523
 2879SOL    HW225780   1.969   4.179   0.544
 2880SOL     OW25781   0.570   6.398   5.306
 2880SOL    HW125782   0.492   6.436   5.348
 2880SOL    HW225783   0.629   6.472   5.293
 2881SOL     OW25784   0.970   0.686   0.496
 2881SOL    HW125785   0.930   0.765   0.533
 2881SOL    HW225786   0.897   0.626   0.481
 2882SOL     OW25787   6.050   2.086   0.393
 2882SOL    HW125788   6.061   2.128   0.478
 2882SOL    HW225789   6.107   2.010   0.396
 2883SOL     OW25790   5.871   0.331   1.968
 2883SOL    HW125791   5.795   0.278   1.941
 2883SOL    HW225792   5.874   0.322   2.063
 2884SOL     OW25793   0.442   2.500   0.082
 2884SOL    HW125794   0.348   2.481   0.083
 2884SOL    HW225795   0.452   2.571   0.145
 2885SOL     OW25796   3.038   5.536   7.173
 2885SOL    HW125797   2.998   5.486   7.245
 2885SOL    HW225798   3.071   5.615   7.215
 2886SOL     OW25799   4.440   1.388   0.031
 2886SOL    HW125800   4.531   1.372   0.005
 2886SOL    HW225801   4.445   1.458   0.096
 2887SOL     OW25802   4.591   0.006   0.474
 2887SOL    HW125803   4.612   0.001   0.381
 2887SOL    HW225804   4.599   0.099   0.495
 2888SOL     OW25805   3.521   0.292   6.983
 2888SOL    HW125806   3.485   0.241   7.055
 2888SOL    HW225807   3.479   0.378   6.993
 2889SOL     OW25808   0.778   0.649   0.757
 2889SOL    HW125809   0.731   0.682   0.680
 2889SOL    HW225810   0.786   0.555   0.742
 2890SOL     OW25811   1.189   4.678   7.054
 2890SOL    HW125812   1.247   4.754   7.039
 2890SOL    HW225813   1.244   4.602   7.036
 2891SOL     OW25814   1.988   1.109   7.098
 2891SOL    HW125815   1.983   1.061   7.015
 2891SOL    HW225816   2.001   1.041   7.164
 2892SOL     OW25817   6.136   3.461   6.165
 2892SOL    HW125818   6.174   3.373   6.165
 2892SOL    HW225819   6.116   3.478   6.073
 2893SOL     OW25820   1.891   3.086   5.810
 2893SOL    HW125821   1.833   3.089   5.734
 2893SOL    HW225822   1.963   3.146   5.787
 2894SOL     OW25823   1.074   3.852   7.257
 2894SOL    HW125824   0.981   3.837   7.274
 2894SOL    HW225825   1.078   3.880   7.166
 2895SOL     OW25826   4.349   1.588   6.437
 2895SOL    HW125827   4.329   1.577   6.530
 2895SOL    HW225828   4.347   1.683   6.423
 2896SOL     OW25829   0.870   1.394   6.132
 2896SOL    HW125830   0.821   1.352   6.202
 2896SOL    HW225831   0.917   1.322   6.089
 2897SOL     OW25832   4.868   2.544   0.062
 2897SOL    HW125833   4.807   2.480   0.026
 2897SOL    HW225834   4.952   2.524   0.020
 2898SOL     OW25835   0.983   1.899   5.104
 2898SOL    HW125836   1.053   1.954   5.070
 2898SOL    HW225837   0.902   1.939   5.070
 2899SOL     OW25838   0.525   3.617   0.516
 2899SOL    HW125839   0.602   3.576   0.554
 2899SOL    HW225840   0.452   3.581   0.567
 2900SOL     OW25841   0.609   3.269   1.366
 2900SOL    HW125842   0.575   3.294   1.452
 2900SOL    HW225843   0.533   3.236   1.318
 2901SOL     OW25844   5.560   4.231   0.141
 2901SOL    HW125845   5.611   4.169   0.193
 2901SOL    HW225846   5.519   4.289   0.205
 2902SOL     OW25847   2.333   3.167   0.131
 2902SOL    HW125848   2.344   3.072   0.132
 2902SOL    HW225849   2.402   3.200   0.189
 2903SOL     OW25850   4.861   5.062   5.828
 2903SOL    HW125851   4.883   5.140   5.879
 2903SOL    HW225852   4.939   5.045   5.775
 2904SOL     OW25853   2.177   3.397   1.390
 2904SOL    HW125854   2.233   3.434   1.322
 2904SOL    HW225855   2.134   3.323   1.348
 2905SOL     OW25856   0.949   5.326   0.622
 2905SOL    HW125857   0.879   5.305   0.560
 2905SOL    HW225858   0.907   5.378   0.690
 2906SOL     OW25859   1.388   2.395   5.978
 2906SOL    HW125860   1.448   2.454   5.932
 2906SOL    HW225861   1.347   2.343   5.908
 2907SOL     OW25862   4.869   6.133   1.060
 2907SOL    HW125863   4.832   6.204   1.007
 2907SOL    HW225864   4.940   6.097   1.006
 2908SOL     OW25865   5.576   6.260   1.525
 2908SOL    HW125866   5.571   6.284   1.433
 2908SOL    HW225867   5.590   6.343   1.571
 2909SOL     OW25868   2.437   3.927   6.669
 2909SOL    HW125869   2.412   4.016   6.696
 2909SOL    HW225870   2.491   3.894   6.741
 2910SOL     OW25871   2.426   0.408   6.342
 2910SOL    HW125872   2.434   0.500   6.370
 2910SOL    HW225873   2.428   0.412   6.246
 2911SOL     OW25874   1.629   5.822   7.696
 2911SOL    HW125875   1.562   5.817   7.764
 2911SOL    HW225876   1.690   5.752   7.717
 2912SOL     OW25877   3.835   0.969   1.020
 2912SOL    HW125878   3.760   0.994   0.965
 2912SOL    HW225879   3.865   0.886   0.983
 2913SOL     OW25880   5.540   1.052   0.992
 2913SOL    HW125881   5.532   0.964   0.957
 2913SOL    HW225882   5.527   1.109   0.916
 2914SOL     OW25883   5.748   0.777   1.181
 2914SOL    HW125884   5.825   0.721   1.166
 2914SOL    HW225885   5.674   0.725   1.151
 2915SOL     OW25886   1.799   2.099   0.050
 2915SOL    HW125887   1.820   2.006   0.047
 2915SOL    HW225888   1.872   2.142   0.006
 2916SOL     OW25889   3.113   4.601   7.557
 2916SOL    HW125890   3.036   4.652   7.531
 2916SOL    HW225891   3.086   4.510   7.543
 2917SOL     OW25892   4.833   0.991   1.827
 2917SOL    HW125893   4.928   1.001   1.835
 2917SOL    HW225894   4.797   1.059   1.884
 2918SOL     OW25895   4.309   5.460   1.438
 2918SOL    HW125896   4.319   5.381   1.386
 2918SOL    HW225897   4.228   5.447   1.487
 2919SOL     OW25898   6.242   1.929   0.847
 2919SOL    HW125899   6.305   1.857   0.853
 2919SOL    HW225900   6.187   1.906   0.772
 2920SOL     OW25901   5.917   2.140   7.083
 2920SOL    HW125902   5.978   2.098   7.022
 2920SOL    HW225903   5.838   2.086   7.080
 2921SOL     OW25904   3.853   4.216   1.008
 2921SOL    HW125905   3.783   4.224   0.943
 2921SOL    HW225906   3.879   4.124   1.004
 2922SOL     OW25907   2.888   0.190   0.513
 2922SOL    HW125908   2.854   0.165   0.427
 2922SOL    HW225909   2.907   0.106   0.556
 2923SOL     OW25910   2.454   1.578   0.030
 2923SOL    HW125911   2.363   1.588   0.004
 2923SOL    HW225912   2.452   1.588   0.125
 2924SOL     OW25913   1.907   0.979   6.842
 2924SOL    HW125914   1.828   1.032   6.828
 2924SOL    HW225915   1.929   0.945   6.755
 2925SOL     OW25916   5.872   2.573   7.216
 2925SOL    HW125917   5.930   2.506   7.179
 2925SOL    HW225918   5.795   2.524   7.245
 2926SOL     OW25919   1.650   4.669   6.382
 2926SOL    HW125920   1.590   4.616   6.331
 2926SOL    HW225921   1.596   4.740   6.417
 2927SOL     OW25922   4.317   3.418   7.628
 2927SOL    HW125923   4.407   3.385   7.632
 2927SOL    HW225924   4.264   3.349   7.667
 2928SOL     OW25925   5.471   2.407   6.465
 2928SOL    HW125926   5.428   2.478   6.512
 2928SOL    HW225927   5.564   2.423   6.478
 2929SOL     OW25928   0.918   4.957   5.313
 2929SOL    HW125929   1.007   4.952   5.277
 2929SOL    HW225930   0.927   5.012   5.391
 2930SOL     OW25931   3.966   3.344   6.933
 2930SOL    HW125932   3.958   3.333   6.838
 2930SOL    HW225933   3.931   3.263   6.970
 2931SOL     OW25934   0.970   3.530   5.758
 2931SOL    HW125935   1.007   3.572   5.681
 2931SOL    HW225936   1.028   3.457   5.776
 2932SOL     OW25937   1.592   5.624   7.161
 2932SOL    HW125938   1.608   5.593   7.071
 2932SOL    HW225939   1.679   5.639   7.197
 2933SOL     OW25940   1.792   1.494   0.835
 2933SOL    HW125941   1.779   1.425   0.771
 2933SOL    HW225942   1.719   1.485   0.896
 2934SOL     OW25943   1.218   4.377   1.621
 2934SOL    HW125944   1.255   4.336   1.700
 2934SOL    HW225945   1.284   4.442   1.595
 2935SOL     OW25946   4.788   2.036   1.678
 2935SOL    HW125947   4.854   2.025   1.746
 2935SOL    HW225948   4.705   2.021   1.722
 2936SOL     OW25949   2.310   4.431   1.115
 2936SOL    HW125950   2.273   4.343   1.105
 2936SOL    HW225951   2.245   4.478   1.167
 2937SOL     OW25952   3.513   5.762   7.369
 2937SOL    HW125953   3.542   5.672   7.353
 2937SOL    HW225954   3.528   5.807   7.286
 2938SOL     OW25955   6.291   3.183   0.530
 2938SOL    HW125956   6.384   3.177   0.551
 2938SOL    HW225957   6.259   3.093   0.538
 2939SOL     OW25958   5.525   0.431   7.638
 2939SOL    HW125959   5.525   0.340   7.668
 2939SOL    HW225960   5.506   0.482   7.717
 2940SOL     OW25961   4.893   1.874   7.825
 2940SOL    HW125962   4.913   1.782   7.809
 2940SOL    HW225963   4.976   1.920   7.815
 2941SOL     OW25964   0.786   4.285   1.333
 2941SOL    HW125965   0.816   4.316   1.419
 2941SOL    HW225966   0.807   4.192   1.332
 2942SOL     OW25967   2.375   4.384   0.801
 2942SOL    HW125968   2.459   4.407   0.841
 2942SOL    HW225969   2.312   4.392   0.872
 2943SOL     OW25970   1.746   0.737   7.584
 2943SOL    HW125971   1.673   0.715   7.526
 2943SOL    HW225972   1.704   0.760   7.667
 2944SOL     OW25973   4.124   1.882   6.539
 2944SOL    HW125974   4.075   1.922   6.467
 2944SOL    HW225975   4.216   1.900   6.518
 2945SOL     OW25976   2.045   1.852   1.558
 2945SOL    HW125977   2.043   1.782   1.623
 2945SOL    HW225978   1.954   1.882   1.552
 2946SOL     OW25979   2.114   5.271   0.580
 2946SOL    HW125980   2.184   5.327   0.615
 2946SOL    HW225981   2.079   5.320   0.505
 2947SOL     OW25982   0.542   1.186   0.481
 2947SOL    HW125983   0.596   1.183   0.402
 2947SOL    HW225984   0.460   1.226   0.452
 2948SOL     OW25985   0.974   5.653   0.196
 2948SOL    HW125986   1.027   5.591   0.146
 2948SOL    HW225987   1.033   5.686   0.264
 2949SOL     OW25988   5.523   1.274   1.739
 2949SOL    HW125989   5.448   1.318   1.697
 2949SOL    HW225990   5.584   1.345   1.758
 2950SOL     OW25991   4.455   1.035   1.449
 2950SOL    HW125992   4.537   0.999   1.417
 2950SOL    HW225993   4.402   1.048   1.371
 2951SOL     OW25994   6.021   4.256   1.100
 2951SOL    HW125995   5.951   4.191   1.102
 2951SOL    HW225996   6.058   4.255   1.188
 2952SOL     OW25997   5.822   0.220   7.381
 2952SOL    HW125998   5.820   0.227   7.477
 2952SOL    HW225999   5.781   0.136   7.362
 2953SOL     OW26000   1.037   4.589   1.588
 2953SOL    HW126001   1.113   4.530   1.584
 2953SOL    HW226002   1.022   4.602   1.682
 2954SOL     OW26003   4.114   0.449   1.257
 2954SOL    HW126004   4.024   0.480   1.266
 2954SOL    HW226005   4.109   0.355   1.278
 2955SOL     OW26006   0.799   4.941   6.563
 2955SOL    HW126007   0.866   4.986   6.513
 2955SOL    HW226008   0.716   4.963   6.519
 2956SOL     OW26009   4.304   5.761   6.210
 2956SOL    HW126010   4.311   5.676   6.168
 2956SOL    HW226011   4.389   5.802   6.194
 2957SOL     OW26012   5.928   1.081   0.891
 2957SOL    HW126013   5.875   1.100   0.969
 2957SOL    HW226014   5.959   1.166   0.861
 2958SOL     OW26015   4.769   1.333   0.687
 2958SOL    HW126016   4.710   1.285   0.629
 2958SOL    HW226017   4.714   1.401   0.726
 2959SOL     OW26018   0.968   2.600   7.660
 2959SOL    HW126019   0.878   2.585   7.688
 2959SOL    HW226020   1.022   2.555   7.725
 2960SOL     OW26021   1.999   2.378   7.309
 2960SOL    HW126022   1.996   2.408   7.400
 2960SOL    HW226023   1.990   2.283   7.315
 2961SOL     OW26024   2.973   2.668   7.289
 2961SOL    HW126025   2.908   2.640   7.354
 2961SOL    HW226026   3.057   2.654   7.332
 2962SOL     OW26027   2.692   6.033   6.508
 2962SOL    HW126028   2.617   5.975   6.515
 2962SOL    HW226029   2.698   6.075   6.594
 2963SOL     OW26030   5.386   5.117   6.039
 2963SOL    HW126031   5.324   5.123   5.967
 2963SOL    HW226032   5.472   5.116   5.997
 2964SOL     OW26033   1.805   5.296   6.470
 2964SOL    HW126034   1.881   5.255   6.429
 2964SOL    HW226035   1.749   5.321   6.396
 2965SOL     OW26036   5.566   5.894   7.322
 2965SOL    HW126037   5.589   5.983   7.349
 2965SOL    HW226038   5.637   5.839   7.356
 2966SOL     OW26039   0.225   5.417   0.672
 2966SOL    HW126040   0.167   5.345   0.648
 2966SOL    HW226041   0.203   5.436   0.763
 2967SOL     OW26042   4.571   2.500   0.541
 2967SOL    HW126043   4.520   2.494   0.622
 2967SOL    HW226044   4.522   2.563   0.487
 2968SOL     OW26045   3.447   2.465   5.961
 2968SOL    HW126046   3.407   2.552   5.950
 2968SOL    HW226047   3.464   2.436   5.871
 2969SOL     OW26048   2.386   6.246   5.887
 2969SOL    HW126049   2.324   6.309   5.923
 2969SOL    HW226050   2.347   6.161   5.904
 2970SOL     OW26051   5.088   2.098   7.807
 2970SOL    HW126052   5.055   2.156   7.875
 2970SOL    HW226053   5.179   2.082   7.832
 2971SOL     OW26054   3.245   1.946   6.897
 2971SOL    HW126055   3.240   1.909   6.985
 2971SOL    HW226056   3.336   1.930   6.870
 2972SOL     OW26057   4.724   5.993   0.785
 2972SOL    HW126058   4.646   5.964   0.833
 2972SOL    HW226059   4.694   6.004   0.695
 2973SOL     OW26060   2.551   4.722   7.557
 2973SOL    HW126061   2.640   4.738   7.591
 2973SOL    HW226062   2.502   4.801   7.579
 2974SOL     OW26063   5.237   5.812   5.825
 2974SOL    HW126064   5.214   5.720   5.813
 2974SOL    HW226065   5.174   5.860   5.772
 2975SOL     OW26066   5.852   4.273   1.656
 2975SOL    HW126067   5.778   4.239   1.606
 2975SOL    HW226068   5.925   4.214   1.633
 2976SOL     OW26069   4.318   1.301   7.134
 2976SOL    HW126070   4.319   1.356   7.213
 2976SOL    HW226071   4.406   1.263   7.130
 2977SOL     OW26072   0.878   5.859   1.385
 2977SOL    HW126073   0.968   5.834   1.362
 2977SOL    HW226074   0.835   5.777   1.406
 2978SOL     OW26075   4.674   1.253   0.190
 2978SOL    HW126076   4.616   1.307   0.242
 2978SOL    HW226077   4.667   1.287   0.101
 2979SOL     OW26078   3.314   0.780   7.434
 2979SOL    HW126079   3.341   0.821   7.352
 2979SOL    HW226080   3.371   0.817   7.500
 2980SOL     OW26081   3.271   4.493   0.501
 2980SOL    HW126082   3.258   4.401   0.478
 2980SOL    HW226083   3.312   4.490   0.588
 2981SOL     OW26084   3.083   3.063   5.918
 2981SOL    HW126085   3.075   2.988   5.859
 2981SOL    HW226086   3.174   3.061   5.948
 2982SOL     OW26087   1.513   2.742   6.727
 2982SOL    HW126088   1.530   2.712   6.816
 2982SOL    HW226089   1.447   2.810   6.737
 2983SOL     OW26090   2.873   5.038   5.902
 2983SOL    HW126091   2.956   5.047   5.854
 2983SOL    HW226092   2.815   5.102   5.862
 2984SOL     OW26093   5.420   0.516   7.090
 2984SOL    HW126094   5.374   0.443   7.050
 2984SOL    HW226095   5.439   0.487   7.180
 2985SOL     OW26096   2.494   3.814   0.810
 2985SOL    HW126097   2.532   3.845   0.892
 2985SOL    HW226098   2.558   3.753   0.775
 2986SOL     OW26099   2.265   1.247   7.203
 2986SOL    HW126100   2.181   1.290   7.189
 2986SOL    HW226101   2.256   1.200   7.286
 2987SOL     OW26102   4.464   4.766   1.085
 2987SOL    HW126103   4.467   4.822   1.008
 2987SOL    HW226104   4.537   4.797   1.140
 2988SOL     OW26105   4.310   1.163   6.714
 2988SOL    HW126106   4.237   1.222   6.694
 2988SOL    HW226107   4.348   1.141   6.629
 2989SOL     OW26108   5.583   0.948   1.398
 2989SOL    HW126109   5.635   0.903   1.332
 2989SOL    HW226110   5.627   1.032   1.410
 2990SOL     OW26111   5.424   5.211   6.351
 2990SOL    HW126112   5.344   5.264   6.355
 2990SOL    HW226113   5.436   5.194   6.257
 2991SOL     OW26114   3.208   3.174   0.139
 2991SOL    HW126115   3.175   3.103   0.194
 2991SOL    HW226116   3.300   3.182   0.164
 2992SOL     OW26117   4.242   4.523   6.740
 2992SOL    HW126118   4.182   4.481   6.679
 2992SOL    HW226119   4.329   4.492   6.714
 2993SOL     OW26120   0.807   1.420   5.790
 2993SOL    HW126121   0.717   1.445   5.809
 2993SOL    HW226122   0.838   1.487   5.728
 2994SOL     OW26123   4.565   3.296   0.309
 2994SOL    HW126124   4.548   3.382   0.270
 2994SOL    HW226125   4.643   3.310   0.363
 2995SOL     OW26126   4.989   2.253   0.149
 2995SOL    HW126127   4.929   2.200   0.202
 2995SOL    HW226128   4.951   2.341   0.150
 2996SOL     OW26129   2.652   0.503   6.596
 2996SOL    HW126130   2.606   0.475   6.517
 2996SOL    HW226131   2.592   0.566   6.637
 2997SOL     OW26132   4.699   5.791   7.408
 2997SOL    HW126133   4.652   5.828   7.333
 2997SOL    HW226134   4.638   5.802   7.481
 2998SOL     OW26135   0.763   3.886   6.923
 2998SOL    HW126136   0.673   3.892   6.892
 2998SOL    HW226137   0.756   3.845   7.009
 2999SOL     OW26138   2.472   0.842   5.826
 2999SOL    HW126139   2.451   0.869   5.915
 2999SOL    HW226140   2.395   0.867   5.774
 3000SOL     OW26141   5.927   1.355   0.119
 3000SOL    HW126142   5.980   1.355   0.199
 3000SOL    HW226143   5.887   1.268   0.118
 3001SOL     OW26144   0.730   1.243   7.423
 3001SOL    HW126145   0.764   1.250   7.512
 3001SOL    HW226146   0.660   1.309   7.420
 3002SOL     OW26147   3.444   5.628   0.612
 3002SOL    HW126148   3.496   5.552   0.584
 3002SOL    HW226149   3.354   5.597   0.610
 3003SOL     OW26150   0.425   2.646   1.053
 3003SOL    HW126151   0.347   2.628   1.105
 3003SOL    HW226152   0.465   2.560   1.040
 3004SOL     OW26153   0.451   4.232   6.616
 3004SOL    HW126154   0.415   4.145   6.600
 3004SOL    HW226155   0.509   4.219   6.691
 3005SOL     OW26156   3.765   6.006   1.366
 3005SOL    HW126157   3.841   6.063   1.375
 3005SOL    HW226158   3.689   6.064   1.370
 3006SOL     OW26159   2.270   5.247   1.667
 3006SOL    HW126160   2.281   5.224   1.759
 3006SOL    HW226161   2.359   5.247   1.632
 3007SOL     OW26162   0.771   0.505   1.070
 3007SOL    HW126163   0.695   0.507   1.012
 3007SOL    HW226164   0.781   0.595   1.100
 3008SOL     OW26165   1.829   3.388   7.145
 3008SOL    HW126166   1.910   3.376   7.196
 3008SOL    HW226167   1.838   3.328   7.071
 3009SOL     OW26168   2.852   1.281   5.342
 3009SOL    HW126169   2.932   1.268   5.290
 3009SOL    HW226170   2.874   1.247   5.429
 3010SOL     OW26171   2.573   6.391   6.866
 3010SOL    HW126172   2.516   6.418   6.794
 3010SOL    HW226173   2.552   6.450   6.938
 3011SOL     OW26174   4.143   0.249   6.096
 3011SOL    HW126175   4.076   0.185   6.073
 3011SOL    HW226176   4.133   0.319   6.032
 3012SOL     OW26177   1.903   4.438   0.748
 3012SOL    HW126178   1.868   4.453   0.660
 3012SOL    HW226179   1.994   4.468   0.744
 3013SOL     OW26180   5.589   3.772   1.267
 3013SOL    HW126181   5.558   3.687   1.237
 3013SOL    HW226182   5.642   3.805   1.194
 3014SOL     OW26183   3.092   1.393   1.465
 3014SOL    HW126184   3.022   1.331   1.483
 3014SOL    HW226185   3.053   1.479   1.480
 3015SOL     OW26186   3.532   5.979   2.103
 3015SOL    HW126187   3.610   5.969   2.159
 3015SOL    HW226188   3.541   5.910   2.037
 3016SOL     OW26189   3.434   1.871   0.072
 3016SOL    HW126190   3.392   1.911   0.148
 3016SOL    HW226191   3.380   1.793   0.054
 3017SOL     OW26192   4.071   4.895   1.820
 3017SOL    HW126193   4.113   4.869   1.902
 3017SOL    HW226194   4.142   4.926   1.765
 3018SOL     OW26195   4.925   5.480   1.491
 3018SOL    HW126196   4.981   5.557   1.499
 3018SOL    HW226197   4.836   5.515   1.488
 3019SOL     OW26198   0.473   5.226   1.449
 3019SOL    HW126199   0.526   5.273   1.513
 3019SOL    HW226200   0.536   5.174   1.398
 3020SOL     OW26201   5.370   4.596   0.046
 3020SOL    HW126202   5.404   4.597  -0.044
 3020SOL    HW226203   5.280   4.562   0.037
 3021SOL     OW26204   1.061   3.878   6.623
 3021SOL    HW126205   1.076   3.816   6.552
 3021SOL    HW226206   1.032   3.959   6.580
 3022SOL     OW26207   2.941   3.821   2.307
 3022SOL    HW126208   2.977   3.736   2.333
 3022SOL    HW226209   3.018   3.875   2.288
 3023SOL     OW26210   4.358   4.476   7.308
 3023SOL    HW126211   4.448   4.472   7.277
 3023SOL    HW226212   4.326   4.561   7.278
 3024SOL     OW26213   4.598   4.248   1.196
 3024SOL    HW126214   4.565   4.163   1.167
 3024SOL    HW226215   4.675   4.264   1.143
 3025SOL     OW26216   5.788   1.931   6.621
 3025SOL    HW126217   5.831   1.867   6.678
 3025SOL    HW226218   5.708   1.888   6.592
 3026SOL     OW26219   3.373   1.232   1.892
 3026SOL    HW126220   3.456   1.238   1.846
 3026SOL    HW226221   3.329   1.315   1.872
 3027SOL     OW26222   5.974   5.548   7.710
 3027SOL    HW126223   5.888   5.588   7.697
 3027SOL    HW226224   5.982   5.486   7.638
 3028SOL     OW26225   0.531   2.169   0.093
 3028SOL    HW126226   0.614   2.213   0.109
 3028SOL    HW226227   0.489   2.221   0.024
 3029SOL     OW26228   0.870   2.822   6.894
 3029SOL    HW126229   0.835   2.755   6.836
 3029SOL    HW226230   0.808   2.894   6.889
 3030SOL     OW26231   1.788   2.644   7.481
 3030SOL    HW126232   1.787   2.734   7.515
 3030SOL    HW226233   1.699   2.628   7.450
 3031SOL     OW26234   4.260   0.402   5.683
 3031SOL    HW126235   4.322   0.472   5.705
 3031SOL    HW226236   4.180   0.425   5.729
 3032SOL     OW26237   6.286   2.665   7.477
 3032SOL    HW126238   6.380   2.681   7.468
 3032SOL    HW226239   6.249   2.696   7.394
 3033SOL     OW26240   1.896   4.592   6.706
 3033SOL    HW126241   1.904   4.563   6.615
 3033SOL    HW226242   1.805   4.623   6.713
 3034SOL     OW26243   1.423   1.804   7.116
 3034SOL    HW126244   1.488   1.856   7.164
 3034SOL    HW226245   1.417   1.846   7.030
 3035SOL     OW26246   3.971   0.436   1.940
 3035SOL    HW126247   3.929   0.489   2.008
 3035SOL    HW226248   4.065   0.447   1.955
 3036SOL     OW26249   0.288   2.483   1.748
 3036SOL    HW126250   0.360   2.545   1.763
 3036SOL    HW226251   0.332   2.402   1.721
 3037SOL     OW26252   2.115   2.651   1.381
 3037SOL    HW126253   2.119   2.621   1.290
 3037SOL    HW226254   2.155   2.580   1.431
 3038SOL     OW26255   2.966   4.419   6.799
 3038SOL    HW126256   3.059   4.424   6.824
 3038SOL    HW226257   2.920   4.409   6.882
 3039SOL     OW26258   1.400   5.722   6.850
 3039SOL    HW126259   1.466   5.767   6.798
 3039SOL    HW226260   1.354   5.792   6.897
 3040SOL     OW26261   4.353   0.151   1.113
 3040SOL    HW126262   4.360   0.246   1.126
 3040SOL    HW226263   4.404   0.134   1.034
 3041SOL     OW26264   5.196   4.470   2.168
 3041SOL    HW126265   5.135   4.398   2.151
 3041SOL    HW226266   5.272   4.428   2.209
 3042SOL     OW26267   5.359   1.705   1.063
 3042SOL    HW126268   5.413   1.783   1.047
 3042SOL    HW226269   5.269   1.734   1.045
 3043SOL     OW26270   5.844   4.879   6.898
 3043SOL    HW126271   5.933   4.913   6.914
 3043SOL    HW226272   5.791   4.958   6.885
 3044SOL     OW26273   4.025   3.584   0.497
 3044SOL    HW126274   4.104   3.639   0.499
 3044SOL    HW226275   3.971   3.622   0.428
 3045SOL     OW26276   2.199   3.899   2.044
 3045SOL    HW126277   2.131   3.918   2.109
 3045SOL    HW226278   2.199   3.804   2.036
 3046SOL     OW26279   5.143   4.660   1.252
 3046SOL    HW126280   5.104   4.743   1.223
 3046SOL    HW226281   5.228   4.685   1.289
 3047SOL     OW26282   3.518   3.467   0.271
 3047SOL    HW126283   3.583   3.511   0.215
 3047SOL    HW226284   3.538   3.374   0.262
 3048SOL     OW26285   2.613   0.435   7.244
 3048SOL    HW126286   2.635   0.480   7.162
 3048SOL    HW226287   2.540   0.485   7.279
 3049SOL     OW26288   5.300   2.287   6.290
 3049SOL    HW126289   5.317   2.310   6.382
 3049SOL    HW226290   5.384   2.254   6.258
 3050SOL     OW26291   3.287   0.630   0.807
 3050SOL    HW126292   3.226   0.692   0.765
 3050SOL    HW226293   3.332   0.682   0.873
 3051SOL     OW26294   6.154   1.030   7.324
 3051SOL    HW126295   6.096   1.098   7.293
 3051SOL    HW226296   6.113   0.948   7.296
 3052SOL     OW26297   4.647   1.894   6.414
 3052SOL    HW126298   4.722   1.953   6.416
 3052SOL    HW226299   4.678   1.815   6.370
 3053SOL     OW26300   6.074   2.165   0.665
 3053SOL    HW126301   6.159   2.183   0.706
 3053SOL    HW226302   6.025   2.116   0.731
 3054SOL     OW26303   1.714   2.164   6.867
 3054SOL    HW126304   1.679   2.253   6.879
 3054SOL    HW226305   1.641   2.106   6.887
 3055SOL     OW26306   4.940   3.804   0.233
 3055SOL    HW126307   5.016   3.862   0.229
 3055SOL    HW226308   4.927   3.788   0.326
 3056SOL     OW26309   2.827   2.107   5.669
 3056SOL    HW126310   2.918   2.139   5.668
 3056SOL    HW226311   2.835   2.012   5.655
 3057SOL     OW26312   5.958   0.648   6.626
 3057SOL    HW126313   5.989   0.582   6.687
 3057SOL    HW226314   5.869   0.621   6.604
 3058SOL     OW26315   4.666   1.236   6.639
 3058SOL    HW126316   4.751   1.243   6.683
 3058SOL    HW226317   4.668   1.149   6.598
 3059SOL     OW26318   0.975   4.293   1.563
 3059SOL    HW126319   1.055   4.345   1.562
 3059SOL    HW226320   0.926   4.325   1.639
 3060SOL     OW26321   5.236   3.356   6.441
 3060SOL    HW126322   5.229   3.420   6.370
 3060SOL    HW226323   5.280   3.281   6.402
 3061SOL     OW26324   3.565   0.172   1.593
 3061SOL    HW126325   3.540   0.257   1.629
 3061SOL    HW226326   3.494   0.149   1.534
 3062SOL     OW26327   4.032   0.480   7.214
 3062SOL    HW126328   3.938   0.492   7.196
 3062SOL    HW226329   4.065   0.568   7.229
 3063SOL     OW26330   3.950   3.049   5.065
 3063SOL    HW126331   4.014   2.990   5.025
 3063SOL    HW226332   4.002   3.121   5.101
 3064SOL     OW26333   5.779   1.123   1.121
 3064SOL    HW126334   5.756   1.215   1.135
 3064SOL    HW226335   5.701   1.085   1.081
 3065SOL     OW26336   4.137   5.198   7.402
 3065SOL    HW126337   4.174   5.245   7.327
 3065SOL    HW226338   4.206   5.138   7.428
 3066SOL     OW26339   0.460   4.825   7.783
 3066SOL    HW126340   0.415   4.751   7.740
 3066SOL    HW226341   0.398   4.897   7.777
 3067SOL     OW26342   3.424   4.272   2.107
 3067SOL    HW126343   3.471   4.191   2.087
 3067SOL    HW226344   3.391   4.259   2.196
 3068SOL     OW26345   5.550   4.058   7.192
 3068SOL    HW126346   5.582   4.004   7.120
 3068SOL    HW226347   5.455   4.047   7.191
 3069SOL     OW26348   2.843   3.184   0.446
 3069SOL    HW126349   2.778   3.245   0.481
 3069SOL    HW226350   2.927   3.221   0.470
 3070SOL     OW26351   3.072   0.529   1.029
 3070SOL    HW126352   2.980   0.535   1.055
 3070SOL    HW226353   3.079   0.585   0.952
 3071SOL     OW26354   6.292   4.401   1.478
 3071SOL    HW126355   6.210   4.385   1.525
 3071SOL    HW226356   6.273   4.476   1.421
 3072SOL     OW26357   6.123   6.366   7.348
 3072SOL    HW126358   6.167   6.284   7.325
 3072SOL    HW226359   6.061   6.341   7.417
 3073SOL     OW26360   0.710   3.848   1.117
 3073SOL    HW126361   0.731   3.857   1.024
 3073SOL    HW226362   0.794   3.857   1.162
 3074SOL     OW26363   5.654   2.413   6.971
 3074SOL    HW126364   5.685   2.413   7.062
 3074SOL    HW226365   5.581   2.352   6.970
 3075SOL     OW26366   6.056   5.403   1.428
 3075SOL    HW126367   6.099   5.433   1.508
 3075SOL    HW226368   6.077   5.469   1.363
 3076SOL     OW26369   0.101   5.028   6.141
 3076SOL    HW126370   0.036   5.073   6.088
 3076SOL    HW226371   0.161   4.988   6.077
 3077SOL     OW26372   5.047   5.417   7.467
 3077SOL    HW126373   4.985   5.490   7.464
 3077SOL    HW226374   5.080   5.410   7.377
 3078SOL     OW26375   5.338   4.720   2.187
 3078SOL    HW126376   5.290   4.801   2.202
 3078SOL    HW226377   5.271   4.654   2.171
 3079SOL     OW26378   5.552   2.470   0.054
 3079SOL    HW126379   5.457   2.472   0.065
 3079SOL    HW226380   5.565   2.439  -0.035
 3080SOL     OW26381   5.937   3.169   7.448
 3080SOL    HW126382   6.006   3.180   7.513
 3080SOL    HW226383   5.900   3.257   7.436
 3081SOL     OW26384   5.173   2.738   1.366
 3081SOL    HW126385   5.135   2.738   1.454
 3081SOL    HW226386   5.142   2.657   1.326
 3082SOL     OW26387   2.387   2.182   0.718
 3082SOL    HW126388   2.413   2.113   0.779
 3082SOL    HW226389   2.400   2.264   0.766
 3083SOL     OW26390   2.890   0.343   5.998
 3083SOL    HW126391   2.944   0.326   5.921
 3083SOL    HW226392   2.803   0.311   5.975
 3084SOL     OW26393   3.109   0.890   6.250
 3084SOL    HW126394   3.183   0.950   6.258
 3084SOL    HW226395   3.056   0.926   6.179
 3085SOL     OW26396   0.761   3.782   0.842
 3085SOL    HW126397   0.680   3.824   0.811
 3085SOL    HW226398   0.764   3.699   0.795
 3086SOL     OW26399   4.716   1.525   0.426
 3086SOL    HW126400   4.802   1.546   0.463
 3086SOL    HW226401   4.697   1.437   0.458
 3087SOL     OW26402   2.078   1.010   6.359
 3087SOL    HW126403   2.135   1.042   6.428
 3087SOL    HW226404   1.999   1.064   6.364
 3088SOL     OW26405   2.855   2.529   6.379
 3088SOL    HW126406   2.852   2.622   6.402
 3088SOL    HW226407   2.796   2.521   6.304
 3089SOL     OW26408   5.550   5.965   6.796
 3089SOL    HW126409   5.520   5.964   6.705
 3089SOL    HW226410   5.473   5.942   6.847
 3090SOL     OW26411   5.336   5.149   1.628
 3090SOL    HW126412   5.265   5.203   1.661
 3090SOL    HW226413   5.412   5.207   1.625
 3091SOL     OW26414   1.380   5.781   7.271
 3091SOL    HW126415   1.385   5.791   7.366
 3091SOL    HW226416   1.422   5.697   7.253
 3092SOL     OW26417   5.833   2.662   6.635
 3092SOL    HW126418   5.779   2.739   6.656
 3092SOL    HW226419   5.858   2.627   6.720
 3093SOL     OW26420   2.121   0.350   6.767
 3093SOL    HW126421   2.055   0.363   6.698
 3093SOL    HW226422   2.070   0.338   6.847
 3094SOL     OW26423   2.856   5.392   1.079
 3094SOL    HW126424   2.901   5.419   1.159
 3094SOL    HW226425   2.763   5.401   1.099
 3095SOL     OW26426   3.637   1.399   2.023
 3095SOL    HW126427   3.564   1.457   2.000
 3095SOL    HW226428   3.635   1.395   2.119
 3096SOL     OW26429   3.807   6.098   6.230
 3096SOL    HW126430   3.896   6.068   6.211
 3096SOL    HW226431   3.818   6.186   6.265
 3097SOL     OW26432   0.065   6.216   0.729
 3097SOL    HW126433   0.036   6.125   0.731
 3097SOL    HW226434   0.156   6.211   0.699
 3098SOL     OW26435   3.728   1.220   6.895
 3098SOL    HW126436   3.734   1.306   6.938
 3098SOL    HW226437   3.691   1.239   6.809
 3099SOL     OW26438   2.693   3.990   1.344
 3099SOL    HW126439   2.656   4.065   1.391
 3099SOL    HW226440   2.683   3.916   1.404
 3100SOL     OW26441   4.825   3.001   6.172
 3100SOL    HW126442   4.913   2.992   6.135
 3100SOL    HW226443   4.767   3.007   6.096
 3101SOL     OW26444   0.357   6.133   0.630
 3101SOL    HW126445   0.331   6.114   0.540
 3101SOL    HW226446   0.393   6.050   0.663
 3102SOL     OW26447   3.471   3.275   1.538
 3102SOL    HW126448   3.532   3.301   1.606
 3102SOL    HW226449   3.514   3.203   1.492
 3103SOL     OW26450   0.904   3.962   1.291
 3103SOL    HW126451   0.968   3.895   1.265
 3103SOL    HW226452   0.833   3.912   1.331
 3104SOL     OW26453   1.358   1.685   6.575
 3104SOL    HW126454   1.345   1.592   6.591
 3104SOL    HW226455   1.424   1.689   6.507
 3105SOL     OW26456   5.932   5.728   0.555
 3105SOL    HW126457   5.876   5.765   0.623
 3105SOL    HW226458   6.011   5.700   0.601
 3106SOL     OW26459   6.137   1.544   7.326
 3106SOL    HW126460   6.226   1.523   7.297
 3106SOL    HW226461   6.081   1.513   7.255
 3107SOL     OW26462   0.890   0.005   7.479
 3107SOL    HW126463   0.917  -0.050   7.552
 3107SOL    HW226464   0.855   0.084   7.520
 3108SOL     OW26465   6.151   3.612   6.837
 3108SOL    HW126466   6.080   3.595   6.898
 3108SOL    HW226467   6.210   3.670   6.885
 3109SOL     OW26468   2.516   4.435   7.046
 3109SOL    HW126469   2.545   4.416   6.957
 3109SOL    HW226470   2.425   4.407   7.049
 3110SOL     OW26471   4.420   4.123   7.341
 3110SOL    HW126472   4.334   4.158   7.316
 3110SOL    HW226473   4.408   4.092   7.431
 3111SOL     OW26474   5.079   0.526   0.089
 3111SOL    HW126475   5.094   0.611   0.047
 3111SOL    HW226476   5.075   0.546   0.182
 3112SOL     OW26477   2.374   2.798   7.227
 3112SOL    HW126478   2.334   2.752   7.300
 3112SOL    HW226479   2.403   2.729   7.167
 3113SOL     OW26480   4.987   1.297   1.092
 3113SOL    HW126481   5.059   1.360   1.094
 3113SOL    HW226482   4.995   1.252   1.008
 3114SOL     OW26483   0.978   4.161   1.071
 3114SOL    HW126484   1.071   4.184   1.075
 3114SOL    HW226485   0.961   4.116   1.153
 3115SOL     OW26486   0.872   3.810   0.462
 3115SOL    HW126487   0.842   3.720   0.449
 3115SOL    HW226488   0.927   3.805   0.540
 3116SOL     OW26489   2.554   3.220   7.016
 3116SOL    HW126490   2.549   3.166   6.937
 3116SOL    HW226491   2.647   3.236   7.028
 3117SOL     OW26492   0.441   0.477   1.621
 3117SOL    HW126493   0.493   0.403   1.653
 3117SOL    HW226494   0.406   0.518   1.700
 3118SOL     OW26495   0.648   1.559   6.023
 3118SOL    HW126496   0.729   1.509   6.033
 3118SOL    HW226497   0.671   1.629   5.961
 3119SOL     OW26498   0.228   1.376   0.577
 3119SOL    HW126499   0.193   1.391   0.489
 3119SOL    HW226500   0.153   1.343   0.627
 3120SOL     OW26501   5.318   5.701   6.973
 3120SOL    HW126502   5.257   5.669   6.908
 3120SOL    HW226503   5.274   5.687   7.057
 3121SOL     OW26504   5.176   4.137   6.402
 3121SOL    HW126505   5.185   4.218   6.351
 3121SOL    HW226506   5.100   4.152   6.458
 3122SOL     OW26507   3.130   5.262   7.082
 3122SOL    HW126508   3.217   5.303   7.081
 3122SOL    HW226509   3.071   5.332   7.110
 3123SOL     OW26510   4.695   0.815   6.956
 3123SOL    HW126511   4.680   0.721   6.968
 3123SOL    HW226512   4.655   0.836   6.871
 3124SOL     OW26513   3.293   0.977   0.485
 3124SOL    HW126514   3.329   1.066   0.485
 3124SOL    HW226515   3.367   0.922   0.459
 3125SOL     OW26516   1.470   5.345   7.695
 3125SOL    HW126517   1.435   5.417   7.748
 3125SOL    HW226518   1.470   5.380   7.606
 3126SOL     OW26519   0.110   0.505   1.281
 3126SOL    HW126520   0.117   0.595   1.249
 3126SOL    HW226521   0.080   0.455   1.205
 3127SOL     OW26522   1.256   3.667   7.785
 3127SOL    HW126523   1.227   3.643   7.873
 3127SOL    HW226524   1.278   3.760   7.792
 3128SOL     OW26525   2.483   4.896   5.971
 3128SOL    HW126526   2.556   4.862   5.919
 3128SOL    HW226527   2.505   4.874   6.062
 3129SOL     OW26528   0.707   2.059   5.866
 3129SOL    HW126529   0.786   2.113   5.875
 3129SOL    HW226530   0.635   2.122   5.865
 3130SOL     OW26531   3.475   6.159   1.023
 3130SOL    HW126532   3.510   6.214   1.094
 3130SOL    HW226533   3.392   6.201   1.000
 3131SOL     OW26534   0.054   0.863   5.330
 3131SOL    HW126535   0.102   0.792   5.372
 3131SOL    HW226536  -0.032   0.862   5.373
 3132SOL     OW26537   4.052   5.994   6.168
 3132SOL    HW126538   4.078   6.038   6.086
 3132SOL    HW226539   4.134   5.963   6.205
 3133SOL     OW26540   1.702   3.303   0.080
 3133SOL    HW126541   1.789   3.299   0.041
 3133SOL    HW226542   1.668   3.389   0.054
 3134SOL     OW26543   0.197   1.652   0.671
 3134SOL    HW126544   0.223   1.565   0.640
 3134SOL    HW226545   0.259   1.711   0.628
 3135SOL     OW26546   4.538   2.978   1.130
 3135SOL    HW126547   4.551   2.992   1.037
 3135SOL    HW226548   4.621   2.941   1.161
 3136SOL     OW26549   0.520   1.416   7.472
 3136SOL    HW126550   0.445   1.373   7.514
 3136SOL    HW226551   0.523   1.503   7.512
 3137SOL     OW26552   3.703   2.072   0.506
 3137SOL    HW126553   3.675   1.990   0.465
 3137SOL    HW226554   3.661   2.072   0.592
 3138SOL     OW26555   2.123   2.903   2.028
 3138SOL    HW126556   2.135   2.811   2.052
 3138SOL    HW226557   2.028   2.915   2.028
 3139SOL     OW26558   1.782   1.199   7.318
 3139SOL    HW126559   1.832   1.163   7.391
 3139SOL    HW226560   1.825   1.165   7.240
 3140SOL     OW26561   4.343   4.730   1.435
 3140SOL    HW126562   4.415   4.690   1.386
 3140SOL    HW226563   4.280   4.659   1.446
 3141SOL     OW26564   3.367   4.663   1.333
 3141SOL    HW126565   3.458   4.688   1.314
 3141SOL    HW226566   3.362   4.660   1.428
 3142SOL     OW26567   4.109   6.372   7.705
 3142SOL    HW126568   4.086   6.279   7.704
 3142SOL    HW226569   4.136   6.389   7.795
 3143SOL     OW26570   3.555   1.046   5.419
 3143SOL    HW126571   3.594   0.960   5.407
 3143SOL    HW226572   3.580   1.072   5.508
 3144SOL     OW26573   3.694   2.132   6.284
 3144SOL    HW126574   3.787   2.145   6.267
 3144SOL    HW226575   3.650   2.160   6.204
 3145SOL     OW26576   4.193   5.689   7.300
 3145SOL    HW126577   4.236   5.718   7.219
 3145SOL    HW226578   4.221   5.598   7.311
 3146SOL     OW26579   3.715   1.054   0.572
 3146SOL    HW126580   3.734   0.966   0.605
 3146SOL    HW226581   3.674   1.039   0.486
 3147SOL     OW26582   1.696   4.847   1.642
 3147SOL    HW126583   1.613   4.849   1.690
 3147SOL    HW226584   1.759   4.886   1.702
 3148SOL     OW26585   6.031   1.936   7.536
 3148SOL    HW126586   5.989   1.976   7.460
 3148SOL    HW226587   6.115   1.904   7.503
 3149SOL     OW26588   3.209   0.257   7.493
 3149SOL    HW126589   3.141   0.275   7.428
 3149SOL    HW226590   3.276   0.323   7.477
 3150SOL     OW26591   1.196   0.968   1.413
 3150SOL    HW126592   1.281   1.000   1.381
 3150SOL    HW226593   1.179   1.019   1.492
 3151SOL     OW26594   2.908   5.341   5.878
 3151SOL    HW126595   2.968   5.279   5.837
 3151SOL    HW226596   2.923   5.331   5.972
 3152SOL     OW26597   0.307   5.657   0.593
 3152SOL    HW126598   0.292   5.577   0.644
 3152SOL    HW226599   0.279   5.634   0.504
 3153SOL     OW26600   5.228   6.233   0.647
 3153SOL    HW126601   5.275   6.224   0.730
 3153SOL    HW226602   5.220   6.143   0.615
 3154SOL     OW26603   3.456   0.423   1.376
 3154SOL    HW126604   3.495   0.435   1.463
 3154SOL    HW226605   3.425   0.510   1.352
 3155SOL     OW26606   1.098   2.437   7.340
 3155SOL    HW126607   1.147   2.406   7.416
 3155SOL    HW226608   1.092   2.532   7.353
 3156SOL     OW26609   1.070   5.513   7.307
 3156SOL    HW126610   1.096   5.553   7.391
 3156SOL    HW226611   1.152   5.509   7.258
 3157SOL     OW26612   2.928   3.724   1.699
 3157SOL    HW126613   2.960   3.635   1.692
 3157SOL    HW226614   2.973   3.761   1.775
 3158SOL     OW26615   6.076   4.328   0.771
 3158SOL    HW126616   6.071   4.257   0.835
 3158SOL    HW226617   6.146   4.385   0.804
 3159SOL     OW26618   3.562   2.646   0.219
 3159SOL    HW126619   3.530   2.575   0.275
 3159SOL    HW226620   3.492   2.659   0.155
 3160SOL     OW26621   3.178   2.772   1.465
 3160SOL    HW126622   3.101   2.828   1.470
 3160SOL    HW226623   3.182   2.744   1.374
 3161SOL     OW26624   3.588   3.540   6.419
 3161SOL    HW126625   3.615   3.459   6.463
 3161SOL    HW226626   3.540   3.510   6.342
 3162SOL     OW26627   2.188   2.192   5.296
 3162SOL    HW126628   2.243   2.260   5.257
 3162SOL    HW226629   2.227   2.110   5.266
 3163SOL     OW26630   5.492   1.452   6.335
 3163SOL    HW126631   5.442   1.515   6.283
 3163SOL    HW226632   5.456   1.458   6.423
 3164SOL     OW26633   2.584   5.781   7.398
 3164SOL    HW126634   2.505   5.811   7.353
 3164SOL    HW226635   2.593   5.689   7.372
 3165SOL     OW26636   6.138   2.543   4.912
 3165SOL    HW126637   6.075   2.480   4.947
 3165SOL    HW226638   6.220   2.522   4.957
 3166SOL     OW26639   5.009   1.257   1.853
 3166SOL    HW126640   5.034   1.166   1.871
 3166SOL    HW226641   5.073   1.310   1.902
 3167SOL     OW26642   1.749   2.152   5.585
 3167SOL    HW126643   1.768   2.076   5.640
 3167SOL    HW226644   1.807   2.142   5.510
 3168SOL     OW26645   0.502   0.902   6.279
 3168SOL    HW126646   0.554   0.823   6.273
 3168SOL    HW226647   0.551   0.968   6.230
 3169SOL     OW26648   2.008   1.662   6.622
 3169SOL    HW126649   2.091   1.709   6.621
 3169SOL    HW226650   1.944   1.724   6.657
 3170SOL     OW26651   0.680   5.101   1.319
 3170SOL    HW126652   0.712   5.011   1.314
 3170SOL    HW226653   0.747   5.153   1.275
 3171SOL     OW26654   2.803   5.987   0.736
 3171SOL    HW126655   2.751   5.997   0.656
 3171SOL    HW226656   2.866   5.918   0.716
 3172SOL     OW26657   4.636   4.015   6.504
 3172SOL    HW126658   4.572   3.948   6.481
 3172SOL    HW226659   4.715   3.991   6.456
 3173SOL     OW26660   1.319   3.173   1.540
 3173SOL    HW126661   1.381   3.133   1.478
 3173SOL    HW226662   1.234   3.164   1.498
 3174SOL     OW26663   5.172   1.282   1.333
 3174SOL    HW126664   5.216   1.198   1.322
 3174SOL    HW226665   5.140   1.281   1.423
 3175SOL     OW26666   3.116   3.948   1.497
 3175SOL    HW126667   3.162   3.877   1.542
 3175SOL    HW226668   3.044   3.905   1.451
 3176SOL     OW26669   0.119   0.235   5.573
 3176SOL    HW126670   0.213   0.234   5.592
 3176SOL    HW226671   0.108   0.174   5.501
 3177SOL     OW26672   0.399   0.632   0.544
 3177SOL    HW126673   0.384   0.703   0.605
 3177SOL    HW226674   0.314   0.616   0.503
 3178SOL     OW26675   0.658   0.672   6.269
 3178SOL    HW126676   0.571   0.635   6.255
 3178SOL    HW226677   0.709   0.601   6.308
 3179SOL     OW26678   4.606   0.304   0.508
 3179SOL    HW126679   4.592   0.310   0.602
 3179SOL    HW226680   4.699   0.286   0.498
 3180SOL     OW26681   2.290   0.651   1.995
 3180SOL    HW126682   2.319   0.738   2.023
 3180SOL    HW226683   2.213   0.669   1.940
 3181SOL     OW26684   1.643   4.876   0.394
 3181SOL    HW126685   1.645   4.970   0.411
 3181SOL    HW226686   1.561   4.861   0.348
 3182SOL     OW26687   2.056   6.358   0.858
 3182SOL    HW126688   2.122   6.324   0.919
 3182SOL    HW226689   2.030   6.442   0.895
 3183SOL     OW26690   4.380   1.325   7.571
 3183SOL    HW126691   4.435   1.248   7.558
 3183SOL    HW226692   4.305   1.292   7.621
 3184SOL     OW26693   3.746   4.919   5.792
 3184SOL    HW126694   3.830   4.874   5.796
 3184SOL    HW226695   3.719   4.912   5.700
 3185SOL     OW26696   2.995   2.601   0.667
 3185SOL    HW126697   3.028   2.539   0.602
 3185SOL    HW226698   2.985   2.683   0.619
 3186SOL     OW26699   2.362   0.448   0.360
 3186SOL    HW126700   2.456   0.430   0.359
 3186SOL    HW226701   2.321   0.362   0.377
 3187SOL     OW26702   4.782   0.059   6.332
 3187SOL    HW126703   4.842   0.021   6.396
 3187SOL    HW226704   4.800   0.011   6.251
 3188SOL     OW26705   1.388   2.838   5.932
 3188SOL    HW126706   1.479   2.817   5.949
 3188SOL    HW226707   1.368   2.909   5.993
 3189SOL     OW26708   2.426   2.483   1.272
 3189SOL    HW126709   2.350   2.427   1.258
 3189SOL    HW226710   2.411   2.560   1.217
 3190SOL     OW26711   2.931   5.413   7.379
 3190SOL    HW126712   2.987   5.416   7.457
 3190SOL    HW226713   2.885   5.330   7.385
 3191SOL     OW26714   3.076   5.002   6.553
 3191SOL    HW126715   3.111   4.982   6.466
 3191SOL    HW226716   3.038   5.089   6.544
 3192SOL     OW26717   2.909   3.214   0.149
 3192SOL    HW126718   2.974   3.284   0.155
 3192SOL    HW226719   2.852   3.240   0.077
 3193SOL     OW26720   0.224   1.197   7.194
 3193SOL    HW126721   0.270   1.275   7.163
 3193SOL    HW226722   0.273   1.123   7.156
 3194SOL     OW26723   0.562   5.678   0.329
 3194SOL    HW126724   0.505   5.707   0.258
 3194SOL    HW226725   0.618   5.754   0.347
 3195SOL     OW26726   2.706   3.570   7.009
 3195SOL    HW126727   2.792   3.530   7.024
 3195SOL    HW226728   2.651   3.498   6.979
 3196SOL     OW26729   1.998   2.728   1.772
 3196SOL    HW126730   2.034   2.697   1.856
 3196SOL    HW226731   1.930   2.790   1.797
 3197SOL     OW26732   4.057   1.657   1.407
 3197SOL    HW126733   4.025   1.695   1.325
 3197SOL    HW226734   3.977   1.635   1.455
 3198SOL     OW26735   4.366   1.101   1.765
 3198SOL    HW126736   4.393   1.076   1.854
 3198SOL    HW226737   4.283   1.146   1.777
 3199SOL     OW26738   1.513   0.098   1.643
 3199SOL    HW126739   1.543   0.146   1.720
 3199SOL    HW226740   1.444   0.153   1.605
 3200SOL     OW26741   3.087   0.344   0.680
 3200SOL    HW126742   3.074   0.299   0.597
 3200SOL    HW226743   3.182   0.339   0.695
 3201SOL     OW26744   3.169   4.923   6.064
 3201SOL    HW126745   3.145   4.943   5.973
 3201SOL    HW226746   3.092   4.881   6.101
 3202SOL     OW26747   2.836   0.304   7.707
 3202SOL    HW126748   2.765   0.265   7.758
 3202SOL    HW226749   2.792   0.353   7.638
 3203SOL     OW26750   2.571   1.290   7.470
 3203SOL    HW126751   2.605   1.372   7.434
 3203SOL    HW226752   2.570   1.303   7.564
 3204SOL     OW26753   5.480   2.508   6.208
 3204SOL    HW126754   5.459   2.489   6.299
 3204SOL    HW226755   5.555   2.566   6.212
 3205SOL     OW26756   2.603   3.566   6.701
 3205SOL    HW126757   2.512   3.586   6.678
 3205SOL    HW226758   2.648   3.557   6.617
 3206SOL     OW26759   2.463   5.391   0.886
 3206SOL    HW126760   2.457   5.487   0.892
 3206SOL    HW226761   2.515   5.365   0.962
 3207SOL     OW26762   5.254   0.048   2.024
 3207SOL    HW126763   5.250  -0.007   1.946
 3207SOL    HW226764   5.301  -0.006   2.088
 3208SOL     OW26765   6.217   2.157   7.423
 3208SOL    HW126766   6.185   2.120   7.341
 3208SOL    HW226767   6.142   2.151   7.483
 3209SOL     OW26768   0.116   4.374   5.971
 3209SOL    HW126769   0.121   4.304   6.036
 3209SOL    HW226770   0.122   4.454   6.022
 3210SOL     OW26771   6.310   2.100   6.452
 3210SOL    HW126772   6.356   2.047   6.388
 3210SOL    HW226773   6.218   2.078   6.441
 3211SOL     OW26774   0.176   0.266   6.615
 3211SOL    HW126775   0.129   0.308   6.543
 3211SOL    HW226776   0.109   0.248   6.681
 3212SOL     OW26777   1.328   3.273   1.792
 3212SOL    HW126778   1.330   3.264   1.696
 3212SOL    HW226779   1.366   3.192   1.824
 3213SOL     OW26780   3.662   5.322   0.119
 3213SOL    HW126781   3.742   5.338   0.170
 3213SOL    HW226782   3.603   5.392   0.144
 3214SOL     OW26783   6.083   3.292   0.079
 3214SOL    HW126784   6.097   3.198   0.088
 3214SOL    HW226785   6.019   3.300   0.009
 3215SOL     OW26786   4.653   5.130   0.678
 3215SOL    HW126787   4.722   5.096   0.735
 3215SOL    HW226788   4.684   5.112   0.589
 3216SOL     OW26789   4.396   5.236   1.199
 3216SOL    HW126790   4.390   5.155   1.250
 3216SOL    HW226791   4.348   5.219   1.119
 3217SOL     OW26792   3.351   0.340   0.722
 3217SOL    HW126793   3.408   0.285   0.668
 3217SOL    HW226794   3.372   0.429   0.695
 3218SOL     OW26795   4.127   0.262   6.394
 3218SOL    HW126796   4.172   0.272   6.310
 3218SOL    HW226797   4.197   0.243   6.456
 3219SOL     OW26798   3.883   2.348   0.934
 3219SOL    HW126799   3.806   2.404   0.922
 3219SOL    HW226800   3.863   2.268   0.886
 3220SOL     OW26801   4.597   3.675   6.651
 3220SOL    HW126802   4.676   3.721   6.678
 3220SOL    HW226803   4.572   3.717   6.569
 3221SOL     OW26804   4.869   0.246   7.547
 3221SOL    HW126805   4.817   0.324   7.567
 3221SOL    HW226806   4.884   0.205   7.632
 3222SOL     OW26807   1.349   0.253   0.249
 3222SOL    HW126808   1.340   0.163   0.282
 3222SOL    HW226809   1.415   0.293   0.306
 3223SOL     OW26810   5.689   1.943   7.320
 3223SOL    HW126811   5.744   1.866   7.331
 3223SOL    HW226812   5.746   2.016   7.343
 3224SOL     OW26813   2.105   3.517   0.715
 3224SOL    HW126814   2.095   3.422   0.709
 3224SOL    HW226815   2.065   3.540   0.798
 3225SOL     OW26816   0.180   2.901   0.338
 3225SOL    HW126817   0.177   2.806   0.328
 3225SOL    HW226818   0.271   2.920   0.362
 3226SOL     OW26819   2.331   3.586   0.958
 3226SOL    HW126820   2.368   3.663   0.915
 3226SOL    HW226821   2.243   3.612   0.984
 3227SOL     OW26822   1.525   3.036   1.372
 3227SOL    HW126823   1.554   2.968   1.434
 3227SOL    HW226824   1.579   3.022   1.294
 3228SOL     OW26825   1.247   5.557   1.105
 3228SOL    HW126826   1.180   5.571   1.172
 3228SOL    HW226827   1.258   5.642   1.064
 3229SOL     OW26828   1.600   5.779   6.016
 3229SOL    HW126829   1.612   5.869   5.984
 3229SOL    HW226830   1.546   5.737   5.949
 3230SOL     OW26831   3.678   0.609   0.154
 3230SOL    HW126832   3.619   0.590   0.227
 3230SOL    HW226833   3.764   0.579   0.184
 3231SOL     OW26834   4.489   1.888   7.770
 3231SOL    HW126835   4.499   1.810   7.715
 3231SOL    HW226836   4.440   1.949   7.716
 3232SOL     OW26837   5.695   6.341   6.038
 3232SOL    HW126838   5.682   6.416   5.981
 3232SOL    HW226839   5.705   6.267   5.979
 3233SOL     OW26840   1.021   0.753   6.665
 3233SOL    HW126841   0.956   0.735   6.734
 3233SOL    HW226842   0.970   0.789   6.593
 3234SOL     OW26843   4.608   0.183   5.937
 3234SOL    HW126844   4.633   0.264   5.980
 3234SOL    HW226845   4.599   0.119   6.008
 3235SOL     OW26846   3.565   5.277   1.083
 3235SOL    HW126847   3.599   5.349   1.136
 3235SOL    HW226848   3.532   5.318   1.003
 3236SOL     OW26849   3.085   1.675   6.764
 3236SOL    HW126850   3.056   1.760   6.798
 3236SOL    HW226851   3.009   1.640   6.718
 3237SOL     OW26852   0.044   1.759   0.882
 3237SOL    HW126853   0.052   1.678   0.933
 3237SOL    HW226854   0.081   1.736   0.796
 3238SOL     OW26855   3.930   2.708   7.297
 3238SOL    HW126856   3.953   2.638   7.359
 3238SOL    HW226857   3.921   2.786   7.352
 3239SOL     OW26858   3.916   6.358   6.549
 3239SOL    HW126859   3.917   6.396   6.637
 3239SOL    HW226860   4.000   6.312   6.542
 3240SOL     OW26861   4.498   2.490   7.475
 3240SOL    HW126862   4.572   2.550   7.480
 3240SOL    HW226863   4.506   2.436   7.554
 3241SOL     OW26864   0.626   4.025   0.170
 3241SOL    HW126865   0.586   3.941   0.196
 3241SOL    HW226866   0.717   4.003   0.150
 3242SOL     OW26867   3.037   2.399   0.505
 3242SOL    HW126868   2.964   2.367   0.558
 3242SOL    HW226869   3.012   2.377   0.415
 3243SOL     OW26870   0.782   2.351   6.150
 3243SOL    HW126871   0.817   2.440   6.144
 3243SOL    HW226872   0.805   2.322   6.238
 3244SOL     OW26873   2.710   4.035   2.234
 3244SOL    HW126874   2.772   3.967   2.209
 3244SOL    HW226875   2.656   3.995   2.302
 3245SOL     OW26876   0.875   3.113   0.550
 3245SOL    HW126877   0.913   3.025   0.557
 3245SOL    HW226878   0.946   3.171   0.577
 3246SOL     OW26879   0.343   1.957   7.702
 3246SOL    HW126880   0.296   1.877   7.677
 3246SOL    HW226881   0.342   1.956   7.798
 3247SOL     OW26882   4.054   5.005   7.098
 3247SOL    HW126883   4.019   5.047   7.020
 3247SOL    HW226884   4.051   5.073   7.165
 3248SOL     OW26885   0.145   3.575   7.384
 3248SOL    HW126886   0.220   3.518   7.370
 3248SOL    HW226887   0.085   3.524   7.438
 3249SOL     OW26888   1.333   3.315   2.405
 3249SOL    HW126889   1.240   3.298   2.392
 3249SOL    HW226890   1.366   3.337   2.318
 3250SOL     OW26891   3.239   3.272   1.347
 3250SOL    HW126892   3.271   3.192   1.306
 3250SOL    HW226893   3.312   3.301   1.402
 3251SOL     OW26894   2.928   4.336   6.562
 3251SOL    HW126895   2.833   4.347   6.556
 3251SOL    HW226896   2.951   4.369   6.649
 3252SOL     OW26897   0.563   0.173   0.138
 3252SOL    HW126898   0.530   0.083   0.136
 3252SOL    HW226899   0.529   0.210   0.220
 3253SOL     OW26900   2.370   2.080   1.742
 3253SOL    HW126901   2.366   2.113   1.832
 3253SOL    HW226902   2.305   2.132   1.695
 3254SOL     OW26903   3.973   1.514   7.342
 3254SOL    HW126904   3.895   1.458   7.337
 3254SOL    HW226905   3.997   1.514   7.434
 3255SOL     OW26906   2.811   4.644   7.073
 3255SOL    HW126907   2.797   4.689   6.989
 3255SOL    HW226908   2.796   4.712   7.139
 3256SOL     OW26909   4.210   2.432   2.169
 3256SOL    HW126910   4.235   2.381   2.247
 3256SOL    HW226911   4.123   2.465   2.189
 3257SOL     OW26912   4.819   3.809   6.680
 3257SOL    HW126913   4.803   3.890   6.730
 3257SOL    HW226914   4.886   3.833   6.617
 3258SOL     OW26915   3.251   4.708   7.212
 3258SOL    HW126916   3.285   4.755   7.136
 3258SOL    HW226917   3.328   4.662   7.248
 3259SOL     OW26918   2.057   3.676   1.027
 3259SOL    HW126919   1.970   3.648   1.055
 3259SOL    HW226920   2.056   3.771   1.038
 3260SOL     OW26921   3.280   1.081   7.008
 3260SOL    HW126922   3.311   1.170   6.993
 3260SOL    HW226923   3.314   1.058   7.094
 3261SOL     OW26924   2.960   2.786   6.469
 3261SOL    HW126925   3.016   2.709   6.483
 3261SOL    HW226926   2.990   2.849   6.534
 3262SOL     OW26927   0.822   1.841   7.765
 3262SOL    HW126928   0.733   1.808   7.779
 3262SOL    HW226929   0.813   1.904   7.694
 3263SOL     OW26930   0.774   0.904   0.545
 3263SOL    HW126931   0.709   0.875   0.481
 3263SOL    HW226932   0.722   0.954   0.609
 3264SOL     OW26933   4.534   4.780   5.877
 3264SOL    HW126934   4.502   4.706   5.825
 3264SOL    HW226935   4.571   4.739   5.955
 3265SOL     OW26936   3.960   5.145   7.623
 3265SOL    HW126937   3.944   5.051   7.631
 3265SOL    HW226938   4.016   5.154   7.546
 3266SOL     OW26939   5.080   5.078   6.533
 3266SOL    HW126940   5.047   5.115   6.615
 3266SOL    HW226941   5.022   5.003   6.515
 3267SOL     OW26942   4.264   5.617   0.051
 3267SOL    HW126943   4.250   5.525   0.073
 3267SOL    HW226944   4.350   5.637   0.088
 3268SOL     OW26945   3.532   1.679   7.543
 3268SOL    HW126946   3.609   1.664   7.488
 3268SOL    HW226947   3.568   1.691   7.631
 3269SOL     OW26948   3.583   4.576   0.392
 3269SOL    HW126949   3.504   4.525   0.372
 3269SOL    HW226950   3.567   4.613   0.479
 3270SOL     OW26951   2.808   6.344   2.180
 3270SOL    HW126952   2.793   6.264   2.130
 3270SOL    HW226953   2.751   6.335   2.257
 3271SOL     OW26954   1.731   3.041   1.164
 3271SOL    HW126955   1.724   3.132   1.134
 3271SOL    HW226956   1.806   3.041   1.222
 3272SOL     OW26957   0.859   5.390   1.408
 3272SOL    HW126958   0.876   5.346   1.491
 3272SOL    HW226959   0.876   5.324   1.341
 3273SOL     OW26960   4.149   2.960   6.428
 3273SOL    HW126961   4.141   2.864   6.421
 3273SOL    HW226962   4.067   2.993   6.389
 3274SOL     OW26963   3.340   4.198   0.974
 3274SOL    HW126964   3.249   4.218   0.954
 3274SOL    HW226965   3.371   4.272   1.026
 3275SOL     OW26966   4.403   3.914   4.880
 3275SOL    HW126967   4.452   3.937   4.959
 3275SOL    HW226968   4.374   3.999   4.845
 3276SOL     OW26969   1.904   2.727   1.526
 3276SOL    HW126970   1.981   2.724   1.470
 3276SOL    HW226971   1.938   2.727   1.615
 3277SOL     OW26972   3.081   2.210   5.626
 3277SOL    HW126973   3.102   2.121   5.654
 3277SOL    HW226974   3.131   2.266   5.686
 3278SOL     OW26975   5.490   3.080   6.314
 3278SOL    HW126976   5.570   3.083   6.263
 3278SOL    HW226977   5.429   3.135   6.266
 3279SOL     OW26978   0.502   5.148   6.214
 3279SOL    HW126979   0.491   5.116   6.125
 3279SOL    HW226980   0.520   5.070   6.266
 3280SOL     OW26981   0.411   5.028   5.968
 3280SOL    HW126982   0.405   5.079   5.887
 3280SOL    HW226983   0.343   4.962   5.960
 3281SOL     OW26984   2.643   2.746   0.370
 3281SOL    HW126985   2.684   2.721   0.453
 3281SOL    HW226986   2.642   2.841   0.371
 3282SOL     OW26987   3.459   4.353   6.640
 3282SOL    HW126988   3.478   4.385   6.728
 3282SOL    HW226989   3.399   4.280   6.653
 3283SOL     OW26990   2.807   0.227   0.995
 3283SOL    HW126991   2.851   0.289   1.052
 3283SOL    HW226992   2.807   0.270   0.909
 3284SOL     OW26993   2.784   1.202   6.741
 3284SOL    HW126994   2.817   1.119   6.705
 3284SOL    HW226995   2.774   1.185   6.834
 3285SOL     OW26996   6.202   3.815   7.022
 3285SOL    HW126997   6.294   3.836   7.037
 3285SOL    HW226998   6.158   3.900   7.022
 3286SOL     OW26999   3.057   5.808   5.824
 3286SOL    HW127000   3.050   5.891   5.869
 3286SOL    HW227001   3.074   5.744   5.893
 3287SOL     OW27002   2.044   4.678   0.215
 3287SOL    HW127003   1.989   4.718   0.148
 3287SOL    HW227004   2.091   4.608   0.169
 3288SOL     OW27005   2.880   4.785   1.685
 3288SOL    HW127006   2.818   4.713   1.686
 3288SOL    HW227007   2.877   4.822   1.774
 3289SOL     OW27008   0.104   0.543   1.561
 3289SOL    HW127009   0.116   0.495   1.478
 3289SOL    HW227010   0.136   0.631   1.543
 3290SOL     OW27011   0.043   2.025   6.978
 3290SOL    HW127012   0.088   2.065   6.903
 3290SOL    HW227013   0.105   2.035   7.051
 3291SOL     OW27014   3.532   5.444   6.796
 3291SOL    HW127015   3.539   5.410   6.885
 3291SOL    HW227016   3.604   5.402   6.748
 3292SOL     OW27017   0.871   4.866   6.803
 3292SOL    HW127018   0.844   4.904   6.719
 3292SOL    HW227019   0.928   4.793   6.779
 3293SOL     OW27020   4.450   3.913   7.852
 3293SOL    HW127021   4.526   3.963   7.881
 3293SOL    HW227022   4.406   3.970   7.790
 3294SOL     OW27023   5.269   1.891   1.970
 3294SOL    HW127024   5.233   1.813   2.011
 3294SOL    HW227025   5.325   1.930   2.037
 3295SOL     OW27026   5.849   5.383   0.087
 3295SOL    HW127027   5.882   5.450   0.027
 3295SOL    HW227028   5.888   5.405   0.172
 3296SOL     OW27029   0.078   0.838   7.793
 3296SOL    HW127030   0.099   0.758   7.745
 3296SOL    HW227031   0.068   0.809   7.884
 3297SOL     OW27032   5.601   0.537   1.086
 3297SOL    HW127033   5.519   0.489   1.092
 3297SOL    HW227034   5.647   0.498   1.012
 3298SOL     OW27035   6.361   3.670   0.194
 3298SOL    HW127036   6.278   3.705   0.164
 3298SOL    HW227037   6.392   3.616   0.122
 3299SOL     OW27038   4.312   3.594   6.383
 3299SOL    HW127039   4.251   3.521   6.398
 3299SOL    HW227040   4.299   3.617   6.291
 3300SOL     OW27041   3.401   0.849   6.447
 3300SOL    HW127042   3.355   0.766   6.435
 3300SOL    HW227043   3.401   0.862   6.542
 3301SOL     OW27044   6.101   2.851   1.482
 3301SOL    HW127045   6.017   2.878   1.444
 3301SOL    HW227046   6.131   2.929   1.530
 3302SOL     OW27047   1.975   0.601   5.435
 3302SOL    HW127048   1.885   0.607   5.465
 3302SOL    HW227049   2.025   0.652   5.499
 3303SOL     OW27050   3.647   3.053   7.463
 3303SOL    HW127051   3.655   3.060   7.558
 3303SOL    HW227052   3.710   3.117   7.429
 3304SOL     OW27053   6.221   5.604   1.215
 3304SOL    HW127054   6.302   5.625   1.169
 3304SOL    HW227055   6.238   5.630   1.306
 3305SOL     OW27056   5.883   2.795   5.772
 3305SOL    HW127057   5.938   2.723   5.741
 3305SOL    HW227058   5.926   2.873   5.739
 3306SOL     OW27059   2.465   4.372   7.648
 3306SOL    HW127060   2.551   4.414   7.661
 3306SOL    HW227061   2.411   4.440   7.609
 3307SOL     OW27062   6.135   4.935   5.172
 3307SOL    HW127063   6.192   4.926   5.249
 3307SOL    HW227064   6.064   4.873   5.187
 3308SOL     OW27065   1.325   1.221   5.672
 3308SOL    HW127066   1.341   1.136   5.630
 3308SOL    HW227067   1.277   1.271   5.606
 3309SOL     OW27068   3.079   5.721   1.303
 3309SOL    HW127069   3.117   5.796   1.257
 3309SOL    HW227070   3.148   5.695   1.366
 3310SOL     OW27071   2.034   2.468   7.025
 3310SOL    HW127072   2.024   2.446   7.117
 3310SOL    HW227073   2.022   2.385   6.979
 3311SOL     OW27074   1.428   5.998   6.957
 3311SOL    HW127075   1.449   6.077   6.907
 3311SOL    HW227076   1.513   5.959   6.977
 3312SOL     OW27077   2.448   3.674   2.465
 3312SOL    HW127078   2.367   3.686   2.516
 3312SOL    HW227079   2.433   3.593   2.416
 3313SOL     OW27080   0.328   2.749   0.610
 3313SOL    HW127081   0.306   2.786   0.695
 3313SOL    HW227082   0.386   2.675   0.630
 3314SOL     OW27083   2.254   2.074   0.313
 3314SOL    HW127084   2.251   2.056   0.407
 3314SOL    HW227085   2.345   2.096   0.295
 3315SOL     OW27086   1.837   2.415   7.584
 3315SOL    HW127087   1.804   2.498   7.549
 3315SOL    HW227088   1.878   2.439   7.667
 3316SOL     OW27089   2.351   4.443   1.514
 3316SOL    HW127090   2.293   4.371   1.490
 3316SOL    HW227091   2.306   4.521   1.484
 3317SOL     OW27092   2.399   5.831   2.081
 3317SOL    HW127093   2.304   5.823   2.089
 3317SOL    HW227094   2.433   5.749   2.116
 3318SOL     OW27095   2.919   6.127   2.375
 3318SOL    HW127096   2.894   6.035   2.366
 3318SOL    HW227097   2.837   6.174   2.385
 3319SOL     OW27098   3.377   3.218   7.420
 3319SOL    HW127099   3.336   3.196   7.336
 3319SOL    HW227100   3.442   3.149   7.433
 3320SOL     OW27101   2.410   3.327   0.859
 3320SOL    HW127102   2.492   3.318   0.908
 3320SOL    HW227103   2.378   3.414   0.882
 3321SOL     OW27104   5.361   2.629   6.613
 3321SOL    HW127105   5.387   2.699   6.552
 3321SOL    HW227106   5.407   2.649   6.694
 3322SOL     OW27107   1.899   4.916   1.792
 3322SOL    HW127108   1.914   4.975   1.866
 3322SOL    HW227109   1.939   4.961   1.717
 3323SOL     OW27110   1.501   0.327   6.036
 3323SOL    HW127111   1.487   0.310   5.943
 3323SOL    HW227112   1.482   0.420   6.046
 3324SOL     OW27113   0.531   0.900   7.725
 3324SOL    HW127114   0.598   0.859   7.672
 3324SOL    HW227115   0.549   0.871   7.814
 3325SOL     OW27116   6.221   6.109   7.839
 3325SOL    HW127117   6.296   6.167   7.852
 3325SOL    HW227118   6.260   6.023   7.823
 3326SOL     OW27119   3.167   0.324   0.392
 3326SOL    HW127120   3.095   0.385   0.381
 3326SOL    HW227121   3.220   0.335   0.313
 3327SOL     OW27122   0.841   4.492   1.143
 3327SOL    HW127123   0.833   4.417   1.202
 3327SOL    HW227124   0.830   4.455   1.055
 3328SOL     OW27125   0.099   5.552   0.964
 3328SOL    HW127126   0.191   5.563   0.990
 3328SOL    HW227127   0.050   5.599   1.031
 3329SOL     OW27128   3.814   5.698   6.938
 3329SOL    HW127129   3.724   5.731   6.940
 3329SOL    HW227130   3.833   5.685   6.845
 3330SOL     OW27131   1.068   0.964   7.223
 3330SOL    HW127132   1.141   0.902   7.229
 3330SOL    HW227133   1.105   1.047   7.252
 3331SOL     OW27134   0.182   5.835   0.792
 3331SOL    HW127135   0.102   5.782   0.789
 3331SOL    HW227136   0.248   5.781   0.750
 3332SOL     OW27137   6.195   2.867   6.459
 3332SOL    HW127138   6.290   2.873   6.462
 3332SOL    HW227139   6.165   2.957   6.471
 3333SOL     OW27140   1.551   4.651   7.262
 3333SOL    HW127141   1.587   4.660   7.174
 3333SOL    HW227142   1.470   4.601   7.250
 3334SOL     OW27143   4.087   5.885   6.671
 3334SOL    HW127144   4.142   5.901   6.594
 3334SOL    HW227145   4.001   5.918   6.646
 3335SOL     OW27146   6.421   5.111   0.066
 3335SOL    HW127147   6.401   5.130   0.157
 3335SOL    HW227148   6.338   5.118   0.020
 3336SOL     OW27149   3.464   5.525   0.156
 3336SOL    HW127150   3.406   5.553   0.227
 3336SOL    HW227151   3.521   5.600   0.141
 3337SOL     OW27152   4.848   0.728   1.111
 3337SOL    HW127153   4.921   0.689   1.159
 3337SOL    HW227154   4.810   0.655   1.063
 3338SOL     OW27155   5.750   0.831   6.885
 3338SOL    HW127156   5.772   0.738   6.880
 3338SOL    HW227157   5.663   0.833   6.924
 3339SOL     OW27158   3.787   1.455   7.009
 3339SOL    HW127159   3.791   1.545   7.042
 3339SOL    HW227160   3.877   1.422   7.018
 3340SOL     OW27161   3.071   0.842   6.639
 3340SOL    HW127162   3.044   0.851   6.731
 3340SOL    HW227163   3.157   0.883   6.635
 3341SOL     OW27164   2.808   4.368   7.097
 3341SOL    HW127165   2.738   4.313   7.132
 3341SOL    HW227166   2.778   4.457   7.111
 3342SOL     OW27167   0.063   1.344   6.704
 3342SOL    HW127168  -0.002   1.349   6.774
 3342SOL    HW227169   0.051   1.257   6.667
 3343SOL     OW27170   3.913   5.077   0.603
 3343SOL    HW127171   3.969   5.028   0.544
 3343SOL    HW227172   3.937   5.169   0.589
 3344SOL     OW27173   6.229   4.444   5.555
 3344SOL    HW127174   6.278   4.367   5.527
 3344SOL    HW227175   6.160   4.410   5.611
 3345SOL     OW27176   5.169   5.638   6.760
 3345SOL    HW127177   5.098   5.578   6.734
 3345SOL    HW227178   5.242   5.614   6.703
 3346SOL     OW27179   4.022   3.764   1.714
 3346SOL    HW127180   3.932   3.748   1.743
 3346SOL    HW227181   4.033   3.859   1.723
 3347SOL     OW27182   0.144   2.568   1.481
 3347SOL    HW127183   0.053   2.595   1.482
 3347SOL    HW227184   0.173   2.577   1.572
 3348SOL     OW27185   5.080   0.229   5.529
 3348SOL    HW127186   5.136   0.161   5.492
 3348SOL    HW227187   5.138   0.305   5.538
 3349SOL     OW27188   3.582   4.519   0.129
 3349SOL    HW127189   3.534   4.436   0.136
 3349SOL    HW227190   3.543   4.575   0.196
 3350SOL     OW27191   6.412   3.532   1.809
 3350SOL    HW127192   6.478   3.532   1.878
 3350SOL    HW227193   6.459   3.503   1.731
 3351SOL     OW27194   6.248   4.987   1.683
 3351SOL    HW127195   6.198   4.934   1.621
 3351SOL    HW227196   6.194   4.992   1.761
 3352SOL     OW27197   0.240   2.619   5.502
 3352SOL    HW127198   0.165   2.566   5.529
 3352SOL    HW227199   0.316   2.565   5.521
 3353SOL     OW27200   1.550   1.446   1.639
 3353SOL    HW127201   1.456   1.465   1.639
 3353SOL    HW227202   1.562   1.383   1.710
 3354SOL     OW27203   0.554   6.296   0.141
 3354SOL    HW127204   0.511   6.212   0.124
 3354SOL    HW227205   0.539   6.312   0.234
 3355SOL     OW27206   4.815   2.559   1.088
 3355SOL    HW127207   4.836   2.495   1.156
 3355SOL    HW227208   4.725   2.584   1.106
 3356SOL     OW27209   6.368   1.001   7.642
 3356SOL    HW127210   6.423   0.940   7.691
 3356SOL    HW227211   6.414   1.015   7.560
 3357SOL     OW27212   4.250   1.231   0.144
 3357SOL    HW127213   4.167   1.222   0.097
 3357SOL    HW227214   4.313   1.260   0.078
 3358SOL     OW27215   1.793   4.421   6.989
 3358SOL    HW127216   1.809   4.515   6.979
 3358SOL    HW227217   1.733   4.400   6.917
 3359SOL     OW27218   3.464   4.269   0.155
 3359SOL    HW127219   3.413   4.229   0.084
 3359SOL    HW227220   3.436   4.221   0.233
 3360SOL     OW27221   4.985   4.306   2.138
 3360SOL    HW127222   4.911   4.289   2.197
 3360SOL    HW227223   5.000   4.223   2.094
 3361SOL     OW27224   2.837   3.035   5.359
 3361SOL    HW127225   2.844   2.942   5.338
 3361SOL    HW227226   2.754   3.043   5.407
 3362SOL     OW27227   2.114   5.323   1.043
 3362SOL    HW127228   2.042   5.387   1.043
 3362SOL    HW227229   2.170   5.349   0.970
 3363SOL     OW27230   5.845   3.549   6.431
 3363SOL    HW127231   5.792   3.619   6.469
 3363SOL    HW227232   5.842   3.566   6.337
 3364SOL     OW27233   3.291   4.398   5.999
 3364SOL    HW127234   3.196   4.404   6.005
 3364SOL    HW227235   3.313   4.318   6.047
 3365SOL     OW27236   5.505   5.259   0.260
 3365SOL    HW127237   5.578   5.213   0.217
 3365SOL    HW227238   5.496   5.340   0.210
 3366SOL     OW27239   0.417   3.752   1.156
 3366SOL    HW127240   0.418   3.659   1.178
 3366SOL    HW227241   0.509   3.778   1.162
 3367SOL     OW27242   6.421   1.465   5.137
 3367SOL    HW127243   6.515   1.475   5.123
 3367SOL    HW227244   6.395   1.394   5.078
 3368SOL     OW27245   5.415   0.229   6.460
 3368SOL    HW127246   5.402   0.221   6.554
 3368SOL    HW227247   5.356   0.299   6.433
 3369SOL     OW27248   5.439   5.423   7.206
 3369SOL    HW127249   5.462   5.454   7.119
 3369SOL    HW227250   5.520   5.432   7.257
 3370SOL     OW27251   5.936   4.266   6.541
 3370SOL    HW127252   5.933   4.175   6.573
 3370SOL    HW227253   5.845   4.286   6.518
 3371SOL     OW27254   5.238   5.147   0.287
 3371SOL    HW127255   5.327   5.175   0.266
 3371SOL    HW227256   5.200   5.222   0.334
 3372SOL     OW27257   1.876   5.768   1.351
 3372SOL    HW127258   1.786   5.758   1.382
 3372SOL    HW227259   1.870   5.757   1.256
 3373SOL     OW27260   0.205   4.113   6.365
 3373SOL    HW127261   0.119   4.114   6.407
 3373SOL    HW227262   0.201   4.184   6.301
 3374SOL     OW27263   0.380   1.931   0.121
 3374SOL    HW127264   0.298   1.981   0.124
 3374SOL    HW227265   0.449   1.998   0.119
 3375SOL     OW27266   4.961   0.054   0.566
 3375SOL    HW127267   4.947   0.144   0.539
 3375SOL    HW227268   5.039   0.026   0.518
 3376SOL     OW27269   5.727   6.310   0.223
 3376SOL    HW127270   5.680   6.391   0.204
 3376SOL    HW227271   5.669   6.240   0.191
 3377SOL     OW27272   4.116   5.153   1.477
 3377SOL    HW127273   4.096   5.244   1.456
 3377SOL    HW227274   4.032   5.108   1.473
 3378SOL     OW27275   3.565   3.960   7.498
 3378SOL    HW127276   3.587   3.869   7.519
 3378SOL    HW227277   3.595   3.972   7.408
 3379SOL     OW27278   1.041   3.798   0.675
 3379SOL    HW127279   1.123   3.769   0.634
 3379SOL    HW227280   1.067   3.822   0.764
 3380SOL     OW27281   1.863   4.060   5.905
 3380SOL    HW127282   1.795   4.120   5.936
 3380SOL    HW227283   1.826   4.021   5.826
 3381SOL     OW27284   5.571   5.264   6.974
 3381SOL    HW127285   5.628   5.333   7.005
 3381SOL    HW227286   5.558   5.207   7.050
 3382SOL     OW27287   4.920   6.253   0.123
 3382SOL    HW127288   4.974   6.271   0.200
 3382SOL    HW227289   4.830   6.253   0.156
 3383SOL     OW27290   4.679   1.800   7.245
 3383SOL    HW127291   4.600   1.845   7.218
 3383SOL    HW227292   4.747   1.834   7.187
 3384SOL     OW27293   1.208   1.579   5.818
 3384SOL    HW127294   1.237   1.670   5.823
 3384SOL    HW227295   1.129   1.576   5.871
 3385SOL     OW27296   3.265   1.112   5.596
 3385SOL    HW127297   3.188   1.055   5.590
 3385SOL    HW227298   3.257   1.171   5.522
 3386SOL     OW27299   6.148   3.275   5.763
 3386SOL    HW127300   6.242   3.270   5.779
 3386SOL    HW227301   6.117   3.342   5.823
 3387SOL     OW27302   1.274   3.027   1.899
 3387SOL    HW127303   1.228   3.002   1.980
 3387SOL    HW227304   1.211   3.010   1.829
 3388SOL     OW27305   5.895   4.005   7.340
 3388SOL    HW127306   5.913   4.026   7.431
 3388SOL    HW227307   5.849   3.921   7.343
 3389SOL     OW27308   5.505   0.231   0.489
 3389SOL    HW127309   5.501   0.270   0.576
 3389SOL    HW227310   5.441   0.160   0.491
 3390SOL     OW27311   4.236   0.334   1.683
 3390SOL    HW127312   4.155   0.285   1.673
 3390SOL    HW227313   4.239   0.359   1.775
 3391SOL     OW27314   4.552   0.446   2.417
 3391SOL    HW127315   4.560   0.521   2.357
 3391SOL    HW227316   4.539   0.486   2.503
 3392SOL     OW27317   0.550   4.415   1.247
 3392SOL    HW127318   0.633   4.396   1.290
 3392SOL    HW227319   0.565   4.498   1.202
 3393SOL     OW27320   3.679   0.433   5.762
 3393SOL    HW127321   3.623   0.448   5.838
 3393SOL    HW227322   3.619   0.410   5.691
 3394SOL     OW27323   6.199   2.018   7.169
 3394SOL    HW127324   6.208   1.923   7.174
 3394SOL    HW227325   6.265   2.044   7.104
 3395SOL     OW27326   5.954   2.882   7.813
 3395SOL    HW127327   6.031   2.857   7.762
 3395SOL    HW227328   5.905   2.940   7.755
 3396SOL     OW27329   0.619   1.649   7.836
 3396SOL    HW127330   0.659   1.562   7.838
 3396SOL    HW227331   0.558   1.649   7.910
 3397SOL     OW27332   1.895   3.415   6.090
 3397SOL    HW127333   1.924   3.397   6.180
 3397SOL    HW227334   1.935   3.345   6.038
 3398SOL     OW27335   5.660   5.276   2.001
 3398SOL    HW127336   5.643   5.342   1.933
 3398SOL    HW227337   5.714   5.210   1.957
 3399SOL     OW27338   1.729   1.925   5.761
 3399SOL    HW127339   1.677   1.845   5.750
 3399SOL    HW227340   1.689   1.970   5.835
 3400SOL     OW27341   3.695   5.430   6.430
 3400SOL    HW127342   3.698   5.353   6.487
 3400SOL    HW227343   3.638   5.405   6.358
 3401SOL     OW27344   4.760   4.841   0.467
 3401SOL    HW127345   4.770   4.746   0.461
 3401SOL    HW227346   4.841   4.875   0.429
 3402SOL     OW27347   0.596   6.223   1.258
 3402SOL    HW127348   0.673   6.191   1.305
 3402SOL    HW227349   0.562   6.146   1.213
 3403SOL     OW27350   3.036   0.803   0.281
 3403SOL    HW127351   2.975   0.863   0.238
 3403SOL    HW227352   2.999   0.716   0.266
 3404SOL     OW27353   1.600   0.354   0.801
 3404SOL    HW127354   1.565   0.443   0.790
 3404SOL    HW227355   1.682   0.354   0.751
 3405SOL     OW27356   3.598   3.877   1.021
 3405SOL    HW127357   3.634   3.789   1.020
 3405SOL    HW227358   3.574   3.895   0.930
 3406SOL     OW27359   0.396   6.389   7.271
 3406SOL    HW127360   0.478   6.429   7.301
 3406SOL    HW227361   0.352   6.362   7.351
 3407SOL     OW27362   5.906   6.362   6.203
 3407SOL    HW127363   5.964   6.367   6.127
 3407SOL    HW227364   5.824   6.327   6.169
 3408SOL     OW27365   1.508   2.438   1.975
 3408SOL    HW127366   1.555   2.373   1.922
 3408SOL    HW227367   1.572   2.464   2.042
 3409SOL     OW27368   0.761   5.763   6.151
 3409SOL    HW127369   0.748   5.753   6.057
 3409SOL    HW227370   0.698   5.703   6.191
 3410SOL     OW27371   2.883   1.678   2.113
 3410SOL    HW127372   2.969   1.636   2.112
 3410SOL    HW227373   2.901   1.768   2.141
 3411SOL     OW27374   0.753   0.286   1.254
 3411SOL    HW127375   0.772   0.353   1.189
 3411SOL    HW227376   0.658   0.274   1.249
 3412SOL     OW27377   3.766   0.129   1.063
 3412SOL    HW127378   3.757   0.224   1.058
 3412SOL    HW227379   3.851   0.111   1.022
 3413SOL     OW27380   5.033   1.803   5.839
 3413SOL    HW127381   5.060   1.742   5.770
 3413SOL    HW227382   5.072   1.768   5.919
 3414SOL     OW27383   1.047   1.279   1.264
 3414SOL    HW127384   1.036   1.301   1.356
 3414SOL    HW227385   1.133   1.315   1.241
 3415SOL     OW27386   3.082   6.339   6.666
 3415SOL    HW127387   3.043   6.279   6.602
 3415SOL    HW227388   3.047   6.309   6.750
 3416SOL     OW27389   5.102   5.212   1.099
 3416SOL    HW127390   5.108   5.189   1.006
 3416SOL    HW227391   5.191   5.238   1.123
 3417SOL     OW27392   0.942   0.557   1.954
 3417SOL    HW127393   1.024   0.551   1.905
 3417SOL    HW227394   0.966   0.604   2.034
 3418SOL     OW27395   4.088   4.432   6.539
 3418SOL    HW127396   4.001   4.395   6.551
 3418SOL    HW227397   4.073   4.517   6.497
 3419SOL     OW27398   3.318   3.738   1.868
 3419SOL    HW127399   3.409   3.762   1.854
 3419SOL    HW227400   3.317   3.643   1.867
 3420SOL     OW27401   0.700   4.157   0.963
 3420SOL    HW127402   0.644   4.149   1.040
 3420SOL    HW227403   0.785   4.184   0.998
 3421SOL     OW27404   1.896   0.054   7.201
 3421SOL    HW127405   1.841   0.016   7.133
 3421SOL    HW227406   1.847   0.039   7.283
 3422SOL     OW27407   4.621   3.389   2.113
 3422SOL    HW127408   4.536   3.421   2.081
 3422SOL    HW227409   4.655   3.461   2.166
 3423SOL     OW27410   5.245   3.698   0.551
 3423SOL    HW127411   5.330   3.741   0.555
 3423SOL    HW227412   5.183   3.770   0.537
 3424SOL     OW27413   0.818   6.123   1.379
 3424SOL    HW127414   0.831   6.030   1.366
 3424SOL    HW227415   0.903   6.157   1.406
 3425SOL     OW27416   5.839   5.266   0.962
 3425SOL    HW127417   5.887   5.349   0.959
 3425SOL    HW227418   5.810   5.259   1.053
 3426SOL     OW27419   1.859   1.233   0.410
 3426SOL    HW127420   1.797   1.291   0.366
 3426SOL    HW227421   1.809   1.154   0.431
 3427SOL     OW27422   5.127   0.511   6.079
 3427SOL    HW127423   5.036   0.483   6.071
 3427SOL    HW227424   5.177   0.430   6.089
 3428SOL     OW27425   5.319   6.429   7.008
 3428SOL    HW127426   5.231   6.407   7.038
 3428SOL    HW227427   5.346   6.353   6.957
 3429SOL     OW27428   2.551   3.140   1.843
 3429SOL    HW127429   2.513   3.165   1.928
 3429SOL    HW227430   2.645   3.157   1.853
 3430SOL     OW27431   2.753   2.493   0.783
 3430SOL    HW127432   2.836   2.481   0.737
 3430SOL    HW227433   2.738   2.409   0.826
 3431SOL     OW27434   2.964   3.756   7.201
 3431SOL    HW127435   2.939   3.841   7.237
 3431SOL    HW227436   3.035   3.725   7.258
 3432SOL     OW27437   4.643   1.427   7.561
 3432SOL    HW127438   4.670   1.406   7.471
 3432SOL    HW227439   4.550   1.405   7.563
 3433SOL     OW27440   4.149   5.489   2.444
 3433SOL    HW127441   4.105   5.559   2.493
 3433SOL    HW227442   4.156   5.523   2.355
 3434SOL     OW27443   2.039   1.981   6.419
 3434SOL    HW127444   2.135   1.983   6.415
 3434SOL    HW227445   2.019   2.007   6.509
 3435SOL     OW27446   4.824   5.835   6.229
 3435SOL    HW127447   4.864   5.879   6.154
 3435SOL    HW227448   4.883   5.853   6.302
 3436SOL     OW27449   1.382   0.500   7.300
 3436SOL    HW127450   1.382   0.499   7.205
 3436SOL    HW227451   1.335   0.421   7.325
 3437SOL     OW27452   2.384   2.672   1.072
 3437SOL    HW127453   2.343   2.735   1.012
 3437SOL    HW227454   2.476   2.697   1.073
 3438SOL     OW27455   1.520   0.882   6.757
 3438SOL    HW127456   1.432   0.888   6.721
 3438SOL    HW227457   1.576   0.865   6.681
 3439SOL     OW27458   3.267   5.790   7.472
 3439SOL    HW127459   3.291   5.756   7.558
 3439SOL    HW227460   3.349   5.792   7.423
 3440SOL     OW27461   5.622   6.154   7.045
 3440SOL    HW127462   5.691   6.092   7.021
 3440SOL    HW227463   5.543   6.100   7.054
 3441SOL     OW27464   2.127   5.213   2.388
 3441SOL    HW127465   2.085   5.148   2.445
 3441SOL    HW227466   2.084   5.296   2.410
 3442SOL     OW27467   3.575   4.055   2.087
 3442SOL    HW127468   3.646   4.115   2.110
 3442SOL    HW227469   3.616   3.968   2.086
 3443SOL     OW27470   0.353   1.002   1.200
 3443SOL    HW127471   0.388   1.070   1.258
 3443SOL    HW227472   0.429   0.972   1.151
 3444SOL     OW27473   1.220   5.487   5.880
 3444SOL    HW127474   1.283   5.558   5.877
 3444SOL    HW227475   1.272   5.408   5.866
 3445SOL     OW27476   0.487   5.322   0.572
 3445SOL    HW127477   0.426   5.248   0.561
 3445SOL    HW227478   0.437   5.399   0.545
 3446SOL     OW27479   3.403   2.823   6.279
 3446SOL    HW127480   3.311   2.841   6.297
 3446SOL    HW227481   3.442   2.807   6.365
 3447SOL     OW27482   0.834   3.765   1.499
 3447SOL    HW127483   0.743   3.792   1.513
 3447SOL    HW227484   0.828   3.690   1.439
 3448SOL     OW27485   3.951   1.832   0.172
 3448SOL    HW127486   3.912   1.754   0.133
 3448SOL    HW227487   3.889   1.902   0.154
 3449SOL     OW27488   1.258   1.493   1.240
 3449SOL    HW127489   1.340   1.521   1.200
 3449SOL    HW227490   1.284   1.458   1.326
 3450SOL     OW27491   1.755   3.882   6.384
 3450SOL    HW127492   1.769   3.920   6.470
 3450SOL    HW227493   1.683   3.934   6.346
 3451SOL     OW27494   3.199   0.058   0.442
 3451SOL    HW127495   3.172   0.148   0.425
 3451SOL    HW227496   3.153   0.006   0.376
 3452SOL     OW27497   0.456   1.858   5.574
 3452SOL    HW127498   0.414   1.846   5.489
 3452SOL    HW227499   0.536   1.806   5.568
 3453SOL     OW27500   2.597   0.890   7.482
 3453SOL    HW127501   2.675   0.935   7.450
 3453SOL    HW227502   2.558   0.850   7.405
 3454SOL     OW27503   3.213   4.006   7.298
 3454SOL    HW127504   3.138   4.045   7.252
 3454SOL    HW227505   3.279   3.996   7.230
 3455SOL     OW27506   0.465   1.190   6.781
 3455SOL    HW127507   0.504   1.277   6.790
 3455SOL    HW227508   0.469   1.171   6.687
 3456SOL     OW27509   0.773   3.224   7.191
 3456SOL    HW127510   0.853   3.183   7.159
 3456SOL    HW227511   0.736   3.161   7.252
 3457SOL     OW27512   0.297   4.339   1.170
 3457SOL    HW127513   0.380   4.343   1.217
 3457SOL    HW227514   0.251   4.419   1.197
 3458SOL     OW27515   1.686   1.791   5.137
 3458SOL    HW127516   1.686   1.697   5.153
 3458SOL    HW227517   1.713   1.799   5.045
 3459SOL     OW27518   1.140   2.196   2.182
 3459SOL    HW127519   1.236   2.192   2.184
 3459SOL    HW227520   1.118   2.285   2.211
 3460SOL     OW27521   2.614   0.227   6.925
 3460SOL    HW127522   2.531   0.270   6.907
 3460SOL    HW227523   2.675   0.299   6.940
 3461SOL     OW27524   2.271   1.805   7.352
 3461SOL    HW127525   2.278   1.865   7.278
 3461SOL    HW227526   2.240   1.723   7.314
 3462SOL     OW27527   6.177   1.448   1.051
 3462SOL    HW127528   6.143   1.538   1.052
 3462SOL    HW227529   6.128   1.404   1.121
 3463SOL     OW27530   6.386   1.295   7.184
 3463SOL    HW127531   6.465   1.245   7.207
 3463SOL    HW227532   6.332   1.234   7.135
 3464SOL     OW27533   0.541   5.426   7.226
 3464SOL    HW127534   0.631   5.407   7.201
 3464SOL    HW227535   0.526   5.372   7.304
 3465SOL     OW27536   2.917   5.114   0.686
 3465SOL    HW127537   2.847   5.053   0.708
 3465SOL    HW227538   2.939   5.157   0.769
 3466SOL     OW27539   4.485   5.598   7.540
 3466SOL    HW127540   4.515   5.573   7.627
 3466SOL    HW227541   4.522   5.532   7.482
 3467SOL     OW27542   3.612   1.008   0.865
 3467SOL    HW127543   3.575   1.083   0.911
 3467SOL    HW227544   3.630   1.040   0.776
 3468SOL     OW27545   1.203   3.162   6.592
 3468SOL    HW127546   1.116   3.128   6.570
 3468SOL    HW227547   1.217   3.233   6.530
 3469SOL     OW27548   5.905   2.794   7.090
 3469SOL    HW127549   5.929   2.838   7.172
 3469SOL    HW227550   5.890   2.703   7.115
 3470SOL     OW27551   2.195   3.395   7.606
 3470SOL    HW127552   2.268   3.457   7.603
 3470SOL    HW227553   2.237   3.309   7.612
 3471SOL     OW27554   2.743   3.957   7.098
 3471SOL    HW127555   2.685   3.910   7.037
 3471SOL    HW227556   2.720   3.922   7.184
 3472SOL     OW27557   2.600   1.765   6.546
 3472SOL    HW127558   2.555   1.778   6.629
 3472SOL    HW227559   2.670   1.830   6.546
 3473SOL     OW27560   3.360   3.891   0.245
 3473SOL    HW127561   3.429   3.950   0.277
 3473SOL    HW227562   3.391   3.863   0.159
 3474SOL     OW27563   0.200   2.709   6.164
 3474SOL    HW127564   0.276   2.653   6.180
 3474SOL    HW227565   0.236   2.792   6.135
 3475SOL     OW27566   4.750   3.225   1.923
 3475SOL    HW127567   4.831   3.266   1.892
 3475SOL    HW227568   4.722   3.281   1.996
 3476SOL     OW27569   0.484   3.056   6.646
 3476SOL    HW127570   0.568   3.012   6.660
 3476SOL    HW227571   0.422   3.005   6.697
 3477SOL     OW27572   4.739   5.053   1.800
 3477SOL    HW127573   4.717   5.098   1.718
 3477SOL    HW227574   4.803   5.111   1.842
 3478SOL     OW27575   0.987   2.203   0.846
 3478SOL    HW127576   1.053   2.134   0.837
 3478SOL    HW227577   1.034   2.284   0.825
 3479SOL     OW27578   4.983   5.607   6.028
 3479SOL    HW127579   5.042   5.608   6.103
 3479SOL    HW227580   5.040   5.599   5.952
 3480SOL     OW27581   0.549   5.793   0.958
 3480SOL    HW127582   0.481   5.729   0.935
 3480SOL    HW227583   0.628   5.740   0.972
 3481SOL     OW27584   2.596   6.035   1.456
 3481SOL    HW127585   2.663   6.017   1.390
 3481SOL    HW227586   2.564   5.948   1.482
 3482SOL     OW27587   6.118   0.552   7.837
 3482SOL    HW127588   6.188   0.489   7.852
 3482SOL    HW227589   6.140   0.592   7.753
 3483SOL     OW27590   2.790   0.343   5.655
 3483SOL    HW127591   2.803   0.274   5.590
 3483SOL    HW227592   2.874   0.351   5.699
 3484SOL     OW27593   5.326   3.445   6.889
 3484SOL    HW127594   5.233   3.431   6.872
 3484SOL    HW227595   5.370   3.404   6.814
 3485SOL     OW27596   2.839   3.177   1.111
 3485SOL    HW127597   2.926   3.138   1.113
 3485SOL    HW227598   2.783   3.112   1.155
 3486SOL     OW27599   5.200   3.209   1.978
 3486SOL    HW127600   5.234   3.151   1.910
 3486SOL    HW227601   5.278   3.243   2.022
 3487SOL     OW27602   2.975   0.041   1.994
 3487SOL    HW127603   2.944   0.132   1.991
 3487SOL    HW227604   2.923   0.001   2.064
 3488SOL     OW27605   3.259   6.332   2.017
 3488SOL    HW127606   3.220   6.256   2.062
 3488SOL    HW227607   3.195   6.402   2.029
 3489SOL     OW27608   3.139   0.574   6.897
 3489SOL    HW127609   3.057   0.599   6.855
 3489SOL    HW227610   3.140   0.478   6.893
 3490SOL     OW27611   0.502   4.919   2.269
 3490SOL    HW127612   0.477   4.853   2.205
 3490SOL    HW227613   0.598   4.923   2.262
 3491SOL     OW27614   3.774   0.801   5.425
 3491SOL    HW127615   3.861   0.771   5.397
 3491SOL    HW227616   3.778   0.799   5.521
 3492SOL     OW27617   0.755   3.811   5.745
 3492SOL    HW127618   0.777   3.755   5.820
 3492SOL    HW227619   0.793   3.896   5.768
 3493SOL     OW27620   5.862   5.126   0.316
 3493SOL    HW127621   5.913   5.190   0.265
 3493SOL    HW227622   5.775   5.129   0.278
 3494SOL     OW27623   5.006   4.001   7.339
 3494SOL    HW127624   5.088   4.009   7.387
 3494SOL    HW227625   4.983   4.090   7.315
 3495SOL     OW27626   4.296   3.724   5.051
 3495SOL    HW127627   4.359   3.653   5.063
 3495SOL    HW227628   4.314   3.756   4.962
 3496SOL     OW27629   5.655   4.248   5.885
 3496SOL    HW127630   5.694   4.302   5.817
 3496SOL    HW227631   5.592   4.193   5.838
 3497SOL     OW27632   5.223   3.548   6.165
 3497SOL    HW127633   5.306   3.563   6.211
 3497SOL    HW227634   5.249   3.513   6.080
 3498SOL     OW27635   4.132   3.940   0.168
 3498SOL    HW127636   4.205   3.948   0.230
 3498SOL    HW227637   4.149   4.006   0.102
 3499SOL     OW27638   3.545   4.915   0.423
 3499SOL    HW127639   3.558   4.942   0.332
 3499SOL    HW227640   3.483   4.843   0.418
 3500SOL     OW27641   2.328   1.572   6.978
 3500SOL    HW127642   2.394   1.594   6.912
 3500SOL    HW227643   2.246   1.563   6.928
 3501SOL     OW27644   4.626   4.446   6.002
 3501SOL    HW127645   4.594   4.400   6.079
 3501SOL    HW227646   4.573   4.412   5.930
 3502SOL     OW27647   3.400   3.958   1.654
 3502SOL    HW127648   3.450   3.923   1.728
 3502SOL    HW227649   3.368   3.880   1.609
 3503SOL     OW27650   0.652   2.853   0.988
 3503SOL    HW127651   0.733   2.831   1.034
 3503SOL    HW227652   0.590   2.786   1.017
 3504SOL     OW27653   5.827   4.143   0.225
 3504SOL    HW127654   5.813   4.230   0.187
 3504SOL    HW227655   5.921   4.141   0.245
 3505SOL     OW27656   0.364   0.525   5.823
 3505SOL    HW127657   0.275   0.500   5.846
 3505SOL    HW227658   0.364   0.527   5.727
 3506SOL     OW27659   4.291   3.981   5.351
 3506SOL    HW127660   4.311   3.900   5.398
 3506SOL    HW227661   4.299   4.050   5.417
 3507SOL     OW27662   4.094   0.258   7.359
 3507SOL    HW127663   4.054   0.183   7.314
 3507SOL    HW227664   4.052   0.334   7.320
 3508SOL     OW27665   1.878   3.088   7.655
 3508SOL    HW127666   1.946   3.030   7.619
 3508SOL    HW227667   1.864   3.154   7.588
 3509SOL     OW27668   2.640   0.255   5.928
 3509SOL    HW127669   2.623   0.305   5.848
 3509SOL    HW227670   2.559   0.205   5.941
 3510SOL     OW27671   0.193   5.523   1.347
 3510SOL    HW127672   0.159   5.506   1.260
 3510SOL    HW227673   0.125   5.574   1.390
 3511SOL     OW27674   2.949   0.537   7.287
 3511SOL    HW127675   2.907   0.609   7.240
 3511SOL    HW227676   2.926   0.552   7.379
 3512SOL     OW27677   1.545   1.080   5.878
 3512SOL    HW127678   1.593   1.018   5.931
 3512SOL    HW227679   1.458   1.041   5.867
 3513SOL     OW27680   0.190   5.567   1.667
 3513SOL    HW127681   0.224   5.652   1.640
 3513SOL    HW227682   0.097   5.583   1.687
 3514SOL     OW27683   6.351   5.000   7.606
 3514SOL    HW127684   6.326   4.950   7.528
 3514SOL    HW227685   6.402   4.939   7.659
 3515SOL     OW27686   2.707   2.458   0.167
 3515SOL    HW127687   2.738   2.539   0.126
 3515SOL    HW227688   2.611   2.465   0.163
 3516SOL     OW27689   5.939   1.205   6.668
 3516SOL    HW127690   5.902   1.145   6.602
 3516SOL    HW227691   6.008   1.251   6.622
 3517SOL     OW27692   4.170   4.514   1.133
 3517SOL    HW127693   4.076   4.513   1.117
 3517SOL    HW227694   4.178   4.505   1.228
 3518SOL     OW27695   4.615   5.469   7.268
 3518SOL    HW127696   4.539   5.465   7.210
 3518SOL    HW227697   4.682   5.512   7.215
 3519SOL     OW27698   2.656   0.401   7.519
 3519SOL    HW127699   2.649   0.424   7.427
 3519SOL    HW227700   2.624   0.477   7.566
 3520SOL     OW27701   0.252   0.334   1.958
 3520SOL    HW127702   0.178   0.296   2.006
 3520SOL    HW227703   0.299   0.259   1.922
 3521SOL     OW27704   0.172   0.710   0.931
 3521SOL    HW127705   0.169   0.655   0.853
 3521SOL    HW227706   0.264   0.734   0.940
 3522SOL     OW27707   2.046   5.944   0.853
 3522SOL    HW127708   2.106   5.881   0.815
 3522SOL    HW227709   2.094   6.027   0.852
 3523SOL     OW27710   5.761   2.452   6.484
 3523SOL    HW127711   5.785   2.481   6.396
 3523SOL    HW227712   5.793   2.521   6.541
 3524SOL     OW27713   2.236   4.196   6.219
 3524SOL    HW127714   2.165   4.205   6.155
 3524SOL    HW227715   2.313   4.175   6.167
 3525SOL     OW27716   1.994   2.713   7.289
 3525SOL    HW127717   1.931   2.663   7.341
 3525SOL    HW227718   1.949   2.731   7.207
 3526SOL     OW27719   0.381   0.090   1.641
 3526SOL    HW127720   0.420   0.093   1.728
 3526SOL    HW227721   0.291   0.062   1.655
 3527SOL     OW27722   4.422   5.580   0.713
 3527SOL    HW127723   4.492   5.515   0.716
 3527SOL    HW227724   4.463   5.659   0.678
 3528SOL     OW27725   1.814   5.666   6.622
 3528SOL    HW127726   1.799   5.574   6.646
 3528SOL    HW227727   1.727   5.706   6.625
 3529SOL     OW27728   5.643   3.908   5.589
 3529SOL    HW127729   5.720   3.951   5.627
 3529SOL    HW227730   5.569   3.960   5.621
 3530SOL     OW27731   3.008   2.849   0.007
 3530SOL    HW127732   3.036   2.902  -0.067
 3530SOL    HW227733   3.070   2.870   0.077
 3531SOL     OW27734   3.832   4.157   7.499
 3531SOL    HW127735   3.796   4.177   7.413
 3531SOL    HW227736   3.761   4.109   7.543
 3532SOL     OW27737   4.064   0.442   5.921
 3532SOL    HW127738   4.013   0.420   5.843
 3532SOL    HW227739   4.014   0.512   5.963
 3533SOL     OW27740   5.970   3.873   1.804
 3533SOL    HW127741   5.953   3.867   1.898
 3533SOL    HW227742   5.943   3.788   1.769
 3534SOL     OW27743   6.420   1.491   7.335
 3534SOL    HW127744   6.482   1.542   7.283
 3534SOL    HW227745   6.411   1.409   7.288
 3535SOL     OW27746   1.807   1.769   6.085
 3535SOL    HW127747   1.874   1.795   6.021
 3535SOL    HW227748   1.846   1.696   6.132
 3536SOL     OW27749   4.383   4.594   1.783
 3536SOL    HW127750   4.458   4.537   1.799
 3536SOL    HW227751   4.408   4.677   1.824
 3537SOL     OW27752   2.756   5.974   6.887
 3537SOL    HW127753   2.709   5.902   6.931
 3537SOL    HW227754   2.848   5.952   6.895
 3538SOL     OW27755   5.477   3.089   6.942
 3538SOL    HW127756   5.402   3.035   6.918
 3538SOL    HW227757   5.442   3.151   7.006
 3539SOL     OW27758   5.612   1.148   0.152
 3539SOL    HW127759   5.601   1.205   0.228
 3539SOL    HW227760   5.706   1.139   0.141
 3540SOL     OW27761   0.867   1.882   0.878
 3540SOL    HW127762   0.798   1.818   0.863
 3540SOL    HW227763   0.821   1.966   0.884
 3541SOL     OW27764   3.112   4.024   0.439
 3541SOL    HW127765   3.161   4.049   0.517
 3541SOL    HW227766   3.179   4.015   0.371
 3542SOL     OW27767   4.880   3.855   1.076
 3542SOL    HW127768   4.847   3.772   1.041
 3542SOL    HW227769   4.956   3.830   1.129
 3543SOL     OW27770   3.152   2.408   1.498
 3543SOL    HW127771   3.209   2.373   1.429
 3543SOL    HW227772   3.210   2.462   1.551
 3544SOL     OW27773   0.214   4.912   7.031
 3544SOL    HW127774   0.194   4.837   6.975
 3544SOL    HW227775   0.287   4.956   6.988
 3545SOL     OW27776   4.839   4.527   0.479
 3545SOL    HW127777   4.802   4.462   0.538
 3545SOL    HW227778   4.805   4.504   0.392
 3546SOL     OW27779   1.783   0.787   7.020
 3546SOL    HW127780   1.822   0.822   6.939
 3546SOL    HW227781   1.701   0.746   6.991
 3547SOL     OW27782   1.072   2.985   1.710
 3547SOL    HW127783   0.988   2.954   1.744
 3547SOL    HW227784   1.108   2.910   1.663
 3548SOL     OW27785   0.815   2.135   7.688
 3548SOL    HW127786   0.725   2.105   7.678
 3548SOL    HW227787   0.830   2.193   7.614
 3549SOL     OW27788   2.058   1.652   0.026
 3549SOL    HW127789   1.993   1.613   0.084
 3549SOL    HW227790   2.124   1.689   0.084
 3550SOL     OW27791   0.925   1.825   6.075
 3550SOL    HW127792   0.835   1.858   6.082
 3550SOL    HW227793   0.916   1.743   6.025
 3551SOL     OW27794   3.539   2.745   5.679
 3551SOL    HW127795   3.451   2.756   5.714
 3551SOL    HW227796   3.561   2.653   5.697
 3552SOL     OW27797   1.181   0.542   1.789
 3552SOL    HW127798   1.187   0.609   1.721
 3552SOL    HW227799   1.261   0.489   1.778
 3553SOL     OW27800   5.411   3.543   2.443
 3553SOL    HW127801   5.361   3.596   2.505
 3553SOL    HW227802   5.381   3.573   2.357
 3554SOL     OW27803   2.788   6.368   1.333
 3554SOL    HW127804   2.743   6.452   1.322
 3554SOL    HW227805   2.752   6.332   1.414
 3555SOL     OW27806   1.531   5.085   6.318
 3555SOL    HW127807   1.549   5.046   6.233
 3555SOL    HW227808   1.563   5.175   6.311
 3556SOL     OW27809   4.843   4.762   2.674
 3556SOL    HW127810   4.916   4.779   2.614
 3556SOL    HW227811   4.840   4.839   2.730
 3557SOL     OW27812   4.650   5.554   1.385
 3557SOL    HW127813   4.628   5.474   1.431
 3557SOL    HW227814   4.569   5.606   1.385
 3558SOL     OW27815   5.361   2.127   7.161
 3558SOL    HW127816   5.370   2.162   7.073
 3558SOL    HW227817   5.270   2.096   7.165
 3559SOL     OW27818   5.792   5.073   6.224
 3559SOL    HW127819   5.826   5.135   6.159
 3559SOL    HW227820   5.860   5.006   6.231
 3560SOL     OW27821   1.075   5.961   7.273
 3560SOL    HW127822   1.098   5.875   7.239
 3560SOL    HW227823   0.984   5.953   7.302
 3561SOL     OW27824   4.859   1.912   7.088
 3561SOL    HW127825   4.910   1.993   7.097
 3561SOL    HW227826   4.878   1.882   6.999
 3562SOL     OW27827   3.045   4.758   2.390
 3562SOL    HW127828   3.028   4.676   2.343
 3562SOL    HW227829   3.139   4.773   2.377
 3563SOL     OW27830   3.619   2.806   7.331
 3563SOL    HW127831   3.598   2.895   7.357
 3563SOL    HW227832   3.713   2.799   7.343
 3564SOL     OW27833   2.692   3.342   6.238
 3564SOL    HW127834   2.735   3.261   6.211
 3564SOL    HW227835   2.685   3.394   6.158
 3565SOL     OW27836   1.962   4.780   7.664
 3565SOL    HW127837   1.979   4.686   7.663
 3565SOL    HW227838   2.011   4.813   7.739
 3566SOL     OW27839   3.966   3.841   5.426
 3566SOL    HW127840   3.933   3.889   5.351
 3566SOL    HW227841   4.030   3.780   5.389
 3567SOL     OW27842   4.295   3.997   1.342
 3567SOL    HW127843   4.309   4.039   1.257
 3567SOL    HW227844   4.234   3.925   1.324
 3568SOL     OW27845   4.775   1.285   6.313
 3568SOL    HW127846   4.704   1.229   6.283
 3568SOL    HW227847   4.788   1.348   6.243
 3569SOL     OW27848   2.950   1.134   7.758
 3569SOL    HW127849   3.032   1.176   7.732
 3569SOL    HW227850   2.890   1.151   7.685
 3570SOL     OW27851   3.923   2.134   0.674
 3570SOL    HW127852   3.961   2.047   0.686
 3570SOL    HW227853   3.861   2.124   0.602
 3571SOL     OW27854   3.377   2.974   0.806
 3571SOL    HW127855   3.449   3.027   0.772
 3571SOL    HW227856   3.404   2.951   0.895
 3572SOL     OW27857   6.391   4.285   7.794
 3572SOL    HW127858   6.416   4.240   7.713
 3572SOL    HW227859   6.319   4.233   7.829
 3573SOL     OW27860   5.070   1.650   0.100
 3573SOL    HW127861   5.084   1.657   0.195
 3573SOL    HW227862   5.021   1.568   0.089
 3574SOL     OW27863   3.629   6.077   0.457
 3574SOL    HW127864   3.574   6.100   0.532
 3574SOL    HW227865   3.643   5.983   0.466
 3575SOL     OW27866   4.520   3.436   6.772
 3575SOL    HW127867   4.536   3.516   6.723
 3575SOL    HW227868   4.536   3.366   6.709
 3576SOL     OW27869   0.697   0.986   6.578
 3576SOL    HW127870   0.630   0.917   6.583
 3576SOL    HW227871   0.709   1.014   6.668
 3577SOL     OW27872   3.592   6.138   0.726
 3577SOL    HW127873   3.508   6.152   0.771
 3577SOL    HW227874   3.657   6.145   0.796
 3578SOL     OW27875   5.837   3.312   0.316
 3578SOL    HW127876   5.748   3.320   0.350
 3578SOL    HW227877   5.856   3.398   0.278
 3579SOL     OW27878   1.199   3.252   6.866
 3579SOL    HW127879   1.258   3.185   6.902
 3579SOL    HW227880   1.212   3.246   6.771
 3580SOL     OW27881   2.732   4.869   0.088
 3580SOL    HW127882   2.795   4.900   0.153
 3580SOL    HW227883   2.686   4.948   0.059
 3581SOL     OW27884   3.453   4.510   0.724
 3581SOL    HW127885   3.539   4.480   0.754
 3581SOL    HW227886   3.442   4.596   0.763
 3582SOL     OW27887   5.882   2.094   7.703
 3582SOL    HW127888   5.915   2.033   7.637
 3582SOL    HW227889   5.954   2.101   7.767
 3583SOL     OW27890   5.213   3.631   1.669
 3583SOL    HW127891   5.198   3.723   1.648
 3583SOL    HW227892   5.227   3.630   1.764
 3584SOL     OW27893   1.819   3.236   6.919
 3584SOL    HW127894   1.870   3.287   6.857
 3584SOL    HW227895   1.747   3.200   6.867
 3585SOL     OW27896   1.540   4.048   6.322
 3585SOL    HW127897   1.542   4.142   6.343
 3585SOL    HW227898   1.490   4.009   6.393
 3586SOL     OW27899   0.497   1.830   0.956
 3586SOL    HW127900   0.440   1.807   1.030
 3586SOL    HW227901   0.586   1.824   0.992
 3587SOL     OW27902   5.571   1.457   1.474
 3587SOL    HW127903   5.581   1.549   1.498
 3587SOL    HW227904   5.512   1.458   1.398
 3588SOL     OW27905   3.681   2.517   0.910
 3588SOL    HW127906   3.622   2.519   0.835
 3588SOL    HW227907   3.659   2.595   0.961
 3589SOL     OW27908   3.642   1.049   6.597
 3589SOL    HW127909   3.556   1.010   6.614
 3589SOL    HW227910   3.623   1.135   6.560
 3590SOL     OW27911   1.356   0.778   1.243
 3590SOL    HW127912   1.279   0.786   1.298
 3590SOL    HW227913   1.395   0.866   1.243
 3591SOL     OW27914   5.246   5.281   2.004
 3591SOL    HW127915   5.226   5.190   1.982
 3591SOL    HW227916   5.161   5.319   2.026
 3592SOL     OW27917   5.065   5.091   0.087
 3592SOL    HW127918   5.094   5.100   0.178
 3592SOL    HW227919   5.052   5.180   0.056
 3593SOL     OW27920   5.541   6.404   7.160
 3593SOL    HW127921   5.549   6.314   7.127
 3593SOL    HW227922   5.461   6.438   7.120
 3594SOL     OW27923   4.444   0.225   2.269
 3594SOL    HW127924   4.400   0.257   2.191
 3594SOL    HW227925   4.459   0.303   2.322
 3595SOL     OW27926   3.299   4.921   7.383
 3595SOL    HW127927   3.267   4.914   7.473
 3595SOL    HW227928   3.237   4.870   7.332
 3596SOL     OW27929   2.031   3.864   0.167
 3596SOL    HW127930   2.098   3.866   0.236
 3596SOL    HW227931   2.063   3.927   0.102
 3597SOL     OW27932   2.466   5.195   1.508
 3597SOL    HW127933   2.424   5.145   1.438
 3597SOL    HW227934   2.554   5.159   1.514
 3598SOL     OW27935   2.014   6.271   5.964
 3598SOL    HW127936   2.074   6.200   5.940
 3598SOL    HW227937   2.064   6.351   5.949
 3599SOL     OW27938   0.516   6.078   5.514
 3599SOL    HW127939   0.599   6.104   5.474
 3599SOL    HW227940   0.456   6.149   5.492
 3600SOL     OW27941   5.416   0.331   6.028
 3600SOL    HW127942   5.468   0.365   5.955
 3600SOL    HW227943   5.347   0.279   5.986
 3601SOL     OW27944   4.710   2.280   1.571
 3601SOL    HW127945   4.661   2.237   1.501
 3601SOL    HW227946   4.763   2.210   1.610
 3602SOL     OW27947   5.009   0.408   7.211
 3602SOL    HW127948   5.039   0.409   7.302
 3602SOL    HW227949   4.977   0.497   7.195
 3603SOL     OW27950   3.253   5.557   1.461
 3603SOL    HW127951   3.335   5.564   1.414
 3603SOL    HW227952   3.278   5.554   1.553
 3604SOL     OW27953   4.593   1.240   0.500
 3604SOL    HW127954   4.572   1.151   0.472
 3604SOL    HW227955   4.510   1.287   0.496
 3605SOL     OW27956   2.742   1.449   0.170
 3605SOL    HW127957   2.650   1.428   0.188
 3605SOL    HW227958   2.790   1.402   0.239
 3606SOL     OW27959   5.418   5.393   1.371
 3606SOL    HW127960   5.323   5.392   1.356
 3606SOL    HW227961   5.445   5.302   1.358
 3607SOL     OW27962   2.089   5.915   7.278
 3607SOL    HW127963   2.068   5.902   7.185
 3607SOL    HW227964   2.008   5.895   7.324
 3608SOL     OW27965   1.510   5.457   7.452
 3608SOL    HW127966   1.471   5.458   7.365
 3608SOL    HW227967   1.602   5.477   7.437
 3609SOL     OW27968   2.765   4.847   7.233
 3609SOL    HW127969   2.674   4.877   7.226
 3609SOL    HW227970   2.793   4.876   7.320
 3610SOL     OW27971   2.532   5.991   7.724
 3610SOL    HW127972   2.527   5.969   7.817
 3610SOL    HW227973   2.560   6.083   7.722
 3611SOL     OW27974   1.234   5.226   6.991
 3611SOL    HW127975   1.220   5.199   6.901
 3611SOL    HW227976   1.267   5.315   6.985
 3612SOL     OW27977   6.174   2.578   0.857
 3612SOL    HW127978   6.226   2.523   0.798
 3612SOL    HW227979   6.226   2.584   0.937
 3613SOL     OW27980   1.614   2.773   7.027
 3613SOL    HW127981   1.549   2.736   7.088
 3613SOL    HW227982   1.618   2.866   7.050
 3614SOL     OW27983   5.068   2.997   6.092
 3614SOL    HW127984   5.155   3.008   6.053
 3614SOL    HW227985   5.008   2.990   6.018
 3615SOL     OW27986   6.122   6.316   1.115
 3615SOL    HW127987   6.142   6.281   1.028
 3615SOL    HW227988   6.112   6.410   1.102
 3616SOL     OW27989   1.280   1.825   1.091
 3616SOL    HW127990   1.358   1.779   1.122
 3616SOL    HW227991   1.237   1.763   1.032
 3617SOL     OW27992   3.430   0.117   6.796
 3617SOL    HW127993   3.432   0.181   6.867
 3617SOL    HW227994   3.359   0.147   6.739
 3618SOL     OW27995   1.923   0.289   1.647
 3618SOL    HW127996   1.996   0.351   1.634
 3618SOL    HW227997   1.863   0.335   1.706
 3619SOL     OW27998   6.390   0.820   0.823
 3619SOL    HW127999   6.330   0.845   0.893
 3619SOL    HW228000   6.471   0.795   0.869
 3620SOL     OW28001   6.341   2.781   0.162
 3620SOL    HW128002   6.317   2.690   0.179
 3620SOL    HW228003   6.380   2.811   0.244
 3621SOL     OW28004   2.549   5.569   1.407
 3621SOL    HW128005   2.624   5.511   1.391
 3621SOL    HW228006   2.476   5.526   1.362
 3622SOL     OW28007   1.271   3.013   6.161
 3622SOL    HW128008   1.179   2.990   6.178
 3622SOL    HW228009   1.270   3.109   6.153
 3623SOL     OW28010   3.739   0.357   1.473
 3623SOL    HW128011   3.797   0.386   1.544
 3623SOL    HW228012   3.701   0.275   1.506
 3624SOL     OW28013   5.443   0.048   6.104
 3624SOL    HW128014   5.359   0.031   6.062
 3624SOL    HW228015   5.487   0.109   6.044
 3625SOL     OW28016   1.644   6.002   5.839
 3625SOL    HW128017   1.569   5.953   5.804
 3625SOL    HW228018   1.668   6.063   5.769
 3626SOL     OW28019   1.758   4.441   6.492
 3626SOL    HW128020   1.737   4.521   6.445
 3626SOL    HW228021   1.832   4.404   6.444
 3627SOL     OW28022   2.745   2.348   7.330
 3627SOL    HW128023   2.744   2.442   7.350
 3627SOL    HW228024   2.816   2.313   7.384
 3628SOL     OW28025   3.467   5.427   7.756
 3628SOL    HW128026   3.518   5.346   7.755
 3628SOL    HW228027   3.458   5.448   7.849
 3629SOL     OW28028   0.247   1.701   7.636
 3629SOL    HW128029   0.253   1.661   7.722
 3629SOL    HW228030   0.157   1.684   7.608
 3630SOL     OW28031   0.015   1.166   0.379
 3630SOL    HW128032  -0.015   1.223   0.450
 3630SOL    HW228033   0.061   1.095   0.422
 3631SOL     OW28034   3.758   4.421   6.733
 3631SOL    HW128035   3.675   4.389   6.767
 3631SOL    HW228036   3.823   4.391   6.797
 3632SOL     OW28037   3.324   4.400   1.239
 3632SOL    HW128038   3.302   4.482   1.283
 3632SOL    HW228039   3.302   4.332   1.302
 3633SOL     OW28040   5.126   1.755   7.182
 3633SOL    HW128041   5.069   1.683   7.153
 3633SOL    HW228042   5.120   1.820   7.113
 3634SOL     OW28043   0.214   5.495   7.829
 3634SOL    HW128044   0.275   5.452   7.770
 3634SOL    HW228045   0.243   5.471   7.916
 3635SOL     OW28046   2.410   3.819   6.254
 3635SOL    HW128047   2.417   3.833   6.160
 3635SOL    HW228048   2.390   3.726   6.264
 3636SOL     OW28049   6.405   3.560   0.470
 3636SOL    HW128050   6.464   3.581   0.398
 3636SOL    HW228051   6.325   3.529   0.428
 3637SOL     OW28052   2.393   5.011   0.752
 3637SOL    HW128053   2.454   4.983   0.821
 3637SOL    HW228054   2.436   5.086   0.710
 3638SOL     OW28055   3.156   0.725   7.112
 3638SOL    HW128056   3.131   0.666   7.041
 3638SOL    HW228057   3.087   0.716   7.177
 3639SOL     OW28058   6.281   1.764   1.843
 3639SOL    HW128059   6.327   1.826   1.899
 3639SOL    HW228060   6.189   1.792   1.848
 3640SOL     OW28061   6.173   6.114   0.243
 3640SOL    HW128062   6.185   6.104   0.148
 3640SOL    HW228063   6.247   6.067   0.282
 3641SOL     OW28064   4.900   0.307   0.157
 3641SOL    HW128065   4.905   0.378   0.093
 3641SOL    HW228066   4.807   0.302   0.179
 3642SOL     OW28067   2.751   2.268   2.296
 3642SOL    HW128068   2.692   2.255   2.371
 3642SOL    HW228069   2.716   2.345   2.251
 3643SOL     OW28070   0.283   4.497   0.542
 3643SOL    HW128071   0.251   4.407   0.550
 3643SOL    HW228072   0.288   4.512   0.448
 3644SOL     OW28073   3.911   5.494   0.996
 3644SOL    HW128074   3.899   5.400   0.981
 3644SOL    HW228075   3.822   5.529   1.003
 3645SOL     OW28076   1.904   0.200   1.389
 3645SOL    HW128077   1.924   0.107   1.387
 3645SOL    HW228078   1.894   0.220   1.482
 3646SOL     OW28079   1.559   5.844   0.990
 3646SOL    HW128080   1.477   5.796   0.984
 3646SOL    HW228081   1.587   5.856   0.899
 3647SOL     OW28082   3.643   4.980   7.756
 3647SOL    HW128083   3.720   4.942   7.713
 3647SOL    HW228084   3.650   5.074   7.739
 3648SOL     OW28085   4.425   1.540   1.161
 3648SOL    HW128086   4.423   1.471   1.227
 3648SOL    HW228087   4.517   1.569   1.160
 3649SOL     OW28088   2.319   4.112   1.898
 3649SOL    HW128089   2.362   4.164   1.967
 3649SOL    HW228090   2.289   4.033   1.943
 3650SOL     OW28091   4.433   5.107   7.357
 3650SOL    HW128092   4.412   5.016   7.335
 3650SOL    HW228093   4.513   5.126   7.309
 3651SOL     OW28094   6.259   3.381   6.707
 3651SOL    HW128095   6.355   3.388   6.709
 3651SOL    HW228096   6.228   3.461   6.750
 3652SOL     OW28097   2.041   0.240   6.478
 3652SOL    HW128098   2.123   0.253   6.524
 3652SOL    HW228099   2.064   0.245   6.385
 3653SOL     OW28100   6.279   0.184   0.480
 3653SOL    HW128101   6.212   0.177   0.548
 3653SOL    HW228102   6.334   0.107   0.493
 3654SOL     OW28103   4.590   0.634   2.229
 3654SOL    HW128104   4.663   0.695   2.228
 3654SOL    HW228105   4.519   0.681   2.185
 3655SOL     OW28106   2.408   4.283   6.406
 3655SOL    HW128107   2.350   4.259   6.333
 3655SOL    HW228108   2.362   4.250   6.484
 3656SOL     OW28109   3.661   0.364   0.770
 3656SOL    HW128110   3.629   0.285   0.729
 3656SOL    HW228111   3.754   0.347   0.787
 3657SOL     OW28112   3.557   0.603   0.680
 3657SOL    HW128113   3.486   0.618   0.742
 3657SOL    HW228114   3.607   0.531   0.718
 3658SOL     OW28115   5.479   3.942   0.018
 3658SOL    HW128116   5.397   3.892   0.018
 3658SOL    HW228117   5.454   4.027  -0.018
 3659SOL     OW28118   0.740   4.914   2.145
 3659SOL    HW128119   0.801   4.860   2.195
 3659SOL    HW228120   0.789   4.942   2.068
 3660SOL     OW28121   6.285   2.435   1.601
 3660SOL    HW128122   6.200   2.401   1.630
 3660SOL    HW228123   6.350   2.376   1.639
 3661SOL     OW28124   4.840   4.723   7.642
 3661SOL    HW128125   4.885   4.780   7.705
 3661SOL    HW228126   4.896   4.646   7.636
 3662SOL     OW28127   6.185   0.226   1.389
 3662SOL    HW128128   6.165   0.132   1.387
 3662SOL    HW228129   6.211   0.243   1.479
 3663SOL     OW28130   4.221   3.183   6.832
 3663SOL    HW128131   4.231   3.260   6.887
 3663SOL    HW228132   4.147   3.136   6.870
 3664SOL     OW28133   4.123   1.781   0.805
 3664SOL    HW128134   4.085   1.694   0.821
 3664SOL    HW228135   4.177   1.798   0.882
 3665SOL     OW28136   2.561   1.558   6.358
 3665SOL    HW128137   2.489   1.495   6.365
 3665SOL    HW228138   2.546   1.619   6.431
 3666SOL     OW28139   5.450   1.980   0.701
 3666SOL    HW128140   5.425   1.888   0.713
 3666SOL    HW228141   5.394   2.011   0.630
 3667SOL     OW28142   1.302   2.002   1.909
 3667SOL    HW128143   1.283   1.912   1.934
 3667SOL    HW228144   1.216   2.044   1.903
 3668SOL     OW28145   0.013   5.414   7.558
 3668SOL    HW128146   0.085   5.409   7.495
 3668SOL    HW228147  -0.060   5.372   7.514
 3669SOL     OW28148   4.629   3.349   1.464
 3669SOL    HW128149   4.619   3.260   1.432
 3669SOL    HW228150   4.545   3.370   1.504
 3670SOL     OW28151   2.923   1.892   2.301
 3670SOL    HW128152   2.993   1.853   2.352
 3670SOL    HW228153   2.929   1.986   2.319
 3671SOL     OW28154   3.704   3.259   6.927
 3671SOL    HW128155   3.641   3.320   6.964
 3671SOL    HW228156   3.685   3.175   6.970
 3672SOL     OW28157   3.201   4.861   7.634
 3672SOL    HW128158   3.288   4.870   7.673
 3672SOL    HW228159   3.189   4.767   7.623
 3673SOL     OW28160   6.401   4.763   1.066
 3673SOL    HW128161   6.378   4.855   1.050
 3673SOL    HW228162   6.465   4.742   0.998
 3674SOL     OW28163   2.317   1.056   0.355
 3674SOL    HW128164   2.396   1.018   0.318
 3674SOL    HW228165   2.345   1.141   0.390
 3675SOL     OW28166   3.069   1.390   5.979
 3675SOL    HW128167   3.117   1.313   5.947
 3675SOL    HW228168   3.008   1.411   5.909
 3676SOL     OW28169   4.879   4.812   5.952
 3676SOL    HW128170   4.957   4.796   5.900
 3676SOL    HW228171   4.850   4.899   5.927
 3677SOL     OW28172   3.157   1.016   7.585
 3677SOL    HW128173   3.173   1.096   7.635
 3677SOL    HW228174   3.207   0.949   7.631
 3678SOL     OW28175   3.283   0.571   6.173
 3678SOL    HW128176   3.247   0.616   6.250
 3678SOL    HW228177   3.235   0.489   6.168
 3679SOL     OW28178   3.997   6.026   0.718
 3679SOL    HW128179   3.916   5.974   0.719
 3679SOL    HW228180   3.997   6.069   0.803
 3680SOL     OW28181   0.902   2.227   5.929
 3680SOL    HW128182   0.845   2.256   6.000
 3680SOL    HW228183   0.896   2.296   5.863
 3681SOL     OW28184   0.657   5.455   0.193
 3681SOL    HW128185   0.628   5.528   0.248
 3681SOL    HW228186   0.750   5.447   0.211
 3682SOL     OW28187   1.610   1.691   5.843
 3682SOL    HW128188   1.694   1.650   5.824
 3682SOL    HW228189   1.545   1.624   5.823
 3683SOL     OW28190   3.497   4.502   6.159
 3683SOL    HW128191   3.442   4.475   6.086
 3683SOL    HW228192   3.457   4.582   6.192
 3684SOL     OW28193   6.306   2.095   1.563
 3684SOL    HW128194   6.378   2.088   1.625
 3684SOL    HW228195   6.343   2.141   1.488
 3685SOL     OW28196   4.921   4.889   7.832
 3685SOL    HW128197   4.965   4.825   7.887
 3685SOL    HW228198   4.948   4.974   7.868
 3686SOL     OW28199   0.962   3.020   6.526
 3686SOL    HW128200   0.951   2.998   6.434
 3686SOL    HW228201   1.011   2.947   6.563
 3687SOL     OW28202   5.337   0.283   6.745
 3687SOL    HW128203   5.312   0.364   6.701
 3687SOL    HW228204   5.349   0.308   6.836
 3688SOL     OW28205   4.305   3.955   0.568
 3688SOL    HW128206   4.230   3.981   0.622
 3688SOL    HW228207   4.292   4.003   0.486
 3689SOL     OW28208   4.665   3.205   5.996
 3689SOL    HW128209   4.666   3.113   5.968
 3689SOL    HW228210   4.754   3.236   5.978
 3690SOL     OW28211   2.670   5.975   6.167
 3690SOL    HW128212   2.758   6.002   6.142
 3690SOL    HW228213   2.616   6.052   6.151
 3691SOL     OW28214   2.629   4.446   6.377
 3691SOL    HW128215   2.643   4.455   6.283
 3691SOL    HW228216   2.564   4.376   6.385
 3692SOL     OW28217   5.002   5.680   0.151
 3692SOL    HW128218   5.071   5.742   0.175
 3692SOL    HW228219   4.925   5.711   0.197
 3693SOL     OW28220   5.189   0.952   7.258
 3693SOL    HW128221   5.250   0.886   7.290
 3693SOL    HW228222   5.215   0.967   7.167
 3694SOL     OW28223   3.077   3.106   7.635
 3694SOL    HW128224   3.096   3.173   7.570
 3694SOL    HW228225   3.052   3.155   7.713
 3695SOL     OW28226   6.072   5.199   0.667
 3695SOL    HW128227   6.047   5.126   0.611
 3695SOL    HW228228   5.994   5.255   0.670
 3696SOL     OW28229   0.361   5.983   0.969
 3696SOL    HW128230   0.454   5.967   0.955
 3696SOL    HW228231   0.317   5.927   0.905
 3697SOL     OW28232   0.237   1.291   7.775
 3697SOL    HW128233   0.315   1.276   7.721
 3697SOL    HW228234   0.248   1.233   7.850
 3698SOL     OW28235   2.578   2.832   7.458
 3698SOL    HW128236   2.514   2.867   7.396
 3698SOL    HW228237   2.525   2.790   7.526
 3699SOL     OW28238   4.247   2.754   1.188
 3699SOL    HW128239   4.158   2.730   1.163
 3699SOL    HW228240   4.241   2.781   1.279
 3700SOL     OW28241   1.401   1.023   7.303
 3700SOL    HW128242   1.440   0.945   7.264
 3700SOL    HW228243   1.458   1.044   7.377
 3701SOL     OW28244   2.825   4.673   1.155
 3701SOL    HW128245   2.780   4.590   1.141
 3701SOL    HW228246   2.917   4.649   1.163
 3702SOL     OW28247   2.355   0.177   0.639
 3702SOL    HW128248   2.390   0.109   0.580
 3702SOL    HW228249   2.384   0.150   0.726
 3703SOL     OW28250   3.461   1.338   5.961
 3703SOL    HW128251   3.486   1.424   5.995
 3703SOL    HW228252   3.476   1.344   5.867
 3704SOL     OW28253   4.843   5.014   0.834
 3704SOL    HW128254   4.832   5.062   0.916
 3704SOL    HW228255   4.923   4.962   0.848
 3705SOL     OW28256   3.979   1.145   6.053
 3705SOL    HW128257   4.010   1.071   6.000
 3705SOL    HW228258   4.012   1.223   6.008
 3706SOL     OW28259   3.236   3.769   6.246
 3706SOL    HW128260   3.209   3.699   6.187
 3706SOL    HW228261   3.201   3.743   6.332
 3707SOL     OW28262   1.125   0.448   1.472
 3707SOL    HW128263   1.033   0.445   1.501
 3707SOL    HW228264   1.164   0.519   1.522
 3708SOL     OW28265   1.283   3.997   7.719
 3708SOL    HW128266   1.226   4.025   7.791
 3708SOL    HW228267   1.358   4.055   7.723
 3709SOL     OW28268   0.983   5.271   6.664
 3709SOL    HW128269   0.966   5.234   6.750
 3709SOL    HW228270   0.897   5.293   6.629
 3710SOL     OW28271   0.373   6.082   0.122
 3710SOL    HW128272   0.331   6.157   0.079
 3710SOL    HW228273   0.301   6.030   0.155
 3711SOL     OW28274   4.399   2.208   7.265
 3711SOL    HW128275   4.472   2.266   7.241
 3711SOL    HW228276   4.325   2.241   7.214
 3712SOL     OW28277   5.421   2.260   6.918
 3712SOL    HW128278   5.440   2.234   6.828
 3712SOL    HW228279   5.346   2.319   6.912
 3713SOL     OW28280   6.071   5.073   7.147
 3713SOL    HW128281   6.061   4.979   7.139
 3713SOL    HW228282   6.111   5.101   7.065
 3714SOL     OW28283   0.490   2.527   0.644
 3714SOL    HW128284   0.585   2.517   0.643
 3714SOL    HW228285   0.457   2.440   0.622
 3715SOL     OW28286   4.115   0.642   0.054
 3715SOL    HW128287   4.172   0.632  -0.023
 3715SOL    HW228288   4.028   0.654   0.018
 3716SOL     OW28289   1.549   1.626   0.719
 3716SOL    HW128290   1.488   1.700   0.712
 3716SOL    HW228291   1.621   1.649   0.660
 3717SOL     OW28292   2.331   4.249   0.579
 3717SOL    HW128293   2.349   4.296   0.660
 3717SOL    HW228294   2.240   4.221   0.587
 3718SOL     OW28295   6.381   3.896   7.710
 3718SOL    HW128296   6.357   3.806   7.687
 3718SOL    HW228297   6.430   3.887   7.792
 3719SOL     OW28298   3.725   1.621   0.254
 3719SOL    HW128299   3.652   1.682   0.241
 3719SOL    HW228300   3.778   1.661   0.324
 3720SOL     OW28301   0.854   0.414   1.597
 3720SOL    HW128302   0.814   0.463   1.526
 3720SOL    HW228303   0.780   0.389   1.653
 3721SOL     OW28304   3.649   4.841   1.514
 3721SOL    HW128305   3.657   4.876   1.603
 3721SOL    HW228306   3.733   4.797   1.498
 3722SOL     OW28307   0.160   2.058   0.066
 3722SOL    HW128308   0.085   2.001   0.051
 3722SOL    HW228309   0.129   2.145   0.043
 3723SOL     OW28310   5.945   2.143   5.854
 3723SOL    HW128311   5.995   2.061   5.853
 3723SOL    HW228312   5.909   2.150   5.766
 3724SOL     OW28313   1.940   5.095   0.944
 3724SOL    HW128314   1.882   5.052   0.881
 3724SOL    HW228315   2.022   5.109   0.897
 3725SOL     OW28316   1.374   3.981   6.511
 3725SOL    HW128317   1.302   3.945   6.460
 3725SOL    HW228318   1.359   3.949   6.600
 3726SOL     OW28319   5.955   0.652   6.200
 3726SOL    HW128320   5.884   0.618   6.145
 3726SOL    HW228321   6.035   0.613   6.163
 3727SOL     OW28322   3.041   1.537   6.996
 3727SOL    HW128323   3.060   1.571   6.909
 3727SOL    HW228324   3.034   1.614   7.051
 3728SOL     OW28325   1.011   2.274   7.140
 3728SOL    HW128326   1.009   2.325   7.059
 3728SOL    HW228327   1.048   2.333   7.205
 3729SOL     OW28328   6.029   3.013   5.711
 3729SOL    HW128329   6.068   3.100   5.703
 3729SOL    HW228330   6.075   2.960   5.646
 3730SOL     OW28331   3.295   4.505   6.489
 3730SOL    HW128332   3.329   4.477   6.574
 3730SOL    HW228333   3.218   4.558   6.510
 3731SOL     OW28334   1.137   1.831   0.538
 3731SOL    HW128335   1.183   1.762   0.490
 3731SOL    HW228336   1.127   1.902   0.474
 3732SOL     OW28337   0.059   2.719   6.406
 3732SOL    HW128338   0.115   2.726   6.329
 3732SOL    HW228339   0.100   2.651   6.459
 3733SOL     OW28340   0.521   1.298   6.043
 3733SOL    HW128341   0.505   1.253   5.960
 3733SOL    HW228342   0.546   1.387   6.018
 3734SOL     OW28343   6.430   4.113   7.164
 3734SOL    HW128344   6.434   4.051   7.091
 3734SOL    HW228345   6.390   4.063   7.235
 3735SOL     OW28346   4.807   1.492   6.909
 3735SOL    HW128347   4.759   1.515   6.830
 3735SOL    HW228348   4.740   1.478   6.975
 3736SOL     OW28349   4.188   2.795   7.551
 3736SOL    HW128350   4.180   2.707   7.514
 3736SOL    HW228351   4.212   2.781   7.642
 3737SOL     OW28352   1.025   0.169   7.207
 3737SOL    HW128353   0.987   0.187   7.293
 3737SOL    HW228354   0.955   0.125   7.158
 3738SOL     OW28355   2.764   4.346   1.504
 3738SOL    HW128356   2.848   4.322   1.463
 3738SOL    HW228357   2.705   4.361   1.431
 3739SOL     OW28358   4.117   1.406   1.337
 3739SOL    HW128359   4.109   1.498   1.362
 3739SOL    HW228360   4.211   1.394   1.319
 3740SOL     OW28361   3.202   2.885   0.195
 3740SOL    HW128362   3.289   2.903   0.158
 3740SOL    HW228363   3.220   2.848   0.281
 3741SOL     OW28364   6.321   5.982   1.035
 3741SOL    HW128365   6.375   6.059   1.053
 3741SOL    HW228366   6.282   5.959   1.119
 3742SOL     OW28367   5.845   5.145   7.272
 3742SOL    HW128368   5.920   5.128   7.214
 3742SOL    HW228369   5.852   5.237   7.294
 3743SOL     OW28370   3.480   1.676   5.785
 3743SOL    HW128371   3.391   1.645   5.803
 3743SOL    HW228372   3.529   1.653   5.864
 3744SOL     OW28373   0.987   3.406   6.727
 3744SOL    HW128374   1.052   3.368   6.786
 3744SOL    HW228375   1.038   3.440   6.654
 3745SOL     OW28376   1.988   5.345   2.107
 3745SOL    HW128377   2.011   5.432   2.139
 3745SOL    HW228378   1.893   5.339   2.117
 3746SOL     OW28379   3.109   1.181   6.246
 3746SOL    HW128380   3.014   1.188   6.237
 3746SOL    HW228381   3.128   1.212   6.334
 3747SOL     OW28382   5.290   3.411   5.940
 3747SOL    HW128383   5.355   3.470   5.902
 3747SOL    HW228384   5.228   3.394   5.869
 3748SOL     OW28385   3.793   3.301   7.427
 3748SOL    HW128386   3.800   3.392   7.456
 3748SOL    HW228387   3.722   3.301   7.364
 3749SOL     OW28388   2.938   2.408   5.761
 3749SOL    HW128389   3.023   2.367   5.781
 3749SOL    HW228390   2.959   2.500   5.745
 3750SOL     OW28391   5.693   5.438   1.434
 3750SOL    HW128392   5.603   5.457   1.461
 3750SOL    HW228393   5.747   5.469   1.507
 3751SOL     OW28394   2.313   1.983   6.397
 3751SOL    HW128395   2.342   1.969   6.307
 3751SOL    HW228396   2.395   1.994   6.446
 3752SOL     OW28397   4.434   1.679   6.904
 3752SOL    HW128398   4.439   1.734   6.826
 3752SOL    HW228399   4.415   1.591   6.871
 3753SOL     OW28400   1.386   0.494   6.990
 3753SOL    HW128401   1.333   0.419   7.018
 3753SOL    HW228402   1.333   0.537   6.923
 3754SOL     OW28403   3.477   0.861   1.828
 3754SOL    HW128404   3.507   0.799   1.761
 3754SOL    HW228405   3.547   0.926   1.833
 3755SOL     OW28406   5.937   1.642   1.813
 3755SOL    HW128407   5.981   1.726   1.823
 3755SOL    HW228408   5.952   1.617   1.722
 3756SOL     OW28409   4.166   3.600   6.147
 3756SOL    HW128410   4.115   3.589   6.227
 3756SOL    HW228411   4.101   3.595   6.076
 3757SOL     OW28412   0.773   0.315   0.839
 3757SOL    HW128413   0.813   0.327   0.925
 3757SOL    HW228414   0.690   0.362   0.843
 3758SOL     OW28415   2.827   4.639   7.431
 3758SOL    HW128416   2.776   4.699   7.376
 3758SOL    HW228417   2.875   4.585   7.368
 3759SOL     OW28418   3.605   3.815   6.255
 3759SOL    HW128419   3.558   3.731   6.255
 3759SOL    HW228420   3.689   3.795   6.215
 3760SOL     OW28421   4.904   5.201   5.293
 3760SOL    HW128422   4.907   5.141   5.367
 3760SOL    HW228423   4.995   5.230   5.281
 3761SOL     OW28424   1.578   3.633   0.919
 3761SOL    HW128425   1.584   3.540   0.941
 3761SOL    HW228426   1.661   3.652   0.875
 3762SOL     OW28427   0.139   0.606   7.676
 3762SOL    HW128428   0.065   0.548   7.660
 3762SOL    HW228429   0.216   0.554   7.652
 3763SOL     OW28430   0.862   6.084   2.161
 3763SOL    HW128431   0.939   6.128   2.125
 3763SOL    HW228432   0.810   6.059   2.084
 3764SOL     OW28433   0.510   5.207   6.581
 3764SOL    HW128434   0.585   5.265   6.568
 3764SOL    HW228435   0.453   5.256   6.641
 3765SOL     OW28436   5.849   3.232   0.572
 3765SOL    HW128437   5.851   3.137   0.582
 3765SOL    HW228438   5.892   3.250   0.489
 3766SOL     OW28439   5.784   5.622   1.254
 3766SOL    HW128440   5.789   5.689   1.322
 3766SOL    HW228441   5.772   5.540   1.302
 3767SOL     OW28442   6.198   0.339   5.927
 3767SOL    HW128443   6.260   0.339   5.853
 3767SOL    HW228444   6.195   0.247   5.955
 3768SOL     OW28445   4.583   0.309   1.425
 3768SOL    HW128446   4.670   0.283   1.394
 3768SOL    HW228447   4.583   0.286   1.518
 3769SOL     OW28448   1.989   5.450   2.466
 3769SOL    HW128449   2.039   5.520   2.426
 3769SOL    HW228450   1.898   5.469   2.442
 3770SOL     OW28451   3.719   4.347   1.886
 3770SOL    HW128452   3.625   4.351   1.904
 3770SOL    HW228453   3.755   4.299   1.960
 3771SOL     OW28454   1.007   0.123   6.725
 3771SOL    HW128455   0.958   0.163   6.654
 3771SOL    HW228456   0.943   0.069   6.771
 3772SOL     OW28457   2.214   5.889   0.220
 3772SOL    HW128458   2.271   5.815   0.242
 3772SOL    HW228459   2.241   5.959   0.280
 3773SOL     OW28460   5.049   3.326   6.158
 3773SOL    HW128461   5.130   3.293   6.197
 3773SOL    HW228462   5.045   3.418   6.184
 3774SOL     OW28463   0.497   5.763   0.024
 3774SOL    HW128464   0.405   5.768  -0.001
 3774SOL    HW228465   0.533   5.849   0.002
 3775SOL     OW28466   4.192   3.894   7.151
 3775SOL    HW128467   4.191   3.842   7.070
 3775SOL    HW228468   4.186   3.985   7.122
 3776SOL     OW28469   5.331   1.713   0.652
 3776SOL    HW128470   5.294   1.644   0.706
 3776SOL    HW228471   5.346   1.672   0.567
 3777SOL     OW28472   5.990   5.895   6.829
 3777SOL    HW128473   6.030   5.842   6.760
 3777SOL    HW228474   5.999   5.985   6.798
 3778SOL     OW28475   2.594   1.937   7.253
 3778SOL    HW128476   2.556   2.023   7.239
 3778SOL    HW228477   2.544   1.900   7.326
 3779SOL     OW28478   0.531   2.847   1.288
 3779SOL    HW128479   0.478   2.807   1.219
 3779SOL    HW228480   0.498   2.808   1.369
 3780SOL     OW28481   4.861   3.287   0.983
 3780SOL    HW128482   4.835   3.267   0.893
 3780SOL    HW228483   4.779   3.295   1.031
 3781SOL     OW28484   3.017   1.409   5.696
 3781SOL    HW128485   3.088   1.459   5.654
 3781SOL    HW228486   3.034   1.318   5.671
 3782SOL     OW28487   2.002   2.205   7.775
 3782SOL    HW128488   2.067   2.227   7.842
 3782SOL    HW228489   1.963   2.289   7.751
 3783SOL     OW28490   6.144   2.745   5.265
 3783SOL    HW128491   6.147   2.788   5.179
 3783SOL    HW228492   6.234   2.718   5.282
 3784SOL     OW28493   4.217   4.259   7.229
 3784SOL    HW128494   4.254   4.261   7.141
 3784SOL    HW228495   4.245   4.341   7.269
 3785SOL     OW28496   4.378   4.814   7.667
 3785SOL    HW128497   4.456   4.811   7.723
 3785SOL    HW228498   4.305   4.821   7.728
 3786SOL     OW28499   5.411   5.615   7.695
 3786SOL    HW128500   5.421   5.520   7.683
 3786SOL    HW228501   5.405   5.650   7.607
 3787SOL     OW28502   5.110   2.266   1.672
 3787SOL    HW128503   5.041   2.241   1.734
 3787SOL    HW228504   5.083   2.353   1.641
 3788SOL     OW28505   4.513   1.740   2.444
 3788SOL    HW128506   4.473   1.677   2.385
 3788SOL    HW228507   4.559   1.687   2.509
 3789SOL     OW28508   1.769   1.851   0.141
 3789SOL    HW128509   1.709   1.829   0.212
 3789SOL    HW228510   1.767   1.775   0.083
 3790SOL     OW28511   1.955   5.566   0.889
 3790SOL    HW128512   1.951   5.480   0.849
 3790SOL    HW228513   1.977   5.625   0.817
 3791SOL     OW28514   0.392   1.692   1.234
 3791SOL    HW128515   0.299   1.711   1.248
 3791SOL    HW228516   0.430   1.694   1.322
 3792SOL     OW28517   1.645   4.290   0.353
 3792SOL    HW128518   1.657   4.384   0.341
 3792SOL    HW228519   1.601   4.261   0.274
 3793SOL     OW28520   0.397   6.179   6.359
 3793SOL    HW128521   0.363   6.259   6.397
 3793SOL    HW228522   0.491   6.180   6.379
 3794SOL     OW28523   1.559   1.708   0.275
 3794SOL    HW128524   1.546   1.624   0.317
 3794SOL    HW228525   1.484   1.718   0.217
 3795SOL     OW28526   3.623   2.540   0.527
 3795SOL    HW128527   3.688   2.473   0.504
 3795SOL    HW228528   3.542   2.509   0.487
 3796SOL     OW28529   5.869   5.418   0.608
 3796SOL    HW128530   5.818   5.490   0.644
 3796SOL    HW228531   5.849   5.418   0.514
 3797SOL     OW28532   0.694   4.518   0.890
 3797SOL    HW128533   0.724   4.537   0.801
 3797SOL    HW228534   0.655   4.431   0.884
 3798SOL     OW28535   3.476   0.777   0.940
 3798SOL    HW128536   3.498   0.785   1.033
 3798SOL    HW228537   3.535   0.839   0.896
 3799SOL     OW28538   3.865   3.783   7.146
 3799SOL    HW128539   3.885   3.851   7.082
 3799SOL    HW228540   3.856   3.703   7.095
 3800SOL     OW28541   0.409   0.168   6.225
 3800SOL    HW128542   0.399   0.240   6.163
 3800SOL    HW228543   0.429   0.211   6.308
 3801SOL     OW28544   1.594   0.820   5.689
 3801SOL    HW128545   1.524   0.886   5.694
 3801SOL    HW228546   1.585   0.770   5.770
 3802SOL     OW28547   4.820   5.789   2.047
 3802SOL    HW128548   4.889   5.726   2.068
 3802SOL    HW228549   4.751   5.771   2.111
 3803SOL     OW28550   2.567   0.423   1.110
 3803SOL    HW128551   2.535   0.393   1.025
 3803SOL    HW228552   2.556   0.347   1.168
 3804SOL     OW28553   0.992   3.620   1.779
 3804SOL    HW128554   0.990   3.566   1.700
 3804SOL    HW228555   1.069   3.590   1.827
 3805SOL     OW28556   1.868   0.568   2.046
 3805SOL    HW128557   1.914   0.484   2.055
 3805SOL    HW228558   1.821   0.578   2.129
 3806SOL     OW28559   3.501   5.782   7.791
 3806SOL    HW128560   3.568   5.791   7.860
 3806SOL    HW228561   3.546   5.807   7.711
 3807SOL     OW28562   1.734   0.609   5.572
 3807SOL    HW128563   1.684   0.675   5.620
 3807SOL    HW228564   1.714   0.526   5.617
 3808SOL     OW28565   5.637   5.960   0.849
 3808SOL    HW128566   5.569   5.998   0.905
 3808SOL    HW228567   5.708   6.024   0.850
 3809SOL     OW28568   2.205   6.103   1.939
 3809SOL    HW128569   2.297   6.117   1.963
 3809SOL    HW228570   2.157   6.165   1.994
 3810SOL     OW28571   5.962   5.337   5.994
 3810SOL    HW128572   5.953   5.431   5.984
 3810SOL    HW228573   5.882   5.301   5.955
 3811SOL     OW28574   0.340   5.852   6.126
 3811SOL    HW128575   0.380   5.880   6.208
 3811SOL    HW228576   0.397   5.782   6.094
 3812SOL     OW28577   5.147   1.930   0.691
 3812SOL    HW128578   5.216   1.864   0.688
 3812SOL    HW228579   5.072   1.888   0.649
 3813SOL     OW28580   0.567   5.612   6.818
 3813SOL    HW128581   0.567   5.633   6.725
 3813SOL    HW228582   0.656   5.632   6.847
 3814SOL     OW28583   2.388   4.114   7.716
 3814SOL    HW128584   2.416   4.193   7.670
 3814SOL    HW228585   2.434   4.118   7.800
 3815SOL     OW28586   4.354   5.715   1.668
 3815SOL    HW128587   4.330   5.625   1.645
 3815SOL    HW228588   4.318   5.728   1.756
 3816SOL     OW28589   4.241   4.703   0.926
 3816SOL    HW128590   4.210   4.626   0.973
 3816SOL    HW228591   4.318   4.732   0.975
 3817SOL     OW28592   4.639   3.432   0.694
 3817SOL    HW128593   4.652   3.525   0.710
 3817SOL    HW228594   4.601   3.398   0.776
 3818SOL     OW28595   0.762   3.424   6.943
 3818SOL    HW128596   0.834   3.443   6.883
 3818SOL    HW228597   0.799   3.362   7.007
 3819SOL     OW28598   2.697   1.192   6.427
 3819SOL    HW128599   2.604   1.167   6.431
 3819SOL    HW228600   2.744   1.114   6.456
 3820SOL     OW28601   4.342   5.748   7.074
 3820SOL    HW128602   4.284   5.756   6.999
 3820SOL    HW228603   4.358   5.838   7.102
 3821SOL     OW28604   4.666   4.860   1.249
 3821SOL    HW128605   4.721   4.938   1.252
 3821SOL    HW228606   4.630   4.854   1.337
 3822SOL     OW28607   4.272   1.041   0.583
 3822SOL    HW128608   4.274   1.056   0.489
 3822SOL    HW228609   4.309   1.121   0.621
 3823SOL     OW28610   2.153   0.006   6.246
 3823SOL    HW128611   2.180   0.005   6.154
 3823SOL    HW228612   2.085  -0.062   6.251
 3824SOL     OW28613   3.513   1.247   0.993
 3824SOL    HW128614   3.608   1.249   1.005
 3824SOL    HW228615   3.484   1.336   1.013
 3825SOL     OW28616   2.547   6.106   7.418
 3825SOL    HW128617   2.614   6.082   7.355
 3825SOL    HW228618   2.464   6.083   7.376
 3826SOL     OW28619   2.842   4.960   6.975
 3826SOL    HW128620   2.749   4.964   6.953
 3826SOL    HW228621   2.844   4.919   7.061
 3827SOL     OW28622   5.162   3.340   7.777
 3827SOL    HW128623   5.102   3.395   7.826
 3827SOL    HW228624   5.128   3.341   7.687
 3828SOL     OW28625   3.762   2.993   1.653
 3828SOL    HW128626   3.812   2.968   1.731
 3828SOL    HW228627   3.741   3.085   1.666
 3829SOL     OW28628   3.819   3.180   0.869
 3829SOL    HW128629   3.765   3.200   0.945
 3829SOL    HW228630   3.868   3.102   0.895
 3830SOL     OW28631   6.081   4.808   1.833
 3830SOL    HW128632   6.143   4.758   1.886
 3830SOL    HW228633   6.070   4.756   1.754
 3831SOL     OW28634   3.679   3.410   0.726
 3831SOL    HW128635   3.628   3.415   0.807
 3831SOL    HW228636   3.747   3.345   0.744
 3832SOL     OW28637   2.232   6.353   1.065
 3832SOL    HW128638   2.167   6.343   1.135
 3832SOL    HW228639   2.295   6.417   1.100
 3833SOL     OW28640   3.671   4.497   1.602
 3833SOL    HW128641   3.667   4.517   1.696
 3833SOL    HW228642   3.580   4.485   1.577
 3834SOL     OW28643   1.739   2.124   0.381
 3834SOL    HW128644   1.814   2.064   0.378
 3834SOL    HW228645   1.714   2.136   0.290
 3835SOL     OW28646   1.963   0.964   0.970
 3835SOL    HW128647   2.034   1.019   1.001
 3835SOL    HW228648   1.996   0.927   0.888
 3836SOL     OW28649   2.575   5.688   1.153
 3836SOL    HW128650   2.594   5.778   1.180
 3836SOL    HW228651   2.578   5.637   1.234
 3837SOL     OW28652   2.466   2.851   7.708
 3837SOL    HW128653   2.383   2.893   7.728
 3837SOL    HW228654   2.532   2.919   7.724
 3838SOL     OW28655   3.338   2.260   6.824
 3838SOL    HW128656   3.293   2.340   6.850
 3838SOL    HW228657   3.277   2.190   6.845
 3839SOL     OW28658   1.836   3.607   1.143
 3839SOL    HW128659   1.777   3.683   1.137
 3839SOL    HW228660   1.876   3.614   1.230
 3840SOL     OW28661   2.219   0.772   7.203
 3840SOL    HW128662   2.184   0.703   7.258
 3840SOL    HW228663   2.167   0.769   7.123
 3841SOL     OW28664   0.633   4.619   7.103
 3841SOL    HW128665   0.642   4.711   7.077
 3841SOL    HW228666   0.651   4.619   7.197
 3842SOL     OW28667   0.481   5.108   7.322
 3842SOL    HW128668   0.391   5.076   7.335
 3842SOL    HW228669   0.535   5.046   7.370
 3843SOL     OW28670   5.288   1.906   7.560
 3843SOL    HW128671   5.307   1.880   7.650
 3843SOL    HW228672   5.193   1.917   7.557
 3844SOL     OW28673   0.024   4.539   6.693
 3844SOL    HW128674   0.112   4.511   6.668
 3844SOL    HW228675  -0.023   4.458   6.713
 3845SOL     OW28676   4.790   0.073   6.844
 3845SOL    HW128677   4.789  -0.022   6.856
 3845SOL    HW228678   4.701   0.101   6.864
 3846SOL     OW28679   5.706   5.646   7.630
 3846SOL    HW128680   5.703   5.739   7.605
 3846SOL    HW228681   5.679   5.599   7.552
 3847SOL     OW28682   3.573   0.145   0.653
 3847SOL    HW128683   3.570   0.146   0.558
 3847SOL    HW228684   3.519   0.070   0.679
 3848SOL     OW28685   5.279   2.601   5.694
 3848SOL    HW128686   5.244   2.667   5.754
 3848SOL    HW228687   5.232   2.521   5.717
 3849SOL     OW28688   5.952   0.282   0.785
 3849SOL    HW128689   5.872   0.326   0.812
 3849SOL    HW228690   5.924   0.194   0.760
 3850SOL     OW28691   5.663   2.081   5.439
 3850SOL    HW128692   5.599   2.152   5.434
 3850SOL    HW228693   5.610   2.003   5.460
 3851SOL     OW28694   0.097   1.442   6.442
 3851SOL    HW128695   0.107   1.385   6.519
 3851SOL    HW228696   0.042   1.514   6.473
 3852SOL     OW28697   3.001   5.630   0.100
 3852SOL    HW128698   3.048   5.550   0.074
 3852SOL    HW228699   3.050   5.701   0.058
 3853SOL     OW28700   1.486   3.874   0.064
 3853SOL    HW128701   1.543   3.917   0.129
 3853SOL    HW228702   1.424   3.942   0.038
 3854SOL     OW28703   4.462   5.261   7.594
 3854SOL    HW128704   4.390   5.252   7.656
 3854SOL    HW228705   4.440   5.203   7.522
 3855SOL     OW28706   1.610   1.575   6.202
 3855SOL    HW128707   1.682   1.636   6.187
 3855SOL    HW228708   1.618   1.552   6.295
 3856SOL     OW28709   6.172   5.994   6.377
 3856SOL    HW128710   6.111   6.039   6.436
 3856SOL    HW228711   6.233   5.949   6.436
 3857SOL     OW28712   5.998   3.526   0.526
 3857SOL    HW128713   5.998   3.544   0.432
 3857SOL    HW228714   6.090   3.516   0.549
 3858SOL     OW28715   3.970   5.760   1.491
 3858SOL    HW128716   4.023   5.817   1.434
 3858SOL    HW228717   3.941   5.690   1.433
 3859SOL     OW28718   3.707   5.790   0.470
 3859SOL    HW128719   3.651   5.713   0.467
 3859SOL    HW228720   3.785   5.762   0.518
 3860SOL     OW28721   2.890   0.303   1.924
 3860SOL    HW128722   2.801   0.332   1.947
 3860SOL    HW228723   2.929   0.379   1.880
 3861SOL     OW28724   3.762   6.088   5.464
 3861SOL    HW128725   3.746   6.181   5.449
 3861SOL    HW228726   3.687   6.044   5.424
 3862SOL     OW28727   0.880   2.631   7.180
 3862SOL    HW128728   0.824   2.605   7.107
 3862SOL    HW228729   0.893   2.550   7.230
 3863SOL     OW28730   4.351   2.872   0.509
 3863SOL    HW128731   4.314   2.940   0.565
 3863SOL    HW228732   4.411   2.918   0.451
 3864SOL     OW28733   1.837   1.529   1.230
 3864SOL    HW128734   1.796   1.585   1.296
 3864SOL    HW228735   1.772   1.522   1.160
 3865SOL     OW28736   5.671   3.931   6.098
 3865SOL    HW128737   5.672   3.948   6.193
 3865SOL    HW228738   5.605   3.992   6.064
 3866SOL     OW28739   3.701   3.243   1.707
 3866SOL    HW128740   3.765   3.314   1.697
 3866SOL    HW228741   3.628   3.284   1.755
 3867SOL     OW28742   2.145   2.880   0.931
 3867SOL    HW128743   2.097   2.830   0.997
 3867SOL    HW228744   2.191   2.947   0.981
 3868SOL     OW28745   4.712   6.089   6.092
 3868SOL    HW128746   4.706   6.181   6.067
 3868SOL    HW228747   4.803   6.076   6.117
 3869SOL     OW28748   5.874   5.792   0.226
 3869SOL    HW128749   5.939   5.727   0.202
 3869SOL    HW228750   5.914   5.840   0.299
 3870SOL     OW28751   6.071   0.826   0.308
 3870SOL    HW128752   6.117   0.906   0.335
 3870SOL    HW228753   6.138   0.775   0.263
 3871SOL     OW28754   2.789   1.085   7.397
 3871SOL    HW128755   2.718   1.149   7.402
 3871SOL    HW228756   2.864   1.136   7.367
 3872SOL     OW28757   3.636   2.725   1.126
 3872SOL    HW128758   3.727   2.711   1.153
 3872SOL    HW228759   3.585   2.716   1.207
 3873SOL     OW28760   2.041   6.268   7.298
 3873SOL    HW128761   2.028   6.360   7.277
 3873SOL    HW228762   1.968   6.223   7.255
 3874SOL     OW28763   4.179   5.034   6.839
 3874SOL    HW128764   4.165   5.012   6.931
 3874SOL    HW228765   4.189   4.949   6.796
 3875SOL     OW28766   2.575   2.764   1.322
 3875SOL    HW128767   2.649   2.759   1.383
 3875SOL    HW228768   2.616   2.786   1.238
 3876SOL     OW28769   0.554   2.757   6.791
 3876SOL    HW128770   0.588   2.788   6.707
 3876SOL    HW228771   0.460   2.774   6.787
 3877SOL     OW28772   5.679   2.615   0.963
 3877SOL    HW128773   5.633   2.690   0.999
 3877SOL    HW228774   5.716   2.647   0.880
 3878SOL     OW28775   4.166   1.357   6.384
 3878SOL    HW128776   4.204   1.445   6.389
 3878SOL    HW228777   4.078   1.371   6.350
 3879SOL     OW28778   0.293   3.550   0.301
 3879SOL    HW128779   0.215   3.531   0.250
 3879SOL    HW228780   0.366   3.521   0.247
 3880SOL     OW28781   0.463   0.724   0.910
 3880SOL    HW128782   0.511   0.797   0.870
 3880SOL    HW228783   0.503   0.714   0.996
 3881SOL     OW28784   2.517   2.056   2.456
 3881SOL    HW128785   2.425   2.032   2.463
 3881SOL    HW228786   2.519   2.148   2.483
 3882SOL     OW28787   2.774   1.579   7.179
 3882SOL    HW128788   2.863   1.612   7.175
 3882SOL    HW228789   2.744   1.576   7.088
 3883SOL     OW28790   2.128   1.384   7.719
 3883SOL    HW128791   2.122   1.466   7.767
 3883SOL    HW228792   2.170   1.407   7.636
 3884SOL     OW28793   3.908   2.334   0.040
 3884SOL    HW128794   4.000   2.333   0.016
 3884SOL    HW228795   3.900   2.409   0.100
 3885SOL     OW28796   0.577   5.635   0.660
 3885SOL    HW128797   0.483   5.653   0.662
 3885SOL    HW228798   0.598   5.628   0.567
 3886SOL     OW28799   5.862   1.673   6.712
 3886SOL    HW128800   5.822   1.627   6.638
 3886SOL    HW228801   5.829   1.628   6.789
 3887SOL     OW28802   2.582   4.134   0.772
 3887SOL    HW128803   2.505   4.079   0.754
 3887SOL    HW228804   2.587   4.138   0.868
 3888SOL     OW28805   1.051   5.608   1.355
 3888SOL    HW128806   1.084   5.621   1.444
 3888SOL    HW228807   1.000   5.527   1.360
 3889SOL     OW28808   5.390   0.717   1.060
 3889SOL    HW128809   5.458   0.746   0.999
 3889SOL    HW228810   5.431   0.647   1.110
 3890SOL     OW28811   3.881   2.592   0.164
 3890SOL    HW128812   3.794   2.602   0.125
 3890SOL    HW228813   3.934   2.658   0.119
 3891SOL     OW28814   0.162   0.772   1.201
 3891SOL    HW128815   0.134   0.746   1.113
 3891SOL    HW228816   0.218   0.848   1.186
 3892SOL     OW28817   1.353   2.767   0.836
 3892SOL    HW128818   1.393   2.688   0.801
 3892SOL    HW228819   1.367   2.761   0.930
 3893SOL     OW28820   1.178   3.424   7.147
 3893SOL    HW128821   1.234   3.421   7.069
 3893SOL    HW228822   1.116   3.495   7.129
 3894SOL     OW28823   0.643   6.376   7.736
 3894SOL    HW128824   0.612   6.343   7.820
 3894SOL    HW228825   0.734   6.401   7.752
 3895SOL     OW28826   5.252   4.349   5.796
 3895SOL    HW128827   5.245   4.297   5.716
 3895SOL    HW228828   5.186   4.418   5.785
 3896SOL     OW28829   3.130   3.485   2.072
 3896SOL    HW128830   3.076   3.414   2.038
 3896SOL    HW228831   3.199   3.495   2.007
 3897SOL     OW28832   0.168   4.725   6.845
 3897SOL    HW128833   0.116   4.655   6.805
 3897SOL    HW228834   0.253   4.719   6.801
 3898SOL     OW28835   0.845   0.854   7.442
 3898SOL    HW128836   0.860   0.882   7.352
 3898SOL    HW228837   0.890   0.919   7.495
 3899SOL     OW28838   0.900   0.261   0.225
 3899SOL    HW128839   0.905   0.208   0.146
 3899SOL    HW228840   0.856   0.205   0.289
 3900SOL     OW28841   2.784   0.715   0.795
 3900SOL    HW128842   2.876   0.741   0.793
 3900SOL    HW228843   2.736   0.798   0.800
 3901SOL     OW28844   6.376   2.470   5.848
 3901SOL    HW128845   6.411   2.382   5.835
 3901SOL    HW228846   6.282   2.462   5.832
 3902SOL     OW28847   3.130   3.720   0.583
 3902SOL    HW128848   3.081   3.719   0.500
 3902SOL    HW228849   3.160   3.811   0.591
 3903SOL     OW28850   4.742   5.570   0.381
 3903SOL    HW128851   4.745   5.645   0.321
 3903SOL    HW228852   4.667   5.518   0.351
 3904SOL     OW28853   2.625   3.496   6.026
 3904SOL    HW128854   2.545   3.448   6.005
 3904SOL    HW228855   2.669   3.508   5.942
 3905SOL     OW28856   5.996   1.356   0.836
 3905SOL    HW128857   6.011   1.377   0.928
 3905SOL    HW228858   6.057   1.410   0.787
 3906SOL     OW28859   0.088   1.754   0.253
 3906SOL    HW128860   0.130   1.818   0.310
 3906SOL    HW228861   0.088   1.794   0.166
 3907SOL     OW28862   6.331   5.901   6.823
 3907SOL    HW128863   6.405   5.951   6.854
 3907SOL    HW228864   6.289   5.868   6.902
 3908SOL     OW28865   6.325   4.888   0.455
 3908SOL    HW128866   6.318   4.850   0.543
 3908SOL    HW228867   6.279   4.827   0.399
 3909SOL     OW28868   1.227   2.087   0.818
 3909SOL    HW128869   1.287   2.159   0.795
 3909SOL    HW228870   1.272   2.008   0.790
 3910SOL     OW28871   4.039   2.794   0.022
 3910SOL    HW128872   4.127   2.788  -0.013
 3910SOL    HW228873   4.048   2.843   0.104
 3911SOL     OW28874   0.513   1.692   1.514
 3911SOL    HW128875   0.462   1.611   1.516
 3911SOL    HW228876   0.587   1.675   1.573
 3912SOL     OW28877   2.879   0.351   6.639
 3912SOL    HW128878   2.835   0.269   6.660
 3912SOL    HW228879   2.810   0.416   6.641
 3913SOL     OW28880   5.613   4.045   1.576
 3913SOL    HW128881   5.696   3.998   1.571
 3913SOL    HW228882   5.553   3.984   1.619
 3914SOL     OW28883   3.867   3.665   7.824
 3914SOL    HW128884   3.843   3.743   7.774
 3914SOL    HW228885   3.954   3.643   7.792
 3915SOL     OW28886   2.042   2.032   0.856
 3915SOL    HW128887   2.020   2.118   0.822
 3915SOL    HW228888   2.044   1.976   0.778
 3916SOL     OW28889   2.186   4.640   1.427
 3916SOL    HW128890   2.126   4.589   1.481
 3916SOL    HW228891   2.130   4.708   1.388
 3917SOL     OW28892   6.248   5.238   7.464
 3917SOL    HW128893   6.227   5.222   7.372
 3917SOL    HW228894   6.222   5.158   7.508
 3918SOL     OW28895   6.030   2.719   0.155
 3918SOL    HW128896   6.020   2.797   0.101
 3918SOL    HW228897   6.036   2.647   0.092
 3919SOL     OW28898   3.655   5.034   1.157
 3919SOL    HW128899   3.748   5.050   1.138
 3919SOL    HW228900   3.615   5.121   1.153
 3920SOL     OW28901   0.741   0.303   6.826
 3920SOL    HW128902   0.646   0.300   6.816
 3920SOL    HW228903   0.775   0.274   6.741
 3921SOL     OW28904   0.424   4.362   7.621
 3921SOL    HW128905   0.429   4.428   7.689
 3921SOL    HW228906   0.377   4.289   7.661
 3922SOL     OW28907   3.119   4.908   0.719
 3922SOL    HW128908   3.086   4.989   0.679
 3922SOL    HW228909   3.214   4.918   0.717
 3923SOL     OW28910   3.844   2.905   5.406
 3923SOL    HW128911   3.777   2.838   5.421
 3923SOL    HW228912   3.926   2.857   5.404
 3924SOL     OW28913   5.367   5.030   6.603
 3924SOL    HW128914   5.413   5.073   6.531
 3924SOL    HW228915   5.274   5.036   6.580
 3925SOL     OW28916   1.983   4.973   0.343
 3925SOL    HW128917   1.957   5.054   0.387
 3925SOL    HW228918   1.913   4.957   0.279
 3926SOL     OW28919   2.985   3.434   1.712
 3926SOL    HW128920   3.000   3.377   1.787
 3926SOL    HW228921   3.072   3.465   1.687
 3927SOL     OW28922   3.458   0.464   1.004
 3927SOL    HW128923   3.468   0.395   0.938
 3927SOL    HW228924   3.417   0.536   0.957
 3928SOL     OW28925   0.324   3.422   7.201
 3928SOL    HW128926   0.294   3.357   7.137
 3928SOL    HW228927   0.395   3.468   7.156
 3929SOL     OW28928   1.740   3.997   7.831
 3929SOL    HW128929   1.644   4.006   7.831
 3929SOL    HW228930   1.756   3.909   7.863
 3930SOL     OW28931   1.691   0.012   5.886
 3930SOL    HW128932   1.754  -0.014   5.819
 3930SOL    HW228933   1.638   0.079   5.844
 3931SOL     OW28934   0.351   2.120   6.322
 3931SOL    HW128935   0.268   2.109   6.275
 3931SOL    HW228936   0.408   2.165   6.259
 3932SOL     OW28937   6.096   4.673   1.138
 3932SOL    HW128938   6.036   4.626   1.080
 3932SOL    HW228939   6.179   4.674   1.090
 3933SOL     OW28940   0.780   0.587   1.393
 3933SOL    HW128941   0.837   0.661   1.373
 3933SOL    HW228942   0.728   0.575   1.313
 3934SOL     OW28943   1.060   1.647   5.206
 3934SOL    HW128944   0.993   1.623   5.270
 3934SOL    HW228945   1.035   1.734   5.177
 3935SOL     OW28946   5.147   4.415   6.673
 3935SOL    HW128947   5.113   4.499   6.705
 3935SOL    HW228948   5.174   4.432   6.583
 3936SOL     OW28949   1.502   0.180   6.924
 3936SOL    HW128950   1.407   0.179   6.911
 3936SOL    HW228951   1.538   0.150   6.841
 3937SOL     OW28952   0.912   2.655   0.403
 3937SOL    HW128953   0.904   2.744   0.371
 3937SOL    HW228954   0.956   2.607   0.333
 3938SOL     OW28955   0.172   2.018   0.850
 3938SOL    HW128956   0.138   1.946   0.903
 3938SOL    HW228957   0.137   2.002   0.762
 3939SOL     OW28958   1.300   3.668   6.683
 3939SOL    HW128959   1.259   3.671   6.597
 3939SOL    HW228960   1.383   3.623   6.669
 3940SOL     OW28961   6.299   3.190   6.158
 3940SOL    HW128962   6.344   3.224   6.081
 3940SOL    HW228963   6.351   3.114   6.185
 3941SOL     OW28964   2.125   5.164   6.527
 3941SOL    HW128965   2.193   5.099   6.546
 3941SOL    HW228966   2.085   5.133   6.446
 3942SOL     OW28967   0.887   3.989   5.918
 3942SOL    HW128968   0.958   3.995   5.854
 3942SOL    HW228969   0.930   4.005   6.002
 3943SOL     OW28970   1.696   1.378   0.259
 3943SOL    HW128971   1.676   1.366   0.166
 3943SOL    HW228972   1.620   1.426   0.294
 3944SOL     OW28973   1.874   2.778   7.052
 3944SOL    HW128974   1.783   2.756   7.034
 3944SOL    HW228975   1.922   2.746   6.976
 3945SOL     OW28976   0.866   2.294   6.438
 3945SOL    HW128977   0.941   2.354   6.446
 3945SOL    HW228978   0.901   2.209   6.466
 3946SOL     OW28979   3.505   2.063   7.165
 3946SOL    HW128980   3.490   2.066   7.260
 3946SOL    HW228981   3.589   2.106   7.153
 3947SOL     OW28982   1.246   2.920   7.659
 3947SOL    HW128983   1.263   2.937   7.752
 3947SOL    HW228984   1.278   2.831   7.645
 3948SOL     OW28985   2.519   2.235   0.029
 3948SOL    HW128986   2.527   2.265  -0.061
 3948SOL    HW228987   2.539   2.142   0.026
 3949SOL     OW28988   2.942   1.721   0.116
 3949SOL    HW128989   2.976   1.808   0.138
 3949SOL    HW228990   2.875   1.738   0.050
 3950SOL     OW28991   2.058   5.853   7.629
 3950SOL    HW128992   2.125   5.890   7.571
 3950SOL    HW228993   1.983   5.911   7.619
 3951SOL     OW28994   6.328   1.768   5.640
 3951SOL    HW128995   6.397   1.755   5.575
 3951SOL    HW228996   6.247   1.748   5.592
 3952SOL     OW28997   3.666   5.717   0.158
 3952SOL    HW128998   3.669   5.756   0.245
 3952SOL    HW228999   3.755   5.727   0.124
 3953SOL     OW29000   4.291   6.324   0.967
 3953SOL    HW129001   4.197   6.313   0.952
 3953SOL    HW229002   4.331   6.302   0.883
 3954SOL     OW29003   5.786   1.496   7.775
 3954SOL    HW129004   5.844   1.436   7.823
 3954SOL    HW229005   5.842   1.571   7.754
 3955SOL     OW29006   1.089   1.293   5.090
 3955SOL    HW129007   1.002   1.331   5.076
 3955SOL    HW229008   1.124   1.339   5.167
 3956SOL     OW29009   4.857   2.116   6.471
 3956SOL    HW129010   4.799   2.188   6.449
 3956SOL    HW229011   4.933   2.159   6.513
 3957SOL     OW29012   2.387   3.432   2.379
 3957SOL    HW129013   2.359   3.421   2.287
 3957SOL    HW229014   2.413   3.344   2.407
 3958SOL     OW29015   5.622   0.883   0.483
 3958SOL    HW129016   5.671   0.938   0.545
 3958SOL    HW229017   5.683   0.868   0.411
 3959SOL     OW29018   6.305   1.865   1.143
 3959SOL    HW129019   6.318   1.946   1.094
 3959SOL    HW229020   6.244   1.814   1.089
 3960SOL     OW29021   5.577   1.047   7.551
 3960SOL    HW129022   5.544   1.021   7.637
 3960SOL    HW229023   5.660   1.001   7.542
 3961SOL     OW29024   3.033   4.485   5.968
 3961SOL    HW129025   3.033   4.581   5.968
 3961SOL    HW229026   2.950   4.461   5.927
 3962SOL     OW29027   1.134   0.148   6.176
 3962SOL    HW129028   1.053   0.148   6.126
 3962SOL    HW229029   1.116   0.091   6.251
 3963SOL     OW29030   3.518   0.075   0.068
 3963SOL    HW129031   3.555   0.143   0.125
 3963SOL    HW229032   3.441   0.117   0.028
 3964SOL     OW29033   2.048   0.939   7.333
 3964SOL    HW129034   2.113   0.887   7.286
 3964SOL    HW229035   2.091   0.966   7.414
 3965SOL     OW29036   0.176   3.179   7.121
 3965SOL    HW129037   0.126   3.221   7.052
 3965SOL    HW229038   0.126   3.100   7.144
 3966SOL     OW29039   2.738   5.990   0.468
 3966SOL    HW129040   2.663   6.008   0.411
 3966SOL    HW229041   2.785   5.919   0.423
 3967SOL     OW29042   4.182   2.343   7.623
 3967SOL    HW129043   4.268   2.385   7.630
 3967SOL    HW229044   4.179   2.282   7.697
 3968SOL     OW29045   3.625   5.221   7.030
 3968SOL    HW129046   3.707   5.178   7.052
 3968SOL    HW229047   3.564   5.192   7.097
 3969SOL     OW29048   3.144   2.310   6.005
 3969SOL    HW129049   3.181   2.315   5.917
 3969SOL    HW229050   3.110   2.398   6.022
 3970SOL     OW29051   1.730   1.033   4.933
 3970SOL    HW129052   1.681   1.020   4.851
 3970SOL    HW229053   1.791   0.960   4.936
 3971SOL     OW29054   4.834   4.615   1.022
 3971SOL    HW129055   4.819   4.688   1.083
 3971SOL    HW229056   4.824   4.655   0.935
 3972SOL     OW29057   4.589   1.327   7.250
 3972SOL    HW129058   4.566   1.415   7.221
 3972SOL    HW229059   4.636   1.289   7.175
 3973SOL     OW29060   3.113   3.978   6.702
 3973SOL    HW129061   3.027   4.015   6.681
 3973SOL    HW229062   3.172   4.018   6.638
 3974SOL     OW29063   1.447   3.331   6.759
 3974SOL    HW129064   1.426   3.373   6.843
 3974SOL    HW229065   1.507   3.392   6.717
 3975SOL     OW29066   5.089   4.635   0.945
 3975SOL    HW129067   5.007   4.636   0.994
 3975SOL    HW229068   5.138   4.562   0.983
 3976SOL     OW29069   3.476   2.100   7.429
 3976SOL    HW129070   3.524   2.177   7.461
 3976SOL    HW229071   3.447   2.055   7.508
 3977SOL     OW29072   0.142   2.114   1.160
 3977SOL    HW129073   0.200   2.132   1.087
 3977SOL    HW229074   0.187   2.045   1.210
 3978SOL     OW29075   3.604   2.258   0.946
 3978SOL    HW129076   3.524   2.267   0.896
 3978SOL    HW229077   3.631   2.348   0.965
 3979SOL     OW29078   1.585   0.092   0.587
 3979SOL    HW129079   1.572   0.156   0.517
 3979SOL    HW229080   1.500   0.087   0.630
 3980SOL     OW29081   2.084   0.801   1.515
 3980SOL    HW129082   2.148   0.742   1.555
 3980SOL    HW229083   2.061   0.862   1.585
 3981SOL     OW29084   4.436   0.627   5.754
 3981SOL    HW129085   4.528   0.641   5.730
 3981SOL    HW229086   4.391   0.707   5.726
 3982SOL     OW29087   6.172   5.630   5.756
 3982SOL    HW129088   6.149   5.569   5.686
 3982SOL    HW229089   6.266   5.643   5.747
 3983SOL     OW29090   1.227   1.047   5.033
 3983SOL    HW129091   1.175   1.121   5.066
 3983SOL    HW229092   1.290   1.030   5.103
 3984SOL     OW29093   5.689   3.457   6.944
 3984SOL    HW129094   5.721   3.476   6.855
 3984SOL    HW229095   5.603   3.500   6.948
 3985SOL     OW29096   6.164   1.672   7.830
 3985SOL    HW129097   6.140   1.691   7.739
 3985SOL    HW229098   6.133   1.583   7.845
 3986SOL     OW29099   3.411   1.451   7.497
 3986SOL    HW129100   3.447   1.539   7.507
 3986SOL    HW229101   3.347   1.459   7.426
 3987SOL     OW29102   0.306   3.586   1.494
 3987SOL    HW129103   0.376   3.548   1.440
 3987SOL    HW229104   0.352   3.622   1.570
 3988SOL     OW29105   4.463   5.924   6.641
 3988SOL    HW129106   4.437   6.015   6.653
 3988SOL    HW229107   4.389   5.883   6.598
 3989SOL     OW29108   4.937   5.371   0.290
 3989SOL    HW129109   5.020   5.382   0.334
 3989SOL    HW229110   4.879   5.436   0.330
 3990SOL     OW29111   0.416   5.859   1.421
 3990SOL    HW129112   0.354   5.844   1.492
 3990SOL    HW229113   0.494   5.810   1.446
 3991SOL     OW29114   5.227   2.069   6.427
 3991SOL    HW129115   5.177   2.009   6.370
 3991SOL    HW229116   5.237   2.148   6.375
 3992SOL     OW29117   0.569   1.925   0.731
 3992SOL    HW129118   0.628   1.995   0.759
 3992SOL    HW229119   0.549   1.878   0.811
 3993SOL     OW29120   6.229   4.634   7.029
 3993SOL    HW129121   6.176   4.613   6.952
 3993SOL    HW229122   6.278   4.554   7.048
 3994SOL     OW29123   0.601   0.963   0.802
 3994SOL    HW129124   0.687   0.926   0.824
 3994SOL    HW229125   0.575   1.012   0.880
 3995SOL     OW29126   6.043   5.924   6.132
 3995SOL    HW129127   6.069   5.990   6.196
 3995SOL    HW229128   6.125   5.881   6.107
 3996SOL     OW29129   1.559   0.663   5.900
 3996SOL    HW129130   1.472   0.685   5.931
 3996SOL    HW229131   1.619   0.703   5.964
 3997SOL     OW29132   1.163   5.964   6.711
 3997SOL    HW129133   1.100   5.921   6.653
 3997SOL    HW229134   1.247   5.953   6.665
 3998SOL     OW29135   6.425   4.730   7.175
 3998SOL    HW129136   6.345   4.717   7.124
 3998SOL    HW229137   6.471   4.801   7.130
 3999SOL     OW29138   1.558   1.263   1.835
 3999SOL    HW129139   1.566   1.170   1.817
 3999SOL    HW229140   1.492   1.269   1.904
 4000SOL     OW29141   3.692   5.193   6.576
 4000SOL    HW129142   3.623   5.151   6.627
 4000SOL    HW229143   3.752   5.122   6.554
 4001SOL     OW29144   1.073   6.076   7.839
 4001SOL    HW129145   1.164   6.094   7.864
 4001SOL    HW229146   1.076   5.990   7.797
 4002SOL     OW29147   4.554   0.157   6.911
 4002SOL    HW129148   4.532   0.098   6.984
 4002SOL    HW229149   4.489   0.226   6.915
 4003SOL     OW29150   0.258   0.151   0.377
 4003SOL    HW129151   0.332   0.209   0.363
 4003SOL    HW229152   0.294   0.078   0.427
 4004SOL     OW29153   5.245   0.350   0.836
 4004SOL    HW129154   5.216   0.333   0.926
 4004SOL    HW229155   5.167   0.381   0.791
 4005SOL     OW29156   6.300   0.089   0.212
 4005SOL    HW129157   6.213   0.052   0.225
 4005SOL    HW229158   6.331   0.109   0.301
 4006SOL     OW29159   2.453   4.822   0.356
 4006SOL    HW129160   2.409   4.833   0.440
 4006SOL    HW229161   2.546   4.816   0.377
 4007SOL     OW29162   5.951   2.758   0.796
 4007SOL    HW129163   6.023   2.701   0.824
 4007SOL    HW229164   5.890   2.699   0.752
 4008SOL     OW29165   1.077   6.021   0.567
 4008SOL    HW129166   1.075   5.932   0.603
 4008SOL    HW229167   1.095   6.076   0.643
 4009SOL     OW29168   0.514   3.099   2.146
 4009SOL    HW129169   0.482   3.188   2.157
 4009SOL    HW229170   0.566   3.082   2.225
 4010SOL     OW29171   2.573   3.696   7.231
 4010SOL    HW129172   2.481   3.719   7.220
 4010SOL    HW229173   2.599   3.660   7.146
 4011SOL     OW29174   3.036   0.059   7.609
 4011SOL    HW129175   3.059   0.152   7.610
 4011SOL    HW229176   3.106   0.016   7.658
 4012SOL     OW29177   5.301   2.990   6.798
 4012SOL    HW129178   5.243   3.058   6.763
 4012SOL    HW229179   5.249   2.910   6.793
 4013SOL     OW29180   4.139   5.518   0.736
 4013SOL    HW129181   4.229   5.551   0.745
 4013SOL    HW229182   4.092   5.557   0.809
 4014SOL     OW29183   1.240   2.920   0.086
 4014SOL    HW129184   1.190   2.994   0.121
 4014SOL    HW229185   1.328   2.932   0.121
 4015SOL     OW29186   0.457   3.172   7.047
 4015SOL    HW129187   0.364   3.183   7.065
 4015SOL    HW229188   0.498   3.173   7.133
 4016SOL     OW29189   0.354   6.281   6.772
 4016SOL    HW129190   0.272   6.233   6.757
 4016SOL    HW229191   0.365   6.335   6.693
 4017SOL     OW29192   2.021   3.251   1.190
 4017SOL    HW129193   2.039   3.276   1.100
 4017SOL    HW229194   1.936   3.292   1.210
 4018SOL     OW29195   1.074   2.852   6.706
 4018SOL    HW129196   1.134   2.923   6.730
 4018SOL    HW229197   1.033   2.827   6.788
 4019SOL     OW29198   0.453   1.068   1.632
 4019SOL    HW129199   0.406   0.995   1.592
 4019SOL    HW229200   0.402   1.089   1.710
 4020SOL     OW29201   4.606   6.067   6.938
 4020SOL    HW129202   4.515   6.089   6.957
 4020SOL    HW229203   4.601   6.006   6.864
 4021SOL     OW29204   0.882   5.410   7.515
 4021SOL    HW129205   0.955   5.379   7.568
 4021SOL    HW229206   0.923   5.454   7.441
 4022SOL     OW29207   2.504   3.055   6.229
 4022SOL    HW129208   2.504   2.959   6.235
 4022SOL    HW229209   2.596   3.078   6.218
 4023SOL     OW29210   1.338   6.242   6.453
 4023SOL    HW129211   1.326   6.157   6.495
 4023SOL    HW229212   1.431   6.260   6.460
 4024SOL     OW29213   4.458   0.647   0.241
 4024SOL    HW129214   4.504   0.686   0.167
 4024SOL    HW229215   4.366   0.649   0.217
 4025SOL     OW29216   3.402   3.649   6.649
 4025SOL    HW129217   3.462   3.595   6.598
 4025SOL    HW229218   3.324   3.656   6.595
 4026SOL     OW29219   5.969   3.822   0.282
 4026SOL    HW129220   5.969   3.727   0.266
 4026SOL    HW229221   5.895   3.836   0.341
 4027SOL     OW29222   3.754   0.220   5.542
 4027SOL    HW129223   3.726   0.183   5.626
 4027SOL    HW229224   3.674   0.228   5.491
 4028SOL     OW29225   4.244   0.361   0.908
 4028SOL    HW129226   4.321   0.414   0.926
 4028SOL    HW229227   4.273   0.298   0.841
 4029SOL     OW29228   0.809   3.029   7.624
 4029SOL    HW129229   0.826   2.949   7.673
 4029SOL    HW229230   0.861   3.020   7.544
 4030SOL     OW29231   0.548   5.478   7.782
 4030SOL    HW129232   0.583   5.448   7.866
 4030SOL    HW229233   0.517   5.567   7.800
 4031SOL     OW29234   0.767   3.510   7.544
 4031SOL    HW129235   0.749   3.593   7.590
 4031SOL    HW229236   0.784   3.447   7.614
 4032SOL     OW29237   3.917   3.148   7.636
 4032SOL    HW129238   3.872   3.209   7.578
 4032SOL    HW229239   3.847   3.106   7.686
 4033SOL     OW29240   2.081   0.604   0.433
 4033SOL    HW129241   2.101   0.534   0.496
 4033SOL    HW229242   2.152   0.600   0.369
 4034SOL     OW29243   5.313   5.959   6.040
 4034SOL    HW129244   5.267   6.042   6.027
 4034SOL    HW229245   5.267   5.897   5.983
 4035SOL     OW29246   3.380   1.651   0.341
 4035SOL    HW129247   3.375   1.581   0.275
 4035SOL    HW229248   3.301   1.640   0.394
 4036SOL     OW29249   0.582   0.619   2.176
 4036SOL    HW129250   0.598   0.614   2.270
 4036SOL    HW229251   0.536   0.701   2.163
 4037SOL     OW29252   2.441   1.791   0.573
 4037SOL    HW129253   2.391   1.736   0.513
 4037SOL    HW229254   2.512   1.826   0.520
 4038SOL     OW29255   4.936   1.055   1.259
 4038SOL    HW129256   4.909   1.047   1.168
 4038SOL    HW229257   4.991   1.134   1.261
 4039SOL     OW29258   5.193   1.107   7.557
 4039SOL    HW129259   5.125   1.073   7.499
 4039SOL    HW229260   5.252   1.155   7.500
 4040SOL     OW29261   2.637   3.922   0.561
 4040SOL    HW129262   2.583   3.911   0.640
 4040SOL    HW229263   2.723   3.947   0.594
 4041SOL     OW29264   4.176   5.526   1.013
 4041SOL    HW129265   4.085   5.555   1.011
 4041SOL    HW229266   4.227   5.606   0.998
 4042SOL     OW29267   5.434   1.624   0.419
 4042SOL    HW129268   5.499   1.666   0.362
 4042SOL    HW229269   5.464   1.534   0.427
 4043SOL     OW29270   0.811   5.082   0.754
 4043SOL    HW129271   0.856   5.157   0.714
 4043SOL    HW229272   0.807   5.016   0.686
 4044SOL     OW29273   3.806   1.934   7.662
 4044SOL    HW129274   3.871   1.893   7.605
 4044SOL    HW229275   3.787   2.018   7.619
 4045SOL     OW29276   3.240   3.727   1.599
 4045SOL    HW129277   3.257   3.741   1.692
 4045SOL    HW229278   3.239   3.632   1.588
 4046SOL     OW29279   3.754   2.470   7.368
 4046SOL    HW129280   3.826   2.494   7.426
 4046SOL    HW229281   3.694   2.420   7.424
 4047SOL     OW29282   5.373   0.428   1.163
 4047SOL    HW129283   5.334   0.482   1.231
 4047SOL    HW229284   5.379   0.340   1.200
 4048SOL     OW29285   1.158   1.138   6.304
 4048SOL    HW129286   1.225   1.200   6.335
 4048SOL    HW229287   1.109   1.114   6.382
 4049SOL     OW29288   5.903   1.863   1.161
 4049SOL    HW129289   5.878   1.928   1.227
 4049SOL    HW229290   5.885   1.779   1.202
 4050SOL     OW29291   4.389   3.297   1.648
 4050SOL    HW129292   4.343   3.305   1.732
 4050SOL    HW229293   4.462   3.239   1.667
 4051SOL     OW29294   1.889   6.011   1.408
 4051SOL    HW129295   1.877   6.070   1.333
 4051SOL    HW229296   1.894   5.924   1.369
 4052SOL     OW29297   4.907   0.308   0.468
 4052SOL    HW129298   4.897   0.336   0.377
 4052SOL    HW229299   4.921   0.389   0.517
 4053SOL     OW29300   5.479   3.654   6.988
 4053SOL    HW129301   5.440   3.648   7.075
 4053SOL    HW229302   5.430   3.590   6.936
 4054SOL     OW29303   0.717   4.884   7.713
 4054SOL    HW129304   0.779   4.928   7.772
 4054SOL    HW229305   0.633   4.891   7.758
 4055SOL     OW29306   0.743   0.244   5.462
 4055SOL    HW129307   0.716   0.334   5.479
 4055SOL    HW229308   0.808   0.251   5.393
 4056SOL     OW29309   6.201   3.793   2.018
 4056SOL    HW129310   6.169   3.712   1.979
 4056SOL    HW229311   6.272   3.821   1.960
 4057SOL     OW29312   5.830   4.132   7.582
 4057SOL    HW129313   5.800   4.097   7.666
 4057SOL    HW229314   5.892   4.201   7.606
 4058SOL     OW29315   5.117   3.249   6.674
 4058SOL    HW129316   5.152   3.302   6.602
 4058SOL    HW229317   5.067   3.180   6.631
 4059SOL     OW29318   2.779   3.060   6.202
 4059SOL    HW129319   2.866   3.076   6.240
 4059SOL    HW229320   2.786   3.093   6.112
 4060SOL     OW29321   3.889   0.351   6.364
 4060SOL    HW129322   3.970   0.303   6.381
 4060SOL    HW229323   3.869   0.394   6.447
 4061SOL     OW29324   1.764   5.950   0.762
 4061SOL    HW129325   1.841   5.901   0.791
 4061SOL    HW229326   1.789   6.042   0.774
 4062SOL     OW29327   5.202   5.378   0.447
 4062SOL    HW129328   5.232   5.468   0.432
 4062SOL    HW229329   5.215   5.363   0.541
 4063SOL     OW29330   3.663   0.549   7.537
 4063SOL    HW129331   3.591   0.490   7.512
 4063SOL    HW229332   3.663   0.617   7.470
 4064SOL     OW29333   0.620   2.632   7.587
 4064SOL    HW129334   0.597   2.662   7.499
 4064SOL    HW229335   0.591   2.541   7.590
 4065SOL     OW29336   3.866   5.536   6.120
 4065SOL    HW129337   3.779   5.566   6.146
 4065SOL    HW229338   3.926   5.591   6.170
 4066SOL     OW29339   3.756   0.516   7.157
 4066SOL    HW129340   3.736   0.438   7.207
 4066SOL    HW229341   3.722   0.588   7.210
 4067SOL     OW29342   6.260   0.552   1.624
 4067SOL    HW129343   6.251   0.463   1.660
 4067SOL    HW229344   6.345   0.552   1.580
 4068SOL     OW29345   0.750   2.056   5.080
 4068SOL    HW129346   0.656   2.042   5.079
 4068SOL    HW229347   0.766   2.112   5.155
 4069SOL     OW29348   1.794   3.425   1.910
 4069SOL    HW129349   1.790   3.335   1.943
 4069SOL    HW229350   1.721   3.470   1.952
 4070SOL     OW29351   2.658   6.235   2.398
 4070SOL    HW129352   2.631   6.276   2.480
 4070SOL    HW229353   2.582   6.182   2.372
 4071SOL     OW29354   5.615   4.916   0.489
 4071SOL    HW129355   5.647   4.992   0.537
 4071SOL    HW229356   5.536   4.890   0.536
 4072SOL     OW29357   3.058   2.953   1.082
 4072SOL    HW129358   3.060   2.865   1.044
 4072SOL    HW229359   3.133   2.998   1.042
 4073SOL     OW29360   0.594   2.002   7.592
 4073SOL    HW129361   0.510   1.991   7.637
 4073SOL    HW229362   0.588   1.947   7.514
 4074SOL     OW29363   5.717   0.942   1.649
 4074SOL    HW129364   5.625   0.941   1.677
 4074SOL    HW229365   5.717   0.991   1.567
 4075SOL     OW29366   5.641   0.847   2.129
 4075SOL    HW129367   5.719   0.829   2.182
 4075SOL    HW229368   5.667   0.918   2.071
 4076SOL     OW29369   5.615   0.496   0.458
 4076SOL    HW129370   5.604   0.438   0.533
 4076SOL    HW229371   5.608   0.584   0.494
 4077SOL     OW29372   5.812   6.381   1.088
 4077SOL    HW129373   5.769   6.298   1.070
 4077SOL    HW229374   5.877   6.391   1.018
 4078SOL     OW29375   2.981   5.193   0.934
 4078SOL    HW129376   2.976   5.102   0.964
 4078SOL    HW229377   2.929   5.243   0.997
 4079SOL     OW29378   0.652   1.373   0.060
 4079SOL    HW129379   0.674   1.301   0.120
 4079SOL    HW229380   0.597   1.332  -0.007
 4080SOL     OW29381   5.089   2.496   0.323
 4080SOL    HW129382   4.999   2.524   0.308
 4080SOL    HW229383   5.087   2.447   0.405
 4081SOL     OW29384   1.410   3.116   0.493
 4081SOL    HW129385   1.497   3.094   0.526
 4081SOL    HW229386   1.371   3.032   0.468
 4082SOL     OW29387   2.555   0.591   0.770
 4082SOL    HW129388   2.535   0.613   0.678
 4082SOL    HW229389   2.629   0.648   0.792
 4083SOL     OW29390   3.906   3.431   1.515
 4083SOL    HW129391   3.874   3.443   1.605
 4083SOL    HW229392   3.877   3.510   1.469
 4084SOL     OW29393   1.285   5.847   1.412
 4084SOL    HW129394   1.218   5.886   1.356
 4084SOL    HW229395   1.265   5.882   1.499
 4085SOL     OW29396   4.777   1.756   6.193
 4085SOL    HW129397   4.854   1.707   6.163
 4085SOL    HW229398   4.770   1.829   6.131
 4086SOL     OW29399   3.393   1.465   1.065
 4086SOL    HW129400   3.310   1.442   1.108
 4086SOL    HW229401   3.367   1.516   0.989
 4087SOL     OW29402   0.795   5.788   6.803
 4087SOL    HW129403   0.849   5.853   6.847
 4087SOL    HW229404   0.850   5.754   6.732
 4088SOL     OW29405   1.500   1.829   7.539
 4088SOL    HW129406   1.517   1.917   7.504
 4088SOL    HW229407   1.462   1.845   7.625
 4089SOL     OW29408   3.841   5.024   6.838
 4089SOL    HW129409   3.869   5.115   6.846
 4089SOL    HW229410   3.746   5.028   6.839
 4090SOL     OW29411   5.961   4.926   2.053
 4090SOL    HW129412   5.929   5.011   2.023
 4090SOL    HW229413   6.020   4.897   1.984
 4091SOL     OW29414   0.482   0.578   6.533
 4091SOL    HW129415   0.421   0.636   6.579
 4091SOL    HW229416   0.465   0.594   6.440
 4092SOL     OW29417   6.247   3.141   7.157
 4092SOL    HW129418   6.281   3.205   7.219
 4092SOL    HW229419   6.238   3.060   7.208
 4093SOL     OW29420   0.018   0.037   1.578
 4093SOL    HW129421  -0.059   0.008   1.628
 4093SOL    HW229422   0.054   0.109   1.631
 4094SOL     OW29423   0.293   1.021   2.246
 4094SOL    HW129424   0.244   1.032   2.327
 4094SOL    HW229425   0.274   1.100   2.196
 4095SOL     OW29426   4.133   1.103   6.965
 4095SOL    HW129427   4.210   1.132   6.916
 4095SOL    HW229428   4.145   1.143   7.052
 4096SOL     OW29429   1.088   3.122   7.725
 4096SOL    HW129430   1.003   3.118   7.681
 4096SOL    HW229431   1.136   3.046   7.692
 4097SOL     OW29432   1.413   4.972   6.742
 4097SOL    HW129433   1.348   5.042   6.729
 4097SOL    HW229434   1.484   4.994   6.682
 4098SOL     OW29435   4.152   1.265   5.738
 4098SOL    HW129436   4.075   1.301   5.780
 4098SOL    HW229437   4.184   1.198   5.797
 4099SOL     OW29438   5.309   5.942   6.321
 4099SOL    HW129439   5.326   5.929   6.228
 4099SOL    HW229440   5.296   6.036   6.330
 4100SOL     OW29441   0.900   3.856   2.164
 4100SOL    HW129442   0.937   3.885   2.080
 4100SOL    HW229443   0.934   3.918   2.228
 4101SOL     OW29444   0.260   2.972   6.060
 4101SOL    HW129445   0.320   3.042   6.085
 4101SOL    HW229446   0.192   3.015   6.008
 4102SOL     OW29447   5.128   3.895   1.639
 4102SOL    HW129448   5.141   3.928   1.728
 4102SOL    HW229449   5.136   3.972   1.584
 4103SOL     OW29450   1.278   3.953   7.377
 4103SOL    HW129451   1.301   3.889   7.444
 4103SOL    HW229452   1.205   3.912   7.330
 4104SOL     OW29453   1.557   2.381   0.157
 4104SOL    HW129454   1.531   2.289   0.146
 4104SOL    HW229455   1.550   2.418   0.069
 4105SOL     OW29456   3.899   5.303   7.370
 4105SOL    HW129457   3.868   5.219   7.336
 4105SOL    HW229458   3.992   5.288   7.390
 4106SOL     OW29459   2.823   5.232   7.754
 4106SOL    HW129460   2.858   5.309   7.710
 4106SOL    HW229461   2.898   5.172   7.759
 4107SOL     OW29462   2.348   5.392   1.303
 4107SOL    HW129463   2.267   5.357   1.337
 4107SOL    HW229464   2.376   5.330   1.236
 4108SOL     OW29465   0.906   6.368   6.884
 4108SOL    HW129466   0.886   6.437   6.948
 4108SOL    HW229467   0.837   6.302   6.897
 4109SOL     OW29468   6.373   0.392   5.708
 4109SOL    HW129469   6.437   0.332   5.670
 4109SOL    HW229470   6.339   0.442   5.633
 4110SOL     OW29471   1.852   6.197   1.228
 4110SOL    HW129472   1.793   6.269   1.250
 4110SOL    HW229473   1.835   6.179   1.135
 4111SOL     OW29474   5.176   5.656   0.687
 4111SOL    HW129475   5.114   5.694   0.625
 4111SOL    HW229476   5.252   5.632   0.634
 4112SOL     OW29477   1.001   2.097   6.531
 4112SOL    HW129478   0.959   2.101   6.617
 4112SOL    HW229479   1.065   2.026   6.539
 4113SOL     OW29480   4.191   3.945   6.498
 4113SOL    HW129481   4.115   3.907   6.455
 4113SOL    HW229482   4.183   4.039   6.483
 4114SOL     OW29483   4.511   5.729   0.465
 4114SOL    HW129484   4.546   5.811   0.500
 4114SOL    HW229485   4.573   5.662   0.493
 4115SOL     OW29486   3.048   2.082   0.680
 4115SOL    HW129487   3.076   2.079   0.772
 4115SOL    HW229488   3.047   2.175   0.659
 4116SOL     OW29489   3.865   4.876   7.651
 4116SOL    HW129490   3.859   4.805   7.587
 4116SOL    HW229491   3.878   4.831   7.735
 4117SOL     OW29492   4.899   0.550   1.902
 4117SOL    HW129493   4.990   0.574   1.916
 4117SOL    HW229494   4.849   0.615   1.952
 4118SOL     OW29495   2.636   2.523   6.217
 4118SOL    HW129496   2.560   2.580   6.219
 4118SOL    HW229497   2.604   2.439   6.252
 4119SOL     OW29498   6.013   5.209   2.060
 4119SOL    HW129499   6.008   5.255   1.976
 4119SOL    HW229500   6.107   5.205   2.079
 4120SOL     OW29501   3.962   5.676   0.520
 4120SOL    HW129502   4.056   5.670   0.508
 4120SOL    HW229503   3.947   5.638   0.607
 4121SOL     OW29504   2.539   2.291   6.338
 4121SOL    HW129505   2.552   2.221   6.402
 4121SOL    HW229506   2.445   2.289   6.320
 4122SOL     OW29507   3.235   6.000   6.094
 4122SOL    HW129508   3.183   6.040   6.025
 4122SOL    HW229509   3.314   6.055   6.100
 4123SOL     OW29510   5.563   2.016   2.381
 4123SOL    HW129511   5.587   1.984   2.468
 4123SOL    HW229512   5.599   1.951   2.321
 4124SOL     OW29513   3.249   3.440   1.626
 4124SOL    HW129514   3.320   3.403   1.572
 4124SOL    HW229515   3.287   3.446   1.714
 4125SOL     OW29516   3.244   4.606   1.820
 4125SOL    HW129517   3.195   4.610   1.902
 4125SOL    HW229518   3.335   4.620   1.845
 4126SOL     OW29519   0.816   0.910   0.981
 4126SOL    HW129520   0.882   0.845   0.960
 4126SOL    HW229521   0.865   0.992   0.988
 4127SOL     OW29522   0.582   1.544   1.099
 4127SOL    HW129523   0.607   1.522   1.189
 4127SOL    HW229524   0.529   1.624   1.108
 4128SOL     OW29525   1.602   2.408   0.439
 4128SOL    HW129526   1.661   2.334   0.453
 4128SOL    HW229527   1.564   2.392   0.353
 4129SOL     OW29528   3.315   3.980   2.016
 4129SOL    HW129529   3.317   3.888   1.990
 4129SOL    HW229530   3.404   4.012   2.001
 4130SOL     OW29531   0.232   5.226   6.331
 4130SOL    HW129532   0.326   5.214   6.317
 4130SOL    HW229533   0.191   5.161   6.274
 4131SOL     OW29534   1.032   3.626   2.293
 4131SOL    HW129535   0.989   3.701   2.254
 4131SOL    HW229536   1.115   3.617   2.246
 4132SOL     OW29537   6.124   3.012   0.766
 4132SOL    HW129538   6.111   2.927   0.807
 4132SOL    HW229539   6.113   2.995   0.672
 4133SOL     OW29540   2.207   5.010   2.023
 4133SOL    HW129541   2.288   5.054   1.999
 4133SOL    HW229542   2.235   4.928   2.064
 4134SOL     OW29543   1.358   2.314   7.660
 4134SOL    HW129544   1.396   2.378   7.721
 4134SOL    HW229545   1.270   2.297   7.695
 4135SOL     OW29546   6.074   0.869   0.758
 4135SOL    HW129547   6.039   0.953   0.786
 4135SOL    HW229548   6.121   0.835   0.834
 4136SOL     OW29549   4.336   3.250   6.580
 4136SOL    HW129550   4.300   3.249   6.669
 4136SOL    HW229551   4.422   3.208   6.588
 4137SOL     OW29552   2.200   0.893   5.956
 4137SOL    HW129553   2.196   0.877   5.862
 4137SOL    HW229554   2.144   0.969   5.970
 4138SOL     OW29555   3.439   3.042   6.692
 4138SOL    HW129556   3.485   3.023   6.774
 4138SOL    HW229557   3.371   3.105   6.716
 4139SOL     OW29558   0.088   4.141   6.102
 4139SOL    HW129559   0.018   4.092   6.145
 4139SOL    HW229560   0.154   4.074   6.081
 4140SOL     OW29561   6.115   0.792   1.581
 4140SOL    HW129562   6.055   0.798   1.655
 4140SOL    HW229563   6.157   0.706   1.591
 4141SOL     OW29564   5.974   0.190   1.643
 4141SOL    HW129565   6.042   0.162   1.704
 4141SOL    HW229566   5.966   0.284   1.657
 4142SOL     OW29567   0.598   5.138   6.867
 4142SOL    HW129568   0.582   5.112   6.776
 4142SOL    HW229569   0.516   5.178   6.895
 4143SOL     OW29570   5.397   1.634   7.154
 4143SOL    HW129571   5.413   1.726   7.172
 4143SOL    HW229572   5.317   1.633   7.101
 4144SOL     OW29573   2.083   1.526   6.879
 4144SOL    HW129574   2.048   1.469   6.947
 4144SOL    HW229575   2.032   1.507   6.801
 4145SOL     OW29576   5.754   3.097   6.937
 4145SOL    HW129577   5.758   3.113   7.031
 4145SOL    HW229578   5.666   3.123   6.911
 4146SOL     OW29579   1.703   5.502   0.960
 4146SOL    HW129580   1.634   5.548   0.911
 4146SOL    HW229581   1.782   5.552   0.942
 4147SOL     OW29582   4.841   4.158   1.355
 4147SOL    HW129583   4.782   4.206   1.297
 4147SOL    HW229584   4.784   4.103   1.408
 4148SOL     OW29585   5.065   5.854   6.394
 4148SOL    HW129586   5.153   5.886   6.374
 4148SOL    HW229587   5.036   5.909   6.467
 4149SOL     OW29588   4.306   4.060   1.967
 4149SOL    HW129589   4.300   3.964   1.974
 4149SOL    HW229590   4.391   4.075   1.926
 4150SOL     OW29591   6.100   0.701   1.991
 4150SOL    HW129592   6.134   0.786   2.020
 4150SOL    HW229593   6.050   0.721   1.912
 4151SOL     OW29594   0.946   3.976   7.682
 4151SOL    HW129595   0.934   4.069   7.664
 4151SOL    HW229596   0.980   3.940   7.600
 4152SOL     OW29597   2.278   6.131   6.845
 4152SOL    HW129598   2.316   6.201   6.793
 4152SOL    HW229599   2.204   6.172   6.890
 4153SOL     OW29600   0.018   4.637   0.440
 4153SOL    HW129601   0.012   4.652   0.346
 4153SOL    HW229602   0.083   4.700   0.470
 4154SOL     OW29603   6.143   5.642   0.678
 4154SOL    HW129604   6.124   5.586   0.753
 4154SOL    HW229605   6.225   5.687   0.702
 4155SOL     OW29606   1.879   3.904   1.282
 4155SOL    HW129607   1.791   3.879   1.254
 4155SOL    HW229608   1.866   3.978   1.341
 4156SOL     OW29609   1.808   2.032   1.354
 4156SOL    HW129610   1.858   2.047   1.274
 4156SOL    HW229611   1.834   2.103   1.412
 4157SOL     OW29612   3.074   0.911   6.911
 4157SOL    HW129613   3.080   0.855   6.988
 4157SOL    HW229614   3.105   0.996   6.942
 4158SOL     OW29615   5.191   1.598   6.929
 4158SOL    HW129616   5.172   1.505   6.919
 4158SOL    HW229617   5.106   1.641   6.918
 4159SOL     OW29618   0.146   3.905   0.188
 4159SOL    HW129619   0.095   3.979   0.221
 4159SOL    HW229620   0.110   3.828   0.233
 4160SOL     OW29621   4.135   3.591   7.525
 4160SOL    HW129622   4.148   3.646   7.602
 4160SOL    HW229623   4.201   3.523   7.532
 4161SOL     OW29624   1.455   1.430   0.373
 4161SOL    HW129625   1.430   1.419   0.465
 4161SOL    HW229626   1.390   1.378   0.325
 4162SOL     OW29627   4.552   5.310   1.763
 4162SOL    HW129628   4.462   5.339   1.780
 4162SOL    HW229629   4.542   5.231   1.711
 4163SOL     OW29630   0.374   5.395   5.893
 4163SOL    HW129631   0.423   5.355   5.821
 4163SOL    HW229632   0.285   5.361   5.883
 4164SOL     OW29633   0.027   4.405   6.395
 4164SOL    HW129634  -0.008   4.494   6.407
 4164SOL    HW229635   0.095   4.397   6.462
 4165SOL     OW29636   0.320   5.843   1.712
 4165SOL    HW129637   0.402   5.814   1.754
 4165SOL    HW229638   0.277   5.896   1.778
 4166SOL     OW29639   2.684   3.729   6.188
 4166SOL    HW129640   2.639   3.679   6.120
 4166SOL    HW229641   2.613   3.770   6.238
 4167SOL     OW29642   5.602   6.428   1.299
 4167SOL    HW129643   5.642   6.393   1.219
 4167SOL    HW229644   5.673   6.471   1.346
 4168SOL     OW29645   1.764   6.353   6.266
 4168SOL    HW129646   1.731   6.435   6.229
 4168SOL    HW229647   1.778   6.297   6.190
 4169SOL     OW29648   4.087   1.322   6.698
 4169SOL    HW129649   4.045   1.405   6.675
 4169SOL    HW229650   4.022   1.255   6.679
 4170SOL     OW29651   5.433   3.527   1.271
 4170SOL    HW129652   5.359   3.580   1.241
 4170SOL    HW229653   5.417   3.515   1.364
 4171SOL     OW29654   6.003   2.143   0.144
 4171SOL    HW129655   5.921   2.191   0.132
 4171SOL    HW229656   6.005   2.122   0.238
 4172SOL     OW29657   2.691   4.900   0.625
 4172SOL    HW129658   2.626   4.967   0.647
 4172SOL    HW229659   2.684   4.835   0.695
 4173SOL     OW29660   2.126   2.653   7.695
 4173SOL    HW129661   2.081   2.598   7.760
 4173SOL    HW229662   2.203   2.686   7.741
 4174SOL     OW29663   2.227   2.686   7.429
 4174SOL    HW129664   2.203   2.660   7.518
 4174SOL    HW229665   2.145   2.683   7.380
 4175SOL     OW29666   3.052   6.239   6.913
 4175SOL    HW129667   2.978   6.295   6.937
 4175SOL    HW229668   3.130   6.291   6.935
 4176SOL     OW29669   6.202   2.881   2.097
 4176SOL    HW129670   6.256   2.818   2.145
 4176SOL    HW229671   6.264   2.926   2.039
 4177SOL     OW29672   1.212   5.752   0.718
 4177SOL    HW129673   1.208   5.673   0.663
 4177SOL    HW229674   1.141   5.740   0.781
 4178SOL     OW29675   4.983   4.928   0.394
 4178SOL    HW129676   5.015   4.922   0.304
 4178SOL    HW229677   5.040   4.869   0.444
 4179SOL     OW29678   4.534   5.917   6.218
 4179SOL    HW129679   4.529   5.932   6.312
 4179SOL    HW229680   4.587   5.989   6.185
 4180SOL     OW29681   2.887   1.564   6.099
 4180SOL    HW129682   2.928   1.481   6.073
 4180SOL    HW229683   2.851   1.599   6.017
 4181SOL     OW29684   4.406   0.126   7.691
 4181SOL    HW129685   4.359   0.200   7.731
 4181SOL    HW229686   4.377   0.126   7.600
 4182SOL     OW29687   4.209   4.849   6.441
 4182SOL    HW129688   4.183   4.789   6.372
 4182SOL    HW229689   4.139   4.914   6.445
 4183SOL     OW29690   4.545   5.383   0.940
 4183SOL    HW129691   4.540   5.473   0.972
 4183SOL    HW229692   4.455   5.353   0.938
 4184SOL     OW29693   3.327   4.402   7.072
 4184SOL    HW129694   3.319   4.415   7.166
 4184SOL    HW229695   3.237   4.392   7.042
 4185SOL     OW29696   4.999   3.210   0.226
 4185SOL    HW129697   4.938   3.248   0.164
 4185SOL    HW229698   5.034   3.285   0.275
 4186SOL     OW29699   2.503   5.794   1.536
 4186SOL    HW129700   2.502   5.714   1.483
 4186SOL    HW229701   2.497   5.763   1.627
 4187SOL     OW29702   4.497   2.886   6.051
 4187SOL    HW129703   4.583   2.916   6.021
 4187SOL    HW229704   4.474   2.816   5.990
 4188SOL     OW29705   5.262   4.004   7.470
 4188SOL    HW129706   5.211   3.972   7.545
 4188SOL    HW229707   5.305   4.083   7.503
 4189SOL     OW29708   2.824   1.917   7.756
 4189SOL    HW129709   2.744   1.867   7.735
 4189SOL    HW229710   2.792   1.993   7.805
 4190SOL     OW29711   3.667   2.967   6.929
 4190SOL    HW129712   3.702   2.893   6.878
 4190SOL    HW229713   3.613   2.926   6.996
 4191SOL     OW29714   3.347   0.908   7.739
 4191SOL    HW129715   3.318   0.913   7.830
 4191SOL    HW229716   3.416   0.841   7.740
 4192SOL     OW29717   6.045   2.556   1.982
 4192SOL    HW129718   6.119   2.560   2.043
 4192SOL    HW229719   6.030   2.462   1.970
 4193SOL     OW29720   2.143   5.754   1.471
 4193SOL    HW129721   2.068   5.791   1.425
 4193SOL    HW229722   2.159   5.813   1.544
 4194SOL     OW29723   1.512   4.096   7.403
 4194SOL    HW129724   1.425   4.063   7.380
 4194SOL    HW229725   1.572   4.025   7.380
 4195SOL     OW29726   0.537   2.642   0.294
 4195SOL    HW129727   0.607   2.579   0.311
 4195SOL    HW229728   0.485   2.642   0.374
 4196SOL     OW29729   3.181   3.761   7.380
 4196SOL    HW129730   3.186   3.856   7.368
 4196SOL    HW229731   3.270   3.730   7.368
 4197SOL     OW29732   1.442   5.800   0.368
 4197SOL    HW129733   1.498   5.847   0.430
 4197SOL    HW229734   1.445   5.709   0.398
 4198SOL     OW29735   5.649   2.574   2.317
 4198SOL    HW129736   5.565   2.537   2.292
 4198SOL    HW229737   5.678   2.520   2.391
 4199SOL     OW29738   5.151   3.782   6.794
 4199SOL    HW129739   5.186   3.765   6.707
 4199SOL    HW229740   5.125   3.696   6.827
 4200SOL     OW29741   4.490   3.230   0.570
 4200SOL    HW129742   4.557   3.286   0.609
 4200SOL    HW229743   4.508   3.233   0.476
 4201SOL     OW29744   2.429   3.866   6.005
 4201SOL    HW129745   2.427   3.960   5.987
 4201SOL    HW229746   2.490   3.830   5.940
 4202SOL     OW29747   2.240   3.060   5.275
 4202SOL    HW129748   2.243   3.155   5.266
 4202SOL    HW229749   2.198   3.044   5.360
 4203SOL     OW29750   6.325   0.500   7.165
 4203SOL    HW129751   6.240   0.487   7.207
 4203SOL    HW229752   6.354   0.586   7.194
 4204SOL     OW29753   2.403   5.748   2.428
 4204SOL    HW129754   2.362   5.834   2.419
 4204SOL    HW229755   2.492   5.767   2.459
 4205SOL     OW29756   3.001   4.622   2.639
 4205SOL    HW129757   3.083   4.572   2.643
 4205SOL    HW229758   3.007   4.671   2.557
 4206SOL     OW29759   4.352   6.173   6.842
 4206SOL    HW129760   4.337   6.256   6.887
 4206SOL    HW229761   4.296   6.110   6.887
 4207SOL     OW29762   3.252   2.946   6.986
 4207SOL    HW129763   3.326   2.892   7.015
 4207SOL    HW229764   3.200   2.887   6.931
 4208SOL     OW29765   0.101   4.537   1.687
 4208SOL    HW129766   0.087   4.458   1.634
 4208SOL    HW229767   0.075   4.511   1.776
 4209SOL     OW29768   3.145   1.482   6.231
 4209SOL    HW129769   3.084   1.542   6.188
 4209SOL    HW229770   3.140   1.401   6.180
 4210SOL     OW29771   1.821   5.633   7.791
 4210SOL    HW129772   1.886   5.593   7.734
 4210SOL    HW229773   1.872   5.689   7.850
 4211SOL     OW29774   2.308   4.951   2.373
 4211SOL    HW129775   2.233   4.907   2.334
 4211SOL    HW229776   2.275   5.037   2.399
 4212SOL     OW29777   6.047   3.464   1.634
 4212SOL    HW129778   6.024   3.473   1.541
 4212SOL    HW229779   6.095   3.381   1.639
 4213SOL     OW29780   5.315   0.013   0.218
 4213SOL    HW129781   5.254   0.064   0.272
 4213SOL    HW229782   5.401   0.049   0.239
 4214SOL     OW29783   2.008   2.727   0.103
 4214SOL    HW129784   2.016   2.808   0.052
 4214SOL    HW229785   2.086   2.726   0.158
 4215SOL     OW29786   4.932   4.421   6.953
 4215SOL    HW129787   4.970   4.487   6.896
 4215SOL    HW229788   5.007   4.378   6.994
 4216SOL     OW29789   3.095   1.549   7.545
 4216SOL    HW129790   3.102   1.468   7.495
 4216SOL    HW229791   3.036   1.604   7.493
 4217SOL     OW29792   3.221   4.062   0.685
 4217SOL    HW129793   3.240   3.992   0.747
 4217SOL    HW229794   3.163   4.121   0.733
 4218SOL     OW29795   1.101   0.716   7.001
 4218SOL    HW129796   1.180   0.701   7.052
 4218SOL    HW229797   1.093   0.639   6.944
 4219SOL     OW29798   4.487   6.391   5.338
 4219SOL    HW129799   4.467   6.484   5.343
 4219SOL    HW229800   4.401   6.348   5.342
 4220SOL     OW29801   0.720   1.754   6.601
 4220SOL    HW129802   0.729   1.821   6.669
 4220SOL    HW229803   0.798   1.700   6.611
 4221SOL     OW29804   5.454   3.338   6.669
 4221SOL    HW129805   5.469   3.244   6.663
 4221SOL    HW229806   5.431   3.364   6.580
 4222SOL     OW29807   6.141   1.957   5.496
 4222SOL    HW129808   6.103   1.870   5.490
 4222SOL    HW229809   6.194   1.955   5.575
 4223SOL     OW29810   4.345   5.253   6.543
 4223SOL    HW129811   4.380   5.217   6.462
 4223SOL    HW229812   4.251   5.239   6.537
 4224SOL     OW29813   1.194   0.716   0.239
 4224SOL    HW129814   1.158   0.630   0.218
 4224SOL    HW229815   1.126   0.777   0.209
 4225SOL     OW29816   1.615   5.403   5.366
 4225SOL    HW129817   1.556   5.412   5.440
 4225SOL    HW229818   1.669   5.481   5.368
 4226SOL     OW29819   4.361   2.584   6.683
 4226SOL    HW129820   4.384   2.671   6.650
 4226SOL    HW229821   4.291   2.600   6.747
 4227SOL     OW29822   3.486   3.459   5.460
 4227SOL    HW129823   3.543   3.486   5.387
 4227SOL    HW229824   3.454   3.542   5.496
 4228SOL     OW29825   6.036   5.616   0.111
 4228SOL    HW129826   6.095   5.545   0.136
 4228SOL    HW229827   6.048   5.624   0.016
 4229SOL     OW29828   2.184   3.924   7.454
 4229SOL    HW129829   2.192   4.014   7.420
 4229SOL    HW229830   2.094   3.918   7.486
 4230SOL     OW29831   2.749   0.125   7.494
 4230SOL    HW129832   2.740   0.220   7.503
 4230SOL    HW229833   2.830   0.104   7.541
 4231SOL     OW29834   3.735   3.691   0.238
 4231SOL    HW129835   3.738   3.667   0.330
 4231SOL    HW229836   3.823   3.671   0.205
 4232SOL     OW29837   4.614   5.648   6.220
 4232SOL    HW129838   4.527   5.688   6.223
 4232SOL    HW229839   4.674   5.722   6.219
 4233SOL     OW29840   4.096   4.054   1.671
 4233SOL    HW129841   4.149   4.095   1.602
 4233SOL    HW229842   4.047   4.126   1.710
 4234SOL     OW29843   5.599   1.217   5.964
 4234SOL    HW129844   5.509   1.204   5.934
 4234SOL    HW229845   5.591   1.239   6.057
 4235SOL     OW29846   4.645   4.904   6.923
 4235SOL    HW129847   4.681   4.854   6.996
 4235SOL    HW229848   4.617   4.838   6.860
 4236SOL     OW29849   1.242   2.463   0.039
 4236SOL    HW129850   1.186   2.536   0.067
 4236SOL    HW229851   1.180   2.395   0.012
 4237SOL     OW29852   1.449   5.218   7.230
 4237SOL    HW129853   1.516   5.181   7.288
 4237SOL    HW229854   1.495   5.234   7.148
 4238SOL     OW29855   2.625   3.210   0.681
 4238SOL    HW129856   2.541   3.216   0.727
 4238SOL    HW229857   2.655   3.121   0.699
 4239SOL     OW29858   1.855   6.395   5.660
 4239SOL    HW129859   1.855   6.438   5.574
 4239SOL    HW229860   1.918   6.323   5.650
 4240SOL     OW29861   2.624   3.046   7.786
 4240SOL    HW129862   2.668   3.130   7.784
 4240SOL    HW229863   2.654   3.005   7.867
 4241SOL     OW29864   3.984   0.331   7.594
 4241SOL    HW129865   4.021   0.291   7.516
 4241SOL    HW229866   4.045   0.306   7.664
 4242SOL     OW29867   0.661   0.724   5.338
 4242SOL    HW129868   0.655   0.757   5.249
 4242SOL    HW229869   0.581   0.755   5.381
 4243SOL     OW29870   2.487   1.500   1.452
 4243SOL    HW129871   2.556   1.563   1.471
 4243SOL    HW229872   2.437   1.540   1.381
 4244SOL     OW29873   3.843   4.055   0.658
 4244SOL    HW129874   3.824   4.004   0.579
 4244SOL    HW229875   3.832   4.146   0.632
 4245SOL     OW29876   0.670   4.894   7.446
 4245SOL    HW129877   0.678   4.891   7.541
 4245SOL    HW229878   0.758   4.914   7.414
 4246SOL     OW29879   3.457   0.164   5.930
 4246SOL    HW129880   3.378   0.189   5.882
 4246SOL    HW229881   3.424   0.115   6.006
 4247SOL     OW29882   3.175   3.223   6.664
 4247SOL    HW129883   3.107   3.244   6.728
 4247SOL    HW229884   3.158   3.133   6.638
 4248SOL     OW29885   4.643   5.709   1.645
 4248SOL    HW129886   4.680   5.786   1.688
 4248SOL    HW229887   4.550   5.711   1.669
 4249SOL     OW29888   5.207   1.561   7.372
 4249SOL    HW129889   5.205   1.626   7.302
 4249SOL    HW229890   5.285   1.583   7.423
 4250SOL     OW29891   0.193   6.024   5.529
 4250SOL    HW129892   0.114   5.984   5.565
 4250SOL    HW229893   0.181   6.118   5.544
 4251SOL     OW29894   4.853   4.087   1.847
 4251SOL    HW129895   4.894   4.137   1.777
 4251SOL    HW229896   4.923   4.069   1.909
 4252SOL     OW29897   2.594   2.573   6.800
 4252SOL    HW129898   2.545   2.629   6.740
 4252SOL    HW229899   2.607   2.627   6.878
 4253SOL     OW29900   6.190   3.517   7.844
 4253SOL    HW129901   6.169   3.427   7.869
 4253SOL    HW229902   6.105   3.562   7.845
 4254SOL     OW29903   1.377   4.405   0.958
 4254SOL    HW129904   1.345   4.428   0.871
 4254SOL    HW229905   1.473   4.405   0.950
 4255SOL     OW29906   5.946   1.183   7.687
 4255SOL    HW129907   5.880   1.198   7.620
 4255SOL    HW229908   6.030   1.194   7.641
 4256SOL     OW29909   4.406   0.399   6.169
 4256SOL    HW129910   4.455   0.402   6.087
 4256SOL    HW229911   4.394   0.305   6.185
 4257SOL     OW29912   0.209   2.519   5.840
 4257SOL    HW129913   0.116   2.514   5.865
 4257SOL    HW229914   0.232   2.429   5.818
 4258SOL     OW29915   5.254   3.791   5.767
 4258SOL    HW129916   5.175   3.737   5.760
 4258SOL    HW229917   5.248   3.852   5.694
 4259SOL     OW29918   5.588   1.207   2.360
 4259SOL    HW129919   5.530   1.135   2.337
 4259SOL    HW229920   5.645   1.171   2.428
 4260SOL     OW29921   2.448   2.456   5.521
 4260SOL    HW129922   2.421   2.396   5.452
 4260SOL    HW229923   2.517   2.410   5.569
 4261SOL     OW29924   2.351   6.306   0.805
 4261SOL    HW129925   2.421   6.243   0.825
 4261SOL    HW229926   2.297   6.262   0.739
 4262SOL     OW29927   0.213   4.757   1.613
 4262SOL    HW129928   0.253   4.725   1.532
 4262SOL    HW229929   0.182   4.678   1.657
 4263SOL     OW29930   5.213   2.178   1.220
 4263SOL    HW129931   5.222   2.109   1.153
 4263SOL    HW229932   5.272   2.152   1.290
 4264SOL     OW29933   0.961   1.575   5.971
 4264SOL    HW129934   0.944   1.529   6.053
 4264SOL    HW229935   0.917   1.522   5.904
 4265SOL     OW29936   6.370   4.746   0.696
 4265SOL    HW129937   6.435   4.815   0.712
 4265SOL    HW229938   6.417   4.681   0.643
 4266SOL     OW29939   2.033   1.388   6.611
 4266SOL    HW129940   2.023   1.484   6.615
 4266SOL    HW229941   1.944   1.355   6.604
 4267SOL     OW29942   2.627   2.921   1.070
 4267SOL    HW129943   2.696   2.859   1.048
 4267SOL    HW229944   2.595   2.954   0.986
 4268SOL     OW29945   0.351   4.051   0.885
 4268SOL    HW129946   0.352   4.043   0.980
 4268SOL    HW229947   0.294   3.980   0.855
 4269SOL     OW29948   2.075   4.551   7.737
 4269SOL    HW129949   2.096   4.472   7.686
 4269SOL    HW229950   2.129   4.543   7.816
 4270SOL     OW29951   3.800   6.151   0.950
 4270SOL    HW129952   3.735   6.087   0.978
 4270SOL    HW229953   3.859   6.161   1.024
 4271SOL     OW29954   0.283   2.946   7.284
 4271SOL    HW129955   0.339   2.926   7.209
 4271SOL    HW229956   0.340   2.989   7.347
 4272SOL     OW29957   5.188   1.986   6.693
 4272SOL    HW129958   5.092   1.981   6.702
 4272SOL    HW229959   5.201   2.029   6.608
 4273SOL     OW29960   4.782   2.121   0.265
 4273SOL    HW129961   4.747   2.094   0.181
 4273SOL    HW229962   4.727   2.194   0.293
 4274SOL     OW29963   5.171   4.289   5.533
 4274SOL    HW129964   5.160   4.205   5.488
 4274SOL    HW229965   5.085   4.330   5.528
 4275SOL     OW29966   5.975   2.254   1.666
 4275SOL    HW129967   5.954   2.336   1.709
 4275SOL    HW229968   5.979   2.190   1.737
 4276SOL     OW29969   4.696   2.271   6.334
 4276SOL    HW129970   4.631   2.341   6.332
 4276SOL    HW229971   4.692   2.232   6.247
 4277SOL     OW29972   6.412   5.028   1.037
 4277SOL    HW129973   6.343   5.065   0.981
 4277SOL    HW229974   6.468   5.102   1.057
 4278SOL     OW29975   2.672   3.675   1.370
 4278SOL    HW129976   2.639   3.590   1.339
 4278SOL    HW229977   2.606   3.705   1.433
 4279SOL     OW29978   1.688   6.016   2.007
 4279SOL    HW129979   1.778   5.982   2.008
 4279SOL    HW229980   1.697   6.109   2.026
 4280SOL     OW29981   6.030   2.538   7.808
 4280SOL    HW129982   6.073   2.464   7.850
 4280SOL    HW229983   5.943   2.504   7.784
 4281SOL     OW29984   5.500   4.293   6.756
 4281SOL    HW129985   5.453   4.368   6.792
 4281SOL    HW229986   5.518   4.238   6.833
 4282SOL     OW29987   5.600   3.503   1.542
 4282SOL    HW129988   5.637   3.417   1.524
 4282SOL    HW229989   5.672   3.564   1.527
 4283SOL     OW29990   5.350   0.836   5.848
 4283SOL    HW129991   5.324   0.811   5.936
 4283SOL    HW229992   5.307   0.920   5.833
 4284SOL     OW29993   3.318   4.894   7.031
 4284SOL    HW129994   3.350   4.868   6.945
 4284SOL    HW229995   3.228   4.922   7.016
 4285SOL     OW29996   4.376   1.275   2.061
 4285SOL    HW129997   4.388   1.182   2.042
 4285SOL    HW229998   4.291   1.280   2.104
 4286SOL     OW29999   4.660   2.550   1.623
 4286SOL    HW130000   4.673   2.552   1.717
 4286SOL    HW230001   4.657   2.457   1.601
 4287SOL     OW30002   4.728   2.059   7.392
 4287SOL    HW130003   4.750   1.977   7.436
 4287SOL    HW230004   4.731   2.038   7.299
 4288SOL     OW30005   6.110   4.168   0.217
 4288SOL    HW130006   6.193   4.200   0.252
 4288SOL    HW230007   6.133   4.128   0.133
 4289SOL     OW30008   1.489   4.679   6.931
 4289SOL    HW130009   1.546   4.685   6.854
 4289SOL    HW230010   1.450   4.766   6.939
 4290SOL     OW30011   0.329   4.703   1.317
 4290SOL    HW130012   0.324   4.685   1.224
 4290SOL    HW230013   0.423   4.704   1.336
 4291SOL     OW30014   3.528   4.619   7.047
 4291SOL    HW130015   3.453   4.560   7.038
 4291SOL    HW230016   3.506   4.693   6.990
 4292SOL     OW30017   3.044   4.200   0.882
 4292SOL    HW130018   3.010   4.281   0.844
 4292SOL    HW230019   2.967   4.157   0.919
 4293SOL     OW30020   0.949   3.978   1.909
 4293SOL    HW130021   0.928   3.982   1.816
 4293SOL    HW230022   1.000   4.058   1.926
 4294SOL     OW30023   2.509   1.912   0.301
 4294SOL    HW130024   2.475   1.915   0.211
 4294SOL    HW230025   2.596   1.952   0.295
 4295SOL     OW30026   0.673   2.495   6.499
 4295SOL    HW130027   0.615   2.481   6.573
 4295SOL    HW230028   0.724   2.414   6.493
 4296SOL     OW30029   2.279   4.846   6.865
 4296SOL    HW130030   2.229   4.772   6.828
 4296SOL    HW230031   2.291   4.822   6.957
 4297SOL     OW30032   4.205   5.369   7.192
 4297SOL    HW130033   4.290   5.401   7.163
 4297SOL    HW230034   4.144   5.402   7.125
 4298SOL     OW30035   0.852   1.475   7.263
 4298SOL    HW130036   0.822   1.442   7.348
 4298SOL    HW230037   0.898   1.556   7.284
 4299SOL     OW30038   5.834   6.042   0.099
 4299SOL    HW130039   5.852   5.959   0.144
 4299SOL    HW230040   5.834   6.107   0.169
 4300SOL     OW30041   5.899   2.389   7.447
 4300SOL    HW130042   5.875   2.396   7.540
 4300SOL    HW230043   5.931   2.477   7.425
 4301SOL     OW30044   0.636   1.419   1.339
 4301SOL    HW130045   0.704   1.473   1.379
 4301SOL    HW230046   0.600   1.368   1.412
 4302SOL     OW30047   2.434   3.429   0.582
 4302SOL    HW130048   2.423   3.334   0.587
 4302SOL    HW230049   2.364   3.464   0.637
 4303SOL     OW30050   2.808   0.555   1.021
 4303SOL    HW130051   2.787   0.611   0.946
 4303SOL    HW230052   2.741   0.487   1.019
 4304SOL     OW30053   1.484   0.696   7.494
 4304SOL    HW130054   1.430   0.639   7.438
 4304SOL    HW230055   1.456   0.785   7.471
 4305SOL     OW30056   0.421   5.207   7.066
 4305SOL    HW130057   0.436   5.266   7.140
 4305SOL    HW230058   0.419   5.120   7.106
 4306SOL     OW30059   3.780   4.568   5.273
 4306SOL    HW130060   3.775   4.571   5.369
 4306SOL    HW230061   3.857   4.513   5.255
 4307SOL     OW30062   6.015   4.005   5.845
 4307SOL    HW130063   6.098   4.048   5.864
 4307SOL    HW230064   6.030   3.913   5.866
 4308SOL     OW30065   2.981   5.447   1.379
 4308SOL    HW130066   3.040   5.522   1.370
 4308SOL    HW230067   2.977   5.430   1.473
 4309SOL     OW30068   0.267   2.439   7.171
 4309SOL    HW130069   0.177   2.427   7.202
 4309SOL    HW230070   0.293   2.524   7.205
 4310SOL     OW30071   4.115   0.664   6.981
 4310SOL    HW130072   4.198   0.627   7.012
 4310SOL    HW230073   4.079   0.708   7.058
 4311SOL     OW30074   3.322   0.308   6.618
 4311SOL    HW130075   3.402   0.360   6.609
 4311SOL    HW230076   3.281   0.312   6.532
 4312SOL     OW30077   1.610   0.117   6.684
 4312SOL    HW130078   1.573   0.139   6.599
 4312SOL    HW230079   1.704   0.107   6.668
 4313SOL     OW30080   0.013   3.085   0.220
 4313SOL    HW130081   0.026   3.145   0.294
 4313SOL    HW230082   0.084   3.022   0.227
 4314SOL     OW30083   3.652   3.707   7.563
 4314SOL    HW130084   3.600   3.654   7.624
 4314SOL    HW230085   3.730   3.654   7.545
 4315SOL     OW30086   3.314   1.680   1.426
 4315SOL    HW130087   3.336   1.694   1.518
 4315SOL    HW230088   3.391   1.708   1.378
 4316SOL     OW30089   1.956   3.518   6.933
 4316SOL    HW130090   1.921   3.479   7.013
 4316SOL    HW230091   2.051   3.503   6.938
 4317SOL     OW30092   6.154   5.122   0.923
 4317SOL    HW130093   6.124   5.152   0.838
 4317SOL    HW230094   6.090   5.156   0.985
 4318SOL     OW30095   4.816   3.592   6.080
 4318SOL    HW130096   4.881   3.608   6.011
 4318SOL    HW230097   4.869   3.575   6.158
 4319SOL     OW30098   4.686   5.895   1.832
 4319SOL    HW130099   4.756   5.856   1.884
 4319SOL    HW230100   4.615   5.910   1.894
 4320SOL     OW30101   2.008   1.386   7.090
 4320SOL    HW130102   1.931   1.417   7.137
 4320SOL    HW230103   2.000   1.291   7.089
 4321SOL     OW30104   1.659   3.469   7.343
 4321SOL    HW130105   1.567   3.453   7.321
 4321SOL    HW230106   1.708   3.434   7.269
 4322SOL     OW30107   0.712   5.684   1.774
 4322SOL    HW130108   0.619   5.683   1.796
 4322SOL    HW230109   0.738   5.592   1.774
 4323SOL     OW30110   6.397   5.683   0.258
 4323SOL    HW130111   6.318   5.673   0.311
 4323SOL    HW230112   6.406   5.599   0.213
 4324SOL     OW30113   0.305   3.845   7.803
 4324SOL    HW130114   0.297   3.750   7.793
 4324SOL    HW230115   0.266   3.863   7.888
 4325SOL     OW30116   4.010   5.677   0.090
 4325SOL    HW130117   4.102   5.651   0.095
 4325SOL    HW230118   3.983   5.650   0.002
 4326SOL     OW30119   3.870   6.426   5.789
 4326SOL    HW130120   3.865   6.479   5.868
 4326SOL    HW230121   3.782   6.431   5.751
 4327SOL     OW30122   4.401   6.251   0.722
 4327SOL    HW130123   4.493   6.272   0.707
 4327SOL    HW230124   4.355   6.295   0.651
 4328SOL     OW30125   2.248   5.639   7.838
 4328SOL    HW130126   2.327   5.594   7.869
 4328SOL    HW230127   2.279   5.694   7.767
 4329SOL     OW30128   1.255   2.588   2.529
 4329SOL    HW130129   1.264   2.621   2.619
 4329SOL    HW230130   1.195   2.651   2.488
 4330SOL     OW30131   4.556   1.994   0.869
 4330SOL    HW130132   4.616   2.056   0.910
 4330SOL    HW230133   4.498   2.048   0.815
 4331SOL     OW30134   4.376   6.309   5.660
 4331SOL    HW130135   4.283   6.301   5.678
 4331SOL    HW230136   4.390   6.403   5.647
 4332SOL     OW30137   5.571   0.690   1.895
 4332SOL    HW130138   5.580   0.743   1.975
 4332SOL    HW230139   5.482   0.709   1.864
 4333SOL     OW30140   6.349   1.132   1.296
 4333SOL    HW130141   6.360   1.221   1.330
 4333SOL    HW230142   6.391   1.075   1.360
 4334SOL     OW30143   0.318   3.153   5.752
 4334SOL    HW130144   0.238   3.111   5.784
 4334SOL    HW230145   0.357   3.191   5.831
 4335SOL     OW30146   5.290   2.889   1.167
 4335SOL    HW130147   5.219   2.945   1.139
 4335SOL    HW230148   5.251   2.832   1.234
 4336SOL     OW30149   5.896   2.586   1.527
 4336SOL    HW130150   5.845   2.624   1.456
 4336SOL    HW230151   5.978   2.634   1.526
 4337SOL     OW30152   1.893   6.020   0.064
 4337SOL    HW130153   1.942   5.939   0.057
 4337SOL    HW230154   1.855   6.033  -0.023
 4338SOL     OW30155   4.819   4.513   2.555
 4338SOL    HW130156   4.856   4.593   2.592
 4338SOL    HW230157   4.726   4.532   2.543
 4339SOL     OW30158   3.269   4.027   7.575
 4339SOL    HW130159   3.361   4.032   7.547
 4339SOL    HW230160   3.219   4.032   7.494
 4340SOL     OW30161   2.284   5.523   6.898
 4340SOL    HW130162   2.310   5.483   6.981
 4340SOL    HW230163   2.237   5.453   6.852
 4341SOL     OW30164   1.923   3.801   6.945
 4341SOL    HW130165   1.939   3.708   6.964
 4341SOL    HW230166   1.851   3.825   7.003
 4342SOL     OW30167   2.892   5.540   6.943
 4342SOL    HW130168   2.939   5.538   7.027
 4342SOL    HW230169   2.928   5.617   6.898
 4343SOL     OW30170   0.002   2.269   7.323
 4343SOL    HW130171  -0.073   2.232   7.370
 4343SOL    HW230172   0.078   2.221   7.357
 4344SOL     OW30173   0.445   5.879   0.610
 4344SOL    HW130174   0.396   5.798   0.597
 4344SOL    HW230175   0.516   5.876   0.546
 4345SOL     OW30176   3.537   1.638   6.284
 4345SOL    HW130177   3.623   1.648   6.325
 4345SOL    HW230178   3.477   1.624   6.356
 4346SOL     OW30179   0.348   1.266   0.313
 4346SOL    HW130180   0.376   1.207   0.243
 4346SOL    HW230181   0.266   1.229   0.345
 4347SOL     OW30182   1.644   0.734   1.062
 4347SOL    HW130183   1.549   0.741   1.070
 4347SOL    HW230184   1.661   0.640   1.060
 4348SOL     OW30185   1.125   5.311   7.610
 4348SOL    HW130186   1.159   5.247   7.547
 4348SOL    HW230187   1.116   5.262   7.691
 4349SOL     OW30188   6.392   2.736   1.816
 4349SOL    HW130189   6.381   2.818   1.865
 4349SOL    HW230190   6.342   2.750   1.736
 4350SOL     OW30191   5.839   3.232   6.191
 4350SOL    HW130192   5.927   3.197   6.197
 4350SOL    HW230193   5.851   3.324   6.165
 4351SOL     OW30194   1.724   2.078   0.669
 4351SOL    HW130195   1.775   2.159   0.668
 4351SOL    HW230196   1.701   2.063   0.577
 4352SOL     OW30197   1.884   6.004   6.906
 4352SOL    HW130198   1.807   5.955   6.934
 4352SOL    HW230199   1.957   5.944   6.919
 4353SOL     OW30200   1.723   5.094   2.416
 4353SOL    HW130201   1.643   5.088   2.468
 4353SOL    HW230202   1.728   5.012   2.368
 4354SOL     OW30203   4.666   4.678   7.371
 4354SOL    HW130204   4.714   4.717   7.298
 4354SOL    HW230205   4.727   4.684   7.445
 4355SOL     OW30206   0.201   5.572   0.357
 4355SOL    HW130207   0.273   5.562   0.295
 4355SOL    HW230208   0.135   5.510   0.327
 4356SOL     OW30209   4.564   0.454   5.932
 4356SOL    HW130210   4.517   0.526   5.891
 4356SOL    HW230211   4.640   0.439   5.876
 4357SOL     OW30212   4.969   0.235   5.800
 4357SOL    HW130213   4.893   0.284   5.767
 4357SOL    HW230214   5.013   0.202   5.721
 4358SOL     OW30215   0.402   3.714   1.724
 4358SOL    HW130216   0.425   3.636   1.775
 4358SOL    HW230217   0.355   3.770   1.787
 4359SOL     OW30218   0.653   4.551   0.325
 4359SOL    HW130219   0.649   4.458   0.301
 4359SOL    HW230220   0.608   4.555   0.410
 4360SOL     OW30221   2.886   2.167   7.500
 4360SOL    HW130222   2.905   2.126   7.416
 4360SOL    HW230223   2.802   2.130   7.527
 4361SOL     OW30224   1.691   2.528   2.464
 4361SOL    HW130225   1.775   2.511   2.506
 4361SOL    HW230226   1.706   2.507   2.372
 4362SOL     OW30227   5.392   3.803   1.889
 4362SOL    HW130228   5.355   3.738   1.950
 4362SOL    HW230229   5.325   3.871   1.885
 4363SOL     OW30230   2.636   5.672   0.401
 4363SOL    HW130231   2.703   5.627   0.349
 4363SOL    HW230232   2.667   5.663   0.492
 4364SOL     OW30233   4.318   3.720   1.239
 4364SOL    HW130234   4.286   3.653   1.179
 4364SOL    HW230235   4.385   3.677   1.291
 4365SOL     OW30236   3.721   6.166   6.515
 4365SOL    HW130237   3.632   6.149   6.483
 4365SOL    HW230238   3.750   6.242   6.465
 4366SOL     OW30239   3.454   1.603   1.973
 4366SOL    HW130240   3.383   1.562   1.923
 4366SOL    HW230241   3.460   1.692   1.937
 4367SOL     OW30242   4.517   4.462   2.446
 4367SOL    HW130243   4.519   4.376   2.488
 4367SOL    HW230244   4.487   4.444   2.357
 4368SOL     OW30245   0.086   1.720   5.453
 4368SOL    HW130246   0.125   1.633   5.451
 4368SOL    HW230247   0.086   1.749   5.361
 4369SOL     OW30248   5.172   5.684   7.232
 4369SOL    HW130249   5.089   5.730   7.223
 4369SOL    HW230250   5.148   5.594   7.254
 4370SOL     OW30251   2.777   1.779   0.584
 4370SOL    HW130252   2.723   1.707   0.615
 4370SOL    HW230253   2.832   1.740   0.516
 4371SOL     OW30254   1.256   3.329   6.387
 4371SOL    HW130255   1.266   3.422   6.366
 4371SOL    HW230256   1.285   3.284   6.308
 4372SOL     OW30257   2.219   1.655   1.083
 4372SOL    HW130258   2.202   1.578   1.136
 4372SOL    HW230259   2.147   1.657   1.020
 4373SOL     OW30260   4.011   2.609   1.003
 4373SOL    HW130261   4.062   2.652   0.935
 4373SOL    HW230262   3.986   2.525   0.965
 4374SOL     OW30263   4.614   0.555   6.324
 4374SOL    HW130264   4.606   0.559   6.419
 4374SOL    HW230265   4.535   0.509   6.296
 4375SOL     OW30266   0.030   1.514   1.026
 4375SOL    HW130267  -0.060   1.487   1.043
 4375SOL    HW230268   0.083   1.441   1.056
 4376SOL     OW30269   4.072   0.989   2.164
 4376SOL    HW130270   4.111   0.989   2.251
 4376SOL    HW230271   4.080   1.080   2.135
 4377SOL     OW30272   5.364   6.355   7.822
 4377SOL    HW130273   5.284   6.362   7.769
 4377SOL    HW230274   5.341   6.396   7.905
 4378SOL     OW30275   0.365   4.436   5.908
 4378SOL    HW130276   0.276   4.431   5.943
 4378SOL    HW230277   0.379   4.352   5.865
 4379SOL     OW30278   3.516   2.775   7.076
 4379SOL    HW130279   3.522   2.802   7.167
 4379SOL    HW230280   3.586   2.712   7.064
 4380SOL     OW30281   1.611   1.016   7.487
 4380SOL    HW130282   1.687   1.073   7.488
 4380SOL    HW230283   1.628   0.954   7.416
 4381SOL     OW30284   6.128   2.653   1.243
 4381SOL    HW130285   6.137   2.745   1.269
 4381SOL    HW230286   6.055   2.653   1.181
 4382SOL     OW30287   0.500   1.821   6.454
 4382SOL    HW130288   0.581   1.805   6.502
 4382SOL    HW230289   0.495   1.750   6.390
 4383SOL     OW30290   3.735   3.375   6.664
 4383SOL    HW130291   3.721   3.306   6.730
 4383SOL    HW230292   3.829   3.391   6.667
 4384SOL     OW30293   3.053   2.126   6.473
 4384SOL    HW130294   3.112   2.058   6.505
 4384SOL    HW230295   3.095   2.160   6.393
 4385SOL     OW30296   1.622   1.613   6.694
 4385SOL    HW130297   1.633   1.702   6.661
 4385SOL    HW230298   1.645   1.618   6.786
 4386SOL     OW30299   3.639   4.209   6.036
 4386SOL    HW130300   3.703   4.200   6.107
 4386SOL    HW230301   3.579   4.277   6.068
 4387SOL     OW30302   0.121   4.574   0.873
 4387SOL    HW130303   0.029   4.554   0.887
 4387SOL    HW230304   0.163   4.489   0.858
 4388SOL     OW30305   0.404   5.165   0.208
 4388SOL    HW130306   0.353   5.097   0.252
 4388SOL    HW230307   0.493   5.130   0.204
 4389SOL     OW30308   3.305   0.033   1.139
 4389SOL    HW130309   3.371   0.053   1.073
 4389SOL    HW230310   3.227   0.080   1.109
 4390SOL     OW30311   4.352   5.560   6.038
 4390SOL    HW130312   4.361   5.612   5.957
 4390SOL    HW230313   4.343   5.470   6.007
 4391SOL     OW30314   4.557   2.033   1.312
 4391SOL    HW130315   4.649   2.060   1.309
 4391SOL    HW230316   4.527   2.060   1.399
 4392SOL     OW30317   6.118   0.488   6.783
 4392SOL    HW130318   6.157   0.402   6.798
 4392SOL    HW230319   6.097   0.520   6.871
 4393SOL     OW30320   2.187   1.184   6.553
 4393SOL    HW130321   2.215   1.155   6.639
 4393SOL    HW230322   2.141   1.266   6.569
 4394SOL     OW30323   1.006   6.305   7.696
 4394SOL    HW130324   1.039   6.244   7.630
 4394SOL    HW230325   0.997   6.251   7.776
 4395SOL     OW30326   2.418   4.707   0.853
 4395SOL    HW130327   2.415   4.750   0.767
 4395SOL    HW230328   2.488   4.642   0.844
 4396SOL     OW30329   4.500   1.136   5.749
 4396SOL    HW130330   4.545   1.057   5.719
 4396SOL    HW230331   4.417   1.105   5.784
 4397SOL     OW30332   4.548   1.611   1.981
 4397SOL    HW130333   4.524   1.685   1.925
 4397SOL    HW230334   4.506   1.630   2.065
 4398SOL     OW30335   1.589   5.798   2.166
 4398SOL    HW130336   1.555   5.864   2.226
 4398SOL    HW230337   1.635   5.849   2.099
 4399SOL     OW30338   5.912   0.425   0.358
 4399SOL    HW130339   5.985   0.444   0.418
 4399SOL    HW230340   5.835   0.459   0.404
 4400SOL     OW30341   0.882   5.866   6.374
 4400SOL    HW130342   0.868   5.959   6.387
 4400SOL    HW230343   0.843   5.848   6.288
 4401SOL     OW30344   3.462   5.700   6.754
 4401SOL    HW130345   3.462   5.604   6.762
 4401SOL    HW230346   3.536   5.718   6.696
 4402SOL     OW30347   3.669   6.376   1.238
 4402SOL    HW130348   3.712   6.434   1.176
 4402SOL    HW230349   3.729   6.302   1.247
 4403SOL     OW30350   0.522   1.598   0.620
 4403SOL    HW130351   0.515   1.693   0.613
 4403SOL    HW230352   0.501   1.566   0.532
 4404SOL     OW30353   5.875   1.838   7.054
 4404SOL    HW130354   5.864   1.806   7.143
 4404SOL    HW230355   5.809   1.791   7.003
 4405SOL     OW30356   4.757   6.363   5.257
 4405SOL    HW130357   4.671   6.381   5.293
 4405SOL    HW230358   4.798   6.449   5.247
 4406SOL     OW30359   4.680   4.686   6.103
 4406SOL    HW130360   4.679   4.594   6.078
 4406SOL    HW230361   4.743   4.726   6.043
 4407SOL     OW30362   1.474   2.844   1.849
 4407SOL    HW130363   1.430   2.760   1.845
 4407SOL    HW230364   1.404   2.908   1.861
 4408SOL     OW30365   1.572   4.309   6.361
 4408SOL    HW130366   1.527   4.391   6.344
 4408SOL    HW230367   1.654   4.335   6.403
 4409SOL     OW30368   3.788   0.795   7.813
 4409SOL    HW130369   3.819   0.727   7.753
 4409SOL    HW230370   3.729   0.748   7.873
 4410SOL     OW30371   5.621   6.172   1.106
 4410SOL    HW130372   5.615   6.078   1.123
 4410SOL    HW230373   5.534   6.206   1.126
 4411SOL     OW30374   0.369   0.478   7.597
 4411SOL    HW130375   0.396   0.564   7.563
 4411SOL    HW230376   0.403   0.416   7.533
 4412SOL     OW30377   5.265   2.038   0.943
 4412SOL    HW130378   5.257   2.006   0.854
 4412SOL    HW230379   5.354   2.072   0.949
 4413SOL     OW30380   2.696   4.570   6.605
 4413SOL    HW130381   2.686   4.503   6.537
 4413SOL    HW230382   2.669   4.651   6.563
 4414SOL     OW30383   2.936   0.017   1.129
 4414SOL    HW130384   2.859   0.061   1.093
 4414SOL    HW230385   2.903  -0.029   1.206
 4415SOL     OW30386   2.626   3.593   0.684
 4415SOL    HW130387   2.561   3.547   0.631
 4415SOL    HW230388   2.699   3.531   0.690
 4416SOL     OW30389   6.264   3.004   1.623
 4416SOL    HW130390   6.288   3.053   1.701
 4416SOL    HW230391   6.310   3.047   1.551
 4417SOL     OW30392   0.567   1.496   5.711
 4417SOL    HW130393   0.551   1.467   5.621
 4417SOL    HW230394   0.609   1.582   5.701
 4418SOL     OW30395   0.658   2.205   0.425
 4418SOL    HW130396   0.651   2.110   0.413
 4418SOL    HW230397   0.579   2.229   0.474
 4419SOL     OW30398   2.584   3.400   1.329
 4419SOL    HW130399   2.630   3.365   1.253
 4419SOL    HW230400   2.548   3.323   1.373
 4420SOL     OW30401   0.163   6.184   5.796
 4420SOL    HW130402   0.084   6.131   5.811
 4420SOL    HW230403   0.234   6.121   5.794
 4421SOL     OW30404   4.985   5.183   6.832
 4421SOL    HW130405   5.041   5.122   6.879
 4421SOL    HW230406   4.927   5.220   6.899
 4422SOL     OW30407   0.146   4.878   0.015
 4422SOL    HW130408   0.077   4.944   0.028
 4422SOL    HW230409   0.195   4.879   0.097
 4423SOL     OW30410   2.541   5.487   7.689
 4423SOL    HW130411   2.479   5.560   7.683
 4423SOL    HW230412   2.621   5.527   7.723
 4424SOL     OW30413   0.119   0.447   5.903
 4424SOL    HW130414   0.067   0.453   5.983
 4424SOL    HW230415   0.057   0.424   5.834
 4425SOL     OW30416   4.912   2.748   0.439
 4425SOL    HW130417   4.991   2.738   0.386
 4425SOL    HW230418   4.928   2.692   0.516
 4426SOL     OW30419   0.455   2.405   1.373
 4426SOL    HW130420   0.395   2.389   1.300
 4426SOL    HW230421   0.408   2.466   1.429
 4427SOL     OW30422   2.633   3.770   1.660
 4427SOL    HW130423   2.719   3.729   1.663
 4427SOL    HW230424   2.647   3.858   1.693
 4428SOL     OW30425   6.132   5.855   1.487
 4428SOL    HW130426   6.178   5.900   1.558
 4428SOL    HW230427   6.084   5.784   1.531
 4429SOL     OW30428   2.392   2.472   6.619
 4429SOL    HW130429   2.392   2.514   6.705
 4429SOL    HW230430   2.439   2.533   6.562
 4430SOL     OW30431   1.138   1.249   6.770
 4430SOL    HW130432   1.172   1.172   6.816
 4430SOL    HW230433   1.051   1.263   6.808
 4431SOL     OW30434   1.175   2.405   0.770
 4431SOL    HW130435   1.173   2.445   0.683
 4431SOL    HW230436   1.253   2.442   0.811
 4432SOL     OW30437   4.857   6.319   6.538
 4432SOL    HW130438   4.899   6.353   6.617
 4432SOL    HW230439   4.778   6.275   6.569
 4433SOL     OW30440   3.692   0.369   1.163
 4433SOL    HW130441   3.612   0.383   1.113
 4433SOL    HW230442   3.662   0.361   1.254
 4434SOL     OW30443   5.357   2.034   2.196
 4434SOL    HW130444   5.421   2.044   2.267
 4434SOL    HW230445   5.303   2.113   2.202
 4435SOL     OW30446   6.029   5.008   0.063
 4435SOL    HW130447   6.030   4.920   0.027
 4435SOL    HW230448   5.962   5.006   0.131
 4436SOL     OW30449   0.175   3.833   1.449
 4436SOL    HW130450   0.179   3.738   1.453
 4436SOL    HW230451   0.097   3.856   1.500
 4437SOL     OW30452   5.682   2.362   7.231
 4437SOL    HW130453   5.652   2.271   7.235
 4437SOL    HW230454   5.640   2.405   7.306
 4438SOL     OW30455   2.877   5.705   5.650
 4438SOL    HW130456   2.797   5.718   5.701
 4438SOL    HW230457   2.947   5.734   5.708
 4439SOL     OW30458   5.533   1.937   1.019
 4439SOL    HW130459   5.574   1.910   0.937
 4439SOL    HW230460   5.594   1.999   1.058
 4440SOL     OW30461   3.638   5.520   7.572
 4440SOL    HW130462   3.585   5.503   7.649
 4440SOL    HW230463   3.675   5.607   7.586
 4441SOL     OW30464   5.708   3.741   5.899
 4441SOL    HW130465   5.798   3.760   5.875
 4441SOL    HW230466   5.682   3.815   5.955
 4442SOL     OW30467   4.420   5.367   0.069
 4442SOL    HW130468   4.354   5.323   0.016
 4442SOL    HW230469   4.501   5.320   0.050
 4443SOL     OW30470   5.960   0.658   1.008
 4443SOL    HW130471   5.998   0.742   0.982
 4443SOL    HW230472   6.031   0.615   1.056
 4444SOL     OW30473   2.415   5.449   0.065
 4444SOL    HW130474   2.397   5.367   0.110
 4444SOL    HW230475   2.455   5.423  -0.018
 4445SOL     OW30476   5.375   4.524   6.899
 4445SOL    HW130477   5.444   4.585   6.927
 4445SOL    HW230478   5.321   4.575   6.839
 4446SOL     OW30479   5.053   4.874   7.427
 4446SOL    HW130480   5.023   4.818   7.498
 4446SOL    HW230481   4.992   4.947   7.425
 4447SOL     OW30482   1.135   3.939   7.007
 4447SOL    HW130483   1.146   4.012   6.946
 4447SOL    HW230484   1.093   3.871   6.956
 4448SOL     OW30485   6.248   2.168   5.744
 4448SOL    HW130486   6.199   2.250   5.751
 4448SOL    HW230487   6.337   2.191   5.772
 4449SOL     OW30488   1.141   4.791   7.574
 4449SOL    HW130489   1.101   4.777   7.488
 4449SOL    HW230490   1.232   4.814   7.554
 4450SOL     OW30491   2.720   0.144   6.679
 4450SOL    HW130492   2.698   0.157   6.771
 4450SOL    HW230493   2.735   0.049   6.672
 4451SOL     OW30494   4.526   4.940   0.341
 4451SOL    HW130495   4.572   4.942   0.257
 4451SOL    HW230496   4.596   4.944   0.407
 4452SOL     OW30497   4.057   0.163   0.932
 4452SOL    HW130498   4.086   0.114   1.009
 4452SOL    HW230499   4.114   0.240   0.929
 4453SOL     OW30500   0.765   2.005   6.267
 4453SOL    HW130501   0.778   2.094   6.300
 4453SOL    HW230502   0.852   1.965   6.270
 4454SOL     OW30503   5.415   5.872   0.051
 4454SOL    HW130504   5.393   5.838  -0.036
 4454SOL    HW230505   5.493   5.824   0.077
 4455SOL     OW30506   0.603   5.338   1.127
 4455SOL    HW130507   0.600   5.278   1.202
 4455SOL    HW230508   0.646   5.288   1.058
 4456SOL     OW30509   6.329   2.604   1.093
 4456SOL    HW130510   6.267   2.624   1.163
 4456SOL    HW230511   6.367   2.520   1.117
 4457SOL     OW30512   5.835   5.964   1.301
 4457SOL    HW130513   5.852   6.048   1.343
 4457SOL    HW230514   5.855   5.899   1.368
 4458SOL     OW30515   2.686   4.148   6.901
 4458SOL    HW130516   2.714   4.128   6.990
 4458SOL    HW230517   2.693   4.064   6.854
 4459SOL     OW30518   5.293   5.425   1.026
 4459SOL    HW130519   5.367   5.486   1.025
 4459SOL    HW230520   5.252   5.434   0.940
 4460SOL     OW30521   3.595   3.586   7.131
 4460SOL    HW130522   3.687   3.585   7.103
 4460SOL    HW230523   3.545   3.596   7.051
 4461SOL     OW30524   4.519   4.536   1.331
 4461SOL    HW130525   4.493   4.463   1.275
 4461SOL    HW230526   4.574   4.591   1.276
 4462SOL     OW30527   2.472   5.955   7.015
 4462SOL    HW130528   2.481   5.867   6.978
 4462SOL    HW230529   2.431   6.007   6.946
 4463SOL     OW30530   5.915   0.240   6.755
 4463SOL    HW130531   5.863   0.261   6.832
 4463SOL    HW230532   5.991   0.298   6.759
 4464SOL     OW30533   3.896   1.241   1.311
 4464SOL    HW130534   3.975   1.295   1.315
 4464SOL    HW230535   3.881   1.227   1.218
 4465SOL     OW30536   1.992   2.246   6.904
 4465SOL    HW130537   2.043   2.167   6.886
 4465SOL    HW230538   1.901   2.218   6.893
 4466SOL     OW30539   5.413   1.497   6.593
 4466SOL    HW130540   5.377   1.429   6.650
 4466SOL    HW230541   5.378   1.579   6.626
 4467SOL     OW30542   2.054   3.605   0.397
 4467SOL    HW130543   2.074   3.608   0.491
 4467SOL    HW230544   2.096   3.684   0.361
 4468SOL     OW30545   4.882   5.855   1.351
 4468SOL    HW130546   4.787   5.866   1.349
 4468SOL    HW230547   4.916   5.944   1.342
 4469SOL     OW30548   6.078   3.473   7.194
 4469SOL    HW130549   6.101   3.380   7.188
 4469SOL    HW230550   6.030   3.491   7.113
 4470SOL     OW30551   1.495   6.092   6.647
 4470SOL    HW130552   1.495   6.165   6.710
 4470SOL    HW230553   1.544   6.125   6.572
 4471SOL     OW30554   2.559   0.028   0.526
 4471SOL    HW130555   2.629   0.081   0.488
 4471SOL    HW230556   2.594  -0.002   0.610
 4472SOL     OW30557   2.613   1.728   7.732
 4472SOL    HW130558   2.583   1.711   7.643
 4472SOL    HW230559   2.572   1.660   7.786
 4473SOL     OW30560   2.734   5.670   0.723
 4473SOL    HW130561   2.694   5.738   0.778
 4473SOL    HW230562   2.785   5.617   0.783
 4474SOL     OW30563   1.983   3.738   6.354
 4474SOL    HW130564   1.899   3.785   6.362
 4474SOL    HW230565   2.048   3.807   6.346
 4475SOL     OW30566   4.843   1.905   1.120
 4475SOL    HW130567   4.862   1.988   1.077
 4475SOL    HW230568   4.886   1.839   1.065
 4476SOL     OW30569   5.741   5.271   1.248
 4476SOL    HW130570   5.715   5.338   1.311
 4476SOL    HW230571   5.668   5.211   1.246
 4477SOL     OW30572   4.310   5.084   0.151
 4477SOL    HW130573   4.251   5.016   0.183
 4477SOL    HW230574   4.337   5.132   0.230
 4478SOL     OW30575   1.853   4.324   2.342
 4478SOL    HW130576   1.762   4.295   2.329
 4478SOL    HW230577   1.884   4.272   2.416
 4479SOL     OW30578   5.492   0.686   5.443
 4479SOL    HW130579   5.501   0.591   5.454
 4479SOL    HW230580   5.536   0.722   5.520
 4480SOL     OW30581   2.695   5.202   5.752
 4480SOL    HW130582   2.763   5.266   5.732
 4480SOL    HW230583   2.678   5.158   5.669
 4481SOL     OW30584   3.592   0.410   6.017
 4481SOL    HW130585   3.574   0.316   6.012
 4481SOL    HW230586   3.563   0.435   6.105
 4482SOL     OW30587   1.574   2.496   7.744
 4482SOL    HW130588   1.622   2.572   7.778
 4482SOL    HW230589   1.633   2.457   7.679
 4483SOL     OW30590   2.928   3.070   1.708
 4483SOL    HW130591   2.903   3.106   1.623
 4483SOL    HW230592   2.882   3.124   1.772
 4484SOL     OW30593   0.426   1.780   6.993
 4484SOL    HW130594   0.343   1.826   6.982
 4484SOL    HW230595   0.433   1.724   6.916
 4485SOL     OW30596   4.207   3.038   5.379
 4485SOL    HW130597   4.143   2.968   5.395
 4485SOL    HW230598   4.175   3.083   5.300
 4486SOL     OW30599   1.716   0.509   0.384
 4486SOL    HW130600   1.726   0.485   0.291
 4486SOL    HW230601   1.672   0.594   0.382
 4487SOL     OW30602   3.954   1.523   6.602
 4487SOL    HW130603   3.935   1.615   6.619
 4487SOL    HW230604   3.969   1.518   6.508
 4488SOL     OW30605   4.528   5.432   0.329
 4488SOL    HW130606   4.487   5.426   0.243
 4488SOL    HW230607   4.498   5.354   0.377
 4489SOL     OW30608   5.704   4.777   7.207
 4489SOL    HW130609   5.660   4.842   7.262
 4489SOL    HW230610   5.762   4.730   7.266
 4490SOL     OW30611   5.600   5.910   1.201
 4490SOL    HW130612   5.675   5.914   1.260
 4490SOL    HW230613   5.531   5.868   1.254
 4491SOL     OW30614   1.099   5.895   1.144
 4491SOL    HW130615   1.050   5.950   1.083
 4491SOL    HW230616   1.046   5.816   1.154
 4492SOL     OW30617   3.320   2.580   1.607
 4492SOL    HW130618   3.277   2.643   1.549
 4492SOL    HW230619   3.414   2.598   1.596
 4493SOL     OW30620   0.326   4.378   6.258
 4493SOL    HW130621   0.276   4.436   6.202
 4493SOL    HW230622   0.377   4.436   6.314
 4494SOL     OW30623   2.333   3.830   7.658
 4494SOL    HW130624   2.260   3.854   7.601
 4494SOL    HW230625   2.376   3.914   7.677
 4495SOL     OW30626   4.802   4.128   6.842
 4495SOL    HW130627   4.858   4.112   6.918
 4495SOL    HW230628   4.751   4.206   6.866
 4496SOL     OW30629   2.018   0.699   7.590
 4496SOL    HW130630   1.922   0.710   7.588
 4496SOL    HW230631   2.044   0.704   7.498
 4497SOL     OW30632   0.651   4.628   7.388
 4497SOL    HW130633   0.562   4.593   7.383
 4497SOL    HW230634   0.639   4.721   7.408
 4498SOL     OW30635   0.082   6.357   7.060
 4498SOL    HW130636   0.167   6.315   7.067
 4498SOL    HW230637   0.056   6.374   7.151
 4499SOL     OW30638   5.258   3.749   6.516
 4499SOL    HW130639   5.324   3.687   6.546
 4499SOL    HW230640   5.269   3.751   6.421
 4500SOL     OW30641   3.091   5.822   7.257
 4500SOL    HW130642   3.133   5.811   7.342
 4500SOL    HW230643   3.078   5.917   7.249
 4501SOL     OW30644   4.714   5.787   6.554
 4501SOL    HW130645   4.630   5.808   6.595
 4501SOL    HW230646   4.761   5.737   6.621
 4502SOL     OW30647   2.892   1.355   7.300
 4502SOL    HW130648   2.848   1.427   7.345
 4502SOL    HW230649   2.939   1.396   7.228
 4503SOL     OW30650   1.176   6.288   6.791
 4503SOL    HW130651   1.154   6.194   6.790
 4503SOL    HW230652   1.104   6.329   6.839
 4504SOL     OW30653   4.511   6.278   6.337
 4504SOL    HW130654   4.525   6.340   6.408
 4504SOL    HW230655   4.559   6.200   6.364
 4505SOL     OW30656   4.305   3.541   0.806
 4505SOL    HW130657   4.398   3.549   0.827
 4505SOL    HW230658   4.295   3.586   0.723
 4506SOL     OW30659   2.288   3.725   7.282
 4506SOL    HW130660   2.210   3.671   7.272
 4506SOL    HW230661   2.257   3.804   7.327
 4507SOL     OW30662   0.285   0.201   7.255
 4507SOL    HW130663   0.194   0.213   7.228
 4507SOL    HW230664   0.297   0.106   7.259
 4508SOL     OW30665   4.410   3.965   1.583
 4508SOL    HW130666   4.357   3.909   1.639
 4508SOL    HW230667   4.367   3.961   1.498
 4509SOL     OW30668   2.220   5.498   6.266
 4509SOL    HW130669   2.131   5.464   6.253
 4509SOL    HW230670   2.274   5.420   6.277
 4510SOL     OW30671   2.875   4.962   1.056
 4510SOL    HW130672   2.830   4.877   1.059
 4510SOL    HW230673   2.946   4.953   1.119
 4511SOL     OW30674   0.508   5.879   6.662
 4511SOL    HW130675   0.452   5.885   6.739
 4511SOL    HW230676   0.579   5.942   6.678
 4512SOL     OW30677   3.856   5.811   1.196
 4512SOL    HW130678   3.874   5.869   1.122
 4512SOL    HW230679   3.816   5.867   1.262
 4513SOL     OW30680   6.337   0.387   0.741
 4513SOL    HW130681   6.262   0.409   0.686
 4513SOL    HW230682   6.378   0.312   0.697
 4514SOL     OW30683   4.495   2.444   6.308
 4514SOL    HW130684   4.482   2.534   6.338
 4514SOL    HW230685   4.421   2.428   6.249
 4515SOL     OW30686   1.762   1.639   5.448
 4515SOL    HW130687   1.811   1.715   5.417
 4515SOL    HW230688   1.718   1.605   5.370
 4516SOL     OW30689   0.184   2.671   6.793
 4516SOL    HW130690   0.239   2.676   6.715
 4516SOL    HW230691   0.109   2.619   6.766
 4517SOL     OW30692   4.617   4.258   6.252
 4517SOL    HW130693   4.691   4.206   6.284
 4517SOL    HW230694   4.570   4.284   6.331
 4518SOL     OW30695   0.241   4.985   0.325
 4518SOL    HW130696   0.262   4.950   0.411
 4518SOL    HW230697   0.150   5.015   0.332
 4519SOL     OW30698   0.176   3.262   6.549
 4519SOL    HW130699   0.203   3.234   6.462
 4519SOL    HW230700   0.137   3.184   6.589
 4520SOL     OW30701   4.699   3.698   0.221
 4520SOL    HW130702   4.664   3.695   0.132
 4520SOL    HW230703   4.793   3.711   0.210
 4521SOL     OW30704   0.259   2.698   5.257
 4521SOL    HW130705   0.350   2.724   5.272
 4521SOL    HW230706   0.229   2.666   5.342
 4522SOL     OW30707   1.284   4.967   5.754
 4522SOL    HW130708   1.267   5.025   5.680
 4522SOL    HW230709   1.378   4.976   5.771
 4523SOL     OW30710   3.039   3.561   2.316
 4523SOL    HW130711   3.121   3.589   2.357
 4523SOL    HW230712   3.066   3.516   2.236
 4524SOL     OW30713   1.048   2.945   2.050
 4524SOL    HW130714   1.086   3.026   2.083
 4524SOL    HW230715   1.009   2.903   2.127
 4525SOL     OW30716   5.650   2.178   6.743
 4525SOL    HW130717   5.705   2.221   6.809
 4525SOL    HW230718   5.700   2.100   6.718
 4526SOL     OW30719   5.392   0.775   1.527
 4526SOL    HW130720   5.454   0.847   1.520
 4526SOL    HW230721   5.353   0.784   1.614
 4527SOL     OW30722   1.633   0.958   0.205
 4527SOL    HW130723   1.680   0.961   0.121
 4527SOL    HW230724   1.696   0.992   0.269
 4528SOL     OW30725   3.838   0.885   5.950
 4528SOL    HW130726   3.814   0.969   5.989
 4528SOL    HW230727   3.926   0.898   5.916
 4529SOL     OW30728   4.011   5.050   6.438
 4529SOL    HW130729   3.951   5.095   6.378
 4529SOL    HW230730   4.013   5.106   6.516
 4530SOL     OW30731   5.851   2.964   1.475
 4530SOL    HW130732   5.795   3.026   1.522
 4530SOL    HW230733   5.791   2.896   1.445
 4531SOL     OW30734   0.164   0.981   0.492
 4531SOL    HW130735   0.252   0.961   0.525
 4531SOL    HW230736   0.108   0.914   0.532
 4532SOL     OW30737   4.937   1.250   6.703
 4532SOL    HW130738   4.953   1.343   6.688
 4532SOL    HW230739   5.009   1.222   6.759
 4533SOL     OW30740   4.283   2.819   7.025
 4533SOL    HW130741   4.262   2.879   6.954
 4533SOL    HW230742   4.198   2.790   7.058
 4534SOL     OW30743   4.559   3.422   0.966
 4534SOL    HW130744   4.541   3.515   0.983
 4534SOL    HW230745   4.536   3.378   1.048
 4535SOL     OW30746   2.864   2.950   0.288
 4535SOL    HW130747   2.895   2.965   0.377
 4535SOL    HW230748   2.862   3.036   0.247
 4536SOL     OW30749   5.207   2.327   0.753
 4536SOL    HW130750   5.177   2.320   0.844
 4536SOL    HW230751   5.284   2.270   0.749
 4537SOL     OW30752   4.483   4.925   0.867
 4537SOL    HW130753   4.546   4.996   0.867
 4537SOL    HW230754   4.513   4.866   0.798
 4538SOL     OW30755   4.499   6.198   5.865
 4538SOL    HW130756   4.469   6.238   5.784
 4538SOL    HW230757   4.459   6.111   5.865
 4539SOL     OW30758   5.104   0.730   6.275
 4539SOL    HW130759   5.091   0.642   6.239
 4539SOL    HW230760   5.039   0.738   6.344
 4540SOL     OW30761   5.080   3.449   1.489
 4540SOL    HW130762   5.145   3.382   1.466
 4540SOL    HW230763   5.127   3.510   1.546
 4541SOL     OW30764  -0.001   1.832   7.261
 4541SOL    HW130765   0.038   1.754   7.221
 4541SOL    HW230766   0.061   1.902   7.242
 4542SOL     OW30767   6.361   4.166   0.880
 4542SOL    HW130768   6.423   4.132   0.944
 4542SOL    HW230769   6.341   4.255   0.911
 4543SOL     OW30770   5.244   0.195   7.604
 4543SOL    HW130771   5.174   0.130   7.596
 4543SOL    HW230772   5.237   0.227   7.694
 4544SOL     OW30773   1.000   5.093   6.467
 4544SOL    HW130774   1.003   5.138   6.551
 4544SOL    HW230775   1.088   5.104   6.431
 4545SOL     OW30776   2.205   3.847   0.379
 4545SOL    HW130777   2.256   3.927   0.386
 4545SOL    HW230778   2.226   3.798   0.458
 4546SOL     OW30779   4.824   3.272   6.359
 4546SOL    HW130780   4.748   3.243   6.308
 4546SOL    HW230781   4.895   3.277   6.295
 4547SOL     OW30782   2.643   0.399   1.991
 4547SOL    HW130783   2.566   0.387   1.935
 4547SOL    HW230784   2.632   0.486   2.028
 4548SOL     OW30785   1.951   2.882   0.668
 4548SOL    HW130786   2.001   2.850   0.744
 4548SOL    HW230787   1.867   2.836   0.675
 4549SOL     OW30788   2.781   0.434   7.009
 4549SOL    HW130789   2.802   0.460   7.099
 4549SOL    HW230790   2.822   0.501   6.954
 4550SOL     OW30791   5.928   4.557   7.173
 4550SOL    HW130792   5.856   4.494   7.180
 4550SOL    HW230793   5.941   4.567   7.078
 4551SOL     OW30794   5.813   1.245   7.274
 4551SOL    HW130795   5.770   1.162   7.255
 4551SOL    HW230796   5.772   1.276   7.355
 4552SOL     OW30797   1.037   0.775   6.206
 4552SOL    HW130798   1.106   0.840   6.189
 4552SOL    HW230799   0.995   0.805   6.287
 4553SOL     OW30800   4.554   0.700   0.512
 4553SOL    HW130801   4.469   0.708   0.554
 4553SOL    HW230802   4.534   0.677   0.421
 4554SOL     OW30803   5.778   3.864   2.685
 4554SOL    HW130804   5.829   3.868   2.603
 4554SOL    HW230805   5.698   3.817   2.661
 4555SOL     OW30806   1.738   1.807   1.191
 4555SOL    HW130807   1.750   1.881   1.250
 4555SOL    HW230808   1.827   1.779   1.169
 4556SOL     OW30809   4.788   5.421   0.799
 4556SOL    HW130810   4.855   5.480   0.832
 4556SOL    HW230811   4.720   5.422   0.867
 4557SOL     OW30812   4.565   2.640   1.150
 4557SOL    HW130813   4.536   2.622   1.240
 4557SOL    HW230814   4.502   2.704   1.117
 4558SOL     OW30815   2.282   0.395   2.118
 4558SOL    HW130816   2.274   0.480   2.075
 4558SOL    HW230817   2.328   0.414   2.199
 4559SOL     OW30818   3.165   1.591   0.520
 4559SOL    HW130819   3.165   1.496   0.523
 4559SOL    HW230820   3.073   1.616   0.520
 4560SOL     OW30821   3.600   6.006   6.063
 4560SOL    HW130822   3.656   6.063   6.116
 4560SOL    HW230823   3.524   6.061   6.041
 4561SOL     OW30824   1.365   4.918   6.983
 4561SOL    HW130825   1.351   4.998   7.034
 4561SOL    HW230826   1.370   4.948   6.893
 4562SOL     OW30827   2.239   2.205   1.350
 4562SOL    HW130828   2.297   2.226   1.424
 4562SOL    HW230829   2.237   2.109   1.348
 4563SOL     OW30830   5.439   3.578   6.311
 4563SOL    HW130831   5.489   3.498   6.326
 4563SOL    HW230832   5.484   3.644   6.363
 4564SOL     OW30833   0.714   3.569   1.720
 4564SOL    HW130834   0.691   3.606   1.805
 4564SOL    HW230835   0.782   3.626   1.685
 4565SOL     OW30836   1.926   4.652   1.016
 4565SOL    HW130837   1.979   4.573   1.006
 4565SOL    HW230838   1.856   4.643   0.952
 4566SOL     OW30839   3.267   1.329   5.407
 4566SOL    HW130840   3.320   1.406   5.427
 4566SOL    HW230841   3.181   1.364   5.383
 4567SOL     OW30842   6.187   5.146   7.779
 4567SOL    HW130843   6.127   5.093   7.830
 4567SOL    HW230844   6.219   5.088   7.710
 4568SOL     OW30845   5.733   0.734   7.335
 4568SOL    HW130846   5.640   0.745   7.357
 4568SOL    HW230847   5.779   0.786   7.401
 4569SOL     OW30848   5.924   3.604   7.025
 4569SOL    HW130849   5.842   3.558   7.005
 4569SOL    HW230850   5.896   3.691   7.054
 4570SOL     OW30851   5.532   0.950   7.797
 4570SOL    HW130852   5.575   0.869   7.823
 4570SOL    HW230853   5.536   1.006   7.875
 4571SOL     OW30854   4.976   0.220   6.142
 4571SOL    HW130855   4.965   0.185   6.230
 4571SOL    HW230856   5.031   0.156   6.097
 4572SOL     OW30857   5.631   2.568   7.441
 4572SOL    HW130858   5.720   2.585   7.473
 4572SOL    HW230859   5.599   2.655   7.415
 4573SOL     OW30860   5.334   3.420   5.633
 4573SOL    HW130861   5.409   3.395   5.580
 4573SOL    HW230862   5.349   3.513   5.653
 4574SOL     OW30863   5.320   0.281   1.529
 4574SOL    HW130864   5.336   0.241   1.444
 4574SOL    HW230865   5.360   0.221   1.592
 4575SOL     OW30866   1.968   3.937   0.637
 4575SOL    HW130867   2.062   3.923   0.627
 4575SOL    HW230868   1.939   3.968   0.552
 4576SOL     OW30869   0.398   3.427   0.828
 4576SOL    HW130870   0.408   3.521   0.818
 4576SOL    HW230871   0.394   3.393   0.738
 4577SOL     OW30872   4.418   2.669   7.214
 4577SOL    HW130873   4.356   2.711   7.153
 4577SOL    HW230874   4.379   2.683   7.300
 4578SOL     OW30875   3.884   2.155   6.623
 4578SOL    HW130876   3.924   2.128   6.706
 4578SOL    HW230877   3.908   2.247   6.614
 4579SOL     OW30878   6.062   4.814   7.137
 4579SOL    HW130879   5.992   4.751   7.151
 4579SOL    HW230880   6.134   4.763   7.100
 4580SOL     OW30881   4.120   6.014   1.070
 4580SOL    HW130882   4.108   5.980   1.159
 4580SOL    HW230883   4.092   6.105   1.075
 4581SOL     OW30884   3.818   3.568   6.972
 4581SOL    HW130885   3.873   3.491   6.953
 4581SOL    HW230886   3.788   3.598   6.886
 4582SOL     OW30887   3.837   4.779   0.066
 4582SOL    HW130888   3.804   4.862   0.100
 4582SOL    HW230889   3.798   4.712   0.122
 4583SOL     OW30890   6.280   4.291   5.949
 4583SOL    HW130891   6.369   4.324   5.963
 4583SOL    HW230892   6.267   4.294   5.855
 4584SOL     OW30893   3.058   4.797   0.137
 4584SOL    HW130894   3.045   4.885   0.171
 4584SOL    HW230895   2.982   4.747   0.168
 4585SOL     OW30896   2.716   0.203   1.393
 4585SOL    HW130897   2.800   0.249   1.395
 4585SOL    HW230898   2.650   0.273   1.394
 4586SOL     OW30899   6.292   0.616   2.338
 4586SOL    HW130900   6.254   0.698   2.370
 4586SOL    HW230901   6.224   0.578   2.283
 4587SOL     OW30902   2.247   5.129   7.708
 4587SOL    HW130903   2.192   5.207   7.710
 4587SOL    HW230904   2.304   5.137   7.785
 4588SOL     OW30905   0.692   5.129   0.240
 4588SOL    HW130906   0.721   5.144   0.150
 4588SOL    HW230907   0.672   5.035   0.243
 4589SOL     OW30908   1.380   1.636   1.750
 4589SOL    HW130909   1.460   1.652   1.800
 4589SOL    HW230910   1.309   1.665   1.808
 4590SOL     OW30911   3.666   3.704   1.346
 4590SOL    HW130912   3.626   3.669   1.426
 4590SOL    HW230913   3.745   3.748   1.376
 4591SOL     OW30914   0.233   0.576   0.142
 4591SOL    HW130915   0.311   0.555   0.091
 4591SOL    HW230916   0.209   0.664   0.115
 4592SOL     OW30917   2.653   6.328   1.857
 4592SOL    HW130918   2.640   6.395   1.924
 4592SOL    HW230919   2.683   6.251   1.906
 4593SOL     OW30920   5.717   1.026   1.961
 4593SOL    HW130921   5.811   1.028   1.978
 4593SOL    HW230922   5.709   1.033   1.866
 4594SOL     OW30923   5.870   4.981   1.564
 4594SOL    HW130924   5.813   4.962   1.490
 4594SOL    HW230925   5.936   4.911   1.562
 4595SOL     OW30926   5.522   3.743   7.657
 4595SOL    HW130927   5.490   3.660   7.693
 4595SOL    HW230928   5.499   3.808   7.723
 4596SOL     OW30929   3.566   0.891   0.312
 4596SOL    HW130930   3.483   0.851   0.287
 4596SOL    HW230931   3.629   0.819   0.313
 4597SOL     OW30932   3.815   3.844   6.488
 4597SOL    HW130933   3.723   3.820   6.479
 4597SOL    HW230934   3.815   3.939   6.495
 4598SOL     OW30935   1.276   4.563   1.192
 4598SOL    HW130936   1.331   4.618   1.248
 4598SOL    HW230937   1.338   4.511   1.141
 4599SOL     OW30938   4.408   5.054   6.383
 4599SOL    HW130939   4.364   4.976   6.415
 4599SOL    HW230940   4.487   5.020   6.341
 4600SOL     OW30941   4.266   2.503   0.216
 4600SOL    HW130942   4.301   2.523   0.303
 4600SOL    HW230943   4.206   2.574   0.197
 4601SOL     OW30944   1.688   6.173   5.633
 4601SOL    HW130945   1.747   6.245   5.614
 4601SOL    HW230946   1.643   6.156   5.550
 4602SOL     OW30947   4.867   0.429   2.396
 4602SOL    HW130948   4.786   0.386   2.423
 4602SOL    HW230949   4.853   0.522   2.414
 4603SOL     OW30950   5.132   0.691   1.133
 4603SOL    HW130951   5.152   0.747   1.208
 4603SOL    HW230952   5.213   0.689   1.082
 4604SOL     OW30953   4.480   5.934   2.019
 4604SOL    HW130954   4.396   5.979   2.029
 4604SOL    HW230955   4.538   5.978   2.082
 4605SOL     OW30956   3.204   5.189   7.359
 4605SOL    HW130957   3.184   5.205   7.267
 4605SOL    HW230958   3.242   5.101   7.360
 4606SOL     OW30959   1.723   4.237   6.091
 4606SOL    HW130960   1.765   4.276   6.167
 4606SOL    HW230961   1.632   4.222   6.119
 4607SOL     OW30962   4.477   3.195   5.203
 4607SOL    HW130963   4.431   3.133   5.146
 4607SOL    HW230964   4.406   3.242   5.248
 4608SOL     OW30965   2.099   4.936   1.336
 4608SOL    HW130966   2.071   4.917   1.246
 4608SOL    HW230967   2.021   4.921   1.389
 4609SOL     OW30968   5.872   3.923   1.561
 4609SOL    HW130969   5.932   3.886   1.496
 4609SOL    HW230970   5.914   3.904   1.646
 4610SOL     OW30971   5.290   0.482   6.566
 4610SOL    HW130972   5.307   0.571   6.597
 4610SOL    HW230973   5.313   0.484   6.473
 4611SOL     OW30974   4.700   1.653   6.697
 4611SOL    HW130975   4.712   1.647   6.602
 4611SOL    HW230976   4.648   1.575   6.718
 4612SOL     OW30977   3.001   2.814   6.899
 4612SOL    HW130978   2.959   2.731   6.876
 4612SOL    HW230979   2.956   2.842   6.978
 4613SOL     OW30980   1.899   6.413   1.759
 4613SOL    HW130981   1.934   6.450   1.840
 4613SOL    HW230982   1.871   6.488   1.708
 4614SOL     OW30983   6.351   5.863   2.020
 4614SOL    HW130984   6.289   5.852   1.949
 4614SOL    HW230985   6.297   5.887   2.096
 4615SOL     OW30986   0.934   6.316   6.220
 4615SOL    HW130987   0.911   6.223   6.218
 4615SOL    HW230988   0.947   6.340   6.128
 4616SOL     OW30989   6.159   1.567   6.698
 4616SOL    HW130990   6.064   1.563   6.689
 4616SOL    HW230991   6.177   1.658   6.722
 4617SOL     OW30992   3.017   6.096   7.229
 4617SOL    HW130993   2.926   6.071   7.248
 4617SOL    HW230994   3.026   6.183   7.268
 4618SOL     OW30995   0.517   0.455   0.884
 4618SOL    HW130996   0.442   0.408   0.920
 4618SOL    HW230997   0.487   0.546   0.877
 4619SOL     OW30998   5.994   4.910   6.260
 4619SOL    HW130999   6.063   4.952   6.311
 4619SOL    HW231000   5.947   4.855   6.323
 4620SOL     OW31001   6.103   1.932   1.600
 4620SOL    HW131002   6.066   1.952   1.686
 4620SOL    HW231003   6.174   1.994   1.588
 4621SOL     OW31004   5.105   2.301   7.594
 4621SOL    HW131005   5.170   2.248   7.640
 4621SOL    HW231006   5.135   2.302   7.503
 4622SOL     OW31007   3.828   1.529   7.818
 4622SOL    HW131008   3.835   1.504   7.910
 4622SOL    HW231009   3.759   1.596   7.817
 4623SOL     OW31010   2.893   3.612   7.763
 4623SOL    HW131011   2.960   3.598   7.696
 4623SOL    HW231012   2.943   3.623   7.844
 4624SOL     OW31013   4.437   5.266   0.644
 4624SOL    HW131014   4.523   5.225   0.655
 4624SOL    HW231015   4.423   5.316   0.724
 4625SOL     OW31016   5.095   3.472   0.952
 4625SOL    HW131017   5.113   3.469   0.858
 4625SOL    HW231018   5.018   3.416   0.964
 4626SOL     OW31019   4.999   2.674   0.909
 4626SOL    HW131020   4.971   2.663   0.818
 4626SOL    HW231021   4.939   2.618   0.959
 4627SOL     OW31022   6.292   4.744   7.424
 4627SOL    HW131023   6.227   4.676   7.407
 4627SOL    HW231024   6.353   4.737   7.351
 4628SOL     OW31025   5.559   4.108   7.487
 4628SOL    HW131026   5.639   4.149   7.522
 4628SOL    HW231027   5.587   4.068   7.405
 4629SOL     OW31028   1.397   0.637   6.559
 4629SOL    HW131029   1.342   0.646   6.637
 4629SOL    HW231030   1.417   0.544   6.554
 4630SOL     OW31031   2.191   2.763   0.321
 4630SOL    HW131032   2.155   2.833   0.376
 4630SOL    HW231033   2.201   2.688   0.381
 4631SOL     OW31034   5.934   1.563   0.514
 4631SOL    HW131035   5.936   1.641   0.458
 4631SOL    HW231036   5.955   1.491   0.454
 4632SOL     OW31037   5.929   4.826   0.720
 4632SOL    HW131038   5.920   4.888   0.793
 4632SOL    HW231039   5.930   4.881   0.642
 4633SOL     OW31040   3.389   4.208   0.513
 4633SOL    HW131041   3.353   4.177   0.596
 4633SOL    HW231042   3.483   4.214   0.528
 4634SOL     OW31043   2.333   3.674   6.673
 4634SOL    HW131044   2.351   3.767   6.659
 4634SOL    HW231045   2.327   3.665   6.769
 4635SOL     OW31046   5.123   2.345   5.808
 4635SOL    HW131047   5.041   2.295   5.813
 4635SOL    HW231048   5.146   2.363   5.899
 4636SOL     OW31049   1.360   0.241   6.292
 4636SOL    HW131050   1.270   0.224   6.265
 4636SOL    HW231051   1.403   0.276   6.214
 4637SOL     OW31052   0.950   5.371   0.965
 4637SOL    HW131053   0.989   5.454   0.939
 4637SOL    HW231054   0.870   5.364   0.914
 4638SOL     OW31055   3.890   5.120   1.826
 4638SOL    HW131056   3.975   5.080   1.807
 4638SOL    HW231057   3.848   5.061   1.889
 4639SOL     OW31058   3.433   2.418   0.392
 4639SOL    HW131059   3.351   2.465   0.379
 4639SOL    HW231060   3.444   2.366   0.313
 4640SOL     OW31061   5.837   2.496   1.769
 4640SOL    HW131062   5.895   2.529   1.837
 4640SOL    HW231063   5.864   2.541   1.690
 4641SOL     OW31064   4.407   4.219   4.842
 4641SOL    HW131065   4.498   4.227   4.814
 4641SOL    HW231066   4.409   4.237   4.936
 4642SOL     OW31067   6.280   0.281   1.635
 4642SOL    HW131068   6.362   0.279   1.685
 4642SOL    HW231069   6.222   0.222   1.682
 4643SOL     OW31070   0.620   2.098   7.014
 4643SOL    HW131071   0.627   2.172   7.074
 4643SOL    HW231072   0.640   2.135   6.928
 4644SOL     OW31073   0.527   1.219   7.699
 4644SOL    HW131074   0.607   1.245   7.655
 4644SOL    HW231075   0.531   1.123   7.701
 4645SOL     OW31076   1.943   3.660   1.929
 4645SOL    HW131077   1.899   3.576   1.936
 4645SOL    HW231078   2.030   3.645   1.968
 4646SOL     OW31079   4.715   0.489   1.046
 4646SOL    HW131080   4.781   0.443   1.099
 4646SOL    HW231081   4.637   0.489   1.101
 4647SOL     OW31082   1.026   1.224   7.310
 4647SOL    HW131083   1.012   1.296   7.248
 4647SOL    HW231084   0.962   1.239   7.380
 4648SOL     OW31085   0.273   2.801   0.858
 4648SOL    HW131086   0.318   2.771   0.937
 4648SOL    HW231087   0.293   2.894   0.852
 4649SOL     OW31088   2.370   3.462   1.637
 4649SOL    HW131089   2.316   3.476   1.559
 4649SOL    HW231090   2.427   3.389   1.614
 4650SOL     OW31091   0.349   3.699   0.779
 4650SOL    HW131092   0.410   3.770   0.759
 4650SOL    HW231093   0.263   3.742   0.780
 4651SOL     OW31094   6.187   1.235   7.547
 4651SOL    HW131095   6.210   1.194   7.464
 4651SOL    HW231096   6.268   1.276   7.577
 4652SOL     OW31097   2.924   2.867   0.601
 4652SOL    HW131098   2.931   2.925   0.676
 4652SOL    HW231099   3.013   2.859   0.568
 4653SOL     OW31100   3.045   0.494   7.804
 4653SOL    HW131101   2.978   0.436   7.768
 4653SOL    HW231102   3.090   0.530   7.727
 4654SOL     OW31103   1.569   3.366   0.927
 4654SOL    HW131104   1.583   3.279   0.889
 4654SOL    HW231105   1.505   3.352   0.997
 4655SOL     OW31106   0.292   4.133   7.814
 4655SOL    HW131107   0.346   4.059   7.786
 4655SOL    HW231108   0.202   4.104   7.798
 4656SOL     OW31109   4.677   3.080   0.835
 4656SOL    HW131110   4.700   3.120   0.751
 4656SOL    HW231111   4.708   2.990   0.828
 4657SOL     OW31112   4.941   1.530   0.573
 4657SOL    HW131113   5.022   1.483   0.554
 4657SOL    HW231114   4.884   1.465   0.615
 4658SOL     OW31115   4.079   1.298   0.713
 4658SOL    HW131116   4.082   1.255   0.627
 4658SOL    HW231117   4.151   1.259   0.762
 4659SOL     OW31118   0.832   3.673   5.957
 4659SOL    HW131119   0.891   3.674   6.032
 4659SOL    HW231120   0.864   3.601   5.902
 4660SOL     OW31121   0.976   5.134   0.298
 4660SOL    HW131122   0.882   5.142   0.285
 4660SOL    HW231123   0.998   5.046   0.267
 4661SOL     OW31124   2.335   5.544   7.195
 4661SOL    HW131125   2.429   5.525   7.201
 4661SOL    HW231126   2.330   5.639   7.191
 4662SOL     OW31127   2.041   1.429   0.579
 4662SOL    HW131128   1.998   1.506   0.541
 4662SOL    HW231129   2.007   1.355   0.529
 4663SOL     OW31130   0.273   6.283   0.972
 4663SOL    HW131131   0.284   6.201   0.924
 4663SOL    HW231132   0.329   6.346   0.927
 4664SOL     OW31133   0.705   3.429   0.660
 4664SOL    HW131134   0.673   3.339   0.660
 4664SOL    HW231135   0.793   3.423   0.699
 4665SOL     OW31136   1.177   1.913   6.139
 4665SOL    HW131137   1.094   1.872   6.114
 4665SOL    HW231138   1.226   1.842   6.182
 4666SOL     OW31139   2.424   1.497   2.217
 4666SOL    HW131140   2.353   1.463   2.162
 4666SOL    HW231141   2.404   1.590   2.228
 4667SOL     OW31142   3.863   2.630   1.230
 4667SOL    HW131143   3.918   2.632   1.152
 4667SOL    HW231144   3.919   2.661   1.300
 4668SOL     OW31145   5.341   0.028   0.505
 4668SOL    HW131146   5.266   0.025   0.446
 4668SOL    HW231147   5.333  -0.051   0.558
 4669SOL     OW31148   2.353   3.777   1.192
 4669SOL    HW131149   2.430   3.785   1.136
 4669SOL    HW231150   2.333   3.684   1.192
 4670SOL     OW31151   5.682   3.256   1.514
 4670SOL    HW131152   5.663   3.168   1.548
 4670SOL    HW231153   5.650   3.255   1.424
 4671SOL     OW31154   0.730   3.177   1.022
 4671SOL    HW131155   0.682   3.103   0.984
 4671SOL    HW231156   0.678   3.254   0.998
 4672SOL     OW31157   0.509   3.397   1.631
 4672SOL    HW131158   0.470   3.412   1.717
 4672SOL    HW231159   0.597   3.434   1.639
 4673SOL     OW31160   5.831   4.871   5.466
 4673SOL    HW131161   5.914   4.823   5.468
 4673SOL    HW231162   5.834   4.920   5.384
 4674SOL     OW31163   6.354   2.222   0.386
 4674SOL    HW131164   6.297   2.146   0.374
 4674SOL    HW231165   6.296   2.291   0.419
 4675SOL     OW31166   0.836   5.690   7.581
 4675SOL    HW131167   0.814   5.721   7.669
 4675SOL    HW231168   0.815   5.596   7.583
 4676SOL     OW31169   5.503   5.158   1.306
 4676SOL    HW131170   5.482   5.097   1.235
 4676SOL    HW231171   5.557   5.107   1.366
 4677SOL     OW31172   3.736   1.648   0.926
 4677SOL    HW131173   3.681   1.592   0.981
 4677SOL    HW231174   3.824   1.615   0.939
 4678SOL     OW31175   4.289   0.763   6.778
 4678SOL    HW131176   4.252   0.843   6.741
 4678SOL    HW231177   4.241   0.749   6.859
 4679SOL     OW31178   5.190   4.163   0.874
 4679SOL    HW131179   5.208   4.085   0.927
 4679SOL    HW231180   5.095   4.170   0.873
 4680SOL     OW31181   1.418   3.488   7.604
 4680SOL    HW131182   1.484   3.536   7.653
 4680SOL    HW231183   1.365   3.444   7.671
 4681SOL     OW31184   5.197   3.199   1.462
 4681SOL    HW131185   5.162   3.188   1.373
 4681SOL    HW231186   5.277   3.146   1.462
 4682SOL     OW31187   3.972   3.659   1.027
 4682SOL    HW131188   3.979   3.642   0.933
 4682SOL    HW231189   4.036   3.599   1.066
 4683SOL     OW31190   4.390   2.283   0.107
 4683SOL    HW131191   4.341   2.360   0.135
 4683SOL    HW231192   4.435   2.253   0.186
 4684SOL     OW31193   3.600   1.479   0.632
 4684SOL    HW131194   3.622   1.462   0.541
 4684SOL    HW231195   3.658   1.422   0.683
 4685SOL     OW31196   3.947   1.027   6.303
 4685SOL    HW131197   3.888   0.958   6.273
 4685SOL    HW231198   3.970   1.075   6.224
 4686SOL     OW31199   3.882   3.986   5.222
 4686SOL    HW131200   3.974   4.009   5.209
 4686SOL    HW231201   3.853   3.955   5.137
 4687SOL     OW31202   6.139   1.254   5.709
 4687SOL    HW131203   6.171   1.170   5.677
 4687SOL    HW231204   6.090   1.291   5.636
 4688SOL     OW31205   5.889   2.108   5.589
 4688SOL    HW131206   5.820   2.120   5.524
 4688SOL    HW231207   5.969   2.098   5.537
 4689SOL     OW31208   6.119   2.846   5.514
 4689SOL    HW131209   6.103   2.766   5.563
 4689SOL    HW231210   6.152   2.816   5.429
 4690SOL     OW31211   1.703   4.798   7.621
 4690SOL    HW131212   1.788   4.760   7.644
 4690SOL    HW231213   1.650   4.786   7.701
 4691SOL     OW31214   5.746   3.802   1.054
 4691SOL    HW131215   5.827   3.752   1.067
 4691SOL    HW231216   5.739   3.809   0.958
 4692SOL     OW31217   1.634   1.670   7.370
 4692SOL    HW131218   1.672   1.745   7.326
 4692SOL    HW231219   1.579   1.707   7.439
 4693SOL     OW31220   4.442   6.309   7.799
 4693SOL    HW131221   4.415   6.381   7.743
 4693SOL    HW231222   4.392   6.321   7.880
 4694SOL     OW31223   5.661   1.244   7.016
 4694SOL    HW131224   5.587   1.263   7.073
 4694SOL    HW231225   5.711   1.176   7.062
 4695SOL     OW31226   3.239   6.332   7.729
 4695SOL    HW131227   3.225   6.248   7.685
 4695SOL    HW231228   3.256   6.310   7.820
 4696SOL     OW31229   1.725   4.846   7.365
 4696SOL    HW131230   1.668   4.780   7.325
 4696SOL    HW231231   1.722   4.827   7.458
 4697SOL     OW31232   2.214   2.954   7.726
 4697SOL    HW131233   2.163   2.984   7.802
 4697SOL    HW231234   2.151   2.952   7.654
 4698SOL     OW31235   4.912   3.303   5.927
 4698SOL    HW131236   4.953   3.299   6.014
 4698SOL    HW231237   4.985   3.304   5.865
 4699SOL     OW31238   4.196   2.381   0.868
 4699SOL    HW131239   4.222   2.377   0.960
 4699SOL    HW231240   4.191   2.289   0.841
 4700SOL     OW31241   3.635   1.753   7.773
 4700SOL    HW131242   3.693   1.823   7.743
 4700SOL    HW231243   3.575   1.795   7.834
 4701SOL     OW31244   0.376   4.684   0.833
 4701SOL    HW131245   0.409   4.638   0.910
 4701SOL    HW231246   0.283   4.661   0.830
 4702SOL     OW31247   1.081   2.898   1.251
 4702SOL    HW131248   1.081   2.828   1.316
 4702SOL    HW231249   1.044   2.858   1.172
 4703SOL     OW31250   6.270   3.923   1.161
 4703SOL    HW131251   6.321   3.999   1.134
 4703SOL    HW231252   6.197   3.958   1.212
 4704SOL     OW31253   1.932   0.821   6.558
 4704SOL    HW131254   1.850   0.854   6.521
 4704SOL    HW231255   2.000   0.876   6.520
 4705SOL     OW31256   3.320   1.843   7.144
 4705SOL    HW131257   3.384   1.914   7.144
 4705SOL    HW231258   3.322   1.808   7.233
 4706SOL     OW31259   0.432   3.489   1.887
 4706SOL    HW131260   0.492   3.536   1.946
 4706SOL    HW231261   0.345   3.508   1.921
 4707SOL     OW31262   3.980   2.342   1.231
 4707SOL    HW131263   4.059   2.304   1.192
 4707SOL    HW231264   3.938   2.389   1.158
 4708SOL     OW31265   0.555   3.055   7.705
 4708SOL    HW131266   0.647   3.059   7.680
 4708SOL    HW231267   0.553   3.085   7.796
 4709SOL     OW31268   5.110   4.428   0.073
 4709SOL    HW131269   5.140   4.414   0.163
 4709SOL    HW231270   5.099   4.340   0.037
 4710SOL     OW31271   4.674   4.793   1.791
 4710SOL    HW131272   4.583   4.787   1.818
 4710SOL    HW231273   4.693   4.887   1.791
 4711SOL     OW31274   3.604   3.592   1.599
 4711SOL    HW131275   3.555   3.533   1.655
 4711SOL    HW231276   3.664   3.638   1.658
 4712SOL     OW31277   2.047   4.038   7.199
 4712SOL    HW131278   2.107   4.108   7.226
 4712SOL    HW231279   1.965   4.083   7.180
 4713SOL     OW31280   6.112   5.870   1.217
 4713SOL    HW131281   6.072   5.789   1.186
 4713SOL    HW231282   6.118   5.859   1.312
 4714SOL     OW31283   3.412   3.867   1.241
 4714SOL    HW131284   3.472   3.868   1.167
 4714SOL    HW231285   3.444   3.796   1.297
 4715SOL     OW31286   6.318   2.518   0.203
 4715SOL    HW131287   6.277   2.463   0.137
 4715SOL    HW231288   6.274   2.495   0.285
 4716SOL     OW31289   4.449   1.553   0.562
 4716SOL    HW131290   4.421   1.645   0.565
 4716SOL    HW231291   4.537   1.556   0.524
 4717SOL     OW31292   3.652   2.724   5.394
 4717SOL    HW131293   3.639   2.664   5.468
 4717SOL    HW231294   3.576   2.708   5.338
 4718SOL     OW31295   1.678   5.069   1.996
 4718SOL    HW131296   1.648   5.002   1.934
 4718SOL    HW231297   1.764   5.038   2.024
 4719SOL     OW31298   0.090   0.801   0.219
 4719SOL    HW131299   0.094   0.859   0.295
 4719SOL    HW231300   0.000   0.768   0.219
 4720SOL     OW31301   2.576   1.990   1.498
 4720SOL    HW131302   2.516   2.012   1.569
 4720SOL    HW231303   2.618   2.073   1.475
 4721SOL     OW31304   5.474   4.597   7.644
 4721SOL    HW131305   5.553   4.594   7.590
 4721SOL    HW231306   5.429   4.677   7.618
 4722SOL     OW31307   6.406   1.640   7.614
 4722SOL    HW131308   6.344   1.577   7.651
 4722SOL    HW231309   6.362   1.674   7.537
 4723SOL     OW31310   3.788   5.847   0.748
 4723SOL    HW131311   3.814   5.755   0.755
 4723SOL    HW231312   3.692   5.845   0.743
 4724SOL     OW31313   4.278   1.709   7.577
 4724SOL    HW131314   4.252   1.656   7.653
 4724SOL    HW231315   4.373   1.708   7.578
 4725SOL     OW31316   5.186   5.413   0.776
 4725SOL    HW131317   5.106   5.367   0.749
 4725SOL    HW231318   5.172   5.504   0.749
 4726SOL     OW31319   3.667   4.984   1.732
 4726SOL    HW131320   3.677   4.911   1.793
 4726SOL    HW231321   3.708   5.058   1.777
 4727SOL     OW31322   0.394   0.297   5.562
 4727SOL    HW131323   0.404   0.392   5.566
 4727SOL    HW231324   0.434   0.272   5.479
 4728SOL     OW31325   5.849   2.489   0.381
 4728SOL    HW131326   5.815   2.449   0.301
 4728SOL    HW231327   5.797   2.450   0.451
 4729SOL     OW31328   0.684   3.709   1.999
 4729SOL    HW131329   0.744   3.760   2.055
 4729SOL    HW231330   0.609   3.767   1.986
 4730SOL     OW31331   3.212   5.800   6.716
 4730SOL    HW131332   3.181   5.880   6.759
 4730SOL    HW231333   3.289   5.773   6.766
 4731SOL     OW31334   3.159   5.381   0.547
 4731SOL    HW131335   3.084   5.328   0.520
 4731SOL    HW231336   3.168   5.363   0.641
 4732SOL     OW31337   5.295   6.172   1.943
 4732SOL    HW131338   5.378   6.206   1.908
 4732SOL    HW231339   5.228   6.212   1.888
 4733SOL     OW31340   1.671   4.676   2.029
 4733SOL    HW131341   1.600   4.628   2.073
 4733SOL    HW231342   1.626   4.733   1.966
 4734SOL     OW31343   4.643   0.210   7.810
 4734SOL    HW131344   4.572   0.165   7.764
 4734SOL    HW231345   4.676   0.273   7.747
 4735SOL     OW31346   0.719   5.215   7.594
 4735SOL    HW131347   0.751   5.304   7.579
 4735SOL    HW231348   0.684   5.187   7.509
 4736SOL     OW31349   4.355   0.113   6.206
 4736SOL    HW131350   4.340   0.020   6.187
 4736SOL    HW231351   4.279   0.158   6.169
 4737SOL     OW31352   0.744   5.375   6.560
 4737SOL    HW131353   0.758   5.376   6.465
 4737SOL    HW231354   0.703   5.460   6.579
 4738SOL     OW31355   4.933   2.162   5.844
 4738SOL    HW131356   4.962   2.075   5.816
 4738SOL    HW231357   4.881   2.146   5.922
 4739SOL     OW31358   4.288   2.755   1.541
 4739SOL    HW131359   4.350   2.824   1.566
 4739SOL    HW231360   4.242   2.734   1.622
 4740SOL     OW31361   3.752   4.619   5.865
 4740SOL    HW131362   3.811   4.659   5.801
 4740SOL    HW231363   3.691   4.568   5.812
 4741SOL     OW31364   0.645   0.315   1.770
 4741SOL    HW131365   0.645   0.373   1.846
 4741SOL    HW231366   0.588   0.242   1.796
 4742SOL     OW31367   3.725   4.265   5.276
 4742SOL    HW131368   3.730   4.354   5.243
 4742SOL    HW231369   3.805   4.222   5.245
 4743SOL     OW31370   2.623   0.801   5.596
 4743SOL    HW131371   2.716   0.809   5.617
 4743SOL    HW231372   2.577   0.828   5.676
 4744SOL     OW31373   1.460   3.308   1.181
 4744SOL    HW131374   1.441   3.356   1.261
 4744SOL    HW231375   1.396   3.237   1.179
 4745SOL     OW31376   3.629   1.765   0.671
 4745SOL    HW131377   3.626   1.837   0.734
 4745SOL    HW231378   3.674   1.694   0.716
 4746SOL     OW31379   3.376   0.465   7.510
 4746SOL    HW131380   3.298   0.516   7.531
 4746SOL    HW231381   3.386   0.473   7.415
 4747SOL     OW31382   3.496   4.974   5.930
 4747SOL    HW131383   3.431   4.926   5.878
 4747SOL    HW231384   3.580   4.938   5.902
 4748SOL     OW31385   3.871   3.584   7.450
 4748SOL    HW131386   3.877   3.561   7.357
 4748SOL    HW231387   3.961   3.580   7.481
 4749SOL     OW31388   2.037   0.553   1.125
 4749SOL    HW131389   2.064   0.463   1.145
 4749SOL    HW231390   2.025   0.554   1.030
 4750SOL     OW31391   4.955   1.391   5.941
 4750SOL    HW131392   5.037   1.437   5.919
 4750SOL    HW231393   4.978   1.299   5.937
 4751SOL     OW31394   0.214   2.484   6.510
 4751SOL    HW131395   0.174   2.426   6.575
 4751SOL    HW231396   0.295   2.514   6.552
 4752SOL     OW31397   5.756   3.799   6.500
 4752SOL    HW131398   5.744   3.875   6.443
 4752SOL    HW231399   5.843   3.810   6.537
 4753SOL     OW31400   5.578   3.561   0.809
 4753SOL    HW131401   5.673   3.568   0.820
 4753SOL    HW231402   5.566   3.503   0.734
 4754SOL     OW31403   3.114   0.010   5.975
 4754SOL    HW131404   3.142   0.085   5.923
 4754SOL    HW231405   3.153  -0.066   5.931
 4755SOL     OW31406   2.763   4.176   0.275
 4755SOL    HW131407   2.702   4.216   0.338
 4755SOL    HW231408   2.709   4.116   0.224
 4756SOL     OW31409   1.802   4.246   1.516
 4756SOL    HW131410   1.850   4.310   1.464
 4756SOL    HW231411   1.842   4.162   1.494
 4757SOL     OW31412   6.335   0.863   6.250
 4757SOL    HW131413   6.370   0.943   6.289
 4757SOL    HW231414   6.307   0.810   6.325
 4758SOL     OW31415   2.334   1.379   5.186
 4758SOL    HW131416   2.425   1.362   5.208
 4758SOL    HW231417   2.298   1.294   5.162
 4759SOL     OW31418   3.597   5.396   0.609
 4759SOL    HW131419   3.622   5.314   0.568
 4759SOL    HW231420   3.532   5.371   0.675
 4760SOL     OW31421   2.960   0.294   1.362
 4760SOL    HW131422   3.040   0.260   1.323
 4760SOL    HW231423   2.988   0.370   1.413
 4761SOL     OW31424   3.153   0.594   7.562
 4761SOL    HW131425   3.193   0.673   7.525
 4761SOL    HW231426   3.065   0.593   7.525
 4762SOL     OW31427   5.247   3.123   0.063
 4762SOL    HW131428   5.313   3.166   0.117
 4762SOL    HW231429   5.191   3.195   0.033
 4763SOL     OW31430   0.371   1.253   6.286
 4763SOL    HW131431   0.426   1.278   6.212
 4763SOL    HW231432   0.284   1.286   6.264
 4764SOL     OW31433   5.072   2.200   2.008
 4764SOL    HW131434   5.005   2.201   2.077
 4764SOL    HW231435   5.153   2.222   2.054
 4765SOL     OW31436   1.058   3.379   7.526
 4765SOL    HW131437   1.023   3.344   7.608
 4765SOL    HW231438   0.987   3.434   7.491
 4766SOL     OW31439   2.482   1.352   0.223
 4766SOL    HW131440   2.404   1.341   0.277
 4766SOL    HW231441   2.477   1.280   0.160
 4767SOL     OW31442   3.932   0.038   7.515
 4767SOL    HW131443   4.007  -0.011   7.551
 4767SOL    HW231444   3.904  -0.013   7.439
 4768SOL     OW31445   1.243   5.066   6.351
 4768SOL    HW131446   1.231   5.080   6.257
 4768SOL    HW231447   1.331   5.098   6.370
 4769SOL     OW31448   0.542   4.579   6.816
 4769SOL    HW131449   0.462   4.549   6.858
 4769SOL    HW231450   0.601   4.600   6.888
 4770SOL     OW31451   2.315   2.026   2.200
 4770SOL    HW131452   2.364   2.096   2.244
 4770SOL    HW231453   2.269   2.070   2.128
 4771SOL     OW31454   3.284   2.566   0.880
 4771SOL    HW131455   3.221   2.634   0.856
 4771SOL    HW231456   3.278   2.560   0.976
 4772SOL     OW31457   2.376   0.502   1.784
 4772SOL    HW131458   2.342   0.549   1.860
 4772SOL    HW231459   2.309   0.512   1.717
 4773SOL     OW31460   2.557   0.398   1.585
 4773SOL    HW131461   2.648   0.422   1.604
 4773SOL    HW231462   2.506   0.447   1.650
 4774SOL     OW31463   6.334   1.085   0.669
 4774SOL    HW131464   6.321   0.991   0.678
 4774SOL    HW231465   6.394   1.108   0.740
 4775SOL     OW31466   4.278   2.949   6.711
 4775SOL    HW131467   4.280   3.040   6.740
 4775SOL    HW231468   4.233   2.951   6.627
 4776SOL     OW31469   5.121   0.848   1.407
 4776SOL    HW131470   5.121   0.851   1.502
 4776SOL    HW231471   5.029   0.835   1.383
 4777SOL     OW31472   5.454   6.117   7.689
 4777SOL    HW131473   5.418   6.029   7.675
 4777SOL    HW231474   5.387   6.163   7.739
 4778SOL     OW31475   6.063   1.864   6.528
 4778SOL    HW131476   6.096   1.847   6.617
 4778SOL    HW231477   5.983   1.915   6.542
 4779SOL     OW31478   3.791   1.267   0.969
 4779SOL    HW131479   3.782   1.290   0.876
 4779SOL    HW231480   3.874   1.307   0.995
 4780SOL     OW31481   3.448   0.002   6.147
 4780SOL    HW131482   3.543  -0.009   6.138
 4780SOL    HW231483   3.436   0.024   6.240
 4781SOL     OW31484   3.166   1.471   0.890
 4781SOL    HW131485   3.214   1.544   0.851
 4781SOL    HW231486   3.217   1.394   0.867
 4782SOL     OW31487   5.279   2.229   0.204
 4782SOL    HW131488   5.189   2.207   0.183
 4782SOL    HW231489   5.299   2.306   0.150
 4783SOL     OW31490   0.348   0.934   7.331
 4783SOL    HW131491   0.326   0.843   7.314
 4783SOL    HW231492   0.313   0.951   7.418
 4784SOL     OW31493   2.563   2.722   2.170
 4784SOL    HW131494   2.591   2.745   2.258
 4784SOL    HW231495   2.500   2.790   2.145
 4785SOL     OW31496   0.346   2.816   7.627
 4785SOL    HW131497   0.414   2.768   7.579
 4785SOL    HW231498   0.363   2.908   7.608
 4786SOL     OW31499   4.419   4.798   7.396
 4786SOL    HW131500   4.509   4.768   7.382
 4786SOL    HW231501   4.408   4.797   7.491
 4787SOL     OW31502   5.420   3.547   2.126
 4787SOL    HW131503   5.461   3.462   2.106
 4787SOL    HW231504   5.494   3.604   2.147
 4788SOL     OW31505   3.413   6.109   7.471
 4788SOL    HW131506   3.464   6.073   7.398
 4788SOL    HW231507   3.478   6.150   7.527
 4789SOL     OW31508   2.838   1.315   0.416
 4789SOL    HW131509   2.886   1.284   0.494
 4789SOL    HW231510   2.794   1.236   0.383
 4790SOL     OW31511   2.597   3.019   5.449
 4790SOL    HW131512   2.548   2.995   5.370
 4790SOL    HW231513   2.530   3.027   5.517
 4791SOL     OW31514   4.425   2.983   6.295
 4791SOL    HW131515   4.331   2.992   6.309
 4791SOL    HW231516   4.432   2.936   6.212
 4792SOL     OW31517   5.519   2.680   6.834
 4792SOL    HW131518   5.561   2.766   6.822
 4792SOL    HW231519   5.588   2.624   6.867
 4793SOL     OW31520   0.399   1.668   0.169
 4793SOL    HW131521   0.332   1.622   0.119
 4793SOL    HW231522   0.388   1.760   0.144
 4794SOL     OW31523   5.707   4.153   0.687
 4794SOL    HW131524   5.750   4.217   0.630
 4794SOL    HW231525   5.767   4.142   0.761
 4795SOL     OW31526   5.855   1.625   1.315
 4795SOL    HW131527   5.767   1.652   1.290
 4795SOL    HW231528   5.872   1.547   1.261
 4796SOL     OW31529   4.602   3.977   7.013
 4796SOL    HW131530   4.673   3.999   6.953
 4796SOL    HW231531   4.582   3.885   6.995
 4797SOL     OW31532   0.402   6.355   5.551
 4797SOL    HW131533   0.477   6.407   5.580
 4797SOL    HW231534   0.328   6.389   5.602
 4798SOL     OW31535   1.961   0.176   0.996
 4798SOL    HW131536   1.890   0.152   0.936
 4798SOL    HW231537   1.917   0.190   1.080
 4799SOL     OW31538   4.367   2.959   7.421
 4799SOL    HW131539   4.347   2.882   7.474
 4799SOL    HW231540   4.459   2.978   7.440
 4800SOL     OW31541   3.808   0.807   6.527
 4800SOL    HW131542   3.769   0.885   6.566
 4800SOL    HW231543   3.820   0.830   6.434
 4801SOL     OW31544   5.834   3.413   7.428
 4801SOL    HW131545   5.786   3.455   7.357
 4801SOL    HW231546   5.803   3.457   7.507
 4802SOL     OW31547   0.354   1.184   1.414
 4802SOL    HW131548   0.326   1.275   1.424
 4802SOL    HW231549   0.414   1.170   1.487
 4803SOL     OW31550   5.166   1.530   0.774
 4803SOL    HW131551   5.190   1.494   0.859
 4803SOL    HW231552   5.094   1.591   0.794
 4804SOL     OW31553   2.221   1.450   5.574
 4804SOL    HW131554   2.180   1.487   5.496
 4804SOL    HW231555   2.309   1.424   5.544
 4805SOL     OW31556   0.739   4.323   6.559
 4805SOL    HW131557   0.757   4.414   6.582
 4805SOL    HW231558   0.646   4.312   6.575
 4806SOL     OW31559   0.588   1.350   0.718
 4806SOL    HW131560   0.560   1.429   0.673
 4806SOL    HW231561   0.596   1.285   0.648
 4807SOL     OW31562   4.807   5.584   5.575
 4807SOL    HW131563   4.777   5.650   5.512
 4807SOL    HW231564   4.736   5.578   5.639
 4808SOL     OW31565   5.987   5.423   7.375
 4808SOL    HW131566   6.004   5.370   7.452
 4808SOL    HW231567   6.064   5.478   7.365
 4809SOL     OW31568   2.473   1.758   1.326
 4809SOL    HW131569   2.526   1.748   1.247
 4809SOL    HW231570   2.522   1.820   1.380
 4810SOL     OW31571   6.003   6.196   6.850
 4810SOL    HW131572   5.979   6.279   6.892
 4810SOL    HW231573   5.919   6.160   6.821
 4811SOL     OW31574   1.186   0.004   0.573
 4811SOL    HW131575   1.109   0.056   0.596
 4811SOL    HW231576   1.242   0.007   0.651
 4812SOL     OW31577   1.639   3.647   6.379
 4812SOL    HW131578   1.688   3.634   6.298
 4812SOL    HW231579   1.680   3.724   6.419
 4813SOL     OW31580   4.660   5.149   6.795
 4813SOL    HW131581   4.588   5.124   6.737
 4813SOL    HW231582   4.674   5.072   6.850
 4814SOL     OW31583   3.490   1.157   0.127
 4814SOL    HW131584   3.483   1.203   0.043
 4814SOL    HW231585   3.423   1.090   0.123
 4815SOL     OW31586   4.063   5.220   6.634
 4815SOL    HW131587   4.113   5.200   6.713
 4815SOL    HW231588   4.032   5.309   6.646
 4816SOL     OW31589   5.123   1.806   1.010
 4816SOL    HW131590   5.060   1.778   0.945
 4816SOL    HW231591   5.144   1.897   0.986
 4817SOL     OW31592   3.668   1.741   7.045
 4817SOL    HW131593   3.722   1.758   6.968
 4817SOL    HW231594   3.663   1.825   7.090
 4818SOL     OW31595   4.436   0.265   5.399
 4818SOL    HW131596   4.341   0.263   5.407
 4818SOL    HW231597   4.468   0.235   5.484
 4819SOL     OW31598   2.819   4.570   2.073
 4819SOL    HW131599   2.843   4.651   2.028
 4819SOL    HW231600   2.880   4.566   2.147
 4820SOL     OW31601   6.018   4.396   5.788
 4820SOL    HW131602   5.937   4.392   5.737
 4820SOL    HW231603   6.015   4.318   5.843
 4821SOL     OW31604   5.863   4.986   7.479
 4821SOL    HW131605   5.836   5.045   7.408
 4821SOL    HW231606   5.952   4.960   7.456
 4822SOL     OW31607   0.824   1.133   5.855
 4822SOL    HW131608   0.805   1.225   5.838
 4822SOL    HW231609   0.882   1.134   5.931
 4823SOL     OW31610   0.877   0.912   0.224
 4823SOL    HW131611   0.890   0.897   0.317
 4823SOL    HW231612   0.948   0.971   0.198
 4824SOL     OW31613   3.813   2.817   7.674
 4824SOL    HW131614   3.748   2.871   7.719
 4824SOL    HW231615   3.895   2.836   7.720
 4825SOL     OW31616   0.183   5.974   1.933
 4825SOL    HW131617   0.171   6.059   1.976
 4825SOL    HW231618   0.107   5.922   1.960
 4826SOL     OW31619   2.003   3.017   1.333
 4826SOL    HW131620   2.019   3.101   1.290
 4826SOL    HW231621   2.012   2.952   1.264
 4827SOL     OW31622   4.732   3.994   0.081
 4827SOL    HW131623   4.756   4.026  -0.006
 4827SOL    HW231624   4.815   3.975   0.124
 4828SOL     OW31625   1.273   2.743   6.199
 4828SOL    HW131626   1.301   2.833   6.181
 4828SOL    HW231627   1.346   2.704   6.246
 4829SOL     OW31628   0.115   2.741   7.475
 4829SOL    HW131629   0.132   2.826   7.434
 4829SOL    HW231630   0.194   2.721   7.525
 4830SOL     OW31631   4.925   2.253   1.243
 4830SOL    HW131632   5.010   2.218   1.270
 4830SOL    HW231633   4.862   2.208   1.299
 4831SOL     OW31634   1.525   4.277   1.293
 4831SOL    HW131635   1.483   4.362   1.284
 4831SOL    HW231636   1.521   4.258   1.387
 4832SOL     OW31637   6.127   1.544   0.677
 4832SOL    HW131638   6.191   1.614   0.662
 4832SOL    HW231639   6.053   1.567   0.620
 4833SOL     OW31640   3.701   0.955   2.459
 4833SOL    HW131641   3.775   0.895   2.453
 4833SOL    HW231642   3.700   0.983   2.550
 4834SOL     OW31643   5.057   1.738   1.273
 4834SOL    HW131644   5.103   1.802   1.326
 4834SOL    HW231645   5.052   1.777   1.186
 4835SOL     OW31646   4.240   4.428   7.738
 4835SOL    HW131647   4.214   4.515   7.767
 4835SOL    HW231648   4.157   4.380   7.730
 4836SOL     OW31649   1.792   0.061   6.925
 4836SOL    HW131650   1.812   0.082   6.833
 4836SOL    HW231651   1.700   0.036   6.924
 4837SOL     OW31652   2.187   4.144   0.038
 4837SOL    HW131653   2.267   4.126  -0.010
 4837SOL    HW231654   2.201   4.231   0.076
 4838SOL     OW31655   5.542   0.907   6.684
 4838SOL    HW131656   5.533   0.999   6.707
 4838SOL    HW231657   5.636   0.893   6.677
 4839SOL     OW31658   2.432   0.111   0.888
 4839SOL    HW131659   2.368   0.040   0.878
 4839SOL    HW231660   2.420   0.141   0.978
 4840SOL     OW31661   0.129   1.704   6.868
 4840SOL    HW131662   0.153   1.645   6.797
 4840SOL    HW231663   0.088   1.779   6.825
 4841SOL     OW31664   3.020   6.335   7.394
 4841SOL    HW131665   3.023   6.366   7.484
 4841SOL    HW231666   2.939   6.371   7.358
 4842SOL     OW31667   2.593   4.869   6.966
 4842SOL    HW131668   2.582   4.783   6.925
 4842SOL    HW231669   2.515   4.880   7.020
 4843SOL     OW31670   4.974   1.750   6.873
 4843SOL    HW131671   4.960   1.802   6.794
 4843SOL    HW231672   4.921   1.671   6.860
 4844SOL     OW31673   4.234   5.696   0.473
 4844SOL    HW131674   4.308   5.730   0.424
 4844SOL    HW231675   4.273   5.646   0.545
 4845SOL     OW31676   1.948   2.057   5.968
 4845SOL    HW131677   1.947   1.979   5.912
 4845SOL    HW231678   2.038   2.089   5.963
 4846SOL     OW31679   3.794   5.318   1.639
 4846SOL    HW131680   3.823   5.237   1.679
 4846SOL    HW231681   3.770   5.374   1.712
 4847SOL     OW31682   0.328   5.125   2.163
 4847SOL    HW131683   0.323   5.182   2.240
 4847SOL    HW231684   0.396   5.061   2.185
 4848SOL     OW31685   0.664   3.050   6.909
 4848SOL    HW131686   0.602   3.118   6.933
 4848SOL    HW231687   0.729   3.094   6.854
 4849SOL     OW31688   1.593   1.469   6.470
 4849SOL    HW131689   1.601   1.536   6.537
 4849SOL    HW231690   1.611   1.387   6.515
 4850SOL     OW31691   0.648   3.107   2.368
 4850SOL    HW131692   0.625   3.160   2.444
 4850SOL    HW231693   0.744   3.105   2.368
 4851SOL     OW31694   1.731   3.941   7.361
 4851SOL    HW131695   1.805   3.965   7.415
 4851SOL    HW231696   1.724   3.846   7.370
 4852SOL     OW31697   3.345   4.224   2.357
 4852SOL    HW131698   3.282   4.296   2.358
 4852SOL    HW231699   3.393   4.233   2.439
 4853SOL     OW31700   3.216   6.052   0.437
 4853SOL    HW131701   3.301   6.096   0.428
 4853SOL    HW231702   3.153   6.118   0.408
 4854SOL     OW31703   5.021   1.239   0.640
 4854SOL    HW131704   5.070   1.223   0.720
 4854SOL    HW231705   4.934   1.265   0.670
 4855SOL     OW31706   2.754   2.749   0.089
 4855SOL    HW131707   2.836   2.784   0.055
 4855SOL    HW231708   2.748   2.785   0.178
 4856SOL     OW31709   0.238   1.473   5.393
 4856SOL    HW131710   0.322   1.474   5.439
 4856SOL    HW231711   0.258   1.502   5.304
 4857SOL     OW31712   3.862   3.114   0.118
 4857SOL    HW131713   3.866   3.045   0.184
 4857SOL    HW231714   3.918   3.184   0.153
 4858SOL     OW31715   6.086   4.587   6.807
 4858SOL    HW131716   6.031   4.634   6.745
 4858SOL    HW231717   6.075   4.495   6.784
 4859SOL     OW31718   2.668   4.632   6.001
 4859SOL    HW131719   2.714   4.555   5.968
 4859SOL    HW231720   2.603   4.597   6.061
 4860SOL     OW31721   4.330   4.915   1.696
 4860SOL    HW131722   4.325   4.844   1.632
 4860SOL    HW231723   4.399   4.888   1.756
 4861SOL     OW31724   5.052   3.522   6.824
 4861SOL    HW131725   5.009   3.539   6.741
 4861SOL    HW231726   5.003   3.448   6.862
 4862SOL     OW31727   3.328   1.840   0.813
 4862SOL    HW131728   3.405   1.897   0.803
 4862SOL    HW231729   3.356   1.755   0.779
 4863SOL     OW31730   4.162   1.621   0.224
 4863SOL    HW131731   4.198   1.592   0.307
 4863SOL    HW231732   4.105   1.695   0.246
 4864SOL     OW31733   6.161   3.568   1.865
 4864SOL    HW131734   6.254   3.551   1.849
 4864SOL    HW231735   6.116   3.533   1.788
 4865SOL     OW31736   0.853   0.614   0.150
 4865SOL    HW131737   0.912   0.546   0.180
 4865SOL    HW231738   0.911   0.680   0.111
 4866SOL     OW31739   4.174   0.673   0.936
 4866SOL    HW131740   4.210   0.677   1.024
 4866SOL    HW231741   4.222   0.601   0.894
 4867SOL     OW31742   0.598   2.719   6.234
 4867SOL    HW131743   0.633   2.642   6.278
 4867SOL    HW231744   0.504   2.703   6.227
 4868SOL     OW31745   2.714   4.121   3.039
 4868SOL    HW131746   2.732   4.172   2.960
 4868SOL    HW231747   2.688   4.035   3.006
 4869SOL     OW31748   2.819   1.696   1.026
 4869SOL    HW131749   2.859   1.716   0.941
 4869SOL    HW231750   2.726   1.715   1.013
 4870SOL     OW31751   3.953   0.665   6.716
 4870SOL    HW131752   3.920   0.712   6.640
 4870SOL    HW231753   4.026   0.719   6.748
 4871SOL     OW31754   5.509   1.989   6.586
 4871SOL    HW131755   5.490   2.047   6.659
 4871SOL    HW231756   5.531   2.048   6.514
 4872SOL     OW31757   4.222   4.749   7.235
 4872SOL    HW131758   4.269   4.745   7.151
 4872SOL    HW231759   4.290   4.766   7.300
 4873SOL     OW31760   5.301   1.246   5.617
 4873SOL    HW131761   5.209   1.264   5.641
 4873SOL    HW231762   5.326   1.173   5.674
 4874SOL     OW31763   4.882   4.212   6.338
 4874SOL    HW131764   4.876   4.307   6.334
 4874SOL    HW231765   4.910   4.193   6.427
 4875SOL     OW31766   3.681   4.058   7.774
 4875SOL    HW131767   3.615   4.001   7.734
 4875SOL    HW231768   3.654   4.147   7.750
 4876SOL     OW31769   3.944   1.074   1.537
 4876SOL    HW131770   3.925   1.138   1.468
 4876SOL    HW231771   4.037   1.055   1.527
 4877SOL     OW31772   4.834   2.957   1.053
 4877SOL    HW131773   4.922   2.936   1.023
 4877SOL    HW231774   4.794   3.007   0.982
 4878SOL     OW31775   4.606   1.519   0.846
 4878SOL    HW131776   4.604   1.599   0.899
 4878SOL    HW231777   4.523   1.476   0.864
 4879SOL     OW31778   2.735   6.280   1.590
 4879SOL    HW131779   2.720   6.186   1.579
 4879SOL    HW231780   2.733   6.294   1.685
 4880SOL     OW31781   4.390   4.576   5.739
 4880SOL    HW131782   4.305   4.621   5.741
 4880SOL    HW231783   4.374   4.495   5.690
 4881SOL     OW31784   3.883   0.824   1.253
 4881SOL    HW131785   3.854   0.873   1.176
 4881SOL    HW231786   3.849   0.735   1.239
 4882SOL     OW31787   2.406   0.874   7.744
 4882SOL    HW131788   2.427   0.928   7.820
 4882SOL    HW231789   2.481   0.885   7.685
 4883SOL     OW31790   4.980   0.235   6.929
 4883SOL    HW131791   4.967   0.327   6.908
 4883SOL    HW231792   4.905   0.191   6.890
 4884SOL     OW31793   2.766   2.036   0.282
 4884SOL    HW131794   2.793   2.072   0.197
 4884SOL    HW231795   2.848   2.014   0.326
 4885SOL     OW31796   4.696   1.378   7.812
 4885SOL    HW131797   4.787   1.406   7.817
 4885SOL    HW231798   4.673   1.384   7.719
 4886SOL     OW31799   3.902   5.883   0.243
 4886SOL    HW131800   3.895   5.835   0.325
 4886SOL    HW231801   3.940   5.821   0.181
 4887SOL     OW31802   5.854   2.979   0.627
 4887SOL    HW131803   5.784   2.917   0.607
 4887SOL    HW231804   5.901   2.940   0.700
 4888SOL     OW31805   3.277   1.191   1.570
 4888SOL    HW131806   3.353   1.181   1.627
 4888SOL    HW231807   3.271   1.285   1.553
 4889SOL     OW31808   5.283   0.418   5.542
 4889SOL    HW131809   5.361   0.392   5.493
 4889SOL    HW231810   5.314   0.488   5.600
 4890SOL     OW31811   5.803   3.815   2.065
 4890SOL    HW131812   5.844   3.843   2.147
 4890SOL    HW231813   5.805   3.720   2.069
 4891SOL     OW31814   6.202   3.807   0.914
 4891SOL    HW131815   6.181   3.894   0.880
 4891SOL    HW231816   6.250   3.825   0.995
 4892SOL     OW31817   4.549   2.890   6.750
 4892SOL    HW131818   4.548   2.909   6.844
 4892SOL    HW231819   4.456   2.884   6.726
 4893SOL     OW31820   6.366   0.049   7.583
 4893SOL    HW131821   6.413   0.061   7.666
 4893SOL    HW231822   6.297  -0.014   7.603
 4894SOL     OW31823   4.030   3.338   0.218
 4894SOL    HW131824   4.007   3.430   0.229
 4894SOL    HW231825   4.041   3.305   0.307
 4895SOL     OW31826   4.352   1.752   1.449
 4895SOL    HW131827   4.362   1.773   1.542
 4895SOL    HW231828   4.297   1.674   1.447
 4896SOL     OW31829   0.064   1.992   0.606
 4896SOL    HW131830   0.093   1.964   0.519
 4896SOL    HW231831   0.043   2.085   0.595
 4897SOL     OW31832   1.115   2.675   7.462
 4897SOL    HW131833   1.045   2.662   7.526
 4897SOL    HW231834   1.194   2.686   7.515
 4898SOL     OW31835   3.401   2.742   0.573
 4898SOL    HW131836   3.403   2.799   0.650
 4898SOL    HW231837   3.478   2.686   0.583
 4899SOL     OW31838   1.390   5.519   0.056
 4899SOL    HW131839   1.389   5.615   0.051
 4899SOL    HW231840   1.482   5.498   0.077
 4900SOL     OW31841   2.098   6.363   7.616
 4900SOL    HW131842   2.192   6.345   7.609
 4900SOL    HW231843   2.061   6.283   7.653
 4901SOL     OW31844   2.736   4.218   7.746
 4901SOL    HW131845   2.742   4.281   7.818
 4901SOL    HW231846   2.643   4.218   7.722
 4902SOL     OW31847   5.765   0.675   0.688
 4902SOL    HW131848   5.806   0.745   0.636
 4902SOL    HW231849   5.824   0.664   0.763
 4903SOL     OW31850   1.720   0.253   1.192
 4903SOL    HW131851   1.648   0.191   1.203
 4903SOL    HW231852   1.774   0.241   1.270
 4904SOL     OW31853   5.289   2.674   7.362
 4904SOL    HW131854   5.349   2.623   7.308
 4904SOL    HW231855   5.322   2.764   7.356
 4905SOL     OW31856   0.978   4.259   7.669
 4905SOL    HW131857   0.885   4.278   7.660
 4905SOL    HW231858   1.018   4.305   7.595
 4906SOL     OW31859   2.011   5.734   6.813
 4906SOL    HW131860   1.945   5.703   6.750
 4906SOL    HW231861   2.091   5.741   6.761
 4907SOL     OW31862   0.800   4.712   0.167
 4907SOL    HW131863   0.784   4.655   0.092
 4907SOL    HW231864   0.763   4.665   0.241
 4908SOL     OW31865   3.602   0.967   7.523
 4908SOL    HW131866   3.662   0.916   7.469
 4908SOL    HW231867   3.567   1.033   7.463
 4909SOL     OW31868   0.523   2.412   0.980
 4909SOL    HW131869   0.458   2.381   0.918
 4909SOL    HW231870   0.605   2.373   0.950
 4910SOL     OW31871   6.280   4.781   6.760
 4910SOL    HW131872   6.207   4.726   6.788
 4910SOL    HW231873   6.354   4.721   6.754
 4911SOL     OW31874   5.479   4.070   1.344
 4911SOL    HW131875   5.414   4.000   1.337
 4911SOL    HW231876   5.530   4.047   1.422
 4912SOL     OW31877   0.700   0.780   7.136
 4912SOL    HW131878   0.629   0.761   7.074
 4912SOL    HW231879   0.667   0.855   7.186
 4913SOL     OW31880   1.854   1.193   6.395
 4913SOL    HW131881   1.814   1.230   6.473
 4913SOL    HW231882   1.881   1.269   6.343
 4914SOL     OW31883   0.538   5.762   7.506
 4914SOL    HW131884   0.462   5.705   7.514
 4914SOL    HW231885   0.574   5.766   7.595
 4915SOL     OW31886   1.794   6.255   2.006
 4915SOL    HW131887   1.886   6.268   2.031
 4915SOL    HW231888   1.760   6.344   1.995
 4916SOL     OW31889   3.109   0.022   0.865
 4916SOL    HW131890   3.099  -0.006   0.956
 4916SOL    HW231891   3.135   0.114   0.870
 4917SOL     OW31892   1.971   3.931   2.227
 4917SOL    HW131893   1.924   3.915   2.308
 4917SOL    HW231894   1.907   3.913   2.158
 4918SOL     OW31895   4.382   0.510   6.738
 4918SOL    HW131896   4.348   0.468   6.817
 4918SOL    HW231897   4.344   0.598   6.738
 4919SOL     OW31898   2.583   0.346   0.581
 4919SOL    HW131899   2.595   0.406   0.655
 4919SOL    HW231900   2.509   0.291   0.606
 4920SOL     OW31901   0.273   4.951   7.310
 4920SOL    HW131902   0.259   4.883   7.244
 4920SOL    HW231903   0.293   4.902   7.390
 4921SOL     OW31904   4.611   4.842   1.493
 4921SOL    HW131905   4.578   4.752   1.496
 4921SOL    HW231906   4.686   4.842   1.552
 4922SOL     OW31907   2.156   4.948   5.846
 4922SOL    HW131908   2.185   4.893   5.919
 4922SOL    HW231909   2.200   5.032   5.860
 4923SOL     OW31910   5.551   6.160   7.391
 4923SOL    HW131911   5.622   6.186   7.333
 4923SOL    HW231912   5.472   6.190   7.347
 4924SOL     OW31913   3.738   4.500   0.642
 4924SOL    HW131914   3.767   4.494   0.733
 4924SOL    HW231915   3.767   4.586   0.613
 4925SOL     OW31916   3.908   4.822   0.447
 4925SOL    HW131917   3.834   4.830   0.507
 4925SOL    HW231918   3.887   4.746   0.393
 4926SOL     OW31919   4.134   2.808   0.824
 4926SOL    HW131920   4.180   2.889   0.798
 4926SOL    HW231921   4.100   2.774   0.741
 4927SOL     OW31922   3.440   3.764   0.535
 4927SOL    HW131923   3.417   3.805   0.451
 4927SOL    HW231924   3.371   3.700   0.549
 4928SOL     OW31925   2.174   4.571   0.696
 4928SOL    HW131926   2.243   4.550   0.760
 4928SOL    HW231927   2.157   4.664   0.708
 4929SOL     OW31928   4.172   5.646   2.204
 4929SOL    HW131929   4.257   5.612   2.178
 4929SOL    HW231930   4.169   5.735   2.168
 4930SOL     OW31931   5.737   2.409   2.513
 4930SOL    HW131932   5.709   2.347   2.446
 4930SOL    HW231933   5.831   2.419   2.498
 4931SOL     OW31934   1.350   2.740   1.124
 4931SOL    HW131935   1.298   2.663   1.100
 4931SOL    HW231936   1.300   2.783   1.193
 4932SOL     OW31937   5.056   5.203   7.657
 4932SOL    HW131938   5.047   5.265   7.585
 4932SOL    HW231939   4.982   5.223   7.715
 4933SOL     OW31940   3.608   4.828   7.233
 4933SOL    HW131941   3.604   4.750   7.177
 4933SOL    HW231942   3.614   4.792   7.322
 4934SOL     OW31943   5.541   3.226   7.320
 4934SOL    HW131944   5.496   3.254   7.240
 4934SOL    HW231945   5.505   3.139   7.338
 4935SOL     OW31946   0.133   4.536   1.363
 4935SOL    HW131947   0.202   4.602   1.364
 4935SOL    HW231948   0.056   4.582   1.398
 4936SOL     OW31949   5.570   0.248   7.229
 4936SOL    HW131950   5.540   0.167   7.269
 4936SOL    HW231951   5.654   0.266   7.270
 4937SOL     OW31952   1.639   2.860   1.533
 4937SOL    HW131953   1.625   2.871   1.627
 4937SOL    HW231954   1.726   2.822   1.525
 4938SOL     OW31955   2.287   4.912   6.395
 4938SOL    HW131956   2.300   4.817   6.404
 4938SOL    HW231957   2.373   4.945   6.369
 4939SOL     OW31958   1.415   2.196   2.173
 4939SOL    HW131959   1.480   2.189   2.243
 4939SOL    HW231960   1.461   2.239   2.101
 4940SOL     OW31961   4.806   2.034   1.351
 4940SOL    HW131962   4.831   1.969   1.286
 4940SOL    HW231963   4.848   2.004   1.432
 4941SOL     OW31964   1.454   3.511   1.439
 4941SOL    HW131965   1.470   3.563   1.518
 4941SOL    HW231966   1.495   3.426   1.458
 4942SOL     OW31967   2.064   4.399   1.268
 4942SOL    HW131968   2.030   4.332   1.208
 4942SOL    HW231969   2.116   4.351   1.332
 4943SOL     OW31970   6.031   3.800   6.601
 4943SOL    HW131971   6.072   3.781   6.517
 4943SOL    HW231972   6.064   3.733   6.660
 4944SOL     OW31973   5.936   5.310   2.368
 4944SOL    HW131974   5.997   5.384   2.366
 4944SOL    HW231975   5.931   5.281   2.277
 4945SOL     OW31976   0.478   3.786   2.264
 4945SOL    HW131977   0.478   3.802   2.170
 4945SOL    HW231978   0.498   3.871   2.303
 4946SOL     OW31979   2.720   2.695   7.020
 4946SOL    HW131980   2.763   2.763   7.071
 4946SOL    HW231981   2.792   2.640   6.989
 4947SOL     OW31982   2.954   6.186   6.462
 4947SOL    HW131983   2.947   6.223   6.374
 4947SOL    HW231984   2.877   6.130   6.471
 4948SOL     OW31985   3.061   2.957   6.682
 4948SOL    HW131986   3.131   2.893   6.671
 4948SOL    HW231987   3.025   2.938   6.769
 4949SOL     OW31988   1.749   1.110   6.141
 4949SOL    HW131989   1.696   1.188   6.124
 4949SOL    HW231990   1.791   1.128   6.225
 4950SOL     OW31991   1.649   5.384   5.785
 4950SOL    HW131992   1.668   5.299   5.746
 4950SOL    HW231993   1.562   5.406   5.752
 4951SOL     OW31994   2.720   0.279   6.240
 4951SOL    HW131995   2.781   0.244   6.305
 4951SOL    HW231996   2.776   0.321   6.175
 4952SOL     OW31997   2.295   4.528   0.394
 4952SOL    HW131998   2.344   4.611   0.394
 4952SOL    HW231999   2.268   4.517   0.485
 4953SOL     OW32000   2.864   4.939   7.463
 4953SOL    HW132001   2.927   4.988   7.515
 4953SOL    HW232002   2.847   4.860   7.515
 4954SOL     OW32003   5.819   4.800   0.349
 4954SOL    HW132004   5.764   4.853   0.406
 4954SOL    HW232005   5.761   4.771   0.279
 4955SOL     OW32006   2.360   5.523   1.629
 4955SOL    HW132007   2.308   5.445   1.609
 4955SOL    HW232008   2.405   5.544   1.547
 4956SOL     OW32009   2.463   5.901   6.502
 4956SOL    HW132010   2.470   5.829   6.439
 4956SOL    HW232011   2.391   5.955   6.468
 4957SOL     OW32012   5.894   2.656   7.546
 4957SOL    HW132013   5.865   2.718   7.613
 4957SOL    HW232014   5.960   2.603   7.590
 4958SOL     OW32015   6.424   2.355   1.142
 4958SOL    HW132016   6.423   2.279   1.200
 4958SOL    HW232017   6.447   2.318   1.056
 4959SOL     OW32018   3.552   2.274   6.989
 4959SOL    HW132019   3.507   2.202   7.032
 4959SOL    HW232020   3.491   2.304   6.921
 4960SOL     OW32021   1.425   0.602   0.148
 4960SOL    HW132022   1.474   0.629   0.226
 4960SOL    HW232023   1.337   0.636   0.163
 4961SOL     OW32024   2.052   3.233   0.753
 4961SOL    HW132025   1.961   3.259   0.765
 4961SOL    HW232026   2.074   3.183   0.832
 4962SOL     OW32027   0.081   6.187   6.691
 4962SOL    HW132028   0.086   6.150   6.780
 4962SOL    HW232029  -0.008   6.171   6.663
 4963SOL     OW32030   5.558   5.304   7.557
 4963SOL    HW132031   5.464   5.295   7.574
 4963SOL    HW232032   5.596   5.317   7.644
 4964SOL     OW32033   0.042   4.175   1.527
 4964SOL    HW132034  -0.015   4.248   1.500
 4964SOL    HW232035  -0.017   4.099   1.529
 4965SOL     OW32036   6.230   3.651   1.490
 4965SOL    HW132037   6.287   3.643   1.414
 4965SOL    HW232038   6.186   3.566   1.497
 4966SOL     OW32039   6.384   1.252   5.518
 4966SOL    HW132040   6.339   1.170   5.497
 4966SOL    HW232041   6.473   1.225   5.541
 4967SOL     OW32042   4.887   2.759   7.680
 4967SOL    HW132043   4.970   2.805   7.690
 4967SOL    HW232044   4.867   2.725   7.767
 4968SOL     OW32045   5.406   5.613   2.284
 4968SOL    HW132046   5.478   5.610   2.347
 4968SOL    HW232047   5.403   5.525   2.246
 4969SOL     OW32048   5.192   6.276   1.373
 4969SOL    HW132049   5.234   6.342   1.428
 4969SOL    HW232050   5.219   6.192   1.412
 4970SOL     OW32051   3.184   4.425   1.621
 4970SOL    HW132052   3.259   4.365   1.621
 4970SOL    HW232053   3.204   4.487   1.691
 4971SOL     OW32054   2.252   1.932   1.368
 4971SOL    HW132055   2.303   1.860   1.331
 4971SOL    HW232056   2.200   1.892   1.438
 4972SOL     OW32057   3.292   4.111   6.549
 4972SOL    HW132058   3.256   4.176   6.490
 4972SOL    HW232059   3.348   4.056   6.494
 4973SOL     OW32060   4.375   5.977   7.177
 4973SOL    HW132061   4.396   6.067   7.204
 4973SOL    HW232062   4.368   5.929   7.260
 4974SOL     OW32063   3.975   2.749   6.435
 4974SOL    HW132064   4.003   2.659   6.415
 4974SOL    HW232065   3.907   2.738   6.502
 4975SOL     OW32066   4.167   0.040   6.699
 4975SOL    HW132067   4.244   0.095   6.689
 4975SOL    HW232068   4.093   0.101   6.696
 4976SOL     OW32069   1.007   6.357   2.256
 4976SOL    HW132070   0.952   6.278   2.254
 4976SOL    HW232071   1.097   6.324   2.259
 4977SOL     OW32072   2.945   2.910   1.313
 4977SOL    HW132073   2.982   2.927   1.227
 4977SOL    HW232074   2.957   2.992   1.361
 4978SOL     OW32075   2.013   0.169   0.603
 4978SOL    HW132076   1.984   0.126   0.523
 4978SOL    HW232077   2.016   0.099   0.669
 4979SOL     OW32078   0.979   2.892   7.126
 4979SOL    HW132079   0.968   2.810   7.174
 4979SOL    HW232080   0.928   2.881   7.046
 4980SOL     OW32081   0.980   3.772   6.843
 4980SOL    HW132082   0.891   3.806   6.830
 4980SOL    HW232083   1.028   3.802   6.766
 4981SOL     OW32084   5.382   2.807   6.400
 4981SOL    HW132085   5.437   2.881   6.373
 4981SOL    HW232086   5.298   2.847   6.422
 4982SOL     OW32087   5.872   1.067   0.073
 4982SOL    HW132088   5.887   0.974   0.062
 4982SOL    HW232089   5.917   1.108  -0.001
 4983SOL     OW32090   4.485   3.946   5.144
 4983SOL    HW132091   4.545   3.942   5.219
 4983SOL    HW232092   4.399   3.961   5.183
 4984SOL     OW32093   1.383   4.738   0.950
 4984SOL    HW132094   1.451   4.733   0.883
 4984SOL    HW232095   1.318   4.673   0.923
 4985SOL     OW32096   1.601   2.074   1.868
 4985SOL    HW132097   1.671   2.014   1.892
 4985SOL    HW232098   1.521   2.032   1.900
 4986SOL     OW32099   0.160   0.791   6.602
 4986SOL    HW132100   0.075   0.749   6.590
 4986SOL    HW232101   0.154   0.873   6.552
 4987SOL     OW32102   0.717   6.178   5.384
 4987SOL    HW132103   0.803   6.217   5.368
 4987SOL    HW232104   0.655   6.239   5.346
 4988SOL     OW32105   1.906   6.213   6.714
 4988SOL    HW132106   1.875   6.146   6.776
 4988SOL    HW232107   1.957   6.273   6.767
 4989SOL     OW32108   1.954   4.169   6.471
 4989SOL    HW132109   1.999   4.243   6.512
 4989SOL    HW232110   1.963   4.184   6.377
 4990SOL     OW32111   6.066   4.804   1.545
 4990SOL    HW132112   6.128   4.739   1.578
 4990SOL    HW232113   6.099   4.827   1.458
 4991SOL     OW32114   2.660   1.811   7.044
 4991SOL    HW132115   2.682   1.729   7.087
 4991SOL    HW232116   2.624   1.866   7.114
 4992SOL     OW32117   1.751   0.856   6.035
 4992SOL    HW132118   1.759   0.799   6.111
 4992SOL    HW232119   1.732   0.942   6.071
 4993SOL     OW32120   2.242   2.903   1.398
 4993SOL    HW132121   2.161   2.955   1.395
 4993SOL    HW232122   2.215   2.816   1.370
 4994SOL     OW32123   3.436   5.848   1.681
 4994SOL    HW132124   3.380   5.897   1.621
 4994SOL    HW232125   3.524   5.883   1.667
 4995SOL     OW32126   5.067   6.431   0.840
 4995SOL    HW132127   5.055   6.336   0.836
 4995SOL    HW232128   5.038   6.462   0.754
 4996SOL     OW32129   5.254   4.472   7.584
 4996SOL    HW132130   5.332   4.511   7.623
 4996SOL    HW232131   5.287   4.423   7.508
 4997SOL     OW32132   1.661   4.929   6.950
 4997SOL    HW132133   1.575   4.945   6.988
 4997SOL    HW232134   1.723   4.951   7.019
 4998SOL     OW32135   3.002   4.085   7.144
 4998SOL    HW132136   2.974   4.157   7.087
 4998SOL    HW232137   2.927   4.025   7.144
 4999SOL     OW32138   6.252   2.414   2.343
 4999SOL    HW132139   6.246   2.459   2.259
 4999SOL    HW232140   6.325   2.354   2.334
 5000SOL     OW32141   1.505   3.662   1.645
 5000SOL    HW132142   1.482   3.646   1.736
 5000SOL    HW232143   1.591   3.704   1.649
 5001SOL     OW32144   1.348   4.928   1.540
 5001SOL    HW132145   1.334   4.901   1.631
 5001SOL    HW232146   1.278   4.885   1.491
 5002SOL     OW32147   6.209   2.844   7.682
 5002SOL    HW132148   6.294   2.857   7.726
 5002SOL    HW232149   6.223   2.769   7.625
 5003SOL     OW32150   6.298   2.543   2.098
 5003SOL    HW132151   6.328   2.631   2.120
 5003SOL    HW232152   6.350   2.517   2.023
 5004SOL     OW32153   3.836   4.634   7.550
 5004SOL    HW132154   3.799   4.584   7.622
 5004SOL    HW232155   3.877   4.567   7.494
 5005SOL     OW32156   0.438   5.625   1.863
 5005SOL    HW132157   0.397   5.540   1.847
 5005SOL    HW232158   0.403   5.653   1.947
 5006SOL     OW32159   5.683   1.893   2.165
 5006SOL    HW132160   5.679   1.807   2.125
 5006SOL    HW232161   5.775   1.919   2.157
 5007SOL     OW32162   1.947   1.522   0.249
 5007SOL    HW132163   1.933   1.590   0.315
 5007SOL    HW232164   1.861   1.483   0.235
 5008SOL     OW32165   0.126   1.747   1.226
 5008SOL    HW132166   0.059   1.815   1.230
 5008SOL    HW232167   0.107   1.700   1.145
 5009SOL     OW32168   5.283   1.704   6.434
 5009SOL    HW132169   5.302   1.778   6.491
 5009SOL    HW232170   5.219   1.738   6.371
 5010SOL     OW32171   0.969   0.519   7.312
 5010SOL    HW132172   0.955   0.599   7.260
 5010SOL    HW232173   1.040   0.542   7.372
 5011SOL     OW32174   5.111   4.734   0.119
 5011SOL    HW132175   5.202   4.755   0.101
 5011SOL    HW232176   5.111   4.640   0.137
 5012SOL     OW32177   4.464   5.647   2.118
 5012SOL    HW132178   4.456   5.667   2.025
 5012SOL    HW232179   4.528   5.710   2.151
 5013SOL     OW32180   6.054   0.050   6.395
 5013SOL    HW132181   6.005   0.002   6.329
 5013SOL    HW232182   6.013   0.025   6.478
 5014SOL     OW32183   0.551   3.628   0.049
 5014SOL    HW132184   0.640   3.649   0.020
 5014SOL    HW232185   0.536   3.685   0.124
 5015SOL     OW32186   5.810   2.960   7.605
 5015SOL    HW132187   5.732   2.908   7.620
 5015SOL    HW232188   5.795   3.002   7.521
 5016SOL     OW32189   5.630   5.000   0.215
 5016SOL    HW132190   5.608   4.981   0.306
 5016SOL    HW232191   5.547   4.991   0.168
 5017SOL     OW32192   4.994   5.590   0.857
 5017SOL    HW132193   5.029   5.595   0.946
 5017SOL    HW232194   5.062   5.630   0.803
 5018SOL     OW32195   1.454   1.473   5.754
 5018SOL    HW132196   1.430   1.381   5.755
 5018SOL    HW232197   1.370   1.520   5.750
 5019SOL     OW32198   3.400   1.206   6.228
 5019SOL    HW132199   3.304   1.207   6.230
 5019SOL    HW232200   3.423   1.250   6.147
 5020SOL     OW32201   5.822   4.132   2.708
 5020SOL    HW132202   5.860   4.147   2.621
 5020SOL    HW232203   5.832   4.038   2.722
 5021SOL     OW32204   3.236   0.269   1.279
 5021SOL    HW132205   3.296   0.198   1.259
 5021SOL    HW232206   3.290   0.336   1.321
 5022SOL     OW32207   2.373   3.419   7.118
 5022SOL    HW132208   2.422   3.420   7.201
 5022SOL    HW232209   2.421   3.356   7.063
 5023SOL     OW32210   3.075   2.459   7.103
 5023SOL    HW132211   3.065   2.518   7.179
 5023SOL    HW232212   3.056   2.372   7.138
 5024SOL     OW32213   2.174   0.295   6.261
 5024SOL    HW132214   2.249   0.337   6.219
 5024SOL    HW232215   2.176   0.205   6.228
 5025SOL     OW32216   3.256   0.967   0.132
 5025SOL    HW132217   3.237   0.947   0.223
 5025SOL    HW232218   3.180   1.017   0.102
 5026SOL     OW32219   3.882   6.207   0.432
 5026SOL    HW132220   3.848   6.245   0.351
 5026SOL    HW232221   3.841   6.121   0.438
 5027SOL     OW32222   4.508   0.267   1.698
 5027SOL    HW132223   4.423   0.307   1.680
 5027SOL    HW232224   4.488   0.194   1.757
 5028SOL     OW32225   4.689   5.445   5.967
 5028SOL    HW132226   4.721   5.503   6.036
 5028SOL    HW232227   4.640   5.377   6.014
 5029SOL     OW32228   2.880   5.203   5.510
 5029SOL    HW132229   2.954   5.191   5.570
 5029SOL    HW232230   2.872   5.297   5.501
 5030SOL     OW32231   6.198   1.103   0.282
 5030SOL    HW132232   6.225   1.146   0.201
 5030SOL    HW232233   6.276   1.103   0.337
 5031SOL     OW32234   4.650   4.455   0.850
 5031SOL    HW132235   4.586   4.478   0.919
 5031SOL    HW232236   4.636   4.362   0.834
 5032SOL     OW32237   4.327   3.508   2.297
 5032SOL    HW132238   4.343   3.534   2.206
 5032SOL    HW232239   4.255   3.564   2.325
 5033SOL     OW32240   1.737   3.925   5.692
 5033SOL    HW132241   1.748   3.919   5.597
 5033SOL    HW232242   1.679   3.852   5.715
 5034SOL     OW32243   3.264   2.583   0.247
 5034SOL    HW132244   3.173   2.603   0.268
 5034SOL    HW232245   3.263   2.567   0.152
 5035SOL     OW32246   4.606   3.453   6.126
 5035SOL    HW132247   4.689   3.496   6.105
 5035SOL    HW232248   4.613   3.367   6.084
 5036SOL     OW32249   5.771   6.389   7.333
 5036SOL    HW132250   5.814   6.305   7.321
 5036SOL    HW232251   5.690   6.383   7.283
 5037SOL     OW32252   1.412   5.397   6.660
 5037SOL    HW132253   1.389   5.479   6.615
 5037SOL    HW232254   1.506   5.387   6.644
 5038SOL     OW32255   5.536   3.047   0.897
 5038SOL    HW132256   5.494   3.133   0.898
 5038SOL    HW232257   5.464   2.985   0.888
 5039SOL     OW32258   4.540   1.138   7.435
 5039SOL    HW132259   4.602   1.079   7.477
 5039SOL    HW232260   4.593   1.192   7.377
 5040SOL     OW32261   0.344   5.831   6.919
 5040SOL    HW132262   0.398   5.753   6.927
 5040SOL    HW232263   0.382   5.894   6.979
 5041SOL     OW32264   0.517   2.266   6.144
 5041SOL    HW132265   0.608   2.278   6.170
 5041SOL    HW232266   0.518   2.274   6.048
 5042SOL     OW32267   0.306   1.154   0.756
 5042SOL    HW132268   0.306   1.220   0.687
 5042SOL    HW232269   0.388   1.169   0.803
 5043SOL     OW32270   6.212   5.821   1.792
 5043SOL    HW132271   6.258   5.742   1.766
 5043SOL    HW232272   6.244   5.889   1.732
 5044SOL     OW32273   5.869   3.468   6.052
 5044SOL    HW132274   5.953   3.493   6.013
 5044SOL    HW232275   5.833   3.550   6.086
 5045SOL     OW32276   3.847   4.287   6.978
 5045SOL    HW132277   3.822   4.339   7.054
 5045SOL    HW232278   3.940   4.308   6.964
 5046SOL     OW32279   0.194   0.020   5.873
 5046SOL    HW132280   0.186  -0.068   5.837
 5046SOL    HW232281   0.281   0.049   5.847
 5047SOL     OW32282   5.433   4.056   5.704
 5047SOL    HW132283   5.362   4.019   5.650
 5047SOL    HW232284   5.394   4.064   5.792
 5048SOL     OW32285   4.606   1.594   7.091
 5048SOL    HW132286   4.538   1.634   7.037
 5048SOL    HW232287   4.621   1.657   7.161
 5049SOL     OW32288   1.398   4.456   5.779
 5049SOL    HW132289   1.347   4.388   5.734
 5049SOL    HW232290   1.373   4.537   5.734
 5050SOL     OW32291   1.919   2.327   1.206
 5050SOL    HW132292   1.937   2.332   1.300
 5050SOL    HW232293   1.906   2.234   1.189
 5051SOL     OW32294   0.858   4.638   6.368
 5051SOL    HW132295   0.775   4.630   6.321
 5051SOL    HW232296   0.840   4.602   6.454
 5052SOL     OW32297   2.441   5.745   1.808
 5052SOL    HW132298   2.424   5.654   1.831
 5052SOL    HW232299   2.458   5.788   1.892
 5053SOL     OW32300   3.332   5.999   1.475
 5053SOL    HW132301   3.281   6.028   1.400
 5053SOL    HW232302   3.417   6.041   1.464
 5054SOL     OW32303   6.032   0.763   6.944
 5054SOL    HW132304   6.014   0.857   6.951
 5054SOL    HW232305   6.008   0.741   6.853
 5055SOL     OW32306   0.880   4.034   0.767
 5055SOL    HW132307   0.820   4.006   0.836
 5055SOL    HW232308   0.926   3.954   0.740
 5056SOL     OW32309   3.498   1.233   7.310
 5056SOL    HW132310   3.456   1.287   7.377
 5056SOL    HW232311   3.429   1.172   7.283
 5057SOL     OW32312   2.132   2.439   1.562
 5057SOL    HW132313   2.131   2.345   1.546
 5057SOL    HW232314   2.067   2.452   1.631
 5058SOL     OW32315   1.844   4.604   2.344
 5058SOL    HW132316   1.843   4.525   2.398
 5058SOL    HW232317   1.882   4.576   2.261
 5059SOL     OW32318   3.754   1.950   1.214
 5059SOL    HW132319   3.816   1.992   1.274
 5059SOL    HW232320   3.793   1.960   1.128
 5060SOL     OW32321   0.981   2.660   5.942
 5060SOL    HW132322   0.951   2.606   5.869
 5060SOL    HW232323   1.040   2.723   5.902
 5061SOL     OW32324   4.561   4.667   6.805
 5061SOL    HW132325   4.629   4.600   6.809
 5061SOL    HW232326   4.567   4.701   6.715
 5062SOL     OW32327   1.447   6.007   2.284
 5062SOL    HW132328   1.473   6.082   2.337
 5062SOL    HW232329   1.391   6.044   2.216
 5063SOL     OW32330   0.135   4.545   0.072
 5063SOL    HW132331   0.048   4.561   0.108
 5063SOL    HW232332   0.121   4.491  -0.005
 5064SOL     OW32333   4.519   3.794   7.234
 5064SOL    HW132334   4.454   3.768   7.299
 5064SOL    HW232335   4.478   3.867   7.187
 5065SOL     OW32336   0.465   2.933   0.234
 5065SOL    HW132337   0.477   2.924   0.328
 5065SOL    HW232338   0.526   2.869   0.196
 5066SOL     OW32339   2.353   5.821   7.241
 5066SOL    HW132340   2.409   5.872   7.182
 5066SOL    HW232341   2.275   5.875   7.253
 5067SOL     OW32342   2.374   5.066   6.767
 5067SOL    HW132343   2.342   4.978   6.789
 5067SOL    HW232344   2.352   5.119   6.843
 5068SOL     OW32345   5.376   1.030   7.028
 5068SOL    HW132346   5.392   0.937   7.045
 5068SOL    HW232347   5.303   1.031   6.967
 5069SOL     OW32348   0.074   3.428   1.535
 5069SOL    HW132349   0.142   3.494   1.519
 5069SOL    HW232350   0.046   3.401   1.447
 5070SOL     OW32351   4.067   0.751   7.562
 5070SOL    HW132352   4.037   0.833   7.601
 5070SOL    HW232353   4.013   0.683   7.603
 5071SOL     OW32354   5.584   6.261   6.286
 5071SOL    HW132355   5.503   6.214   6.265
 5071SOL    HW232356   5.614   6.297   6.203
 5072SOL     OW32357   6.407   0.019   0.907
 5072SOL    HW132358   6.436  -0.059   0.953
 5072SOL    HW232359   6.376  -0.013   0.822
 5073SOL     OW32360   5.327   5.793   1.213
 5073SOL    HW132361   5.258   5.779   1.148
 5073SOL    HW232362   5.394   5.729   1.190
 5074SOL     OW32363   1.378   5.394   1.298
 5074SOL    HW132364   1.361   5.452   1.223
 5074SOL    HW232365   1.397   5.309   1.259
 5075SOL     OW32366   1.073   3.381   0.493
 5075SOL    HW132367   1.099   3.353   0.406
 5075SOL    HW232368   1.116   3.319   0.552
 5076SOL     OW32369   5.543   0.445   0.176
 5076SOL    HW132370   5.551   0.352   0.199
 5076SOL    HW232371   5.541   0.490   0.261
 5077SOL     OW32372   6.370   0.716   7.326
 5077SOL    HW132373   6.395   0.806   7.345
 5077SOL    HW232374   6.307   0.694   7.394
 5078SOL     OW32375   2.720   5.063   6.527
 5078SOL    HW132376   2.787   5.102   6.584
 5078SOL    HW232377   2.739   5.101   6.441
 5079SOL     OW32378   0.537   0.270   0.383
 5079SOL    HW132379   0.513   0.308   0.467
 5079SOL    HW232380   0.585   0.339   0.338
 5080SOL     OW32381   2.641   1.591   2.058
 5080SOL    HW132382   2.598   1.574   2.142
 5080SOL    HW232383   2.722   1.636   2.081
 5081SOL     OW32384   5.174   4.060   6.768
 5081SOL    HW132385   5.204   3.969   6.774
 5081SOL    HW232386   5.181   4.094   6.857
 5082SOL     OW32387   2.010   4.965   6.338
 5082SOL    HW132388   2.101   4.955   6.311
 5082SOL    HW232389   1.960   4.956   6.258
 5083SOL     OW32390   5.252   3.273   0.486
 5083SOL    HW132391   5.235   3.202   0.548
 5083SOL    HW232392   5.334   3.249   0.444
 5084SOL     OW32393   0.655   4.599   6.193
 5084SOL    HW132394   0.735   4.611   6.141
 5084SOL    HW232395   0.584   4.618   6.133
 5085SOL     OW32396   2.248   3.478   0.140
 5085SOL    HW132397   2.168   3.512   0.100
 5085SOL    HW232398   2.270   3.400   0.088
 5086SOL     OW32399   5.916   3.469   1.110
 5086SOL    HW132400   5.831   3.427   1.120
 5086SOL    HW232401   5.947   3.441   1.023
 5087SOL     OW32402   0.514   5.976   7.035
 5087SOL    HW132403   0.569   5.950   7.109
 5087SOL    HW232404   0.576   6.013   6.971
 5088SOL     OW32405   4.945   0.846   7.681
 5088SOL    HW132406   4.877   0.780   7.686
 5088SOL    HW232407   4.996   0.823   7.603
 5089SOL     OW32408   4.670   2.925   6.377
 5089SOL    HW132409   4.736   2.952   6.313
 5089SOL    HW232410   4.587   2.957   6.341
 5090SOL     OW32411   5.217   3.928   6.208
 5090SOL    HW132412   5.210   4.008   6.260
 5090SOL    HW232413   5.129   3.912   6.175
 5091SOL     OW32414   1.295   4.633   0.059
 5091SOL    HW132415   1.205   4.600   0.056
 5091SOL    HW232416   1.319   4.645  -0.033
 5092SOL     OW32417   0.524   1.986   7.227
 5092SOL    HW132418   0.555   2.013   7.140
 5092SOL    HW232419   0.587   1.921   7.257
 5093SOL     OW32420   4.956   0.691   7.248
 5093SOL    HW132421   4.998   0.723   7.168
 5093SOL    HW232422   5.023   0.699   7.315
 5094SOL     OW32423   0.435   4.533   7.834
 5094SOL    HW132424   0.505   4.563   7.892
 5094SOL    HW232425   0.355   4.567   7.874
 5095SOL     OW32426   5.703   1.314   7.551
 5095SOL    HW132427   5.640   1.249   7.581
 5095SOL    HW232428   5.713   1.374   7.625
 5096SOL     OW32429   2.629   6.196   7.088
 5096SOL    HW132430   2.582   6.241   7.017
 5096SOL    HW232431   2.591   6.108   7.090
 5097SOL     OW32432   6.134   2.444   0.457
 5097SOL    HW132433   6.142   2.535   0.486
 5097SOL    HW232434   6.042   2.434   0.435
 5098SOL     OW32435   1.514   0.754   7.763
 5098SOL    HW132436   1.476   0.745   7.675
 5098SOL    HW232437   1.445   0.726   7.822
 5099SOL     OW32438   4.764   1.039   7.564
 5099SOL    HW132439   4.815   1.004   7.637
 5099SOL    HW232440   4.830   1.075   7.504
 5100SOL     OW32441   3.449   3.331   6.997
 5100SOL    HW132442   3.459   3.416   6.954
 5100SOL    HW232443   3.357   3.309   6.984
 5101SOL     OW32444   5.278   4.836   0.988
 5101SOL    HW132445   5.256   4.905   0.925
 5101SOL    HW232446   5.199   4.783   0.994
 5102SOL     OW32447   4.557   4.725   0.700
 5102SOL    HW132448   4.531   4.633   0.692
 5102SOL    HW232449   4.576   4.752   0.610
 5103SOL     OW32450   4.792   2.403   6.720
 5103SOL    HW132451   4.698   2.389   6.717
 5103SOL    HW232452   4.804   2.470   6.788
 5104SOL     OW32453   3.858   1.905   7.269
 5104SOL    HW132454   3.922   1.855   7.218
 5104SOL    HW232455   3.883   1.891   7.360
 5105SOL     OW32456   4.861   1.430   7.362
 5105SOL    HW132457   4.946   1.404   7.396
 5105SOL    HW232458   4.881   1.481   7.283
 5106SOL     OW32459   2.029   3.674   1.631
 5106SOL    HW132460   2.007   3.659   1.723
 5106SOL    HW232461   2.112   3.722   1.634
 5107SOL     OW32462   2.241   5.741   6.656
 5107SOL    HW132463   2.330   5.757   6.623
 5107SOL    HW232464   2.233   5.646   6.657
 5108SOL     OW32465   4.293   0.172   0.490
 5108SOL    HW132466   4.283   0.077   0.489
 5108SOL    HW232467   4.343   0.191   0.410
 5109SOL     OW32468   3.926   1.333   1.639
 5109SOL    HW132469   3.902   1.312   1.730
 5109SOL    HW232470   3.972   1.255   1.608
 5110SOL     OW32471   2.036   4.816   0.754
 5110SOL    HW132472   1.950   4.821   0.796
 5110SOL    HW232473   2.069   4.906   0.754
 5111SOL     OW32474   3.431   1.339   5.685
 5111SOL    HW132475   3.378   1.278   5.633
 5111SOL    HW232476   3.487   1.381   5.621
 5112SOL     OW32477   2.787   1.656   1.833
 5112SOL    HW132478   2.749   1.599   1.900
 5112SOL    HW232479   2.787   1.743   1.873
 5113SOL     OW32480   0.392   2.300   0.517
 5113SOL    HW132481   0.354   2.223   0.559
 5113SOL    HW232482   0.334   2.317   0.442
 5114SOL     OW32483   5.536   0.364   5.458
 5114SOL    HW132484   5.619   0.410   5.446
 5114SOL    HW232485   5.559   0.283   5.504
 5115SOL     OW32486   2.622   5.502   1.996
 5115SOL    HW132487   2.559   5.521   2.065
 5115SOL    HW232488   2.691   5.452   2.040
 5116SOL     OW32489   1.535   1.952   6.013
 5116SOL    HW132490   1.499   1.961   6.101
 5116SOL    HW232491   1.598   1.880   6.020
 5117SOL     OW32492   1.447   2.915   2.761
 5117SOL    HW132493   1.518   2.944   2.818
 5117SOL    HW232494   1.454   2.972   2.684
 5118SOL     OW32495   4.178   3.198   7.706
 5118SOL    HW132496   4.207   3.122   7.756
 5118SOL    HW232497   4.087   3.179   7.683
 5119SOL     OW32498   6.264   5.907   0.438
 5119SOL    HW132499   6.351   5.931   0.469
 5119SOL    HW232500   6.278   5.828   0.385
 5120SOL     OW32501   4.696   5.081   7.233
 5120SOL    HW132502   4.726   5.001   7.190
 5120SOL    HW232503   4.732   5.152   7.180
 5121SOL     OW32504   6.236   5.412   7.083
 5121SOL    HW132505   6.248   5.326   7.043
 5121SOL    HW232506   6.192   5.464   7.015
 5122SOL     OW32507   2.884   4.298   0.640
 5122SOL    HW132508   2.800   4.286   0.596
 5122SOL    HW232509   2.864   4.352   0.716
 5123SOL     OW32510   5.950   1.302   6.098
 5123SOL    HW132511   5.885   1.341   6.039
 5123SOL    HW232512   5.940   1.351   6.180
 5124SOL     OW32513   0.800   0.158   7.850
 5124SOL    HW132514   0.722   0.159   7.905
 5124SOL    HW232515   0.772   0.195   7.767
 5125SOL     OW32516   2.585   1.312   1.637
 5125SOL    HW132517   2.548   1.369   1.570
 5125SOL    HW232518   2.517   1.246   1.653
 5126SOL     OW32519   6.373   2.015   7.614
 5126SOL    HW132520   6.317   2.025   7.537
 5126SOL    HW232521   6.456   2.056   7.588
 5127SOL     OW32522   2.932   6.358   6.179
 5127SOL    HW132523   3.006   6.401   6.135
 5127SOL    HW232524   2.859   6.418   6.167
 5128SOL     OW32525   6.261   4.897   5.399
 5128SOL    HW132526   6.302   4.813   5.378
 5128SOL    HW232527   6.333   4.951   5.430
 5129SOL     OW32528   1.680   5.511   6.103
 5129SOL    HW132529   1.613   5.575   6.081
 5129SOL    HW232530   1.749   5.526   6.039
 5130SOL     OW32531   5.106   1.518   2.670
 5130SOL    HW132532   5.178   1.568   2.631
 5130SOL    HW232533   5.096   1.442   2.613
 5131SOL     OW32534   1.350   2.331   1.416
 5131SOL    HW132535   1.433   2.372   1.440
 5131SOL    HW232536   1.375   2.257   1.361
 5132SOL     OW32537   5.986   1.570   1.547
 5132SOL    HW132538   6.061   1.629   1.547
 5132SOL    HW232539   5.941   1.587   1.464
 5133SOL     OW32540   4.161   1.725   6.973
 5133SOL    HW132541   4.141   1.632   6.976
 5133SOL    HW232542   4.257   1.730   6.976
 5134SOL     OW32543   4.068   4.386   6.115
 5134SOL    HW132544   4.139   4.436   6.156
 5134SOL    HW232545   4.071   4.410   6.023
 5135SOL     OW32546   5.376   0.158   1.288
 5135SOL    HW132547   5.335   0.121   1.210
 5135SOL    HW232548   5.453   0.102   1.303
 5136SOL     OW32549   4.935   0.544   0.624
 5136SOL    HW132550   4.885   0.624   0.609
 5136SOL    HW232551   5.005   0.570   0.684
 5137SOL     OW32552   1.065   2.110   1.932
 5137SOL    HW132553   1.052   2.146   2.019
 5137SOL    HW232554   0.978   2.108   1.893
 5138SOL     OW32555   1.497   1.660   1.203
 5138SOL    HW132556   1.561   1.731   1.205
 5138SOL    HW232557   1.471   1.649   1.294
 5139SOL     OW32558   3.183   3.135   7.184
 5139SOL    HW132559   3.199   3.219   7.141
 5139SOL    HW232560   3.192   3.070   7.114
 5140SOL     OW32561   4.419   3.411   0.067
 5140SOL    HW132562   4.460   3.497   0.057
 5140SOL    HW232563   4.326   3.429   0.077
 5141SOL     OW32564   0.916   2.922   0.312
 5141SOL    HW132565   0.841   2.961   0.358
 5141SOL    HW232566   0.952   2.994   0.260
 5142SOL     OW32567   5.675   6.304   0.778
 5142SOL    HW132568   5.689   6.260   0.694
 5142SOL    HW232569   5.649   6.393   0.754
 5143SOL     OW32570   3.660   1.058   1.881
 5143SOL    HW132571   3.740   1.110   1.877
 5143SOL    HW232572   3.620   1.082   1.965
 5144SOL     OW32573   4.857   5.651   7.565
 5144SOL    HW132574   4.810   5.692   7.492
 5144SOL    HW232575   4.791   5.597   7.608
 5145SOL     OW32576   3.491   1.448   0.160
 5145SOL    HW132577   3.568   1.485   0.203
 5145SOL    HW232578   3.497   1.354   0.176
 5146SOL     OW32579   0.007   0.377   6.433
 5146SOL    HW132580  -0.065   0.332   6.387
 5146SOL    HW232581  -0.038   0.434   6.495
 5147SOL     OW32582   5.159   5.106   7.106
 5147SOL    HW132583   5.230   5.128   7.045
 5147SOL    HW232584   5.183   5.021   7.141
 5148SOL     OW32585   4.997   2.224   6.725
 5148SOL    HW132586   5.080   2.268   6.707
 5148SOL    HW232587   4.932   2.294   6.721
 5149SOL     OW32588   1.483   4.659   0.676
 5149SOL    HW132589   1.575   4.640   0.657
 5149SOL    HW232590   1.434   4.592   0.630
 5150SOL     OW32591   4.859   2.802   1.278
 5150SOL    HW132592   4.883   2.716   1.244
 5150SOL    HW232593   4.859   2.860   1.202
 5151SOL     OW32594   4.323   0.938   7.029
 5151SOL    HW132595   4.327   0.949   7.124
 5151SOL    HW232596   4.242   0.982   7.003
 5152SOL     OW32597   4.244   6.075   2.081
 5152SOL    HW132598   4.164   6.055   2.033
 5152SOL    HW232599   4.219   6.144   2.143
 5153SOL     OW32600   2.015   6.196   1.543
 5153SOL    HW132601   1.964   6.126   1.502
 5153SOL    HW232602   1.983   6.200   1.633
 5154SOL     OW32603   5.025   6.254   6.778
 5154SOL    HW132604   5.042   6.341   6.744
 5154SOL    HW232605   5.105   6.229   6.824
 5155SOL     OW32606   2.455   6.105   2.060
 5155SOL    HW132607   2.469   6.011   2.055
 5155SOL    HW232608   2.532   6.143   2.017
 5156SOL     OW32609   3.008   2.727   0.921
 5156SOL    HW132610   2.915   2.723   0.945
 5156SOL    HW232611   3.013   2.679   0.838
 5157SOL     OW32612   5.778   3.171   7.207
 5157SOL    HW132613   5.708   3.209   7.261
 5157SOL    HW232614   5.857   3.182   7.259
 5158SOL     OW32615   4.473   4.347   6.769
 5158SOL    HW132616   4.542   4.373   6.830
 5158SOL    HW232617   4.411   4.298   6.823
 5159SOL     OW32618   5.538   2.951   7.571
 5159SOL    HW132619   5.466   2.993   7.524
 5159SOL    HW232620   5.499   2.917   7.651
 5160SOL     OW32621   5.093   3.120   2.249
 5160SOL    HW132622   5.097   3.168   2.166
 5160SOL    HW232623   5.147   3.170   2.309
 5161SOL     OW32624   5.127   2.908   0.227
 5161SOL    HW132625   5.164   2.992   0.202
 5161SOL    HW232626   5.194   2.868   0.282
 5162SOL     OW32627   2.348   3.075   7.161
 5162SOL    HW132628   2.363   2.992   7.207
 5162SOL    HW232629   2.432   3.094   7.119
 5163SOL     OW32630   0.141   0.528   0.733
 5163SOL    HW132631   0.136   0.560   0.643
 5163SOL    HW232632   0.054   0.493   0.751
 5164SOL     OW32633   0.327   3.988   6.571
 5164SOL    HW132634   0.290   4.022   6.489
 5164SOL    HW232635   0.258   4.003   6.635
 5165SOL     OW32636   1.003   1.729   7.207
 5165SOL    HW132637   0.972   1.818   7.190
 5165SOL    HW232638   1.082   1.741   7.259
 5166SOL     OW32639   5.386   1.238   1.132
 5166SOL    HW132640   5.378   1.225   1.226
 5166SOL    HW232641   5.429   1.158   1.100
 5167SOL     OW32642   2.870   2.110   0.993
 5167SOL    HW132643   2.965   2.105   0.987
 5167SOL    HW232644   2.854   2.185   1.051
 5168SOL     OW32645   1.360   5.277   5.894
 5168SOL    HW132646   1.440   5.325   5.915
 5168SOL    HW232647   1.392   5.193   5.861
 5169SOL     OW32648   0.905   4.126   6.879
 5169SOL    HW132649   0.856   4.045   6.894
 5169SOL    HW232650   0.932   4.120   6.788
 5170SOL     OW32651   2.546   5.297   0.401
 5170SOL    HW132652   2.634   5.322   0.374
 5170SOL    HW232653   2.505   5.263   0.322
 5171SOL     OW32654   2.378   2.945   2.126
 5171SOL    HW132655   2.381   3.034   2.091
 5171SOL    HW232656   2.294   2.911   2.095
 5172SOL     OW32657   6.115   4.072   0.903
 5172SOL    HW132658   6.195   4.123   0.892
 5172SOL    HW232659   6.081   4.097   0.989
 5173SOL     OW32660   6.259   0.212   6.313
 5173SOL    HW132661   6.247   0.184   6.222
 5173SOL    HW232662   6.193   0.164   6.362
 5174SOL     OW32663   2.867   2.683   1.449
 5174SOL    HW132664   2.906   2.752   1.396
 5174SOL    HW232665   2.843   2.615   1.386
 5175SOL     OW32666   6.120   4.782   7.748
 5175SOL    HW132667   6.167   4.729   7.683
 5175SOL    HW232668   6.056   4.832   7.697
 5176SOL     OW32669   4.248   1.762   1.041
 5176SOL    HW132670   4.164   1.745   1.083
 5176SOL    HW232671   4.312   1.714   1.094
 5177SOL     OW32672   0.108   4.116   6.705
 5177SOL    HW132673   0.027   4.165   6.715
 5177SOL    HW232674   0.159   4.137   6.784
 5178SOL     OW32675   2.599   2.362   6.968
 5178SOL    HW132676   2.665   2.303   6.930
 5178SOL    HW232677   2.587   2.430   6.902
 5179SOL     OW32678   3.642   5.022   0.186
 5179SOL    HW132679   3.662   5.113   0.205
 5179SOL    HW232680   3.618   5.022   0.093
 5180SOL     OW32681   1.239   0.757   0.513
 5180SOL    HW132682   1.145   0.742   0.516
 5180SOL    HW232683   1.261   0.762   0.420
 5181SOL     OW32684   0.089   3.412   7.622
 5181SOL    HW132685   0.177   3.384   7.650
 5181SOL    HW232686   0.031   3.344   7.657
 5182SOL     OW32687   5.157   3.970   0.202
 5182SOL    HW132688   5.217   3.979   0.276
 5182SOL    HW232689   5.096   4.044   0.211
 5183SOL     OW32690   5.670   4.303   6.497
 5183SOL    HW132691   5.666   4.399   6.496
 5183SOL    HW232692   5.606   4.278   6.565
 5184SOL     OW32693   3.605   0.579   5.362
 5184SOL    HW132694   3.663   0.646   5.397
 5184SOL    HW232695   3.518   0.619   5.363
 5185SOL     OW32696   3.143   0.413   6.416
 5185SOL    HW132697   3.145   0.502   6.452
 5185SOL    HW232698   3.062   0.375   6.452
 5186SOL     OW32699   3.753   0.025   7.108
 5186SOL    HW132700   3.750  -0.066   7.079
 5186SOL    HW232701   3.661   0.051   7.116
 5187SOL     OW32702   0.716   2.871   0.687
 5187SOL    HW132703   0.776   2.802   0.713
 5187SOL    HW232704   0.684   2.909   0.769
 5188SOL     OW32705   4.394   5.699   1.312
 5188SOL    HW132706   4.365   5.629   1.371
 5188SOL    HW232707   4.435   5.653   1.239
 5189SOL     OW32708   2.074   5.060   1.629
 5189SOL    HW132709   2.078   5.099   1.542
 5189SOL    HW232710   2.141   5.105   1.680
 5190SOL     OW32711   5.852   1.752   0.765
 5190SOL    HW132712   5.829   1.665   0.798
 5190SOL    HW232713   5.812   1.757   0.678
 5191SOL     OW32714   6.045   5.018   6.550
 5191SOL    HW132715   5.999   4.950   6.600
 5191SOL    HW232716   5.990   5.095   6.559
 5192SOL     OW32717   1.736   5.612   0.617
 5192SOL    HW132718   1.674   5.577   0.681
 5192SOL    HW232719   1.752   5.540   0.557
 5193SOL     OW32720   1.940   0.575   0.200
 5193SOL    HW132721   1.956   0.593   0.293
 5193SOL    HW232722   2.006   0.509   0.177
 5194SOL     OW32723   4.485   2.647   5.691
 5194SOL    HW132724   4.483   2.630   5.785
 5194SOL    HW232725   4.550   2.715   5.679
 5195SOL     OW32726   4.045   4.563   7.161
 5195SOL    HW132727   3.974   4.622   7.136
 5195SOL    HW232728   4.114   4.620   7.193
 5196SOL     OW32729   4.478   3.543   1.620
 5196SOL    HW132730   4.426   3.469   1.650
 5196SOL    HW232731   4.431   3.620   1.653
 5197SOL     OW32732   6.426   3.844   1.814
 5197SOL    HW132733   6.519   3.828   1.829
 5197SOL    HW232734   6.386   3.757   1.817
 5198SOL     OW32735   6.257   0.705   0.196
 5198SOL    HW132736   6.254   0.626   0.251
 5198SOL    HW232737   6.209   0.680   0.117
 5199SOL     OW32738   2.150   6.124   0.617
 5199SOL    HW132739   2.124   6.145   0.527
 5199SOL    HW232740   2.240   6.092   0.610
 5200SOL     OW32741   1.739   3.881   0.275
 5200SOL    HW132742   1.694   3.801   0.304
 5200SOL    HW232743   1.830   3.855   0.263
 5201SOL     OW32744   6.437   5.012   1.868
 5201SOL    HW132745   6.395   5.044   1.948
 5201SOL    HW232746   6.370   5.023   1.800
 5202SOL     OW32747   3.898   1.002   6.956
 5202SOL    HW132748   3.846   1.068   6.911
 5202SOL    HW232749   3.988   1.035   6.951
 5203SOL     OW32750   5.212   1.462   1.071
 5203SOL    HW132751   5.269   1.403   1.120
 5203SOL    HW232752   5.258   1.546   1.071
 5204SOL     OW32753   0.831   3.627   0.160
 5204SOL    HW132754   0.786   3.604   0.241
 5204SOL    HW232755   0.847   3.722   0.168
 5205SOL     OW32756   3.825   4.321   6.485
 5205SOL    HW132757   3.768   4.243   6.485
 5205SOL    HW232758   3.791   4.374   6.557
 5206SOL     OW32759   2.947   5.506   0.867
 5206SOL    HW132760   2.942   5.590   0.914
 5206SOL    HW232761   2.898   5.445   0.921
 5207SOL     OW32762   0.048   0.171   1.353
 5207SOL    HW132763  -0.034   0.216   1.374
 5207SOL    HW232764   0.061   0.111   1.427
 5208SOL     OW32765   0.236   1.084   6.912
 5208SOL    HW132766   0.318   1.127   6.885
 5208SOL    HW232767   0.170   1.118   6.852
 5209SOL     OW32768   4.454   4.435   2.162
 5209SOL    HW132769   4.437   4.529   2.159
 5209SOL    HW232770   4.529   4.422   2.105
 5210SOL     OW32771   2.409   5.705   0.267
 5210SOL    HW132772   2.485   5.693   0.324
 5210SOL    HW232773   2.412   5.632   0.206
 5211SOL     OW32774   0.096   3.314   0.700
 5211SOL    HW132775   0.148   3.377   0.651
 5211SOL    HW232776   0.111   3.231   0.656
 5212SOL     OW32777   6.057   4.192   2.560
 5212SOL    HW132778   6.081   4.213   2.650
 5212SOL    HW232779   6.070   4.274   2.512
 5213SOL     OW32780   2.051   0.665   1.866
 5213SOL    HW132781   1.974   0.642   1.919
 5213SOL    HW232782   2.033   0.755   1.837
 5214SOL     OW32783   4.631   3.826   1.191
 5214SOL    HW132784   4.723   3.842   1.170
 5214SOL    HW232785   4.634   3.764   1.263
 5215SOL     OW32786   5.519   3.065   0.138
 5215SOL    HW132787   5.604   3.038   0.102
 5215SOL    HW232788   5.455   3.027   0.078
 5216SOL     OW32789   1.243   3.620   0.583
 5216SOL    HW132790   1.277   3.545   0.632
 5216SOL    HW232791   1.184   3.583   0.519
 5217SOL     OW32792   3.939   2.980   0.329
 5217SOL    HW132793   4.032   2.973   0.310
 5217SOL    HW232794   3.914   2.895   0.363
 5218SOL     OW32795   2.133   5.386   7.756
 5218SOL    HW132796   2.047   5.387   7.799
 5218SOL    HW232797   2.187   5.444   7.811
 5219SOL     OW32798   3.459   0.297   6.237
 5219SOL    HW132799   3.414   0.330   6.316
 5219SOL    HW232800   3.389   0.269   6.179
 5220SOL     OW32801   1.014   1.111   1.051
 5220SOL    HW132802   1.021   1.182   1.114
 5220SOL    HW232803   1.103   1.075   1.045
 5221SOL     OW32804   6.379   0.615   6.896
 5221SOL    HW132805   6.454   0.558   6.913
 5221SOL    HW232806   6.305   0.569   6.938
 5222SOL     OW32807   2.851   3.367   0.705
 5222SOL    HW132808   2.883   3.377   0.795
 5222SOL    HW232809   2.773   3.312   0.713
 5223SOL     OW32810   2.108   3.986   6.823
 5223SOL    HW132811   2.053   3.924   6.871
 5223SOL    HW232812   2.106   3.955   6.732
 5224SOL     OW32813   6.084   4.057   6.937
 5224SOL    HW132814   6.062   4.127   6.876
 5224SOL    HW232815   6.000   4.023   6.967
 5225SOL     OW32816   6.346   5.162   5.967
 5225SOL    HW132817   6.415   5.124   5.912
 5225SOL    HW232818   6.286   5.204   5.905
 5226SOL     OW32819   3.673   4.067   6.960
 5226SOL    HW132820   3.583   4.090   6.938
 5226SOL    HW232821   3.722   4.149   6.951
 5227SOL     OW32822   0.837   5.353   7.207
 5227SOL    HW132823   0.824   5.271   7.255
 5227SOL    HW232824   0.931   5.370   7.214
 5228SOL     OW32825   1.635   3.898   6.073
 5228SOL    HW132826   1.620   3.971   6.133
 5228SOL    HW232827   1.631   3.820   6.129
 5229SOL     OW32828   5.449   4.976   1.139
 5229SOL    HW132829   5.500   4.970   1.058
 5229SOL    HW232830   5.372   4.921   1.122
 5230SOL     OW32831   0.993   5.031   7.627
 5230SOL    HW132832   0.931   5.044   7.555
 5230SOL    HW232833   1.056   4.967   7.593
 5231SOL     OW32834   5.075   3.601   5.728
 5231SOL    HW132835   5.071   3.507   5.743
 5231SOL    HW232836   4.983   3.629   5.727
 5232SOL     OW32837   0.316   6.396   0.605
 5232SOL    HW132838   0.338   6.307   0.633
 5232SOL    HW232839   0.358   6.453   0.669
 5233SOL     OW32840   1.345   2.603   1.850
 5233SOL    HW132841   1.318   2.543   1.780
 5233SOL    HW232842   1.395   2.547   1.910
 5234SOL     OW32843   5.576   5.122   7.205
 5234SOL    HW132844   5.538   5.143   7.291
 5234SOL    HW232845   5.669   5.110   7.222
 5235SOL     OW32846   3.572   3.369   7.280
 5235SOL    HW132847   3.562   3.445   7.223
 5235SOL    HW232848   3.495   3.315   7.262
 5236SOL     OW32849   5.231   1.144   7.819
 5236SOL    HW132850   5.150   1.103   7.850
 5236SOL    HW232851   5.237   1.120   7.727
 5237SOL     OW32852   0.792   4.739   5.180
 5237SOL    HW132853   0.699   4.732   5.201
 5237SOL    HW232854   0.817   4.827   5.210
 5238SOL     OW32855   2.930   6.380   0.640
 5238SOL    HW132856   2.991   6.410   0.707
 5238SOL    HW232857   2.844   6.386   0.682
 5239SOL     OW32858   0.875   3.152   6.786
 5239SOL    HW132859   0.919   3.141   6.870
 5239SOL    HW232860   0.892   3.243   6.763
 5240SOL     OW32861   2.237   6.123   7.406
 5240SOL    HW132862   2.207   6.046   7.357
 5240SOL    HW232863   2.179   6.194   7.378
 5241SOL     OW32864   5.913   6.391   6.629
 5241SOL    HW132865   5.914   6.480   6.663
 5241SOL    HW232866   5.824   6.378   6.597
 5242SOL     OW32867   2.424   6.234   1.375
 5242SOL    HW132868   2.499   6.188   1.412
 5242SOL    HW232869   2.353   6.169   1.375
 5243SOL     OW32870   1.417   3.911   6.793
 5243SOL    HW132871   1.361   3.834   6.784
 5243SOL    HW232872   1.474   3.891   6.868
 5244SOL     OW32873   0.462   3.325   6.626
 5244SOL    HW132874   0.485   3.232   6.627
 5244SOL    HW232875   0.371   3.326   6.597
 5245SOL     OW32876   3.033   3.597   7.517
 5245SOL    HW132877   2.957   3.605   7.460
 5245SOL    HW232878   3.081   3.679   7.505
 5246SOL     OW32879   3.707   3.691   0.530
 5246SOL    HW132880   3.652   3.620   0.563
 5246SOL    HW232881   3.645   3.758   0.502
 5247SOL     OW32882   6.067   5.341   0.297
 5247SOL    HW132883   6.122   5.341   0.218
 5247SOL    HW232884   6.116   5.393   0.360
 5248SOL     OW32885   0.269   3.617   2.209
 5248SOL    HW132886   0.351   3.657   2.240
 5248SOL    HW232887   0.257   3.541   2.265
 5249SOL     OW32888   1.374   0.346   6.554
 5249SOL    HW132889   1.383   0.320   6.462
 5249SOL    HW232890   1.337   0.269   6.598
 5250SOL     OW32891   5.135   2.042   7.298
 5250SOL    HW132892   5.137   2.031   7.393
 5250SOL    HW232893   5.158   1.956   7.264
 5251SOL     OW32894   5.741   4.909   6.537
 5251SOL    HW132895   5.707   4.858   6.464
 5251SOL    HW232896   5.722   5.000   6.515
 5252SOL     OW32897   1.492   0.587   6.217
 5252SOL    HW132898   1.417   0.582   6.159
 5252SOL    HW232899   1.463   0.643   6.289
 5253SOL     OW32900   5.818   0.011   7.685
 5253SOL    HW132901   5.735  -0.034   7.672
 5253SOL    HW232902   5.885  -0.049   7.651
 5254SOL     OW32903   2.257   1.231   0.067
 5254SOL    HW132904   2.216   1.265  -0.012
 5254SOL    HW232905   2.219   1.144   0.079
 5255SOL     OW32906   0.743   5.447   0.770
 5255SOL    HW132907   0.672   5.383   0.782
 5255SOL    HW232908   0.699   5.526   0.740
 5256SOL     OW32909   3.653   1.077   5.674
 5256SOL    HW132910   3.742   1.101   5.647
 5256SOL    HW232911   3.661   1.056   5.767
 5257SOL     OW32912   2.402   4.154   5.965
 5257SOL    HW132913   2.473   4.218   5.969
 5257SOL    HW232914   2.328   4.202   5.928
 5258SOL     OW32915   1.553   5.277   0.896
 5258SOL    HW132916   1.465   5.313   0.905
 5258SOL    HW232917   1.609   5.339   0.943
 5259SOL     OW32918   2.945   1.535   1.196
 5259SOL    HW132919   2.902   1.591   1.131
 5259SOL    HW232920   2.944   1.588   1.276
 5260SOL     OW32921   1.352   6.025   0.125
 5260SOL    HW132922   1.373   6.117   0.111
 5260SOL    HW232923   1.311   6.022   0.212
 5261SOL     OW32924   4.069   1.899   1.633
 5261SOL    HW132925   4.054   1.889   1.539
 5261SOL    HW232926   4.141   1.839   1.652
 5262SOL     OW32927   4.352   3.981   5.695
 5262SOL    HW132928   4.272   3.935   5.669
 5262SOL    HW232929   4.358   4.055   5.635
 5263SOL     OW32930   2.113   4.884   7.834
 5263SOL    HW132931   2.142   4.878   7.925
 5263SOL    HW232932   2.118   4.977   7.813
 5264SOL     OW32933   5.105   5.009   6.067
 5264SOL    HW132934   5.163   5.036   6.138
 5264SOL    HW232935   5.139   5.054   5.990
 5265SOL     OW32936   5.364   2.602   0.770
 5265SOL    HW132937   5.372   2.512   0.802
 5265SOL    HW232938   5.429   2.608   0.700
 5266SOL     OW32939   5.437   5.538   6.465
 5266SOL    HW132940   5.527   5.516   6.491
 5266SOL    HW232941   5.429   5.632   6.482
 5267SOL     OW32942   0.759   4.600   7.776
 5267SOL    HW132943   0.755   4.694   7.760
 5267SOL    HW232944   0.704   4.562   7.707
 5268SOL     OW32945   4.422   6.277   2.042
 5268SOL    HW132946   4.423   6.190   2.001
 5268SOL    HW232947   4.358   6.268   2.114
 5269SOL     OW32948   3.857   5.041   1.508
 5269SOL    HW132949   3.783   4.998   1.550
 5269SOL    HW232950   3.902   4.971   1.461
 5270SOL     OW32951   4.372   0.183   6.648
 5270SOL    HW132952   4.435   0.126   6.603
 5270SOL    HW232953   4.424   0.255   6.683
 5271SOL     OW32954   1.299   0.541   6.052
 5271SOL    HW132955   1.257   0.485   5.988
 5271SOL    HW232956   1.288   0.630   6.018
 5272SOL     OW32957   5.589   3.350   6.303
 5272SOL    HW132958   5.635   3.298   6.369
 5272SOL    HW232959   5.637   3.333   6.222
 5273SOL     OW32960   5.358   5.200   0.722
 5273SOL    HW132961   5.303   5.274   0.747
 5273SOL    HW232962   5.425   5.239   0.665
 5274SOL     OW32963   3.151   1.743   1.861
 5274SOL    HW132964   3.189   1.826   1.888
 5274SOL    HW232965   3.137   1.695   1.943
 5275SOL     OW32966   5.515   3.376   5.449
 5275SOL    HW132967   5.522   3.308   5.381
 5275SOL    HW232968   5.559   3.452   5.411
 5276SOL     OW32969   0.301   4.975   6.661
 5276SOL    HW132970   0.208   4.962   6.641
 5276SOL    HW232971   0.328   5.047   6.605
 5277SOL     OW32972   0.181   3.759   6.771
 5277SOL    HW132973   0.101   3.806   6.750
 5277SOL    HW232974   0.203   3.712   6.691
 5278SOL     OW32975   3.802   1.069   7.722
 5278SOL    HW132976   3.782   0.978   7.700
 5278SOL    HW232977   3.718   1.114   7.714
 5279SOL     OW32978   1.609   5.185   0.177
 5279SOL    HW132979   1.531   5.157   0.128
 5279SOL    HW232980   1.682   5.167   0.117
 5280SOL     OW32981   2.440   6.329   7.558
 5280SOL    HW132982   2.475   6.276   7.487
 5280SOL    HW232983   2.487   6.300   7.636
 5281SOL     OW32984   2.575   4.976   0.969
 5281SOL    HW132985   2.543   4.907   1.028
 5281SOL    HW232986   2.658   5.004   1.007
 5282SOL     OW32987   1.407   4.393   0.470
 5282SOL    HW132988   1.494   4.353   0.464
 5282SOL    HW232989   1.369   4.380   0.383
 5283SOL     OW32990   2.356   3.297   6.200
 5283SOL    HW132991   2.372   3.305   6.106
 5283SOL    HW232992   2.383   3.207   6.221
 5284SOL     OW32993   6.254   0.553   5.515
 5284SOL    HW132994   6.184   0.521   5.458
 5284SOL    HW232995   6.248   0.648   5.509
 5285SOL     OW32996   5.812   4.912   5.873
 5285SOL    HW132997   5.812   4.837   5.814
 5285SOL    HW232998   5.862   4.979   5.826
 5286SOL     OW32999   6.105   0.493   1.187
 5286SOL    HW133000   6.087   0.412   1.236
 5286SOL    HW233001   6.174   0.469   1.126
 5287SOL     OW33002   5.162   5.186   2.413
 5287SOL    HW133003   5.199   5.103   2.443
 5287SOL    HW233004   5.083   5.161   2.366
 5288SOL     OW33005   1.766   0.766   5.292
 5288SOL    HW133006   1.721   0.706   5.352
 5288SOL    HW233007   1.856   0.734   5.289
 5289SOL     OW33008   3.486   3.229   7.802
 5289SOL    HW133009   3.417   3.269   7.748
 5289SOL    HW233010   3.467   3.259   7.891
 5290SOL     OW33011   0.918   2.128   6.781
 5290SOL    HW133012   0.935   2.050   6.834
 5290SOL    HW233013   0.823   2.136   6.780
 5291SOL     OW33014   3.452   5.370   0.835
 5291SOL    HW133015   3.458   5.465   0.850
 5291SOL    HW233016   3.372   5.344   0.880
 5292SOL     OW33017   4.716   0.283   6.571
 5292SOL    HW133018   4.761   0.235   6.640
 5292SOL    HW233019   4.665   0.216   6.524
 5293SOL     OW33020   0.054   0.436   2.251
 5293SOL    HW133021   0.001   0.504   2.292
 5293SOL    HW233022   0.102   0.397   2.324
 5294SOL     OW33023   6.027   3.689   7.349
 5294SOL    HW133024   6.061   3.636   7.277
 5294SOL    HW233025   5.934   3.667   7.352
 5295SOL     OW33026   0.040   0.977   7.375
 5295SOL    HW133027   0.120   0.983   7.323
 5295SOL    HW233028  -0.026   1.022   7.322
 5296SOL     OW33029   2.299   3.973   7.005
 5296SOL    HW133030   2.232   3.975   6.937
 5296SOL    HW233031   2.266   4.033   7.073
 5297SOL     OW33032   4.243   3.296   0.676
 5297SOL    HW133033   4.328   3.286   0.632
 5297SOL    HW233034   4.254   3.374   0.731
 5298SOL     OW33035   2.023   1.345   1.132
 5298SOL    HW133036   1.965   1.418   1.156
 5298SOL    HW233037   2.108   1.369   1.169
 5299SOL     OW33038   1.931   0.274   7.666
 5299SOL    HW133039   1.949   0.201   7.725
 5299SOL    HW233040   1.864   0.324   7.711
 5300SOL     OW33041   3.732   0.309   0.112
 5300SOL    HW133042   3.790   0.384   0.127
 5300SOL    HW233043   3.784   0.248   0.061
 5301SOL     OW33044   4.210   5.690   7.585
 5301SOL    HW133045   4.292   5.658   7.549
 5301SOL    HW233046   4.212   5.665   7.677
 5302SOL     OW33047   4.997   5.436   6.686
 5302SOL    HW133048   5.007   5.354   6.735
 5302SOL    HW233049   4.937   5.414   6.615
 5303SOL     OW33050   0.809   1.388   6.608
 5303SOL    HW133051   0.850   1.330   6.672
 5303SOL    HW233052   0.722   1.405   6.643
 5304SOL     OW33053   2.971   1.851   6.305
 5304SOL    HW133054   2.922   1.770   6.317
 5304SOL    HW233055   3.058   1.822   6.278
 5305SOL     OW33056   1.783   3.816   2.088
 5305SOL    HW133057   1.702   3.819   2.038
 5305SOL    HW233058   1.847   3.778   2.028
 5306SOL     OW33059   4.801   0.190   1.439
 5306SOL    HW133060   4.825   0.097   1.439
 5306SOL    HW233061   4.872   0.233   1.486
 5307SOL     OW33062   4.599   5.573   7.781
 5307SOL    HW133063   4.536   5.564   7.853
 5307SOL    HW233064   4.683   5.550   7.821
 5308SOL     OW33065   0.652   0.607   0.488
 5308SOL    HW133066   0.573   0.615   0.542
 5308SOL    HW233067   0.625   0.551   0.415
 5309SOL     OW33068   1.671   2.104   6.433
 5309SOL    HW133069   1.709   2.095   6.346
 5309SOL    HW233070   1.711   2.183   6.469
 5310SOL     OW33071   1.835   6.003   7.655
 5310SOL    HW133072   1.815   6.046   7.571
 5310SOL    HW233073   1.752   5.964   7.683
 5311SOL     OW33074   4.992   3.056   0.457
 5311SOL    HW133075   4.960   3.113   0.387
 5311SOL    HW233076   5.051   2.994   0.413
 5312SOL     OW33077   3.963   5.579   7.707
 5312SOL    HW133078   3.951   5.500   7.654
 5312SOL    HW233079   3.965   5.650   7.643
 5313SOL     OW33080   2.229   5.903   1.740
 5313SOL    HW133081   2.301   5.846   1.767
 5313SOL    HW233082   2.221   5.967   1.811
 5314SOL     OW33083   2.375   3.186   7.664
 5314SOL    HW133084   2.324   3.108   7.685
 5314SOL    HW233085   2.443   3.189   7.731
 5315SOL     OW33086   5.968   6.147   7.728
 5315SOL    HW133087   6.049   6.162   7.779
 5315SOL    HW233088   5.902   6.128   7.795
 5316SOL     OW33089   6.071   4.116   1.576
 5316SOL    HW133090   6.000   4.054   1.563
 5316SOL    HW233091   6.119   4.081   1.652
 5317SOL     OW33092   0.968   3.022   7.417
 5317SOL    HW133093   0.970   2.940   7.367
 5317SOL    HW233094   1.040   3.074   7.380
 5318SOL     OW33095   0.728   0.214   7.602
 5318SOL    HW133096   0.637   0.184   7.598
 5318SOL    HW233097   0.732   0.285   7.538
 5319SOL     OW33098   6.078   1.072   6.244
 5319SOL    HW133099   5.995   1.031   6.266
 5319SOL    HW233100   6.055   1.143   6.184
 5320SOL     OW33101   6.123   1.403   7.785
 5320SOL    HW133102   6.036   1.379   7.817
 5320SOL    HW233103   6.177   1.326   7.802
 5321SOL     OW33104   2.648   4.157   2.002
 5321SOL    HW133105   2.680   4.128   2.087
 5321SOL    HW233106   2.559   4.188   2.019
 5322SOL     OW33107   2.314   0.841   0.769
 5322SOL    HW133108   2.351   0.793   0.695
 5322SOL    HW233109   2.219   0.829   0.760
 5323SOL     OW33110   1.596   6.272   6.459
 5323SOL    HW133111   1.641   6.283   6.375
 5323SOL    HW233112   1.656   6.311   6.523
 5324SOL     OW33113   5.054   0.253   1.521
 5324SOL    HW133114   5.137   0.301   1.524
 5324SOL    HW233115   5.078   0.162   1.537
 5325SOL     OW33116   0.281   2.918   0.034
 5325SOL    HW133117   0.327   2.892  -0.046
 5325SOL    HW233118   0.350   2.921   0.100
 5326SOL     OW33119   5.093   2.996   0.941
 5326SOL    HW133120   5.052   2.988   0.855
 5326SOL    HW233121   5.187   2.993   0.922
 5327SOL     OW33122   6.153   3.823   0.092
 5327SOL    HW133123   6.096   3.820   0.015
 5327SOL    HW233124   6.092   3.832   0.166
 5328SOL     OW33125   6.369   2.753   0.598
 5328SOL    HW133126   6.376   2.658   0.605
 5328SOL    HW233127   6.392   2.786   0.685
 5329SOL     OW33128   5.308   1.786   7.784
 5329SOL    HW133129   5.231   1.757   7.833
 5329SOL    HW233130   5.379   1.730   7.817
 5330SOL     OW33131   4.528   2.280   6.997
 5330SOL    HW133132   4.590   2.338   7.041
 5330SOL    HW233133   4.579   2.200   6.979
 5331SOL     OW33134   4.842   3.474   1.343
 5331SOL    HW133135   4.771   3.437   1.396
 5331SOL    HW233136   4.921   3.457   1.394
 5332SOL     OW33137   0.656   5.931   0.436
 5332SOL    HW133138   0.655   6.026   0.448
 5332SOL    HW233139   0.736   5.914   0.387
 5333SOL     OW33140   4.257   1.263   6.047
 5333SOL    HW133141   4.258   1.188   5.987
 5333SOL    HW233142   4.182   1.316   6.018
 5334SOL     OW33143   0.523   1.185   6.512
 5334SOL    HW133144   0.539   1.091   6.507
 5334SOL    HW233145   0.496   1.209   6.423
 5335SOL     OW33146   2.000   2.275   6.211
 5335SOL    HW133147   1.935   2.208   6.190
 5335SOL    HW233148   1.952   2.358   6.202
 5336SOL     OW33149   1.763   0.035   0.812
 5336SOL    HW133150   1.783  -0.033   0.748
 5336SOL    HW233151   1.697   0.089   0.769
 5337SOL     OW33152   5.107   6.054   7.479
 5337SOL    HW133153   5.181   6.082   7.425
 5337SOL    HW233154   5.146   6.004   7.550
 5338SOL     OW33155   6.117   4.354   0.488
 5338SOL    HW133156   6.213   4.357   0.480
 5338SOL    HW233157   6.102   4.349   0.582
 5339SOL     OW33158   0.383   5.132   7.741
 5339SOL    HW133159   0.404   5.138   7.835
 5339SOL    HW233160   0.290   5.156   7.736
 5340SOL     OW33161   0.028   5.096   7.118
 5340SOL    HW133162   0.095   5.028   7.106
 5340SOL    HW233163   0.051   5.138   7.201
 5341SOL     OW33164   1.489   0.894   0.589
 5341SOL    HW133165   1.396   0.894   0.567
 5341SOL    HW233166   1.501   0.973   0.643
 5342SOL     OW33167   2.630   2.090   7.548
 5342SOL    HW133168   2.578   2.026   7.596
 5342SOL    HW233169   2.603   2.175   7.583
 5343SOL     OW33170   6.061   6.361   0.271
 5343SOL    HW133171   6.089   6.270   0.261
 5343SOL    HW233172   5.985   6.370   0.214
 5344SOL     OW33173   0.170   5.682   7.123
 5344SOL    HW133174   0.265   5.694   7.118
 5344SOL    HW233175   0.158   5.587   7.125
 5345SOL     OW33176   3.610   4.772   1.251
 5345SOL    HW133177   3.635   4.782   1.343
 5345SOL    HW233178   3.618   4.860   1.214
 5346SOL     OW33179   1.527   6.104   5.409
 5346SOL    HW133180   1.522   6.167   5.337
 5346SOL    HW233181   1.537   6.019   5.366
 5347SOL     OW33182   2.581   5.177   0.634
 5347SOL    HW133183   2.665   5.210   0.667
 5347SOL    HW233184   2.578   5.207   0.543
 5348SOL     OW33185   4.037   1.853   7.534
 5348SOL    HW133186   4.118   1.804   7.550
 5348SOL    HW233187   4.061   1.920   7.471
 5349SOL     OW33188   4.002   3.425   6.663
 5349SOL    HW133189   4.048   3.507   6.681
 5349SOL    HW233190   4.048   3.388   6.587
 5350SOL     OW33191   4.945   3.748   7.307
 5350SOL    HW133192   4.907   3.756   7.219
 5350SOL    HW233193   4.974   3.837   7.328
 5351SOL     OW33194   5.885   4.627   7.767
 5351SOL    HW133195   5.970   4.645   7.806
 5351SOL    HW233196   5.830   4.701   7.793
 5352SOL     OW33197   4.692   5.830   1.106
 5352SOL    HW133198   4.761   5.880   1.063
 5352SOL    HW233199   4.646   5.894   1.160
 5353SOL     OW33200   4.366   4.624   7.002
 5353SOL    HW133201   4.318   4.566   6.943
 5353SOL    HW233202   4.439   4.656   6.950
 5354SOL     OW33203   1.569   5.802   6.646
 5354SOL    HW133204   1.527   5.751   6.576
 5354SOL    HW233205   1.561   5.893   6.618
 5355SOL     OW33206   3.817   2.726   0.404
 5355SOL    HW133207   3.829   2.648   0.350
 5355SOL    HW233208   3.730   2.716   0.442
 5356SOL     OW33209   4.258   4.221   1.510
 5356SOL    HW133210   4.278   4.165   1.435
 5356SOL    HW233211   4.339   4.222   1.562
 5357SOL     OW33212   1.093   6.113   7.522
 5357SOL    HW133213   1.094   6.093   7.429
 5357SOL    HW233214   1.081   6.028   7.565
 5358SOL     OW33215   0.442   3.979   0.486
 5358SOL    HW133216   0.349   3.999   0.502
 5358SOL    HW233217   0.476   4.058   0.445
 5359SOL     OW33218   0.951   5.725   0.829
 5359SOL    HW133219   0.936   5.708   0.922
 5359SOL    HW233220   0.863   5.741   0.793
 5360SOL     OW33221   0.886   1.519   1.447
 5360SOL    HW133222   0.962   1.470   1.477
 5360SOL    HW233223   0.853   1.563   1.526
 5361SOL     OW33224   1.995   4.182   0.853
 5361SOL    HW133225   1.977   4.269   0.816
 5361SOL    HW233226   1.986   4.122   0.778
 5362SOL     OW33227   1.508   1.017   4.766
 5362SOL    HW133228   1.485   1.109   4.761
 5362SOL    HW233229   1.467   0.986   4.847
 5363SOL     OW33230   0.937   2.619   6.195
 5363SOL    HW133231   0.939   2.636   6.101
 5363SOL    HW233232   1.029   2.623   6.222
 5364SOL     OW33233   0.659   6.121   7.534
 5364SOL    HW133234   0.671   6.203   7.582
 5364SOL    HW233235   0.620   6.062   7.599
 5365SOL     OW33236   0.042   0.244   6.898
 5365SOL    HW133237   0.136   0.260   6.887
 5365SOL    HW233238   0.032   0.225   6.991
 5366SOL     OW33239   5.113   3.095   7.271
 5366SOL    HW133240   5.056   3.018   7.277
 5366SOL    HW233241   5.092   3.132   7.185
 5367SOL     OW33242   1.851   1.647   7.530
 5367SOL    HW133243   1.883   1.559   7.515
 5367SOL    HW233244   1.767   1.651   7.483
 5368SOL     OW33245   5.077   5.696   1.425
 5368SOL    HW133246   4.998   5.736   1.389
 5368SOL    HW233247   5.149   5.752   1.395
 5369SOL     OW33248   6.339   1.411   6.925
 5369SOL    HW133249   6.369   1.367   7.005
 5369SOL    HW233250   6.398   1.485   6.915
 5370SOL     OW33251   0.983   3.608   7.045
 5370SOL    HW133252   0.920   3.661   7.093
 5370SOL    HW233253   1.005   3.661   6.968
 5371SOL     OW33254   4.715   0.463   0.286
 5371SOL    HW133255   4.703   0.544   0.237
 5371SOL    HW233256   4.715   0.490   0.378
 5372SOL     OW33257   2.038   6.228   0.380
 5372SOL    HW133258   1.988   6.308   0.396
 5372SOL    HW233259   1.973   6.164   0.352
 5373SOL     OW33260   3.666   0.742   7.339
 5373SOL    HW133261   3.581   0.768   7.305
 5373SOL    HW233262   3.729   0.784   7.281
 5374SOL     OW33263   5.158   1.313   6.942
 5374SOL    HW133264   5.162   1.306   7.037
 5374SOL    HW233265   5.246   1.288   6.912
 5375SOL     OW33266   3.540   4.670   7.450
 5375SOL    HW133267   3.605   4.615   7.494
 5375SOL    HW233268   3.468   4.677   7.513
 5376SOL     OW33269   2.999   5.851   6.997
 5376SOL    HW133270   3.030   5.842   7.087
 5376SOL    HW233271   3.069   5.900   6.953
 5377SOL     OW33272   5.692   1.954   2.611
 5377SOL    HW133273   5.699   2.010   2.688
 5377SOL    HW233274   5.782   1.943   2.581
 5378SOL     OW33275   4.635   4.976   2.516
 5378SOL    HW133276   4.582   4.899   2.496
 5378SOL    HW233277   4.712   4.941   2.560
 5379SOL     OW33278   4.519   2.288   1.854
 5379SOL    HW133279   4.507   2.197   1.826
 5379SOL    HW233280   4.497   2.340   1.777
 5380SOL     OW33281   0.507   4.074   1.133
 5380SOL    HW133282   0.506   4.074   1.229
 5380SOL    HW233283   0.547   3.990   1.110
 5381SOL     OW33284   3.082   4.535   7.042
 5381SOL    HW133285   3.147   4.577   7.099
 5381SOL    HW233286   2.998   4.574   7.068
 5382SOL     OW33287   3.868   2.692   1.709
 5382SOL    HW133288   3.909   2.762   1.760
 5382SOL    HW233289   3.779   2.686   1.743
 5383SOL     OW33290   0.415   1.051   0.121
 5383SOL    HW133291   0.437   1.021   0.033
 5383SOL    HW233292   0.320   1.060   0.121
 5384SOL     OW33293   4.713   5.961   0.020
 5384SOL    HW133294   4.793   5.993  -0.021
 5384SOL    HW233295   4.646   5.969  -0.048
 5385SOL     OW33296   3.537   1.316   7.730
 5385SOL    HW133297   3.524   1.394   7.783
 5385SOL    HW233298   3.503   1.338   7.644
 5386SOL     OW33299   5.648   1.189   6.725
 5386SOL    HW133300   5.741   1.209   6.712
 5386SOL    HW233301   5.634   1.203   6.819
 5387SOL     OW33302   4.505   5.935   7.591
 5387SOL    HW133303   4.428   5.923   7.536
 5387SOL    HW233304   4.482   5.892   7.674
 5388SOL     OW33305   4.577   5.281   5.648
 5388SOL    HW133306   4.673   5.277   5.646
 5388SOL    HW233307   4.557   5.368   5.683
 5389SOL     OW33308   2.128   3.094   6.608
 5389SOL    HW133309   2.103   3.120   6.520
 5389SOL    HW233310   2.164   3.174   6.648
 5390SOL     OW33311   5.199   3.861   1.309
 5390SOL    HW133312   5.256   3.816   1.371
 5390SOL    HW233313   5.139   3.794   1.277
 5391SOL     OW33314   1.208   0.720   1.586
 5391SOL    HW133315   1.294   0.757   1.604
 5391SOL    HW233316   1.161   0.788   1.539
 5392SOL     OW33317   1.801   1.179   1.067
 5392SOL    HW133318   1.870   1.244   1.055
 5392SOL    HW233319   1.829   1.104   1.013
 5393SOL     OW33320   5.269   1.133   6.180
 5393SOL    HW133321   5.227   1.205   6.228
 5393SOL    HW233322   5.280   1.167   6.092
 5394SOL     OW33323   5.277   4.996   0.504
 5394SOL    HW133324   5.291   5.078   0.551
 5394SOL    HW233325   5.268   5.022   0.412
 5395SOL     OW33326   5.726   0.230   6.991
 5395SOL    HW133327   5.679   0.182   6.923
 5395SOL    HW233328   5.663   0.239   7.062
 5396SOL     OW33329   0.773   2.533   0.048
 5396SOL    HW133330   0.678   2.542   0.041
 5396SOL    HW233331   0.785   2.464   0.113
 5397SOL     OW33332   5.551   4.078   1.062
 5397SOL    HW133333   5.508   4.060   1.146
 5397SOL    HW233334   5.521   4.166   1.039
 5398SOL     OW33335   6.092   2.319   5.996
 5398SOL    HW133336   6.092   2.354   5.907
 5398SOL    HW233337   6.029   2.247   5.993
 5399SOL     OW33338   1.154   1.243   7.782
 5399SOL    HW133339   1.193   1.239   7.695
 5399SOL    HW233340   1.183   1.328   7.817
 5400SOL     OW33341   5.372   5.107   6.880
 5400SOL    HW133342   5.448   5.162   6.900
 5400SOL    HW233343   5.376   5.094   6.785
 5401SOL     OW33344   5.747   4.647   1.871
 5401SOL    HW133345   5.797   4.633   1.952
 5401SOL    HW233346   5.665   4.686   1.900
 5402SOL     OW33347   3.912   0.633   6.031
 5402SOL    HW133348   3.898   0.726   6.015
 5402SOL    HW233349   3.853   0.613   6.104
 5403SOL     OW33350   4.514   2.649   5.948
 5403SOL    HW133351   4.440   2.589   5.961
 5403SOL    HW233352   4.568   2.638   6.026
 5404SOL     OW33353   0.695   3.853   7.511
 5404SOL    HW133354   0.622   3.896   7.555
 5404SOL    HW233355   0.737   3.800   7.579
 5405SOL     OW33356   2.435   0.582   5.869
 5405SOL    HW133357   2.458   0.529   5.793
 5405SOL    HW233358   2.441   0.672   5.838
 5406SOL     OW33359   5.880   0.102   5.797
 5406SOL    HW133360   5.923   0.055   5.868
 5406SOL    HW233361   5.916   0.064   5.717
 5407SOL     OW33362   4.485   3.145   2.185
 5407SOL    HW133363   4.399   3.166   2.220
 5407SOL    HW233364   4.516   3.226   2.145
 5408SOL     OW33365   1.888   4.636   1.903
 5408SOL    HW133366   1.913   4.718   1.861
 5408SOL    HW233367   1.814   4.660   1.959
 5409SOL     OW33368   2.672   4.202   6.546
 5409SOL    HW133369   2.608   4.154   6.494
 5409SOL    HW233370   2.745   4.141   6.556
 5410SOL     OW33371   0.562   1.052   1.921
 5410SOL    HW133372   0.470   1.077   1.909
 5410SOL    HW233373   0.607   1.135   1.934
 5411SOL     OW33374   1.747   2.542   1.693
 5411SOL    HW133375   1.795   2.543   1.775
 5411SOL    HW233376   1.795   2.600   1.635
 5412SOL     OW33377   1.056   2.518   1.426
 5412SOL    HW133378   1.026   2.433   1.459
 5412SOL    HW233379   1.116   2.497   1.355
 5413SOL     OW33380   2.953   3.567   6.579
 5413SOL    HW133381   2.925   3.600   6.665
 5413SOL    HW233382   2.872   3.555   6.530
 5414SOL     OW33383   6.374   2.521   6.733
 5414SOL    HW133384   6.364   2.426   6.729
 5414SOL    HW233385   6.305   2.555   6.676
 5415SOL     OW33386   3.295   5.003   6.746
 5415SOL    HW133387   3.222   5.008   6.808
 5415SOL    HW233388   3.256   5.025   6.661
 5416SOL     OW33389   0.221   1.529   0.019
 5416SOL    HW133390   0.219   1.444  -0.026
 5416SOL    HW233391   0.136   1.535   0.063
 5417SOL     OW33392   0.437   2.449   5.583
 5417SOL    HW133393   0.522   2.427   5.621
 5417SOL    HW233394   0.375   2.395   5.633
 5418SOL     OW33395   2.246   3.742   0.640
 5418SOL    HW133396   2.185   3.679   0.678
 5418SOL    HW233397   2.298   3.773   0.714
 5419SOL     OW33398   2.416   3.213   2.086
 5419SOL    HW133399   2.367   3.192   2.165
 5419SOL    HW233400   2.414   3.308   2.081
 5420SOL     OW33401   4.361   3.355   1.937
 5420SOL    HW133402   4.282   3.326   1.982
 5420SOL    HW233403   4.379   3.441   1.975
 5421SOL     OW33404   3.638   2.497   1.342
 5421SOL    HW133405   3.627   2.540   1.426
 5421SOL    HW233406   3.719   2.534   1.306
 5422SOL     OW33407   0.089   4.102   1.086
 5422SOL    HW133408   0.143   4.166   1.133
 5422SOL    HW233409   0.128   4.017   1.107
 5423SOL     OW33410   0.022   5.749   1.137
 5423SOL    HW133411  -0.029   5.822   1.101
 5423SOL    HW233412   0.096   5.790   1.181
 5424SOL     OW33413   1.277   2.916   7.180
 5424SOL    HW133414   1.185   2.894   7.168
 5424SOL    HW233415   1.322   2.832   7.175
 5425SOL     OW33416   3.163   2.926   6.321
 5425SOL    HW133417   3.144   3.020   6.320
 5425SOL    HW233418   3.078   2.884   6.333
 5426SOL     OW33419   0.421   5.673   5.913
 5426SOL    HW133420   0.392   5.582   5.909
 5426SOL    HW233421   0.347   5.724   5.879
 5427SOL     OW33422   6.014   3.066   2.303
 5427SOL    HW133423   6.049   2.987   2.263
 5427SOL    HW233424   5.959   3.035   2.375
 5428SOL     OW33425   2.849   0.864   1.462
 5428SOL    HW133426   2.937   0.845   1.428
 5428SOL    HW233427   2.796   0.791   1.432
 5429SOL     OW33428   5.164   1.436   6.382
 5429SOL    HW133429   5.176   1.491   6.305
 5429SOL    HW233430   5.223   1.473   6.448
 5430SOL     OW33431   2.469   4.067   0.120
 5430SOL    HW133432   2.447   4.075   0.213
 5430SOL    HW233433   2.469   3.973   0.103
 5431SOL     OW33434   4.057   3.273   1.843
 5431SOL    HW133435   4.008   3.296   1.922
 5431SOL    HW233436   4.090   3.356   1.809
 5432SOL     OW33437   3.711   5.872   7.602
 5432SOL    HW133438   3.804   5.859   7.583
 5432SOL    HW233439   3.669   5.877   7.516
 5433SOL     OW33440   2.094   0.132   7.424
 5433SOL    HW133441   1.998   0.130   7.425
 5433SOL    HW233442   2.120   0.074   7.495
 5434SOL     OW33443   2.341   5.026   7.466
 5434SOL    HW133444   2.414   5.088   7.471
 5434SOL    HW233445   2.292   5.040   7.547
 5435SOL     OW33446   1.569   0.730   0.384
 5435SOL    HW133447   1.519   0.759   0.460
 5435SOL    HW233448   1.575   0.808   0.328
 5436SOL     OW33449   2.917   2.560   6.829
 5436SOL    HW133450   2.933   2.488   6.891
 5436SOL    HW233451   2.912   2.518   6.744
 5437SOL     OW33452   5.690   2.744   1.356
 5437SOL    HW133453   5.746   2.695   1.295
 5437SOL    HW233454   5.635   2.798   1.300
 5438SOL     OW33455   0.639   5.896   7.271
 5438SOL    HW133456   0.593   5.843   7.336
 5438SOL    HW233457   0.731   5.894   7.300
 5439SOL     OW33458   2.007   4.475   7.237
 5439SOL    HW133459   1.937   4.502   7.178
 5439SOL    HW233460   1.976   4.499   7.325
 5440SOL     OW33461   3.913   4.542   1.032
 5440SOL    HW133462   3.859   4.464   1.021
 5440SOL    HW233463   3.931   4.571   0.942
 5441SOL     OW33464   5.631   5.105   5.950
 5441SOL    HW133465   5.662   5.184   5.906
 5441SOL    HW233466   5.696   5.039   5.929
 5442SOL     OW33467   5.429   4.827   0.694
 5442SOL    HW133468   5.355   4.848   0.636
 5442SOL    HW233469   5.425   4.732   0.704
 5443SOL     OW33470   4.423   2.119   0.440
 5443SOL    HW133471   4.342   2.166   0.463
 5443SOL    HW233472   4.478   2.185   0.397
 5444SOL     OW33473   4.764   1.844   5.721
 5444SOL    HW133474   4.765   1.905   5.647
 5444SOL    HW233475   4.856   1.823   5.736
 5445SOL     OW33476   1.176   6.145   0.822
 5445SOL    HW133477   1.270   6.139   0.806
 5445SOL    HW233478   1.167   6.220   0.881
 5446SOL     OW33479   5.716   3.647   0.570
 5446SOL    HW133480   5.796   3.595   0.584
 5446SOL    HW233481   5.663   3.594   0.511
 5447SOL     OW33482   2.019   1.442   7.445
 5447SOL    HW133483   1.992   1.353   7.425
 5447SOL    HW233484   2.113   1.444   7.426
 5448SOL     OW33485   1.883   4.170   6.848
 5448SOL    HW133486   1.972   4.135   6.845
 5448SOL    HW233487   1.883   4.229   6.923
 5449SOL     OW33488   2.816   1.469   7.770
 5449SOL    HW133489   2.895   1.440   7.815
 5449SOL    HW233490   2.754   1.486   7.841
 5450SOL     OW33491   4.938   5.354   0.017
 5450SOL    HW133492   4.929   5.373   0.110
 5450SOL    HW233493   5.006   5.414  -0.013
 5451SOL     OW33494   6.035   3.469   1.365
 5451SOL    HW133495   5.996   3.486   1.279
 5451SOL    HW233496   6.021   3.375   1.379
 5452SOL     OW33497   6.222   5.406   0.572
 5452SOL    HW133498   6.174   5.484   0.596
 5452SOL    HW233499   6.174   5.334   0.614
 5453SOL     OW33500   6.023   3.820   1.386
 5453SOL    HW133501   6.045   3.821   1.293
 5453SOL    HW233502   6.036   3.728   1.412
 5454SOL     OW33503   1.147   5.795   0.335
 5454SOL    HW133504   1.197   5.876   0.328
 5454SOL    HW233505   1.213   5.726   0.332
 5455SOL     OW33506   2.536   2.214   7.219
 5455SOL    HW133507   2.592   2.255   7.286
 5455SOL    HW233508   2.581   2.232   7.137
 5456SOL     OW33509   4.299   0.720   0.623
 5456SOL    HW133510   4.236   0.657   0.587
 5456SOL    HW233511   4.272   0.804   0.587
 5457SOL     OW33512   4.189   4.781   0.594
 5457SOL    HW133513   4.100   4.790   0.559
 5457SOL    HW233514   4.198   4.854   0.655
 5458SOL     OW33515   3.341   2.007   6.047
 5458SOL    HW133516   3.316   1.973   5.961
 5458SOL    HW233517   3.349   1.929   6.102
 5459SOL     OW33518   0.843   5.774  -0.006
 5459SOL    HW133519   0.871   5.719   0.067
 5459SOL    HW233520   0.819   5.857   0.035
 5460SOL     OW33521   2.726   4.632   0.463
 5460SOL    HW133522   2.697   4.710   0.511
 5460SOL    HW233523   2.804   4.661   0.415
 5461SOL     OW33524   1.439   3.495   0.331
 5461SOL    HW133525   1.499   3.543   0.273
 5461SOL    HW233526   1.494   3.465   0.403
 5462SOL     OW33527   5.249   2.600   1.032
 5462SOL    HW133528   5.292   2.593   0.946
 5462SOL    HW233529   5.169   2.650   1.015
 5463SOL     OW33530   4.083   3.941   0.709
 5463SOL    HW133531   4.057   3.850   0.696
 5463SOL    HW233532   4.005   3.992   0.689
 5464SOL     OW33533   4.593   4.155   1.834
 5464SOL    HW133534   4.581   4.160   1.739
 5464SOL    HW233535   4.687   4.137   1.845
 5465SOL     OW33536   5.941   2.044   6.244
 5465SOL    HW133537   5.966   2.135   6.262
 5465SOL    HW233538   6.024   1.996   6.244
 5466SOL     OW33539   1.402   6.071   5.663
 5466SOL    HW133540   1.437   6.102   5.580
 5466SOL    HW233541   1.439   5.983   5.674
 5467SOL     OW33542   1.563   6.405   1.150
 5467SOL    HW133543   1.535   6.469   1.086
 5467SOL    HW233544   1.506   6.419   1.225
 5468SOL     OW33545   0.441   3.542   5.790
 5468SOL    HW133546   0.428   3.622   5.842
 5468SOL    HW233547   0.436   3.471   5.855
 5469SOL     OW33548   0.225   3.468   6.940
 5469SOL    HW133549   0.289   3.525   6.898
 5469SOL    HW233550   0.151   3.466   6.878
 5470SOL     OW33551   1.320   2.436   7.073
 5470SOL    HW133552   1.332   2.342   7.086
 5470SOL    HW233553   1.241   2.443   7.020
 5471SOL     OW33554   2.404   6.382   6.373
 5471SOL    HW133555   2.444   6.434   6.303
 5471SOL    HW233556   2.311   6.402   6.367
 5472SOL     OW33557   5.987   2.274   6.505
 5472SOL    HW133558   6.006   2.313   6.419
 5472SOL    HW233559   5.897   2.300   6.523
 5473SOL     OW33560   4.567   3.635   5.833
 5473SOL    HW133561   4.523   3.586   5.903
 5473SOL    HW233562   4.499   3.692   5.797
 5474SOL     OW33563   4.389   6.229   7.274
 5474SOL    HW133564   4.294   6.230   7.281
 5474SOL    HW233565   4.420   6.211   7.363
 5475SOL     OW33566   6.077   3.200   6.959
 5475SOL    HW133567   5.988   3.205   6.992
 5475SOL    HW233568   6.128   3.162   7.031
 5476SOL     OW33569   0.130   3.097   0.540
 5476SOL    HW133570   0.102   3.007   0.519
 5476SOL    HW233571   0.183   3.124   0.466
 5477SOL     OW33572   4.551   3.793   0.419
 5477SOL    HW133573   4.560   3.887   0.406
 5477SOL    HW233574   4.594   3.754   0.342
 5478SOL     OW33575   0.854   0.004   0.339
 5478SOL    HW133576   0.918   0.014   0.410
 5478SOL    HW233577   0.881  -0.076   0.294
 5479SOL     OW33578   6.096   4.515   0.221
 5479SOL    HW133579   6.001   4.514   0.205
 5479SOL    HW233580   6.111   4.441   0.279
 5480SOL     OW33581   3.653   0.323   7.329
 5480SOL    HW133582   3.579   0.272   7.294
 5480SOL    HW233583   3.677   0.276   7.410
 5481SOL     OW33584   4.715   0.620   7.359
 5481SOL    HW133585   4.697   0.564   7.283
 5481SOL    HW233586   4.800   0.659   7.340
 5482SOL     OW33587   1.386   3.979   0.376
 5482SOL    HW133588   1.292   3.997   0.385
 5482SOL    HW233589   1.398   3.895   0.420
 5483SOL     OW33590   4.523   2.353   1.044
 5483SOL    HW133591   4.535   2.439   1.084
 5483SOL    HW233592   4.439   2.322   1.077
 5484SOL     OW33593   4.233   4.215   6.476
 5484SOL    HW133594   4.327   4.226   6.492
 5484SOL    HW233595   4.197   4.303   6.487
 5485SOL     OW33596   1.606   5.501   1.408
 5485SOL    HW133597   1.591   5.590   1.374
 5485SOL    HW233598   1.544   5.447   1.360
 5486SOL     OW33599   4.227   2.555   7.419
 5486SOL    HW133600   4.319   2.541   7.443
 5486SOL    HW233601   4.189   2.467   7.421
 5487SOL     OW33602   5.057   3.707   6.017
 5487SOL    HW133603   5.112   3.678   5.944
 5487SOL    HW233604   5.105   3.681   6.095
 5488SOL     OW33605   0.466   3.704   6.363
 5488SOL    HW133606   0.520   3.706   6.284
 5488SOL    HW233607   0.396   3.768   6.346
 5489SOL     OW33608   0.358   0.734   6.017
 5489SOL    HW133609   0.289   0.706   6.077
 5489SOL    HW233610   0.358   0.669   5.947
 5490SOL     OW33611   2.444   1.348   0.819
 5490SOL    HW133612   2.370   1.397   0.785
 5490SOL    HW233613   2.408   1.261   0.837
 5491SOL     OW33614   1.311   2.034   7.316
 5491SOL    HW133615   1.395   2.049   7.359
 5491SOL    HW233616   1.253   2.006   7.386
 5492SOL     OW33617   1.726   1.280   6.625
 5492SOL    HW133618   1.712   1.204   6.681
 5492SOL    HW233619   1.689   1.354   6.674
 5493SOL     OW33620   0.066   4.782   6.296
 5493SOL    HW133621   0.067   4.804   6.389
 5493SOL    HW233622   0.061   4.867   6.252
 5494SOL     OW33623   1.148   0.655   7.487
 5494SOL    HW133624   1.178   0.610   7.566
 5494SOL    HW233625   1.072   0.706   7.515
 5495SOL     OW33626   4.088   1.791   7.254
 5495SOL    HW133627   4.056   1.719   7.309
 5495SOL    HW233628   4.136   1.747   7.183
 5496SOL     OW33629   0.644   3.969   1.854
 5496SOL    HW133630   0.564   3.966   1.905
 5496SOL    HW233631   0.713   3.943   1.915
 5497SOL     OW33632   2.081   4.885   1.075
 5497SOL    HW133633   2.052   4.795   1.062
 5497SOL    HW233634   2.010   4.939   1.041
 5498SOL     OW33635   5.511   3.160   1.822
 5498SOL    HW133636   5.526   3.177   1.915
 5498SOL    HW233637   5.443   3.223   1.797
 5499SOL     OW33638   2.606   0.621   7.666
 5499SOL    HW133639   2.576   0.696   7.615
 5499SOL    HW233640   2.549   0.620   7.743
 5500SOL     OW33641   3.879   0.221   0.712
 5500SOL    HW133642   3.947   0.195   0.775
 5500SOL    HW233643   3.831   0.140   0.694
 5501SOL     OW33644   1.931   1.411   6.241
 5501SOL    HW133645   1.931   1.411   6.145
 5501SOL    HW233646   1.928   1.504   6.265
 5502SOL     OW33647   2.826   0.448   1.641
 5502SOL    HW133648   2.885   0.483   1.573
 5502SOL    HW233649   2.869   0.472   1.723
 5503SOL     OW33650   3.448   2.671   6.811
 5503SOL    HW133651   3.381   2.606   6.834
 5503SOL    HW233652   3.484   2.700   6.895
 5504SOL     OW33653   3.127   2.913   7.389
 5504SOL    HW133654   3.165   2.977   7.328
 5504SOL    HW233655   3.061   2.963   7.436
 5505SOL     OW33656   3.050   4.774   6.703
 5505SOL    HW133657   2.963   4.757   6.740
 5505SOL    HW233658   3.044   4.862   6.666
 5506SOL     OW33659   1.403   4.191   0.228
 5506SOL    HW133660   1.357   4.169   0.147
 5506SOL    HW233661   1.398   4.111   0.281
 5507SOL     OW33662   5.359   2.368   0.445
 5507SOL    HW133663   5.348   2.291   0.501
 5507SOL    HW233664   5.313   2.345   0.364
 5508SOL     OW33665   2.161   3.324   6.994
 5508SOL    HW133666   2.124   3.249   7.041
 5508SOL    HW233667   2.236   3.352   7.046
 5509SOL     OW33668   0.798   0.034   1.388
 5509SOL    HW133669   0.725   0.012   1.330
 5509SOL    HW233670   0.801   0.129   1.388
 5510SOL     OW33671   3.927   5.389   0.188
 5510SOL    HW133672   3.934   5.481   0.213
 5510SOL    HW233673   4.003   5.347   0.228
 5511SOL     OW33674   2.892   6.195   0.883
 5511SOL    HW133675   2.902   6.141   0.804
 5511SOL    HW233676   2.799   6.219   0.884
 5512SOL     OW33677   4.344   4.562   0.600
 5512SOL    HW133678   4.324   4.532   0.688
 5512SOL    HW233679   4.280   4.631   0.582
 5513SOL     OW33680   4.046   5.411   1.531
 5513SOL    HW133681   3.971   5.401   1.590
 5513SOL    HW233682   4.015   5.469   1.462
 5514SOL     OW33683   5.590   4.227   2.015
 5514SOL    HW133684   5.576   4.139   1.979
 5514SOL    HW233685   5.606   4.282   1.938
 5515SOL     OW33686   0.292   0.447   6.793
 5515SOL    HW133687   0.354   0.389   6.837
 5515SOL    HW233688   0.267   0.400   6.713
 5516SOL     OW33689   6.034   1.288   1.222
 5516SOL    HW133690   6.073   1.202   1.207
 5516SOL    HW233691   5.943   1.280   1.194
 5517SOL     OW33692   4.169   2.646   1.805
 5517SOL    HW133693   4.171   2.566   1.857
 5517SOL    HW233694   4.094   2.695   1.839
 5518SOL     OW33695   3.334   3.028   6.048
 5518SOL    HW133696   3.428   3.046   6.041
 5518SOL    HW233697   3.326   2.972   6.125
 5519SOL     OW33698   1.959   3.489   0.174
 5519SOL    HW133699   1.983   3.539   0.251
 5519SOL    HW233700   1.996   3.402   0.188
 5520SOL     OW33701   4.416   6.040   0.352
 5520SOL    HW133702   4.390   6.030   0.261
 5520SOL    HW233703   4.333   6.049   0.400
 5521SOL     OW33704   2.213   0.178   0.410
 5521SOL    HW133705   2.119   0.183   0.393
 5521SOL    HW233706   2.220   0.161   0.504
 5522SOL     OW33707   2.009   0.790   7.849
 5522SOL    HW133708   1.986   0.717   7.905
 5522SOL    HW233709   2.027   0.750   7.764
 5523SOL     OW33710   4.514   3.088   1.893
 5523SOL    HW133711   4.600   3.103   1.931
 5523SOL    HW233712   4.473   3.174   1.889
 5524SOL     OW33713   3.168   3.355   7.034
 5524SOL    HW133714   3.144   3.447   7.045
 5524SOL    HW233715   3.106   3.322   6.969
 5525SOL     OW33716   1.211   2.772   6.484
 5525SOL    HW133717   1.158   2.805   6.412
 5525SOL    HW233718   1.175   2.814   6.562
 5526SOL     OW33719   5.212   2.439   6.067
 5526SOL    HW133720   5.243   2.528   6.054
 5526SOL    HW233721   5.255   2.410   6.148
 5527SOL     OW33722   3.485   5.727   7.058
 5527SOL    HW133723   3.435   5.807   7.043
 5527SOL    HW233724   3.502   5.693   6.969
 5528SOL     OW33725   4.172   6.091   5.930
 5528SOL    HW133726   4.231   6.040   5.875
 5528SOL    HW233727   4.223   6.168   5.956
 5529SOL     OW33728   0.454   4.219   5.784
 5529SOL    HW133729   0.458   4.231   5.689
 5529SOL    HW233730   0.473   4.125   5.796
 5530SOL     OW33731   2.078   0.034   0.094
 5530SOL    HW133732   2.109  -0.056   0.085
 5530SOL    HW233733   2.010   0.043   0.026
 5531SOL     OW33734   6.304   6.027   1.662
 5531SOL    HW133735   6.388   6.021   1.618
 5531SOL    HW233736   6.297   6.119   1.688
 5532SOL     OW33737   0.096   5.163   7.392
 5532SOL    HW133738   0.152   5.085   7.403
 5532SOL    HW233739   0.040   5.164   7.469
 5533SOL     OW33740   4.988   1.662   7.550
 5533SOL    HW133741   5.052   1.618   7.495
 5533SOL    HW233742   5.000   1.624   7.637
 5534SOL     OW33743   2.250   2.231   6.691
 5534SOL    HW133744   2.167   2.233   6.644
 5534SOL    HW233745   2.297   2.308   6.660
 5535SOL     OW33746   6.262   4.197   7.419
 5535SOL    HW133747   6.207   4.224   7.345
 5535SOL    HW233748   6.260   4.101   7.416
 5536SOL     OW33749   1.751   1.448   7.203
 5536SOL    HW133750   1.716   1.507   7.270
 5536SOL    HW233751   1.736   1.360   7.238
 5537SOL     OW33752   2.931   3.922   7.523
 5537SOL    HW133753   2.844   3.915   7.484
 5537SOL    HW233754   2.924   3.997   7.583
 5538SOL     OW33755   3.592   0.219   6.549
 5538SOL    HW133756   3.570   0.147   6.490
 5538SOL    HW233757   3.603   0.178   6.634
 5539SOL     OW33758   5.684   4.245   1.419
 5539SOL    HW133759   5.658   4.171   1.474
 5539SOL    HW233760   5.619   4.246   1.348
 5540SOL     OW33761   1.781   4.646   0.559
 5540SOL    HW133762   1.837   4.600   0.496
 5540SOL    HW233763   1.755   4.726   0.513
 5541SOL     OW33764   2.368   1.392   6.399
 5541SOL    HW133765   2.334   1.329   6.336
 5541SOL    HW233766   2.310   1.384   6.475
 5542SOL     OW33767   3.585   6.097   7.752
 5542SOL    HW133768   3.623   6.023   7.705
 5542SOL    HW233769   3.611   6.084   7.843
 5543SOL     OW33770   2.075   4.815   2.280
 5543SOL    HW133771   1.988   4.854   2.280
 5543SOL    HW233772   2.063   4.731   2.236
 5544SOL     OW33773   2.148   1.876   6.146
 5544SOL    HW133774   2.082   1.890   6.213
 5544SOL    HW233775   2.099   1.845   6.070
 5545SOL     OW33776   4.318   3.278   1.360
 5545SOL    HW133777   4.261   3.213   1.318
 5545SOL    HW233778   4.301   3.268   1.453
 5546SOL     OW33779   4.932   6.163   6.319
 5546SOL    HW133780   4.992   6.222   6.273
 5546SOL    HW233781   4.914   6.207   6.402
 5547SOL     OW33782   4.841   2.280   7.607
 5547SOL    HW133783   4.833   2.232   7.525
 5547SOL    HW233784   4.935   2.289   7.620
 5548SOL     OW33785   0.983   0.716   0.934
 5548SOL    HW133786   0.935   0.673   0.862
 5548SOL    HW233787   1.074   0.717   0.904
 5549SOL     OW33788   1.255   0.905   6.703
 5549SOL    HW133789   1.243   0.948   6.787
 5549SOL    HW233790   1.166   0.885   6.674
 5550SOL     OW33791   5.606   2.082   7.744
 5550SOL    HW133792   5.700   2.076   7.757
 5550SOL    HW233793   5.584   2.007   7.688
 5551SOL     OW33794   5.637   5.737   0.085
 5551SOL    HW133795   5.659   5.705  -0.003
 5551SOL    HW233796   5.721   5.762   0.124
 5552SOL     OW33797   2.796   1.950   6.554
 5552SOL    HW133798   2.853   1.975   6.481
 5552SOL    HW233799   2.854   1.946   6.630
 5553SOL     OW33800   3.666   4.268   0.505
 5553SOL    HW133801   3.665   4.347   0.559
 5553SOL    HW233802   3.729   4.287   0.436
 5554SOL     OW33803   3.640   4.693   6.636
 5554SOL    HW133804   3.610   4.604   6.652
 5554SOL    HW233805   3.721   4.700   6.687
 5555SOL     OW33806   1.055   2.002   7.121
 5555SOL    HW133807   1.019   2.090   7.109
 5555SOL    HW233808   1.136   2.016   7.170
 5556SOL     OW33809   0.411   4.788   2.041
 5556SOL    HW133810   0.401   4.693   2.040
 5556SOL    HW233811   0.343   4.820   1.982
 5557SOL     OW33812   5.878   2.130   7.354
 5557SOL    HW133813   5.861   2.222   7.373
 5557SOL    HW233814   5.916   2.130   7.266
 5558SOL     OW33815   3.282   0.590   1.191
 5558SOL    HW133816   3.208   0.556   1.140
 5558SOL    HW233817   3.357   0.541   1.159
 5559SOL     OW33818   1.797   0.105   7.477
 5559SOL    HW133819   1.767   0.040   7.540
 5559SOL    HW233820   1.810   0.185   7.528
 5560SOL     OW33821   2.667   5.530   7.330
 5560SOL    HW133822   2.718   5.476   7.391
 5560SOL    HW233823   2.703   5.509   7.244
 5561SOL     OW33824   6.089   4.470   6.447
 5561SOL    HW133825   6.040   4.402   6.492
 5561SOL    HW233826   6.103   4.436   6.359
 5562SOL     OW33827   2.444   0.691   1.077
 5562SOL    HW133828   2.499   0.616   1.053
 5562SOL    HW233829   2.390   0.707   1.000
 5563SOL     OW33830   0.392   5.881   6.396
 5563SOL    HW133831   0.339   5.961   6.390
 5563SOL    HW233832   0.457   5.901   6.464
 5564SOL     OW33833   2.187   5.548   2.319
 5564SOL    HW133834   2.126   5.603   2.270
 5564SOL    HW233835   2.249   5.609   2.359
 5565SOL     OW33836   4.732   2.367   1.982
 5565SOL    HW133837   4.742   2.456   1.948
 5565SOL    HW233838   4.653   2.334   1.940
 5566SOL     OW33839   1.327   1.408   1.473
 5566SOL    HW133840   1.239   1.389   1.504
 5566SOL    HW233841   1.378   1.330   1.496
 5567SOL     OW33842   0.470   5.892   2.012
 5567SOL    HW133843   0.437   5.821   2.067
 5567SOL    HW233844   0.392   5.940   1.985
 5568SOL     OW33845   4.830   4.263   7.755
 5568SOL    HW133846   4.865   4.352   7.743
 5568SOL    HW233847   4.887   4.208   7.702
 5569SOL     OW33848   2.026   3.687   7.236
 5569SOL    HW133849   1.959   3.684   7.303
 5569SOL    HW233850   2.029   3.778   7.208
 5570SOL     OW33851   1.109   6.383   0.985
 5570SOL    HW133852   1.093   6.474   0.960
 5570SOL    HW233853   1.022   6.348   1.008
 5571SOL     OW33854   4.978   0.125   7.201
 5571SOL    HW133855   5.015   0.213   7.211
 5571SOL    HW233856   4.957   0.118   7.108
 5572SOL     OW33857   4.783   5.836   0.237
 5572SOL    HW133858   4.763   5.890   0.161
 5572SOL    HW233859   4.813   5.898   0.304
 5573SOL     OW33860   4.176   1.912   1.290
 5573SOL    HW133861   4.235   1.874   1.354
 5573SOL    HW233862   4.233   1.963   1.232
 5574SOL     OW33863   0.501   1.680   6.245
 5574SOL    HW133864   0.543   1.644   6.167
 5574SOL    HW233865   0.496   1.774   6.228
 5575SOL     OW33866   1.588   5.355   6.301
 5575SOL    HW133867   1.615   5.402   6.222
 5575SOL    HW233868   1.497   5.380   6.314
 5576SOL     OW33869   2.494   1.363   7.737
 5576SOL    HW133870   2.506   1.292   7.801
 5576SOL    HW233871   2.486   1.442   7.789
 5577SOL     OW33872   2.801   3.255   7.124
 5577SOL    HW133873   2.882   3.203   7.124
 5577SOL    HW233874   2.801   3.300   7.209
 5578SOL     OW33875   1.902   3.739   7.801
 5578SOL    HW133876   1.955   3.762   7.878
 5578SOL    HW233877   1.928   3.650   7.780
 5579SOL     OW33878   1.580   4.380   7.717
 5579SOL    HW133879   1.657   4.416   7.760
 5579SOL    HW233880   1.576   4.426   7.633
 5580SOL     OW33881   4.235   4.991   0.807
 5580SOL    HW133882   4.189   4.935   0.868
 5580SOL    HW233883   4.324   4.996   0.842
 5581SOL     OW33884   1.315   5.532   6.263
 5581SOL    HW133885   1.222   5.510   6.264
 5581SOL    HW233886   1.321   5.609   6.207
 5582SOL     OW33887   3.677   4.099   6.472
 5582SOL    HW133888   3.641   4.164   6.412
 5582SOL    HW233889   3.602   4.065   6.520
 5583SOL     OW33890   4.830   3.564   1.091
 5583SOL    HW133891   4.840   3.506   1.167
 5583SOL    HW233892   4.757   3.527   1.042
 5584SOL     OW33893   1.677   4.294   6.715
 5584SOL    HW133894   1.715   4.343   6.643
 5584SOL    HW233895   1.751   4.249   6.756
 5585SOL     OW33896   3.030   2.712   2.099
 5585SOL    HW133897   2.988   2.778   2.044
 5585SOL    HW233898   3.116   2.748   2.118
 5586SOL     OW33899   2.213   1.434   0.233
 5586SOL    HW133900   2.217   1.369   0.163
 5586SOL    HW233901   2.123   1.466   0.231
 5587SOL     OW33902   3.258   5.844   1.104
 5587SOL    HW133903   3.326   5.777   1.115
 5587SOL    HW233904   3.221   5.827   1.018
 5588SOL     OW33905   1.733   4.839   2.287
 5588SOL    HW133906   1.761   4.756   2.326
 5588SOL    HW233907   1.719   4.819   2.195
 5589SOL     OW33908   5.531   2.681   0.283
 5589SOL    HW133909   5.619   2.718   0.291
 5589SOL    HW233910   5.533   2.631   0.201
 5590SOL     OW33911   2.721   3.536   6.448
 5590SOL    HW133912   2.763   3.580   6.374
 5590SOL    HW233913   2.687   3.455   6.410
 5591SOL     OW33914   3.589   6.024   0.173
 5591SOL    HW133915   3.684   6.014   0.165
 5591SOL    HW233916   3.576   6.062   0.259
 5592SOL     OW33917   5.895   4.539   0.655
 5592SOL    HW133918   5.898   4.635   0.658
 5592SOL    HW233919   5.965   4.511   0.713
 5593SOL     OW33920   4.644   5.280   1.352
 5593SOL    HW133921   4.718   5.321   1.307
 5593SOL    HW233922   4.567   5.304   1.301
 5594SOL     OW33923   0.163   5.253   1.004
 5594SOL    HW133924   0.112   5.308   0.944
 5594SOL    HW233925   0.246   5.299   1.015
 5595SOL     OW33926   2.236   5.275   7.158
 5595SOL    HW133927   2.266   5.351   7.209
 5595SOL    HW233928   2.316   5.236   7.124
 5596SOL     OW33929   1.934   2.310   0.769
 5596SOL    HW133930   1.923   2.350   0.682
 5596SOL    HW233931   2.020   2.339   0.798
 5597SOL     OW33932   0.405   0.344   6.046
 5597SOL    HW133933   0.323   0.308   6.012
 5597SOL    HW233934   0.429   0.412   5.982
 5598SOL     OW33935   3.401   6.188   6.012
 5598SOL    HW133936   3.361   6.200   5.926
 5598SOL    HW233937   3.363   6.257   6.067
 5599SOL     OW33938   0.992   4.400   0.103
 5599SOL    HW133939   0.988   4.421   0.010
 5599SOL    HW233940   0.918   4.341   0.117
 5600SOL     OW33941   3.972   0.520   0.531
 5600SOL    HW133942   3.927   0.456   0.477
 5600SOL    HW233943   4.063   0.491   0.532
 5601SOL     OW33944   2.642   0.944   0.809
 5601SOL    HW133945   2.549   0.955   0.791
 5601SOL    HW233946   2.683   1.024   0.776
 5602SOL     OW33947   2.842   3.145   6.540
 5602SOL    HW133948   2.855   3.091   6.618
 5602SOL    HW233949   2.747   3.150   6.529
 5603SOL     OW33950   1.817   1.224   0.714
 5603SOL    HW133951   1.814   1.205   0.620
 5603SOL    HW233952   1.899   1.272   0.727
 5604SOL     OW33953   1.527   0.800   7.221
 5604SOL    HW133954   1.615   0.830   7.243
 5604SOL    HW233955   1.533   0.775   7.129
 5605SOL     OW33956   4.753   1.244   7.027
 5605SOL    HW133957   4.672   1.219   6.982
 5605SOL    HW233958   4.796   1.306   6.967
 5606SOL     OW33959   2.540   1.616   0.756
 5606SOL    HW133960   2.497   1.676   0.695
 5606SOL    HW233961   2.471   1.554   0.781
 5607SOL     OW33962   1.233   4.238   1.126
 5607SOL    HW133963   1.312   4.185   1.121
 5607SOL    HW233964   1.252   4.316   1.073
 5608SOL     OW33965   1.657   5.897   7.048
 5608SOL    HW133966   1.604   5.820   7.071
 5608SOL    HW233967   1.698   5.923   7.130
 5609SOL     OW33968   4.091   0.297   0.288
 5609SOL    HW133969   4.171   0.283   0.338
 5609SOL    HW233970   4.031   0.230   0.320
 5610SOL     OW33971   5.538   4.510   1.471
 5610SOL    HW133972   5.599   4.559   1.526
 5610SOL    HW233973   5.583   4.428   1.451
 5611SOL     OW33974   4.368   1.854   0.476
 5611SOL    HW133975   4.335   1.877   0.389
 5611SOL    HW233976   4.423   1.928   0.501
 5612SOL     OW33977   1.355   1.327   6.331
 5612SOL    HW133978   1.388   1.369   6.410
 5612SOL    HW233979   1.432   1.319   6.274
 5613SOL     OW33980   2.332   1.957   1.085
 5613SOL    HW133981   2.275   1.994   1.153
 5613SOL    HW233982   2.310   1.864   1.084
 5614SOL     OW33983   0.195   3.884   1.195
 5614SOL    HW133984   0.269   3.829   1.170
 5614SOL    HW233985   0.182   3.867   1.288
 5615SOL     OW33986   1.186   5.526   0.544
 5615SOL    HW133987   1.111   5.469   0.563
 5615SOL    HW233988   1.251   5.468   0.505
 5616SOL     OW33989   2.200   0.101   7.145
 5616SOL    HW133990   2.153   0.127   7.224
 5616SOL    HW233991   2.292   0.117   7.165
 5617SOL     OW33992   1.121   4.854   0.639
 5617SOL    HW133993   1.214   4.850   0.618
 5617SOL    HW233994   1.117   4.900   0.723
 5618SOL     OW33995   4.798   0.991   7.174
 5618SOL    HW133996   4.763   1.078   7.156
 5618SOL    HW233997   4.750   0.933   7.115
 5619SOL     OW33998   0.379   5.570   0.981
 5619SOL    HW133999   0.431   5.578   1.061
 5619SOL    HW234000   0.416   5.495   0.935
 5620SOL     OW34001   5.904   1.817   5.729
 5620SOL    HW134002   5.994   1.848   5.740
 5620SOL    HW234003   5.860   1.888   5.682
 5621SOL     OW34004   3.256   1.774   6.190
 5621SOL    HW134005   3.230   1.714   6.121
 5621SOL    HW234006   3.314   1.723   6.247
 5622SOL     OW34007   5.377   4.538   0.700
 5622SOL    HW134008   5.454   4.484   0.716
 5622SOL    HW234009   5.307   4.475   0.682
 5623SOL     OW34010   2.572   4.483   0.977
 5623SOL    HW134011   2.488   4.520   1.005
 5623SOL    HW234012   2.596   4.424   1.049
 5624SOL     OW34013   5.411   3.577   7.248
 5624SOL    HW134014   5.423   3.658   7.298
 5624SOL    HW234015   5.332   3.537   7.285
 5625SOL     OW34016   2.286   5.320   2.172
 5625SOL    HW134017   2.320   5.376   2.242
 5625SOL    HW234018   2.211   5.276   2.210
 5626SOL     OW34019   4.014   1.406   0.435
 5626SOL    HW134020   4.083   1.440   0.491
 5626SOL    HW234021   3.960   1.482   0.413
 5627SOL     OW34022   4.105   4.365   6.951
 5627SOL    HW134023   4.145   4.428   6.891
 5627SOL    HW234024   4.096   4.413   7.033
 5628SOL     OW34025   5.211   1.328   7.212
 5628SOL    HW134026   5.168   1.354   7.293
 5628SOL    HW234027   5.294   1.289   7.240
 5629SOL     OW34028   5.150   4.163   4.956
 5629SOL    HW134029   5.119   4.243   4.913
 5629SOL    HW234030   5.111   4.166   5.043
 5630SOL     OW34031   3.217   1.196   5.882
 5630SOL    HW134032   3.288   1.248   5.845
 5630SOL    HW234033   3.194   1.134   5.812
 5631SOL     OW34034   1.661   1.860   6.612
 5631SOL    HW134035   1.639   1.939   6.562
 5631SOL    HW234036   1.732   1.888   6.671
 5632SOL     OW34037   3.900   2.581   7.594
 5632SOL    HW134038   3.961   2.570   7.667
 5632SOL    HW234039   3.845   2.655   7.620
 5633SOL     OW34040   5.728   4.745   0.954
 5633SOL    HW134041   5.802   4.685   0.941
 5633SOL    HW234042   5.759   4.828   0.917
 5634SOL     OW34043   3.508   2.201   6.085
 5634SOL    HW134044   3.447   2.129   6.068
 5634SOL    HW234045   3.469   2.277   6.041
 5635SOL     OW34046   0.909   4.838   5.997
 5635SOL    HW134047   0.821   4.875   5.995
 5635SOL    HW234048   0.895   4.745   6.015
 5636SOL     OW34049   6.372   5.807   7.202
 5636SOL    HW134050   6.395   5.899   7.213
 5636SOL    HW234051   6.445   5.770   7.152
 5637SOL     OW34052   0.326   6.161   7.100
 5637SOL    HW134053   0.345   6.197   7.186
 5637SOL    HW234054   0.396   6.098   7.084
 5638SOL     OW34055   5.215   1.537   1.385
 5638SOL    HW134056   5.146   1.596   1.356
 5638SOL    HW234057   5.195   1.454   1.342
 5639SOL     OW34058   0.074   0.179   0.691
 5639SOL    HW134059   0.169   0.186   0.684
 5639SOL    HW234060   0.060   0.131   0.772
 5640SOL     OW34061   1.516   1.044   5.154
 5640SOL    HW134062   1.537   1.134   5.180
 5640SOL    HW234063   1.575   1.026   5.081
 5641SOL     OW34064   6.148   3.249   0.932
 5641SOL    HW134065   6.165   3.302   0.854
 5641SOL    HW234066   6.128   3.162   0.898
 5642SOL     OW34067   0.774   2.334   0.238
 5642SOL    HW134068   0.847   2.281   0.205
 5642SOL    HW234069   0.742   2.286   0.314
 5643SOL     OW34070   3.023   4.903   1.302
 5643SOL    HW134071   2.959   4.934   1.367
 5643SOL    HW234072   3.052   4.819   1.336
 5644SOL     OW34073   3.747   0.889   1.478
 5644SOL    HW134074   3.791   0.886   1.393
 5644SOL    HW234075   3.803   0.946   1.532
 5645SOL     OW34076   6.100   4.244   7.195
 5645SOL    HW134077   6.114   4.206   7.109
 5645SOL    HW234078   6.004   4.251   7.203
 5646SOL     OW34079   6.069   3.802   7.668
 5646SOL    HW134080   5.993   3.838   7.623
 5646SOL    HW234081   6.119   3.758   7.599
 5647SOL     OW34082   2.242   6.099   7.673
 5647SOL    HW134083   2.252   6.094   7.578
 5647SOL    HW234084   2.330   6.083   7.707
 5648SOL     OW34085   4.693   1.932   6.010
 5648SOL    HW134086   4.707   2.025   6.031
 5648SOL    HW234087   4.692   1.929   5.915
 5649SOL     OW34088   4.327   2.424   6.078
 5649SOL    HW134089   4.404   2.367   6.082
 5649SOL    HW234090   4.254   2.368   6.107
 5650SOL     OW34091   1.379   1.292   7.139
 5650SOL    HW134092   1.405   1.327   7.225
 5650SOL    HW234093   1.386   1.197   7.149
 5651SOL     OW34094   5.807   0.346   7.677
 5651SOL    HW134095   5.824   0.344   7.771
 5651SOL    HW234096   5.725   0.298   7.667
 5652SOL     OW34097   0.483   1.156   5.824
 5652SOL    HW134098   0.474   1.184   5.733
 5652SOL    HW234099   0.506   1.063   5.818
 5653SOL     OW34100   5.414   0.727   7.316
 5653SOL    HW134101   5.427   0.780   7.395
 5653SOL    HW234102   5.413   0.637   7.348
 5654SOL     OW34103   3.746   4.786   0.692
 5654SOL    HW134104   3.765   4.880   0.697
 5654SOL    HW234105   3.720   4.762   0.781
 5655SOL     OW34106   0.807   0.238   6.548
 5655SOL    HW134107   0.894   0.259   6.515
 5655SOL    HW234108   0.748   0.260   6.476
 5656MOL     C134109   4.145   3.058   5.972
 5656MOL     C234110   4.093   3.162   6.062
 5656MOL     N134111   4.252   3.224   5.817
 5656MOL     N234112   4.162   3.265   6.098
 5656MOL     C334113   4.285   3.332   5.896
 5656MOL     C434114   4.292   3.307   6.046
 5656MOL     H134115   4.376   3.243   6.078
 5656MOL     H234116   4.318   3.407   6.084
 5656MOL     C534117   4.241   2.997   5.758
 5656MOL     C634118   4.200   2.865   5.774
 5656MOL     C734119   4.217   3.093   5.857
 5656MOL     C834120   4.142   2.827   5.895
 5656MOL     C934121   4.112   2.924   5.992
 5656MOL     H334122   4.221   2.788   5.699
 5656MOL     H434123   4.073   2.909   6.092
 5656MOL     H534124   4.290   3.027   5.666
 5656MOL     O134125   4.306   3.440   5.844
 5656MOL    C1034126   3.966   3.133   6.132
 5656MOL    C1134127   3.853   3.123   6.051
 5656MOL     N334128   3.969   3.117   6.265
 5656MOL    C1234129   3.728   3.114   6.112
 5656MOL    C1334130   3.848   3.104   6.322
 5656MOL    C1434131   3.727   3.102   6.252
 5656MOL     H634132   3.852   3.138   5.944
 5656MOL     H734133   3.638   3.102   6.053
 5656MOL     H834134   3.860   3.110   6.430
 5656MOL     H934135   3.633   3.098   6.305
 5656MOL    H1034136   4.249   3.249   5.719
 5656MOL    BR134137   4.117   2.643   5.941
 5656MOL     EP34138   4.091   2.449   5.988
   6.43225   6.43225   7.85408
