POPC bilayer and 5FIBZ with EP hydrated t= 13630.00000 step= 315000
34138
    1PA    C116    1   6.448   1.152   4.185
    1PA    H16R    2   6.515   1.071   4.212
    1PA    H16S    3   6.515   1.238   4.195
    1PA    H16T    4   6.431   1.140   4.078
    1PA    C115    5   6.327   1.171   4.277
    1PA    H15R    6   6.263   1.255   4.249
    1PA    H15S    7   6.266   1.080   4.280
    1PA    C114    8   6.372   1.208   4.419
    1PA    H14R    9   6.413   1.117   4.462
    1PA    H14S   10   6.451   1.283   4.422
    1PA    C113   11   6.257   1.241   4.515
    1PA    H13R   12   6.207   1.323   4.462
    1PA    H13S   13   6.186   1.157   4.520
    1PA    C112   14   6.322   1.291   4.644
    1PA    H12R   15   6.394   1.371   4.628
    1PA    H12S   16   6.242   1.340   4.699
    1PA    C111   17   6.378   1.183   4.738
    1PA    H11R   18   6.305   1.104   4.757
    1PA    H11S   19   6.457   1.132   4.681
    1PA    C110   20   6.422   1.238   4.874
    1PA    H10R   21   6.419   1.346   4.859
    1PA    H10S   22   6.352   1.216   4.955
    1PA     C19   23   6.570   1.212   4.904
    1PA     H9R   24   6.594   1.105   4.906
    1PA     H9S   25   6.630   1.253   4.822
    1PA     C18   26   6.614   1.282   5.033
    1PA     H8R   27   6.722   1.280   5.042
    1PA     H8S   28   6.596   1.389   5.024
    1PA     C17   29   6.556   1.206   5.154
    1PA     H7R   30   6.448   1.191   5.149
    1PA     H7S   31   6.598   1.106   5.162
    1PA     C16   32   6.594   1.287   5.279
    1PA     H6R   33   6.693   1.331   5.265
    1PA     H6S   34   6.534   1.378   5.280
    1PA     C15   35   6.585   1.199   5.405
    1PA     H5R   36   6.478   1.184   5.420
    1PA     H5S   37   6.643   1.108   5.393
    1PA     C14   38   6.635   1.271   5.531
    1PA     H4R   39   6.737   1.309   5.519
    1PA     H4S   40   6.575   1.362   5.542
    1PA     C13   41   6.622   1.180   5.654
    1PA     H3R   42   6.522   1.139   5.661
    1PA     H3S   43   6.696   1.101   5.639
    1PA     C12   44   6.661   1.251   5.785
    1PA     H2R   45   6.764   1.286   5.776
    1PA     H2S   46   6.595   1.333   5.814
    2PC     C11   47   6.667   1.155   5.901
    2PC     O12   48   6.659   1.185   6.018
    2PC     O11   49   6.703   1.031   5.863
    2PC      C1   50   6.730   0.933   5.964
    2PC      HR   51   6.784   0.848   5.921
    2PC      HS   52   6.800   0.980   6.035
    2PC      C2   53   6.603   0.878   6.032
    2PC      HX   54   6.544   0.960   6.073
    2PC      C3   55   6.645   0.779   6.141
    2PC      HA   56   6.688   0.685   6.105
    2PC      HB   57   6.711   0.824   6.216
    2PC     O31   58   6.518   0.753   6.203
    2PC     P31   59   6.476   0.842   6.329
    2PC     O32   60   6.563   0.772   6.444
    2PC     C31   61   6.673   0.842   6.506
    2PC     H1A   62   6.756   0.846   6.435
    2PC     H1B   63   6.647   0.944   6.532
    2PC     C32   64   6.717   0.780   6.639
    2PC     H2A   65   6.759   0.681   6.618
    2PC     H2B   66   6.785   0.849   6.689
    2PC     N31   67   6.616   0.736   6.741
    2PC     C33   68   6.547   0.854   6.803
    2PC     H3A   69   6.467   0.883   6.735
    2PC     H3B   70   6.494   0.822   6.892
    2PC     H3C   71   6.616   0.936   6.824
    2PC     C34   72   6.511   0.641   6.691
    2PC     H4A   73   6.575   0.563   6.648
    2PC     H4B   74   6.449   0.610   6.775
    2PC     H4C   75   6.454   0.685   6.609
    2PC     C35   76   6.684   0.665   6.854
    2PC     H5A   77   6.747   0.582   6.820
    2PC     H5B   78   6.610   0.631   6.927
    2PC     H5C   79   6.748   0.739   6.900
    2PC     O33   80   6.490   0.989   6.316
    2PC     O34   81   6.336   0.831   6.378
    2PC     O21   82   6.532   0.802   5.932
    2PC     C21   83   6.420   0.841   5.869
    2PC     O22   84   6.355   0.940   5.897
    3OL     C12   85   6.391   0.748   5.754
    3OL     H2R   86   6.288   0.718   5.773
    3OL     H2S   87   6.460   0.663   5.754
    3OL     C13   88   6.412   0.831   5.626
    3OL     H3R   89   6.516   0.861   5.613
    3OL     H3S   90   6.349   0.919   5.635
    3OL     C14   91   6.354   0.758   5.504
    3OL     H4R   92   6.249   0.734   5.522
    3OL     H4S   93   6.419   0.671   5.491
    3OL     C15   94   6.349   0.849   5.380
    3OL     H5R   95   6.453   0.863   5.351
    3OL     H5S   96   6.305   0.940   5.420
    3OL     C16   97   6.269   0.793   5.261
    3OL     H6R   98   6.172   0.762   5.300
    3OL     H6S   99   6.320   0.702   5.228
    3OL     C17  100   6.242   0.892   5.148
    3OL     H7R  101   6.338   0.902   5.097
    3OL     H7S  102   6.211   0.990   5.184
    3OL     C18  103   6.129   0.842   5.056
    3OL     H8R  104   6.041   0.806   5.109
    3OL     H8S  105   6.162   0.745   5.018
    3OL     C19  106   6.087   0.944   4.955
    3OL     H9R  107   6.148   0.947   4.865
    3OL    C110  108   5.981   1.023   4.963
    3OL    H10R  109   5.955   1.097   4.887
    3OL    C111  110   5.880   1.027   5.075
    3OL    H11R  111   5.910   1.098   5.153
    3OL    H11S  112   5.883   0.932   5.128
    3OL    C112  113   5.734   1.046   5.032
    3OL    H12R  114   5.712   0.972   4.955
    3OL    H12S  115   5.722   1.142   4.981
    3OL    C113  116   5.640   1.027   5.152
    3OL    H13R  117   5.669   1.095   5.233
    3OL    H13S  118   5.657   0.927   5.191
    3OL    C114  119   5.491   1.040   5.117
    3OL    H14R  120   5.465   1.137   5.072
    3OL    H14S  121   5.434   1.020   5.208
    3OL    C115  122   5.443   0.936   5.016
    3OL    H15R  123   5.458   0.837   5.059
    3OL    H15S  124   5.499   0.942   4.922
    3OL    C116  125   5.299   0.963   4.969
    3OL    H16R  126   5.288   1.062   4.923
    3OL    H16S  127   5.229   0.957   5.052
    3OL    C117  128   5.268   0.863   4.856
    3OL    H17R  129   5.269   0.761   4.896
    3OL    H17S  130   5.345   0.872   4.779
    3OL    C118  131   5.132   0.897   4.794
    3OL    H18R  132   5.112   0.836   4.707
    3OL    H18S  133   5.134   0.998   4.752
    3OL    H18T  134   5.053   0.891   4.869
    1PA    C116  135   5.572   0.287   4.289
    1PA    H16R  136   5.499   0.356   4.331
    1PA    H16S  137   5.610   0.211   4.357
    1PA    H16T  138   5.513   0.227   4.220
    1PA    C115  139   5.694   0.359   4.229
    1PA    H15R  140   5.762   0.301   4.166
    1PA    H15S  141   5.667   0.450   4.174
    1PA    C114  142   5.787   0.406   4.341
    1PA    H14R  143   5.757   0.509   4.365
    1PA    H14S  144   5.770   0.360   4.439
    1PA    C113  145   5.932   0.430   4.298
    1PA    H13R  146   5.970   0.329   4.280
    1PA    H13S  147   5.928   0.482   4.202
    1PA    C112  148   6.006   0.498   4.414
    1PA    H12R  149   6.104   0.533   4.381
    1PA    H12S  150   5.953   0.587   4.449
    1PA    C111  151   6.023   0.404   4.534
    1PA    H11R  152   5.930   0.372   4.582
    1PA    H11S  153   6.079   0.313   4.510
    1PA    C110  154   6.116   0.475   4.633
    1PA    H10R  155   6.217   0.486   4.594
    1PA    H10S  156   6.074   0.573   4.658
    1PA     C19  157   6.125   0.397   4.764
    1PA     H9R  158   6.029   0.374   4.809
    1PA     H9S  159   6.152   0.294   4.736
    1PA     C18  160   6.225   0.463   4.861
    1PA     H8R  161   6.325   0.483   4.822
    1PA     H8S  162   6.191   0.560   4.895
    1PA     C17  163   6.259   0.393   4.993
    1PA     H7R  164   6.294   0.292   4.972
    1PA     H7S  165   6.333   0.452   5.048
    1PA     C16  166   6.129   0.396   5.074
    1PA     H6R  167   6.106   0.501   5.091
    1PA     H6S  168   6.044   0.345   5.029
    1PA     C15  169   6.138   0.342   5.218
    1PA     H5R  170   6.039   0.304   5.244
    1PA     H5S  171   6.204   0.255   5.223
    1PA     C14  172   6.173   0.446   5.325
    1PA     H4R  173   6.275   0.469   5.297
    1PA     H4S  174   6.105   0.531   5.324
    1PA     C13  175   6.190   0.393   5.468
    1PA     H3R  176   6.251   0.302   5.461
    1PA     H3S  177   6.262   0.454   5.524
    1PA     C12  178   6.063   0.373   5.552
    1PA     H2R  179   6.020   0.471   5.574
    1PA     H2S  180   5.989   0.310   5.504
    2PC     C11  181   6.100   0.303   5.681
    2PC     O12  182   6.212   0.277   5.720
    2PC     O11  183   5.991   0.292   5.758
    2PC      C1  184   6.003   0.244   5.893
    2PC      HR  185   6.077   0.300   5.950
    2PC      HS  186   5.899   0.253   5.926
    2PC      C2  187   6.035   0.093   5.898
    2PC      HX  188   5.992   0.042   5.811
    2PC      C3  189   5.989   0.029   6.029
    2PC      HA  190   5.909   0.086   6.077
    2PC      HB  191   5.959  -0.074   6.011
    2PC     O31  192   6.099   0.025   6.123
    2PC     P31  193   6.099  -0.084   6.239
    2PC     O32  194   6.020  -0.005   6.354
    2PC     C31  195   5.876  -0.011   6.361
    2PC     H1A  196   5.838  -0.007   6.258
    2PC     H1B  197   5.839  -0.101   6.410
    2PC     C32  198   5.836   0.114   6.440
    2PC     H2A  199   5.872   0.206   6.392
    2PC     H2B  200   5.728   0.125   6.436
    2PC     N31  201   5.864   0.126   6.587
    2PC     C33  202   5.778   0.234   6.645
    2PC     H3A  203   5.776   0.327   6.589
    2PC     H3B  204   5.681   0.186   6.638
    2PC     H3C  205   5.816   0.250   6.747
    2PC     C34  206   5.838   0.000   6.663
    2PC     H4A  207   5.730  -0.009   6.657
    2PC     H4B  208   5.891  -0.080   6.609
    2PC     H4C  209   5.867   0.016   6.767
    2PC     C35  210   6.009   0.156   6.614
    2PC     H5A  211   6.055   0.210   6.530
    2PC     H5B  212   6.053   0.057   6.623
    2PC     H5C  213   6.008   0.212   6.707
    2PC     O33  214   6.014  -0.199   6.202
    2PC     O34  215   6.233  -0.135   6.280
    2PC     O21  216   6.177   0.073   5.889
    2PC     C21  217   6.226  -0.052   5.879
    2PC     O22  218   6.156  -0.151   5.883
    3OL     C12  219   6.376  -0.053   5.863
    3OL     H2R  220   6.418  -0.026   5.961
    3OL     H2S  221   6.398   0.016   5.781
    3OL     C13  222   6.429  -0.186   5.807
    3OL     H3R  223   6.373  -0.212   5.717
    3OL     H3S  224   6.412  -0.273   5.870
    3OL     C14  225   6.578  -0.161   5.780
    3OL     H4R  226   6.632  -0.148   5.874
    3OL     H4S  227   6.600  -0.079   5.711
    3OL     C15  228   6.636  -0.287   5.715
    3OL     H5R  229   6.602  -0.381   5.759
    3OL     H5S  230   6.741  -0.287   5.745
    3OL     C16  231   6.639  -0.289   5.562
    3OL     H6R  232   6.704  -0.209   5.526
    3OL     H6S  233   6.540  -0.274   5.518
    3OL     C17  234   6.707  -0.421   5.523
    3OL     H7R  235   6.643  -0.504   5.552
    3OL     H7S  236   6.804  -0.425   5.573
    3OL     C18  237   6.737  -0.434   5.373
    3OL     H8R  238   6.654  -0.460   5.308
    3OL     H8S  239   6.809  -0.516   5.360
    3OL     C19  240   6.811  -0.315   5.316
    3OL     H9R  241   6.900  -0.293   5.373
    3OL    C110  242   6.779  -0.239   5.213
    3OL    H10R  243   6.841  -0.151   5.202
    3OL    C111  244   6.651  -0.232   5.133
    3OL    H11R  245   6.616  -0.131   5.112
    3OL    H11S  246   6.570  -0.283   5.186
    3OL    C112  247   6.660  -0.322   5.008
    3OL    H12R  248   6.681  -0.421   5.049
    3OL    H12S  249   6.741  -0.286   4.945
    3OL    C113  250   6.533  -0.315   4.921
    3OL    H13R  251   6.450  -0.317   4.992
    3OL    H13S  252   6.534  -0.399   4.852
    3OL    C114  253   6.523  -0.186   4.839
    3OL    H14R  254   6.618  -0.160   4.792
    3OL    H14S  255   6.513  -0.101   4.907
    3OL    C115  256   6.413  -0.171   4.733
    3OL    H15R  257   6.423  -0.071   4.690
    3OL    H15S  258   6.309  -0.172   4.767
    3OL    C116  259   6.420  -0.271   4.617
    3OL    H16R  260   6.423  -0.372   4.659
    3OL    H16S  261   6.518  -0.256   4.573
    3OL    C117  262   6.316  -0.241   4.508
    3OL    H17R  263   6.332  -0.136   4.484
    3OL    H17S  264   6.217  -0.259   4.550
    3OL    C118  265   6.330  -0.341   4.392
    3OL    H18R  266   6.394  -0.304   4.312
    3OL    H18S  267   6.234  -0.381   4.357
    3OL    H18T  268   6.383  -0.432   4.417
    1PA    C116  269   4.994   0.300   4.063
    1PA    H16R  270   5.073   0.319   3.990
    1PA    H16S  271   4.901   0.338   4.020
    1PA    H16T  272   4.970   0.193   4.068
    1PA    C115  273   5.021   0.373   4.195
    1PA    H15R  274   5.058   0.475   4.187
    1PA    H15S  275   4.920   0.373   4.237
    1PA    C114  276   5.117   0.287   4.279
    1PA    H14R  277   5.074   0.187   4.282
    1PA    H14S  278   5.210   0.262   4.226
    1PA    C113  279   5.142   0.341   4.420
    1PA    H13R  280   5.177   0.444   4.408
    1PA    H13S  281   5.044   0.347   4.468
    1PA    C112  282   5.241   0.248   4.491
    1PA    H12R  283   5.196   0.149   4.502
    1PA    H12S  284   5.327   0.243   4.423
    1PA    C111  285   5.284   0.299   4.629
    1PA    H11R  286   5.326   0.399   4.614
    1PA    H11S  287   5.197   0.312   4.693
    1PA    C110  288   5.390   0.206   4.691
    1PA    H10R  289   5.339   0.112   4.712
    1PA    H10S  290   5.474   0.200   4.622
    1PA     C19  291   5.439   0.261   4.826
    1PA     H9R  292   5.497   0.353   4.816
    1PA     H9S  293   5.355   0.287   4.890
    1PA     C18  294   5.528   0.165   4.905
    1PA     H8R  295   5.477   0.078   4.945
    1PA     H8S  296   5.604   0.126   4.836
    1PA     C17  297   5.608   0.238   5.014
    1PA     H7R  298   5.683   0.301   4.966
    1PA     H7S  299   5.545   0.301   5.077
    1PA     C16  300   5.688   0.140   5.103
    1PA     H6R  301   5.613   0.088   5.164
    1PA     H6S  302   5.743   0.067   5.044
    1PA     C15  303   5.785   0.210   5.199
    1PA     H5R  304   5.870   0.243   5.138
    1PA     H5S  305   5.727   0.299   5.225
    1PA     C14  306   5.834   0.116   5.310
    1PA     H4R  307   5.874   0.027   5.262
    1PA     H4S  308   5.917   0.171   5.354
    1PA     C13  309   5.736   0.079   5.422
    1PA     H3R  310   5.700   0.172   5.466
    1PA     H3S  311   5.654   0.016   5.386
    1PA     C12  312   5.798  -0.001   5.537
    1PA     H2R  313   5.814  -0.101   5.494
    1PA     H2S  314   5.891   0.050   5.562
    2PC     C11  315   5.714  -0.004   5.662
    2PC     O12  316   5.757  -0.026   5.773
    2PC     O11  317   5.582   0.007   5.640
    2PC      C1  318   5.495  -0.011   5.753
    2PC      HR  319   5.402  -0.044   5.706
    2PC      HS  320   5.527  -0.076   5.836
    2PC      C2  321   5.481   0.126   5.820
    2PC      HX  322   5.579   0.170   5.839
    2PC      C3  323   5.412   0.110   5.956
    2PC      HA  324   5.469   0.044   6.023
    2PC      HB  325   5.410   0.202   6.014
    2PC     O31  326   5.283   0.048   5.942
    2PC     P31  327   5.197   0.023   6.075
    2PC     O32  328   5.171   0.173   6.124
    2PC     C31  329   5.041   0.228   6.096
    2PC     H1A  330   5.032   0.232   5.987
    2PC     H1B  331   4.969   0.158   6.139
    2PC     C32  332   5.039   0.366   6.163
    2PC     H2A  333   4.938   0.407   6.150
    2PC     H2B  334   5.054   0.364   6.271
    2PC     N31  335   5.129   0.471   6.105
    2PC     C33  336   5.129   0.467   5.955
    2PC     H3A  337   5.201   0.542   5.922
    2PC     H3B  338   5.151   0.370   5.911
    2PC     H3C  339   5.024   0.483   5.928
    2PC     C34  340   5.075   0.605   6.143
    2PC     H4A  341   5.108   0.620   6.246
    2PC     H4B  342   5.120   0.672   6.070
    2PC     H4C  343   4.968   0.595   6.121
    2PC     C35  344   5.271   0.458   6.151
    2PC     H5A  345   5.332   0.523   6.088
    2PC     H5B  346   5.308   0.356   6.141
    2PC     H5C  347   5.278   0.492   6.254
    2PC     O33  348   5.069  -0.047   6.045
    2PC     O34  349   5.264  -0.053   6.183
    2PC     O21  350   5.415   0.220   5.733
    2PC     C21  351   5.399   0.349   5.766
    2PC     O22  352   5.437   0.400   5.869
    3OL     C12  353   5.333   0.425   5.654
    3OL     H2R  354   5.332   0.532   5.672
    3OL     H2S  355   5.229   0.393   5.658
    3OL     C13  356   5.390   0.393   5.515
    3OL     H3R  357   5.490   0.348   5.511
    3OL     H3S  358   5.396   0.490   5.464
    3OL     C14  359   5.288   0.310   5.437
    3OL     H4R  360   5.200   0.374   5.434
    3OL     H4S  361   5.259   0.224   5.499
    3OL     C15  362   5.352   0.262   5.306
    3OL     H5R  363   5.429   0.186   5.323
    3OL     H5S  364   5.391   0.352   5.258
    3OL     C16  365   5.252   0.194   5.212
    3OL     H6R  366   5.224   0.104   5.267
    3OL     H6S  367   5.299   0.162   5.119
    3OL     C17  368   5.121   0.268   5.178
    3OL     H7R  369   5.152   0.362   5.133
    3OL     H7S  370   5.064   0.287   5.270
    3OL     C18  371   5.039   0.177   5.086
    3OL     H8R  372   5.035   0.074   5.124
    3OL     H8S  373   5.090   0.175   4.990
    3OL     C19  374   4.899   0.227   5.061
    3OL     H9R  375   4.833   0.213   5.146
    3OL    C110  376   4.849   0.288   4.954
    3OL    H10R  377   4.741   0.303   4.956
    3OL    C111  378   4.924   0.307   4.825
    3OL    H11R  379   4.989   0.219   4.818
    3OL    H11S  380   4.986   0.396   4.842
    3OL    C112  381   4.832   0.325   4.704
    3OL    H12R  382   4.737   0.276   4.726
    3OL    H12S  383   4.875   0.274   4.617
    3OL    C113  384   4.818   0.476   4.677
    3OL    H13R  385   4.918   0.520   4.670
    3OL    H13S  386   4.761   0.522   4.757
    3OL    C114  387   4.758   0.494   4.537
    3OL    H14R  388   4.653   0.463   4.538
    3OL    H14S  389   4.818   0.439   4.463
    3OL    C115  390   4.750   0.640   4.493
    3OL    H15R  391   4.856   0.665   4.491
    3OL    H15S  392   4.691   0.695   4.567
    3OL    C116  393   4.688   0.667   4.355
    3OL    H16R  394   4.580   0.661   4.368
    3OL    H16S  395   4.712   0.581   4.292
    3OL    C117  396   4.744   0.798   4.298
    3OL    H17R  397   4.852   0.783   4.295
    3OL    H17S  398   4.716   0.878   4.366
    3OL    C118  399   4.687   0.836   4.160
    3OL    H18R  400   4.743   0.923   4.127
    3OL    H18S  401   4.582   0.865   4.166
    3OL    H18T  402   4.710   0.753   4.093
    1PA    C116  403  -0.564   0.035   4.611
    1PA    H16R  404  -0.606  -0.062   4.584
    1PA    H16S  405  -0.575   0.101   4.525
    1PA    H16T  406  -0.639   0.072   4.681
    1PA    C115  407  -0.421   0.041   4.668
    1PA    H15R  408  -0.373  -0.053   4.643
    1PA    H15S  409  -0.361   0.121   4.624
    1PA    C114  410  -0.417   0.041   4.822
    1PA    H14R  411  -0.466   0.130   4.861
    1PA    H14S  412  -0.487  -0.036   4.856
    1PA    C113  413  -0.276   0.020   4.878
    1PA    H13R  414  -0.234  -0.061   4.817
    1PA    H13S  415  -0.225   0.116   4.865
    1PA    C112  416  -0.281  -0.016   5.027
    1PA    H12R  417  -0.338   0.065   5.074
    1PA    H12S  418  -0.325  -0.116   5.028
    1PA    C111  419  -0.144  -0.019   5.096
    1PA    H11R  420  -0.079  -0.091   5.047
    1PA    H11S  421  -0.088   0.074   5.098
    1PA    C110  422  -0.171  -0.053   5.243
    1PA    H10R  423  -0.223   0.031   5.288
    1PA    H10S  424  -0.236  -0.140   5.256
    1PA     C19  425  -0.049  -0.085   5.331
    1PA     H9R  426  -0.094  -0.117   5.425
    1PA     H9S  427   0.008  -0.166   5.286
    1PA     C18  428   0.034   0.044   5.344
    1PA     H8R  429   0.092   0.066   5.255
    1PA     H8S  430  -0.039   0.125   5.350
    1PA     C17  431   0.120   0.047   5.472
    1PA     H7R  432   0.065   0.001   5.554
    1PA     H7S  433   0.217  -0.001   5.458
    1PA     C16  434   0.158   0.192   5.505
    1PA     H6R  435   0.188   0.255   5.421
    1PA     H6S  436   0.070   0.239   5.551
    1PA     C15  437   0.264   0.193   5.616
    1PA     H5R  438   0.229   0.160   5.714
    1PA     H5S  439   0.345   0.132   5.576
    1PA     C14  440   0.315   0.336   5.644
    1PA     H4R  441   0.337   0.400   5.558
    1PA     H4S  442   0.242   0.389   5.705
    1PA     C13  443   0.441   0.339   5.731
    1PA     H3R  444   0.461   0.437   5.774
    1PA     H3S  445   0.435   0.266   5.812
    1PA     C12  446   0.558   0.299   5.640
    1PA     H2R  447   0.558   0.196   5.605
    1PA     H2S  448   0.564   0.357   5.548
    2PC     C11  449   0.690   0.312   5.713
    2PC     O12  450   0.792   0.354   5.661
    2PC     O11  451   0.687   0.273   5.841
    2PC      C1  452   0.805   0.297   5.920
    2PC      HR  453   0.896   0.288   5.861
    2PC      HS  454   0.800   0.398   5.960
    2PC      C2  455   0.816   0.192   6.031
    2PC      HX  456   0.722   0.185   6.086
    2PC      C3  457   0.920   0.220   6.141
    2PC      HA  458   0.879   0.281   6.222
    2PC      HB  459   0.952   0.125   6.185
    2PC     O31  460   1.032   0.295   6.093
    2PC     P31  461   1.165   0.302   6.182
    2PC     O32  462   1.163   0.462   6.187
    2PC     C31  463   1.077   0.538   6.274
    2PC     H1A  464   1.000   0.572   6.204
    2PC     H1B  465   1.030   0.479   6.353
    2PC     C32  466   1.158   0.644   6.349
    2PC     H2A  467   1.231   0.589   6.408
    2PC     H2B  468   1.195   0.727   6.288
    2PC     N31  469   1.091   0.725   6.457
    2PC     C33  470   1.013   0.647   6.559
    2PC     H3A  471   0.920   0.617   6.510
    2PC     H3B  472   1.071   0.564   6.598
    2PC     H3C  473   0.994   0.716   6.641
    2PC     C34  474   1.201   0.795   6.530
    2PC     H4A  475   1.265   0.722   6.581
    2PC     H4B  476   1.261   0.843   6.452
    2PC     H4C  477   1.163   0.865   6.605
    2PC     C35  478   1.007   0.834   6.397
    2PC     H5A  479   0.917   0.791   6.352
    2PC     H5B  480   1.071   0.881   6.322
    2PC     H5C  481   0.983   0.909   6.472
    2PC     O33  482   1.134   0.245   6.316
    2PC     O34  483   1.297   0.238   6.165
    2PC     O21  484   0.853   0.068   5.969
    2PC     C21  485   0.759  -0.011   5.915
    2PC     O22  486   0.639   0.004   5.924
    3OL     C12  487   0.813  -0.126   5.834
    3OL     H2R  488   0.830  -0.205   5.908
    3OL     H2S  489   0.912  -0.099   5.798
    3OL     C13  490   0.724  -0.177   5.720
    3OL     H3R  491   0.634  -0.224   5.762
    3OL     H3S  492   0.768  -0.271   5.685
    3OL     C14  493   0.708  -0.069   5.612
    3OL     H4R  494   0.669   0.025   5.652
    3OL     H4S  495   0.642  -0.100   5.531
    3OL     C15  496   0.841  -0.054   5.538
    3OL     H5R  497   0.871  -0.152   5.499
    3OL     H5S  498   0.921  -0.021   5.606
    3OL     C16  499   0.838   0.059   5.435
    3OL     H6R  500   0.936   0.085   5.395
    3OL     H6S  501   0.801   0.151   5.480
    3OL     C17  502   0.750   0.030   5.312
    3OL     H7R  503   0.645   0.013   5.335
    3OL     H7S  504   0.773  -0.071   5.277
    3OL     C18  505   0.765   0.130   5.197
    3OL     H8R  506   0.867   0.148   5.163
    3OL     H8S  507   0.741   0.231   5.228
    3OL     C19  508   0.681   0.086   5.080
    3OL     H9R  509   0.726   0.020   5.007
    3OL    C110  510   0.558   0.129   5.052
    3OL    H10R  511   0.520   0.087   4.960
    3OL    C111  512   0.471   0.233   5.117
    3OL    H11R  513   0.466   0.315   5.045
    3OL    H11S  514   0.522   0.263   5.209
    3OL    C112  515   0.323   0.201   5.142
    3OL    H12R  516   0.266   0.281   5.191
    3OL    H12S  517   0.326   0.114   5.209
    3OL    C113  518   0.242   0.153   5.021
    3OL    H13R  519   0.146   0.116   5.059
    3OL    H13S  520   0.286   0.062   4.980
    3OL    C114  521   0.218   0.264   4.918
    3OL    H14R  522   0.316   0.300   4.888
    3OL    H14S  523   0.166   0.353   4.953
    3OL    C115  524   0.155   0.199   4.794
    3OL    H15R  525   0.057   0.150   4.799
    3OL    H15S  526   0.223   0.121   4.758
    3OL    C116  527   0.165   0.290   4.671
    3OL    H16R  528   0.272   0.290   4.647
    3OL    H16S  529   0.123   0.390   4.686
    3OL    C117  530   0.103   0.220   4.550
    3OL    H17R  531  -0.006   0.222   4.552
    3OL    H17S  532   0.139   0.118   4.541
    3OL    C118  533   0.139   0.305   4.427
    3OL    H18R  534   0.241   0.274   4.406
    3OL    H18S  535   0.152   0.411   4.451
    3OL    H18T  536   0.084   0.286   4.335
    1PA    C116  537   5.772   5.752   4.213
    1PA    H16R  538   5.869   5.781   4.171
    1PA    H16S  539   5.706   5.720   4.133
    1PA    H16T  540   5.792   5.672   4.285
    1PA    C115  541   5.702   5.875   4.271
    1PA    H15R  542   5.645   5.930   4.195
    1PA    H15S  543   5.630   5.840   4.345
    1PA    C114  544   5.791   5.964   4.359
    1PA    H14R  545   5.863   6.018   4.297
    1PA    H14S  546   5.729   6.047   4.395
    1PA    C113  547   5.851   5.896   4.483
    1PA    H13R  548   5.771   5.842   4.533
    1PA    H13S  549   5.924   5.820   4.455
    1PA    C112  550   5.923   5.998   4.573
    1PA    H12R  551   6.006   6.049   4.525
    1PA    H12S  552   5.855   6.076   4.607
    1PA    C111  553   5.989   5.922   4.689
    1PA    H11R  554   5.928   5.843   4.732
    1PA    H11S  555   6.078   5.870   4.651
    1PA    C110  556   6.022   6.014   4.807
    1PA    H10R  557   6.101   6.083   4.780
    1PA    H10S  558   5.930   6.062   4.841
    1PA     C19  559   6.064   5.928   4.927
    1PA     H9R  560   6.057   5.993   5.015
    1PA     H9S  561   6.002   5.839   4.939
    1PA     C18  562   6.208   5.874   4.915
    1PA     H8R  563   6.211   5.821   4.820
    1PA     H8S  564   6.273   5.962   4.910
    1PA     C17  565   6.262   5.799   5.037
    1PA     H7R  566   6.216   5.700   5.028
    1PA     H7S  567   6.366   5.779   5.007
    1PA     C16  568   6.226   5.872   5.167
    1PA     H6R  569   6.239   5.980   5.170
    1PA     H6S  570   6.120   5.848   5.175
    1PA     C15  571   6.304   5.816   5.287
    1PA     H5R  572   6.273   5.715   5.313
    1PA     H5S  573   6.412   5.818   5.272
    1PA     C14  574   6.284   5.896   5.417
    1PA     H4R  575   6.345   5.986   5.408
    1PA     H4S  576   6.180   5.927   5.428
    1PA     C13  577   6.337   5.832   5.546
    1PA     H3R  578   6.428   5.777   5.520
    1PA     H3S  579   6.368   5.910   5.616
    1PA     C12  580   6.239   5.733   5.610
    1PA     H2R  581   6.148   5.791   5.628
    1PA     H2S  582   6.221   5.652   5.539
    2PC     C11  583   6.272   5.696   5.752
    2PC     O12  584   6.364   5.749   5.811
    2PC     O11  585   6.207   5.586   5.794
    2PC      C1  586   6.242   5.534   5.923
    2PC      HR  587   6.348   5.509   5.929
    2PC      HS  588   6.207   5.613   5.990
    2PC      C2  589   6.150   5.413   5.944
    2PC      HX  590   6.047   5.438   5.918
    2PC      C3  591   6.146   5.369   6.091
    2PC      HA  592   6.101   5.448   6.153
    2PC      HB  593   6.097   5.272   6.101
    2PC     O31  594   6.279   5.356   6.144
    2PC     P31  595   6.308   5.387   6.298
    2PC     O32  596   6.337   5.545   6.300
    2PC     C31  597   6.349   5.609   6.429
    2PC     H1A  598   6.252   5.622   6.476
    2PC     H1B  599   6.416   5.545   6.488
    2PC     C32  600   6.410   5.745   6.391
    2PC     H2A  601   6.510   5.730   6.351
    2PC     H2B  602   6.353   5.784   6.307
    2PC     N31  603   6.414   5.850   6.498
    2PC     C33  604   6.277   5.881   6.551
    2PC     H3A  605   6.295   5.948   6.634
    2PC     H3B  606   6.223   5.932   6.471
    2PC     H3C  607   6.233   5.788   6.588
    2PC     C34  608   6.513   5.806   6.602
    2PC     H4A  609   6.475   5.711   6.641
    2PC     H4B  610   6.606   5.795   6.546
    2PC     H4C  611   6.527   5.883   6.678
    2PC     C35  612   6.479   5.973   6.443
    2PC     H5A  613   6.427   6.018   6.358
    2PC     H5B  614   6.582   5.943   6.423
    2PC     H5C  615   6.497   6.046   6.522
    2PC     O33  616   6.203   5.333   6.387
    2PC     O34  617   6.432   5.320   6.345
    2PC     O21  618   6.197   5.301   5.867
    2PC     C21  619   6.118   5.196   5.838
    2PC     O22  620   6.002   5.204   5.873
    3OL     C12  621   6.183   5.085   5.761
    3OL     H2R  622   6.096   5.035   5.717
    3OL     H2S  623   6.229   5.021   5.837
    3OL     C13  624   6.280   5.132   5.652
    3OL     H3R  625   6.353   5.205   5.687
    3OL     H3S  626   6.210   5.191   5.591
    3OL     C14  627   6.341   5.015   5.573
    3OL     H4R  628   6.264   4.944   5.542
    3OL     H4S  629   6.416   4.972   5.639
    3OL     C15  630   6.417   5.058   5.447
    3OL     H5R  631   6.455   4.971   5.392
    3OL     H5S  632   6.503   5.120   5.475
    3OL     C16  633   6.329   5.140   5.353
    3OL     H6R  634   6.322   5.243   5.389
    3OL     H6S  635   6.225   5.108   5.340
    3OL     C17  636   6.384   5.138   5.210
    3OL     H7R  637   6.375   5.042   5.159
    3OL     H7S  638   6.489   5.169   5.201
    3OL     C18  639   6.314   5.233   5.112
    3OL     H8R  640   6.335   5.337   5.140
    3OL     H8S  641   6.207   5.215   5.128
    3OL     C19  642   6.345   5.208   4.967
    3OL     H9R  643   6.443   5.167   4.946
    3OL    C110  644   6.269   5.227   4.860
    3OL    H10R  645   6.300   5.186   4.764
    3OL    C111  646   6.134   5.295   4.853
    3OL    H11R  647   6.092   5.325   4.949
    3OL    H11S  648   6.060   5.220   4.825
    3OL    C112  649   6.133   5.409   4.751
    3OL    H12R  650   6.184   5.378   4.660
    3OL    H12S  651   6.187   5.496   4.791
    3OL    C113  652   5.997   5.468   4.713
    3OL    H13R  653   5.951   5.388   4.654
    3OL    H13S  654   6.029   5.553   4.653
    3OL    C114  655   5.906   5.509   4.830
    3OL    H14R  656   5.958   5.587   4.886
    3OL    H14S  657   5.891   5.431   4.904
    3OL    C115  658   5.771   5.562   4.780
    3OL    H15R  659   5.717   5.487   4.722
    3OL    H15S  660   5.792   5.649   4.718
    3OL    C116  661   5.676   5.614   4.889
    3OL    H16R  662   5.719   5.692   4.952
    3OL    H16S  663   5.667   5.532   4.961
    3OL    C117  664   5.542   5.658   4.829
    3OL    H17R  665   5.489   5.578   4.777
    3OL    H17S  666   5.552   5.744   4.763
    3OL    C118  667   5.442   5.700   4.938
    3OL    H18R  668   5.464   5.800   4.976
    3OL    H18S  669   5.454   5.639   5.027
    3OL    H18T  670   5.340   5.702   4.900
    1PA    C116  671   5.334   0.748   3.947
    1PA    H16R  672   5.440   0.768   3.965
    1PA    H16S  673   5.308   0.795   3.853
    1PA    H16T  674   5.323   0.640   3.932
    1PA    C115  675   5.255   0.806   4.065
    1PA    H15R  676   5.277   0.912   4.068
    1PA    H15S  677   5.151   0.789   4.035
    1PA    C114  678   5.301   0.711   4.177
    1PA    H14R  679   5.284   0.604   4.163
    1PA    H14S  680   5.409   0.724   4.176
    1PA    C113  681   5.249   0.757   4.314
    1PA    H13R  682   5.151   0.805   4.306
    1PA    H13S  683   5.229   0.664   4.366
    1PA    C112  684   5.347   0.843   4.394
    1PA    H12R  685   5.384   0.924   4.330
    1PA    H12S  686   5.299   0.891   4.480
    1PA    C111  687   5.459   0.758   4.457
    1PA    H11R  688   5.412   0.690   4.527
    1PA    H11S  689   5.511   0.706   4.376
    1PA    C110  690   5.548   0.850   4.542
    1PA    H10R  691   5.578   0.936   4.481
    1PA    H10S  692   5.486   0.897   4.619
    1PA     C19  693   5.666   0.778   4.607
    1PA     H9R  694   5.706   0.703   4.538
    1PA     H9S  695   5.742   0.854   4.626
    1PA     C18  696   5.638   0.696   4.734
    1PA     H8R  697   5.592   0.758   4.811
    1PA     H8S  698   5.565   0.621   4.701
    1PA     C17  699   5.768   0.630   4.780
    1PA     H7R  700   5.791   0.559   4.700
    1PA     H7S  701   5.843   0.709   4.783
    1PA     C16  702   5.749   0.556   4.914
    1PA     H6R  703   5.660   0.494   4.914
    1PA     H6S  704   5.829   0.485   4.937
    1PA     C15  705   5.744   0.655   5.031
    1PA     H5R  706   5.829   0.724   5.032
    1PA     H5S  707   5.658   0.720   5.011
    1PA     C14  708   5.735   0.576   5.162
    1PA     H4R  709   5.639   0.523   5.161
    1PA     H4S  710   5.815   0.503   5.171
    1PA     C13  711   5.748   0.663   5.288
    1PA     H3R  712   5.830   0.732   5.268
    1PA     H3S  713   5.656   0.719   5.305
    1PA     C12  714   5.771   0.567   5.405
    1PA     H2R  715   5.713   0.476   5.385
    1PA     H2S  716   5.877   0.540   5.409
    2PC     C11  717   5.731   0.626   5.538
    2PC     O12  718   5.684   0.738   5.549
    2PC     O11  719   5.756   0.540   5.638
    2PC      C1  720   5.739   0.582   5.774
    2PC      HR  721   5.657   0.654   5.778
    2PC      HS  722   5.706   0.499   5.836
    2PC      C2  723   5.870   0.622   5.845
    2PC      HX  724   5.958   0.569   5.807
    2PC      C3  725   5.857   0.612   5.997
    2PC      HA  726   5.917   0.695   6.034
    2PC      HB  727   5.753   0.626   6.029
    2PC     O31  728   5.908   0.482   6.034
    2PC     P31  729   5.902   0.447   6.190
    2PC     O32  730   6.015   0.334   6.207
    2PC     C31  731   6.136   0.369   6.276
    2PC     H1A  732   6.177   0.466   6.246
    2PC     H1B  733   6.124   0.367   6.385
    2PC     C32  734   6.236   0.262   6.233
    2PC     H2A  735   6.205   0.161   6.260
    2PC     H2B  736   6.252   0.279   6.127
    2PC     N31  737   6.369   0.252   6.302
    2PC     C33  738   6.350   0.185   6.435
    2PC     H3A  739   6.284   0.099   6.441
    2PC     H3B  740   6.444   0.154   6.481
    2PC     H3C  741   6.313   0.262   6.503
    2PC     C34  742   6.447   0.163   6.210
    2PC     H4A  743   6.433   0.057   6.227
    2PC     H4B  744   6.409   0.178   6.109
    2PC     H4C  745   6.553   0.189   6.218
    2PC     C35  746   6.435   0.386   6.315
    2PC     H5A  747   6.537   0.370   6.350
    2PC     H5B  748   6.368   0.436   6.385
    2PC     H5C  749   6.439   0.436   6.218
    2PC     O33  750   5.930   0.563   6.277
    2PC     O34  751   5.763   0.404   6.218
    2PC     O21  752   5.887   0.763   5.823
    2PC     C21  753   5.959   0.798   5.715
    2PC     O22  754   6.012   0.720   5.638
    3OL     C12  755   5.968   0.948   5.704
    3OL     H2R  756   6.072   0.982   5.695
    3OL     H2S  757   5.923   0.986   5.796
    3OL     C13  758   5.882   0.998   5.588
    3OL     H3R  759   5.851   1.097   5.624
    3OL     H3S  760   5.798   0.929   5.591
    3OL     C14  761   5.941   0.994   5.446
    3OL     H4R  762   5.873   1.003   5.361
    3OL     H4S  763   5.984   0.893   5.444
    3OL     C15  764   6.054   1.096   5.432
    3OL     H5R  765   6.114   1.063   5.346
    3OL     H5S  766   6.123   1.095   5.517
    3OL     C16  767   6.001   1.240   5.418
    3OL     H6R  768   5.944   1.263   5.508
    3OL     H6S  769   5.931   1.239   5.335
    3OL     C17  770   6.110   1.347   5.399
    3OL     H7R  771   6.178   1.350   5.484
    3OL     H7S  772   6.057   1.442   5.398
    3OL     C18  773   6.199   1.341   5.274
    3OL     H8R  774   6.235   1.242   5.245
    3OL     H8S  775   6.284   1.409   5.285
    3OL     C19  776   6.111   1.390   5.163
    3OL     H9R  777   6.035   1.328   5.116
    3OL    C110  778   6.120   1.503   5.094
    3OL    H10R  779   6.046   1.513   5.015
    3OL    C111  780   6.212   1.621   5.110
    3OL    H11R  781   6.235   1.653   5.212
    3OL    H11S  782   6.142   1.701   5.084
    3OL    C112  783   6.326   1.639   5.009
    3OL    H12R  784   6.403   1.568   5.042
    3OL    H12S  785   6.368   1.738   5.028
    3OL    C113  786   6.298   1.620   4.859
    3OL    H13R  787   6.234   1.693   4.809
    3OL    H13S  788   6.246   1.524   4.849
    3OL    C114  789   6.425   1.607   4.775
    3OL    H14R  790   6.415   1.560   4.677
    3OL    H14S  791   6.496   1.540   4.823
    3OL    C115  792   6.472   1.750   4.742
    3OL    H15R  793   6.496   1.803   4.834
    3OL    H15S  794   6.388   1.789   4.684
    3OL    C116  795   6.593   1.749   4.647
    3OL    H16R  796   6.587   1.676   4.566
    3OL    H16S  797   6.683   1.725   4.703
    3OL    C117  798   6.611   1.885   4.577
    3OL    H17R  799   6.619   1.964   4.652
    3OL    H17S  800   6.519   1.898   4.520
    3OL    C118  801   6.730   1.878   4.480
    3OL    H18R  802   6.732   1.788   4.418
    3OL    H18S  803   6.815   1.878   4.548
    3OL    H18T  804   6.739   1.963   4.411
    1PA    C116  805   4.428   5.243   3.466
    1PA    H16R  806   4.493   5.230   3.554
    1PA    H16S  807   4.405   5.348   3.449
    1PA    H16T  808   4.478   5.211   3.374
    1PA    C115  809   4.304   5.159   3.498
    1PA    H15R  810   4.221   5.170   3.428
    1PA    H15S  811   4.312   5.051   3.507
    1PA    C114  812   4.235   5.204   3.628
    1PA    H14R  813   4.236   5.312   3.639
    1PA    H14S  814   4.128   5.182   3.626
    1PA    C113  815   4.304   5.137   3.747
    1PA    H13R  816   4.319   5.030   3.732
    1PA    H13S  817   4.405   5.171   3.773
    1PA    C112  818   4.212   5.147   3.869
    1PA    H12R  819   4.203   5.253   3.895
    1PA    H12S  820   4.112   5.112   3.842
    1PA    C111  821   4.265   5.068   3.989
    1PA    H11R  822   4.271   4.961   3.965
    1PA    H11S  823   4.367   5.101   4.011
    1PA    C110  824   4.167   5.096   4.103
    1PA    H10R  825   4.168   5.202   4.129
    1PA    H10S  826   4.067   5.072   4.067
    1PA     C19  827   4.211   5.025   4.232
    1PA     H9R  828   4.211   4.919   4.209
    1PA     H9S  829   4.315   5.052   4.252
    1PA     C18  830   4.123   5.057   4.354
    1PA     H8R  831   4.019   5.031   4.332
    1PA     H8S  832   4.148   4.993   4.439
    1PA     C17  833   4.140   5.201   4.405
    1PA     H7R  834   4.117   5.269   4.323
    1PA     H7S  835   4.063   5.209   4.481
    1PA     C16  836   4.278   5.235   4.463
    1PA     H6R  837   4.359   5.181   4.413
    1PA     H6S  838   4.297   5.340   4.438
    1PA     C15  839   4.282   5.226   4.616
    1PA     H5R  840   4.373   5.279   4.646
    1PA     H5S  841   4.196   5.274   4.665
    1PA     C14  842   4.285   5.085   4.676
    1PA     H4R  843   4.194   5.036   4.641
    1PA     H4S  844   4.377   5.034   4.648
    1PA     C13  845   4.280   5.090   4.830
    1PA     H3R  846   4.380   5.129   4.853
    1PA     H3S  847   4.201   5.155   4.868
    1PA     C12  848   4.267   4.954   4.899
    1PA     H2R  849   4.166   4.915   4.883
    1PA     H2S  850   4.342   4.889   4.851
    2PC     C11  851   4.300   4.960   5.046
    2PC     O12  852   4.313   5.058   5.115
    2PC     O11  853   4.310   4.833   5.089
    2PC      C1  854   4.351   4.824   5.227
    2PC      HR  855   4.446   4.876   5.238
    2PC      HS  856   4.276   4.868   5.293
    2PC      C2  857   4.379   4.675   5.251
    2PC      HX  858   4.302   4.619   5.196
    2PC      C3  859   4.362   4.643   5.400
    2PC      HA  860   4.260   4.637   5.439
    2PC      HB  861   4.419   4.553   5.424
    2PC     O31  862   4.433   4.745   5.473
    2PC     P31  863   4.432   4.738   5.633
    2PC     O32  864   4.387   4.889   5.663
    2PC     C31  865   4.254   4.928   5.623
    2PC     H1A  866   4.237   4.934   5.515
    2PC     H1B  867   4.180   4.864   5.673
    2PC     C32  868   4.248   5.077   5.656
    2PC     H2A  869   4.308   5.132   5.583
    2PC     H2B  870   4.150   5.110   5.623
    2PC     N31  871   4.270   5.120   5.798
    2PC     C33  872   4.414   5.140   5.834
    2PC     H3A  873   4.459   5.202   5.757
    2PC     H3B  874   4.426   5.192   5.929
    2PC     H3C  875   4.468   5.045   5.832
    2PC     C34  876   4.192   5.247   5.819
    2PC     H4A  877   4.085   5.230   5.811
    2PC     H4B  878   4.222   5.285   5.917
    2PC     H4C  879   4.228   5.327   5.755
    2PC     C35  880   4.212   5.019   5.892
    2PC     H5A  881   4.110   5.006   5.857
    2PC     H5B  882   4.204   5.066   5.990
    2PC     H5C  883   4.271   4.927   5.889
    2PC     O33  884   4.341   4.634   5.686
    2PC     O34  885   4.554   4.699   5.707
    2PC     O21  886   4.509   4.642   5.199
    2PC     C21  887   4.535   4.512   5.175
    2PC     O22  888   4.449   4.428   5.161
    3OL     C12  889   4.682   4.481   5.161
    3OL     H2R  890   4.724   4.550   5.088
    3OL     H2S  891   4.687   4.381   5.119
    3OL     C13  892   4.756   4.485   5.296
    3OL     H3R  893   4.728   4.412   5.373
    3OL     H3S  894   4.732   4.584   5.334
    3OL     C14  895   4.907   4.471   5.276
    3OL     H4R  896   4.925   4.377   5.224
    3OL     H4S  897   4.948   4.460   5.376
    3OL     C15  898   4.977   4.588   5.205
    3OL     H5R  899   4.979   4.680   5.264
    3OL     H5S  900   4.916   4.610   5.117
    3OL     C16  901   5.119   4.561   5.155
    3OL     H6R  902   5.106   4.489   5.074
    3OL     H6S  903   5.180   4.516   5.234
    3OL     C17  904   5.178   4.684   5.084
    3OL     H7R  905   5.216   4.758   5.156
    3OL     H7S  906   5.106   4.724   5.012
    3OL     C18  907   5.316   4.658   5.024
    3OL     H8R  908   5.351   4.738   4.958
    3OL     H8S  909   5.298   4.569   4.962
    3OL     C19  910   5.430   4.633   5.120
    3OL     H9R  911   5.417   4.554   5.194
    3OL    C110  912   5.546   4.697   5.122
    3OL    H10R  913   5.616   4.668   5.199
    3OL    C111  914   5.586   4.817   5.039
    3OL    H11R  915   5.522   4.905   5.039
    3OL    H11S  916   5.594   4.780   4.937
    3OL    C112  917   5.726   4.874   5.067
    3OL    H12R  918   5.807   4.807   5.038
    3OL    H12S  919   5.734   4.872   5.176
    3OL    C113  920   5.736   5.020   5.021
    3OL    H13R  921   5.836   5.057   5.042
    3OL    H13S  922   5.665   5.083   5.075
    3OL    C114  923   5.715   5.027   4.869
    3OL    H14R  924   5.610   5.012   4.843
    3OL    H14S  925   5.767   4.952   4.809
    3OL    C115  926   5.756   5.161   4.808
    3OL    H15R  927   5.851   5.197   4.847
    3OL    H15S  928   5.685   5.239   4.838
    3OL    C116  929   5.757   5.170   4.654
    3OL    H16R  930   5.847   5.122   4.618
    3OL    H16S  931   5.772   5.274   4.622
    3OL    C117  932   5.630   5.120   4.584
    3OL    H17R  933   5.615   5.181   4.495
    3OL    H17S  934   5.536   5.148   4.633
    3OL    C118  935   5.643   4.972   4.544
    3OL    H18R  936   5.554   4.938   4.491
    3OL    H18S  937   5.672   4.900   4.620
    3OL    H18T  938   5.729   4.968   4.476
    1PA    C116  939  -0.176   0.859   4.556
    1PA    H16R  940  -0.222   0.918   4.476
    1PA    H16S  941  -0.231   0.890   4.645
    1PA    H16T  942  -0.203   0.755   4.532
    1PA    C115  943  -0.023   0.872   4.563
    1PA    H15R  944   0.010   0.869   4.459
    1PA    H15S  945   0.000   0.973   4.597
    1PA    C114  946   0.060   0.776   4.649
    1PA    H14R  947   0.006   0.730   4.732
    1PA    H14S  948   0.086   0.691   4.585
    1PA    C113  949   0.193   0.839   4.690
    1PA    H13R  950   0.246   0.888   4.608
    1PA    H13S  951   0.168   0.917   4.763
    1PA    C112  952   0.280   0.740   4.769
    1PA    H12R  953   0.269   0.640   4.725
    1PA    H12S  954   0.383   0.774   4.769
    1PA    C111  955   0.236   0.733   4.916
    1PA    H11R  956   0.250   0.833   4.958
    1PA    H11S  957   0.130   0.708   4.921
    1PA    C110  958   0.317   0.625   4.988
    1PA    H10R  959   0.286   0.531   4.941
    1PA    H10S  960   0.426   0.627   4.987
    1PA     C19  961   0.290   0.601   5.137
    1PA     H9R  962   0.184   0.587   5.160
    1PA     H9S  963   0.341   0.511   5.173
    1PA     C18  964   0.341   0.719   5.220
    1PA     H8R  965   0.423   0.772   5.169
    1PA     H8S  966   0.264   0.797   5.220
    1PA     C17  967   0.355   0.679   5.367
    1PA     H7R  968   0.263   0.641   5.412
    1PA     H7S  969   0.429   0.602   5.388
    1PA     C16  970   0.402   0.798   5.452
    1PA     H6R  971   0.478   0.856   5.398
    1PA     H6S  972   0.313   0.860   5.463
    1PA     C15  973   0.448   0.745   5.588
    1PA     H5R  974   0.438   0.816   5.670
    1PA     H5S  975   0.386   0.661   5.621
    1PA     C14  976   0.597   0.707   5.583
    1PA     H4R  977   0.605   0.611   5.531
    1PA     H4S  978   0.652   0.781   5.525
    1PA     C13  979   0.674   0.692   5.715
    1PA     H3R  980   0.661   0.782   5.774
    1PA     H3S  981   0.638   0.607   5.774
    1PA     C12  982   0.823   0.673   5.687
    1PA     H2R  983   0.852   0.584   5.630
    1PA     H2S  984   0.858   0.756   5.625
    2PC     C11  985   0.908   0.668   5.811
    2PC     O12  986   0.868   0.715   5.916
    2PC     O11  987   1.037   0.640   5.785
    2PC      C1  988   1.129   0.649   5.895
    2PC      HR  989   1.129   0.756   5.915
    2PC      HS  990   1.091   0.585   5.975
    2PC      C2  991   1.265   0.600   5.843
    2PC      HX  992   1.246   0.503   5.797
    2PC      C3  993   1.372   0.587   5.952
    2PC      HA  994   1.356   0.499   6.015
    2PC      HB  995   1.478   0.591   5.925
    2PC     O31  996   1.361   0.701   6.038
    2PC     P31  997   1.442   0.706   6.176
    2PC     O32  998   1.587   0.759   6.132
    2PC     C31  999   1.595   0.870   6.042
    2PC     H1A 1000   1.540   0.865   5.948
    2PC     H1B 1001   1.565   0.963   6.092
    2PC     C32 1002   1.742   0.879   6.001
    2PC     H2A 1003   1.808   0.874   6.088
    2PC     H2B 1004   1.770   0.789   5.946
    2PC     N31 1005   1.797   0.993   5.920
    2PC     C33 1006   1.808   1.110   6.013
    2PC     H3A 1007   1.853   1.196   5.962
    2PC     H3B 1008   1.706   1.148   6.023
    2PC     H3C 1009   1.858   1.084   6.106
    2PC     C34 1010   1.927   0.959   5.855
    2PC     H4A 1011   1.988   1.050   5.855
    2PC     H4B 1012   1.977   0.880   5.912
    2PC     H4C 1013   1.904   0.930   5.752
    2PC     C35 1014   1.699   1.030   5.813
    2PC     H5A 1015   1.603   1.044   5.863
    2PC     H5B 1016   1.686   0.951   5.738
    2PC     H5C 1017   1.738   1.122   5.770
    2PC     O33 1018   1.382   0.812   6.261
    2PC     O34 1019   1.462   0.579   6.250
    2PC     O21 1020   1.315   0.686   5.739
    2PC     C21 1021   1.382   0.646   5.630
    2PC     O22 1022   1.423   0.532   5.623
    3OL     C12 1023   1.400   0.751   5.523
    3OL     H2R 1024   1.466   0.825   5.567
    3OL     H2S 1025   1.299   0.789   5.503
    3OL     C13 1026   1.466   0.697   5.395
    3OL     H3R 1027   1.393   0.632   5.349
    3OL     H3S 1028   1.558   0.641   5.413
    3OL     C14 1029   1.503   0.815   5.304
    3OL     H4R 1030   1.569   0.885   5.356
    3OL     H4S 1031   1.408   0.865   5.282
    3OL     C15 1032   1.573   0.768   5.176
    3OL     H5R 1033   1.500   0.704   5.126
    3OL     H5S 1034   1.664   0.713   5.199
    3OL     C16 1035   1.602   0.891   5.089
    3OL     H6R 1036   1.649   0.967   5.152
    3OL     H6S 1037   1.509   0.923   5.041
    3OL     C17 1038   1.700   0.857   4.976
    3OL     H7R 1039   1.656   0.768   4.930
    3OL     H7S 1040   1.801   0.836   5.014
    3OL     C18 1041   1.712   0.961   4.864
    3OL     H8R 1042   1.769   1.041   4.910
    3OL     H8S 1043   1.614   0.983   4.821
    3OL     C19 1044   1.800   0.906   4.754
    3OL     H9R 1045   1.902   0.943   4.759
    3OL    C110 1046   1.746   0.840   4.653
    3OL    H10R 1047   1.809   0.819   4.566
    3OL    C111 1048   1.604   0.789   4.651
    3OL    H11R 1049   1.530   0.866   4.627
    3OL    H11S 1050   1.576   0.751   4.749
    3OL    C112 1051   1.589   0.671   4.555
    3OL    H12R 1052   1.624   0.577   4.598
    3OL    H12S 1053   1.653   0.684   4.467
    3OL    C113 1054   1.445   0.657   4.505
    3OL    H13R 1055   1.403   0.753   4.474
    3OL    H13S 1056   1.388   0.633   4.595
    3OL    C114 1057   1.435   0.546   4.399
    3OL    H14R 1058   1.532   0.518   4.358
    3OL    H14S 1059   1.369   0.580   4.319
    3OL    C115 1060   1.367   0.420   4.454
    3OL    H15R 1061   1.425   0.382   4.539
    3OL    H15S 1062   1.374   0.348   4.372
    3OL    C116 1063   1.222   0.451   4.493
    3OL    H16R 1064   1.203   0.528   4.569
    3OL    H16S 1065   1.173   0.487   4.402
    3OL    C117 1066   1.156   0.324   4.548
    3OL    H17R 1067   1.200   0.290   4.642
    3OL    H17S 1068   1.165   0.245   4.474
    3OL    C118 1069   1.008   0.356   4.569
    3OL    H18R 1070   0.951   0.263   4.578
    3OL    H18S 1071   0.992   0.407   4.664
    3OL    H18T 1072   0.961   0.411   4.487
    1PA    C116 1073   4.999   1.056   4.305
    1PA    H16R 1074   4.963   1.021   4.208
    1PA    H16S 1075   5.001   0.968   4.369
    1PA    H16T 1076   5.104   1.086   4.296
    1PA    C115 1077   4.907   1.170   4.351
    1PA    H15R 1078   4.938   1.265   4.309
    1PA    H15S 1079   4.813   1.137   4.306
    1PA    C114 1080   4.910   1.193   4.503
    1PA    H14R 1081   5.012   1.189   4.541
    1PA    H14S 1082   4.875   1.296   4.512
    1PA    C113 1083   4.812   1.093   4.568
    1PA    H13R 1084   4.808   1.009   4.498
    1PA    H13S 1085   4.853   1.054   4.661
    1PA    C112 1086   4.667   1.143   4.578
    1PA    H12R 1087   4.667   1.235   4.638
    1PA    H12S 1088   4.629   1.162   4.478
    1PA    C111 1089   4.577   1.044   4.652
    1PA    H11R 1090   4.472   1.074   4.641
    1PA    H11S 1091   4.591   0.949   4.600
    1PA    C110 1092   4.616   1.025   4.799
    1PA    H10R 1093   4.718   0.986   4.810
    1PA    H10S 1094   4.615   1.118   4.855
    1PA     C19 1095   4.519   0.923   4.861
    1PA     H9R 1096   4.420   0.965   4.879
    1PA     H9S 1097   4.503   0.849   4.782
    1PA     C18 1098   4.571   0.867   4.994
    1PA     H8R 1099   4.586   0.953   5.059
    1PA     H8S 1100   4.497   0.811   5.052
    1PA     C17 1101   4.697   0.780   4.976
    1PA     H7R 1102   4.669   0.715   4.893
    1PA     H7S 1103   4.783   0.846   4.961
    1PA     C16 1104   4.719   0.694   5.101
    1PA     H6R 1105   4.736   0.750   5.194
    1PA     H6S 1106   4.640   0.622   5.126
    1PA     C15 1107   4.845   0.609   5.084
    1PA     H5R 1108   4.836   0.551   5.176
    1PA     H5S 1109   4.822   0.540   5.003
    1PA     C14 1110   4.987   0.669   5.091
    1PA     H4R 1111   5.055   0.619   5.022
    1PA     H4S 1112   4.995   0.776   5.070
    1PA     C13 1113   5.046   0.655   5.232
    1PA     H3R 1114   4.981   0.701   5.306
    1PA     H3S 1115   5.065   0.549   5.253
    1PA     C12 1116   5.173   0.742   5.236
    1PA     H2R 1117   5.249   0.719   5.162
    1PA     H2S 1118   5.141   0.844   5.215
    2PC     C11 1119   5.226   0.734   5.377
    2PC     O12 1120   5.190   0.664   5.470
    2PC     O11 1121   5.318   0.828   5.399
    2PC      C1 1122   5.375   0.851   5.530
    2PC      HR 1123   5.302   0.866   5.610
    2PC      HS 1124   5.437   0.764   5.553
    2PC      C2 1125   5.479   0.963   5.527
    2PC      HX 1126   5.556   0.939   5.454
    2PC      C3 1127   5.538   0.987   5.667
    2PC      HA 1128   5.565   0.884   5.692
    2PC      HB 1129   5.636   1.035   5.666
    2PC     O31 1130   5.441   1.053   5.751
    2PC     P31 1131   5.458   1.058   5.910
    2PC     O32 1132   5.593   1.139   5.934
    2PC     C31 1133   5.724   1.079   5.935
    2PC     H1A 1134   5.723   0.993   5.868
    2PC     H1B 1135   5.797   1.152   5.900
    2PC     C32 1136   5.771   1.035   6.075
    2PC     H2A 1137   5.710   0.950   6.106
    2PC     H2B 1138   5.876   1.005   6.071
    2PC     N31 1139   5.759   1.131   6.190
    2PC     C33 1140   5.616   1.154   6.228
    2PC     H3A 1141   5.568   1.061   6.259
    2PC     H3B 1142   5.616   1.227   6.309
    2PC     H3C 1143   5.563   1.193   6.140
    2PC     C34 1144   5.831   1.093   6.315
    2PC     H4A 1145   5.938   1.081   6.298
    2PC     H4B 1146   5.814   1.172   6.389
    2PC     H4C 1147   5.777   1.003   6.346
    2PC     C35 1148   5.805   1.270   6.158
    2PC     H5A 1149   5.749   1.340   6.220
    2PC     H5B 1150   5.783   1.284   6.052
    2PC     H5C 1151   5.912   1.269   6.178
    2PC     O33 1152   5.336   1.107   5.978
    2PC     O34 1153   5.468   0.922   5.969
    2PC     O21 1154   5.424   1.087   5.478
    2PC     C21 1155   5.497   1.199   5.472
    2PC     O22 1156   5.617   1.212   5.477
    3OL     C12 1157   5.419   1.327   5.463
    3OL     H2R 1158   5.404   1.365   5.564
    3OL     H2S 1159   5.323   1.325   5.411
    3OL     C13 1160   5.496   1.431   5.380
    3OL     H3R 1161   5.597   1.448   5.420
    3OL     H3S 1162   5.442   1.525   5.391
    3OL     C14 1163   5.505   1.384   5.235
    3OL     H4R 1164   5.404   1.373   5.194
    3OL     H4S 1165   5.545   1.283   5.228
    3OL     C15 1166   5.581   1.482   5.145
    3OL     H5R 1167   5.671   1.518   5.195
    3OL     H5S 1168   5.513   1.567   5.151
    3OL     C16 1169   5.588   1.421   5.005
    3OL     H6R 1170   5.490   1.382   4.978
    3OL     H6S 1171   5.654   1.334   5.011
    3OL     C17 1172   5.638   1.523   4.901
    3OL     H7R 1173   5.594   1.622   4.918
    3OL     H7S 1174   5.613   1.485   4.802
    3OL     C18 1175   5.791   1.534   4.909
    3OL     H8R 1176   5.832   1.433   4.916
    3OL     H8S 1177   5.830   1.589   4.996
    3OL     C19 1178   5.850   1.601   4.788
    3OL     H9R 1179   5.847   1.709   4.795
    3OL    C110 1180   5.913   1.534   4.693
    3OL    H10R 1181   5.953   1.585   4.605
    3OL    C111 1182   5.910   1.385   4.671
    3OL    H11R 1183   5.825   1.337   4.721
    3OL    H11S 1184   6.000   1.345   4.717
    3OL    C112 1185   5.903   1.347   4.522
    3OL    H12R 1186   5.990   1.390   4.472
    3OL    H12S 1187   5.828   1.400   4.463
    3OL    C113 1188   5.879   1.197   4.501
    3OL    H13R 1189   5.778   1.168   4.530
    3OL    H13S 1190   5.951   1.138   4.559
    3OL    C114 1191   5.906   1.151   4.357
    3OL    H14R 1192   6.006   1.173   4.319
    3OL    H14S 1193   5.838   1.216   4.301
    3OL    C115 1194   5.870   1.002   4.348
    3OL    H15R 1195   5.764   0.989   4.371
    3OL    H15S 1196   5.918   0.947   4.428
    3OL    C116 1197   5.914   0.925   4.223
    3OL    H16R 1198   6.023   0.934   4.221
    3OL    H16S 1199   5.872   0.980   4.138
    3OL    C117 1200   5.881   0.775   4.225
    3OL    H17R 1201   5.890   0.749   4.331
    3OL    H17S 1202   5.958   0.720   4.170
    3OL    C118 1203   5.735   0.764   4.180
    3OL    H18R 1204   5.668   0.797   4.260
    3OL    H18S 1205   5.717   0.657   4.165
    3OL    H18T 1206   5.731   0.811   4.081
    1PA    C116 1207   5.455   6.232   4.318
    1PA    H16R 1208   5.555   6.195   4.293
    1PA    H16S 1209   5.464   6.272   4.419
    1PA    H16T 1210   5.440   6.315   4.248
    1PA    C115 1211   5.342   6.128   4.312
    1PA    H15R 1212   5.250   6.186   4.322
    1PA    H15S 1213   5.345   6.068   4.221
    1PA    C114 1214   5.365   6.046   4.439
    1PA    H14R 1215   5.464   6.001   4.439
    1PA    H14S 1216   5.356   6.119   4.520
    1PA    C113 1217   5.249   5.946   4.458
    1PA    H13R 1218   5.159   6.007   4.451
    1PA    H13S 1219   5.241   5.879   4.373
    1PA    C112 1220   5.259   5.867   4.589
    1PA    H12R 1221   5.350   5.806   4.583
    1PA    H12S 1222   5.268   5.926   4.680
    1PA    C111 1223   5.145   5.768   4.614
    1PA    H11R 1224   5.141   5.684   4.544
    1PA    H11S 1225   5.154   5.710   4.707
    1PA    C110 1226   5.002   5.824   4.614
    1PA    H10R 1227   4.976   5.866   4.517
    1PA    H10S 1228   4.943   5.733   4.625
    1PA     C19 1229   4.966   5.915   4.732
    1PA     H9R 1230   5.044   5.986   4.760
    1PA     H9S 1231   4.873   5.966   4.706
    1PA     C18 1232   4.942   5.830   4.858
    1PA     H8R 1233   4.854   5.769   4.836
    1PA     H8S 1234   5.031   5.769   4.873
    1PA     C17 1235   4.914   5.906   4.988
    1PA     H7R 1236   4.824   5.967   4.971
    1PA     H7S 1237   4.891   5.843   5.074
    1PA     C16 1238   5.022   6.008   5.025
    1PA     H6R 1239   5.116   5.953   5.014
    1PA     H6S 1240   5.036   6.093   4.957
    1PA     C15 1241   5.008   6.068   5.166
    1PA     H5R 1242   5.065   6.161   5.169
    1PA     H5S 1243   4.903   6.095   5.178
    1PA     C14 1244   5.047   5.970   5.277
    1PA     H4R 1245   4.969   5.894   5.275
    1PA     H4S 1246   5.146   5.926   5.258
    1PA     C13 1247   5.032   6.037   5.414
    1PA     H3R 1248   4.937   6.091   5.424
    1PA     H3S 1249   5.017   5.956   5.486
    1PA     C12 1250   5.149   6.132   5.440
    1PA     H2R 1251   5.246   6.085   5.423
    1PA     H2S 1252   5.141   6.212   5.365
    2PC     C11 1253   5.155   6.192   5.578
    2PC     O12 1254   5.228   6.160   5.670
    2PC     O11 1255   5.060   6.286   5.584
    2PC      C1 1256   5.037   6.365   5.702
    2PC      HR 1257   5.042   6.305   5.793
    2PC      HS 1258   5.121   6.436   5.704
    2PC      C2 1259   4.895   6.422   5.697
    2PC      HX 1260   4.865   6.457   5.797
    2PC      C3 1261   4.793   6.319   5.646
    2PC      HA 1262   4.801   6.286   5.542
    2PC      HB 1263   4.809   6.234   5.712
    2PC     O31 1264   4.658   6.369   5.651
    2PC     P31 1265   4.571   6.346   5.784
    2PC     O32 1266   4.509   6.201   5.756
    2PC     C31 1267   4.374   6.204   5.708
    2PC     H1A 1268   4.315   6.254   5.785
    2PC     H1B 1269   4.357   6.261   5.616
    2PC     C32 1270   4.331   6.060   5.676
    2PC     H2A 1271   4.235   6.057   5.626
    2PC     H2B 1272   4.408   6.023   5.607
    2PC     N31 1273   4.322   5.947   5.774
    2PC     C33 1274   4.448   5.917   5.849
    2PC     H3A 1275   4.528   5.939   5.777
    2PC     H3B 1276   4.460   5.977   5.939
    2PC     H3C 1277   4.455   5.810   5.869
    2PC     C34 1278   4.230   5.982   5.887
    2PC     H4A 1279   4.255   6.078   5.932
    2PC     H4B 1280   4.124   5.973   5.861
    2PC     H4C 1281   4.243   5.906   5.965
    2PC     C35 1282   4.269   5.820   5.715
    2PC     H5A 1283   4.312   5.741   5.776
    2PC     H5B 1284   4.294   5.809   5.609
    2PC     H5C 1285   4.161   5.830   5.730
    2PC     O33 1286   4.650   6.362   5.908
    2PC     O34 1287   4.466   6.445   5.816
    2PC     O21 1288   4.884   6.533   5.607
    2PC     C21 1289   4.944   6.649   5.641
    2PC     O22 1290   5.008   6.662   5.744
    3OL     C12 1291   4.915   6.756   5.539
    3OL     H2R 1292   4.918   6.715   5.437
    3OL     H2S 1293   4.995   6.829   5.539
    3OL     C13 1294   4.783   6.823   5.578
    3OL     H3R 1295   4.780   6.919   5.526
    3OL     H3S 1296   4.767   6.837   5.686
    3OL     C14 1297   4.664   6.741   5.527
    3OL     H4R 1298   4.575   6.767   5.584
    3OL     H4S 1299   4.676   6.632   5.536
    3OL     C15 1300   4.659   6.751   5.374
    3OL     H5R 1301   4.761   6.740   5.337
    3OL     H5S 1302   4.623   6.852   5.353
    3OL     C16 1303   4.567   6.654   5.297
    3OL     H6R 1304   4.585   6.679   5.192
    3OL     H6S 1305   4.462   6.673   5.316
    3OL     C17 1306   4.580   6.504   5.324
    3OL     H7R 1307   4.567   6.474   5.429
    3OL     H7S 1308   4.684   6.480   5.304
    3OL     C18 1309   4.482   6.415   5.246
    3OL     H8R 1310   4.381   6.457   5.243
    3OL     H8S 1311   4.477   6.320   5.299
    3OL     C19 1312   4.536   6.394   5.107
    3OL     H9R 1313   4.515   6.483   5.048
    3OL    C110 1314   4.568   6.279   5.050
    3OL    H10R 1315   4.600   6.264   4.948
    3OL    C111 1316   4.570   6.148   5.126
    3OL    H11R 1317   4.609   6.165   5.226
    3OL    H11S 1318   4.630   6.072   5.076
    3OL    C112 1319   4.430   6.084   5.133
    3OL    H12R 1320   4.384   6.106   5.037
    3OL    H12S 1321   4.382   6.129   5.220
    3OL    C113 1322   4.435   5.931   5.139
    3OL    H13R 1323   4.493   5.886   5.057
    3OL    H13S 1324   4.333   5.894   5.125
    3OL    C114 1325   4.463   5.875   5.279
    3OL    H14R 1326   4.397   5.790   5.297
    3OL    H14S 1327   4.428   5.937   5.362
    3OL    C115 1328   4.612   5.840   5.295
    3OL    H15R 1329   4.674   5.929   5.299
    3OL    H15S 1330   4.656   5.788   5.210
    3OL    C116 1331   4.629   5.748   5.417
    3OL    H16R 1332   4.729   5.705   5.413
    3OL    H16S 1333   4.554   5.671   5.401
    3OL    C117 1334   4.611   5.812   5.556
    3OL    H17R 1335   4.609   5.732   5.630
    3OL    H17S 1336   4.516   5.865   5.553
    3OL    C118 1337   4.734   5.900   5.582
    3OL    H18R 1338   4.731   5.946   5.681
    3OL    H18S 1339   4.751   5.977   5.507
    3OL    H18T 1340   4.824   5.838   5.589
    1PA    C116 1341   5.402   4.636   4.337
    1PA    H16R 1342   5.467   4.624   4.250
    1PA    H16S 1343   5.441   4.567   4.413
    1PA    H16T 1344   5.415   4.737   4.377
    1PA    C115 1345   5.258   4.604   4.295
    1PA    H15R 1346   5.222   4.674   4.219
    1PA    H15S 1347   5.244   4.504   4.252
    1PA    C114 1348   5.164   4.612   4.416
    1PA    H14R 1349   5.070   4.563   4.389
    1PA    H14S 1350   5.214   4.543   4.485
    1PA    C113 1351   5.140   4.751   4.475
    1PA    H13R 1352   5.236   4.803   4.482
    1PA    H13S 1353   5.072   4.811   4.414
    1PA    C112 1354   5.077   4.745   4.614
    1PA    H12R 1355   4.981   4.697   4.595
    1PA    H12S 1356   5.136   4.684   4.683
    1PA    C111 1357   5.067   4.884   4.679
    1PA    H11R 1358   5.034   4.961   4.609
    1PA    H11S 1359   4.992   4.874   4.758
    1PA    C110 1360   5.201   4.930   4.738
    1PA    H10R 1361   5.235   4.867   4.820
    1PA    H10S 1362   5.273   4.930   4.656
    1PA     C19 1363   5.194   5.073   4.791
    1PA     H9R 1364   5.171   5.152   4.719
    1PA     H9S 1365   5.107   5.079   4.858
    1PA     C18 1366   5.314   5.114   4.878
    1PA     H8R 1367   5.340   5.032   4.945
    1PA     H8S 1368   5.403   5.136   4.820
    1PA     C17 1369   5.263   5.231   4.964
    1PA     H7R 1370   5.236   5.313   4.897
    1PA     H7S 1371   5.183   5.210   5.035
    1PA     C16 1372   5.385   5.282   5.041
    1PA     H6R 1373   5.435   5.197   5.087
    1PA     H6S 1374   5.447   5.315   4.956
    1PA     C15 1375   5.352   5.390   5.144
    1PA     H5R 1376   5.301   5.476   5.101
    1PA     H5S 1377   5.284   5.346   5.218
    1PA     C14 1378   5.481   5.424   5.220
    1PA     H4R 1379   5.541   5.334   5.237
    1PA     H4S 1380   5.540   5.483   5.150
    1PA     C13 1381   5.456   5.496   5.353
    1PA     H3R 1382   5.543   5.553   5.386
    1PA     H3S 1383   5.379   5.569   5.327
    1PA     C12 1384   5.409   5.403   5.466
    1PA     H2R 1385   5.304   5.376   5.455
    1PA     H2S 1386   5.453   5.304   5.449
    2PC     C11 1387   5.436   5.461   5.602
    2PC     O12 1388   5.477   5.574   5.619
    2PC     O11 1389   5.416   5.372   5.700
    2PC      C1 1390   5.406   5.412   5.838
    2PC      HR 1391   5.405   5.320   5.898
    2PC      HS 1392   5.502   5.460   5.858
    2PC      C2 1393   5.296   5.515   5.865
    2PC      HX 1394   5.338   5.613   5.839
    2PC      C3 1395   5.252   5.507   6.012
    2PC      HA 1396   5.324   5.553   6.080
    2PC      HB 1397   5.157   5.561   6.025
    2PC     O31 1398   5.241   5.370   6.054
    2PC     P31 1399   5.189   5.345   6.203
    2PC     O32 1400   5.314   5.409   6.281
    2PC     C31 1401   5.316   5.428   6.423
    2PC     H1A 1402   5.236   5.498   6.452
    2PC     H1B 1403   5.304   5.332   6.473
    2PC     C32 1404   5.453   5.483   6.466
    2PC     H2A 1405   5.482   5.570   6.407
    2PC     H2B 1406   5.453   5.508   6.572
    2PC     N31 1407   5.568   5.387   6.462
    2PC     C33 1408   5.608   5.337   6.327
    2PC     H3A 1409   5.526   5.275   6.293
    2PC     H3B 1410   5.626   5.421   6.260
    2PC     H3C 1411   5.697   5.276   6.343
    2PC     C34 1412   5.685   5.464   6.517
    2PC     H4A 1413   5.672   5.462   6.625
    2PC     H4B 1414   5.781   5.418   6.492
    2PC     H4C 1415   5.674   5.562   6.471
    2PC     C35 1416   5.539   5.266   6.546
    2PC     H5A 1417   5.489   5.307   6.635
    2PC     H5B 1418   5.632   5.215   6.572
    2PC     H5C 1419   5.476   5.190   6.500
    2PC     O33 1420   5.060   5.414   6.224
    2PC     O34 1421   5.170   5.202   6.238
    2PC     O21 1422   5.189   5.474   5.779
    2PC     C21 1423   5.091   5.555   5.736
    2PC     O22 1424   5.087   5.672   5.768
    3OL     C12 1425   4.989   5.496   5.642
    3OL     H2R 1426   4.888   5.532   5.664
    3OL     H2S 1427   4.998   5.387   5.643
    3OL     C13 1428   5.012   5.548   5.500
    3OL     H3R 1429   5.120   5.553   5.488
    3OL     H3S 1430   4.977   5.652   5.491
    3OL     C14 1431   4.950   5.459   5.391
    3OL     H4R 1432   4.841   5.456   5.389
    3OL     H4S 1433   4.991   5.359   5.404
    3OL     C15 1434   4.990   5.513   5.254
    3OL     H5R 1435   5.091   5.555   5.252
    3OL     H5S 1436   4.928   5.600   5.234
    3OL     C16 1437   4.968   5.417   5.136
    3OL     H6R 1438   4.863   5.387   5.134
    3OL     H6S 1439   5.032   5.329   5.150
    3OL     C17 1440   4.994   5.485   5.001
    3OL     H7R 1441   5.100   5.509   4.989
    3OL     H7S 1442   4.936   5.576   4.982
    3OL     C18 1443   4.958   5.373   4.902
    3OL     H8R 1444   4.856   5.345   4.930
    3OL     H8S 1445   5.011   5.282   4.930
    3OL     C19 1446   4.976   5.413   4.758
    3OL     H9R 1447   5.066   5.472   4.743
    3OL    C110 1448   4.888   5.393   4.662
    3OL    H10R 1449   4.911   5.415   4.558
    3OL    C111 1450   4.754   5.324   4.674
    3OL    H11R 1451   4.675   5.390   4.639
    3OL    H11S 1452   4.727   5.305   4.778
    3OL    C112 1453   4.756   5.191   4.596
    3OL    H12R 1454   4.657   5.144   4.599
    3OL    H12S 1455   4.823   5.118   4.640
    3OL    C113 1456   4.797   5.204   4.449
    3OL    H13R 1457   4.826   5.103   4.420
    3OL    H13S 1458   4.895   5.251   4.438
    3OL    C114 1459   4.690   5.270   4.360
    3OL    H14R 1460   4.670   5.374   4.387
    3OL    H14S 1461   4.592   5.222   4.364
    3OL    C115 1462   4.739   5.288   4.216
    3OL    H15R 1463   4.748   5.190   4.170
    3OL    H15S 1464   4.836   5.338   4.219
    3OL    C116 1465   4.641   5.375   4.136
    3OL    H16R 1466   4.658   5.482   4.151
    3OL    H16S 1467   4.545   5.354   4.183
    3OL    C117 1468   4.634   5.325   3.991
    3OL    H17R 1469   4.613   5.218   3.998
    3OL    H17S 1470   4.724   5.352   3.935
    3OL    C118 1471   4.519   5.398   3.921
    3OL    H18R 1472   4.422   5.382   3.968
    3OL    H18S 1473   4.516   5.361   3.818
    3OL    H18T 1474   4.536   5.505   3.914
    1PA    C116 1475   6.439   4.027   4.240
    1PA    H16R 1476   6.519   3.976   4.295
    1PA    H16S 1477   6.469   4.103   4.168
    1PA    H16T 1478   6.386   3.954   4.178
    1PA    C115 1479   6.350   4.088   4.349
    1PA    H15R 1480   6.410   4.160   4.403
    1PA    H15S 1481   6.266   4.144   4.307
    1PA    C114 1482   6.284   3.983   4.440
    1PA    H14R 1483   6.235   3.896   4.395
    1PA    H14S 1484   6.371   3.953   4.498
    1PA    C113 1485   6.179   4.044   4.534
    1PA    H13R 1486   6.098   4.067   4.466
    1PA    H13S 1487   6.138   3.971   4.604
    1PA    C112 1488   6.221   4.166   4.618
    1PA    H12R 1489   6.321   4.151   4.658
    1PA    H12S 1490   6.219   4.251   4.549
    1PA    C111 1491   6.122   4.167   4.735
    1PA    H11R 1492   6.022   4.195   4.700
    1PA    H11S 1493   6.110   4.063   4.765
    1PA    C110 1494   6.169   4.242   4.861
    1PA    H10R 1495   6.133   4.188   4.949
    1PA    H10S 1496   6.277   4.237   4.846
    1PA     C19 1497   6.130   4.390   4.864
    1PA     H9R 1498   6.183   4.438   4.947
    1PA     H9S 1499   6.171   4.434   4.773
    1PA     C18 1500   5.978   4.407   4.878
    1PA     H8R 1501   5.959   4.514   4.866
    1PA     H8S 1502   5.919   4.360   4.799
    1PA     C17 1503   5.928   4.375   5.020
    1PA     H7R 1504   5.921   4.269   5.042
    1PA     H7S 1505   6.002   4.414   5.090
    1PA     C16 1506   5.791   4.439   5.046
    1PA     H6R 1507   5.787   4.543   5.015
    1PA     H6S 1508   5.716   4.394   4.981
    1PA     C15 1509   5.733   4.416   5.186
    1PA     H5R 1510   5.629   4.449   5.186
    1PA     H5S 1511   5.738   4.309   5.207
    1PA     C14 1512   5.797   4.498   5.299
    1PA     H4R 1513   5.899   4.462   5.318
    1PA     H4S 1514   5.808   4.604   5.275
    1PA     C13 1515   5.714   4.483   5.428
    1PA     H3R 1516   5.615   4.524   5.407
    1PA     H3S 1517   5.702   4.379   5.459
    1PA     C12 1518   5.777   4.568   5.539
    1PA     H2R 1519   5.882   4.543   5.558
    1PA     H2S 1520   5.761   4.675   5.520
    2PC     C11 1521   5.698   4.548   5.666
    2PC     O12 1522   5.739   4.476   5.755
    2PC     O11 1523   5.578   4.608   5.661
    2PC      C1 1524   5.489   4.593   5.773
    2PC      HR 1525   5.389   4.622   5.740
    2PC      HS 1526   5.469   4.488   5.798
    2PC      C2 1527   5.530   4.669   5.899
    2PC      HX 1528   5.629   4.635   5.932
    2PC      C3 1529   5.421   4.678   6.007
    2PC      HA 1530   5.418   4.590   6.072
    2PC      HB 1531   5.456   4.762   6.068
    2PC     O31 1532   5.289   4.699   5.954
    2PC     P31 1533   5.161   4.635   6.026
    2PC     O32 1534   5.149   4.756   6.130
    2PC     C31 1535   5.037   4.751   6.220
    2PC     H1A 1536   4.947   4.736   6.160
    2PC     H1B 1537   5.043   4.661   6.282
    2PC     C32 1538   5.062   4.868   6.316
    2PC     H2A 1539   5.144   4.835   6.380
    2PC     H2B 1540   5.090   4.954   6.254
    2PC     N31 1541   4.943   4.908   6.398
    2PC     C33 1542   4.979   5.039   6.460
    2PC     H3A 1543   5.067   5.033   6.525
    2PC     H3B 1544   4.995   5.105   6.374
    2PC     H3C 1545   4.886   5.066   6.511
    2PC     C34 1546   4.818   4.933   6.319
    2PC     H4A 1547   4.802   4.837   6.270
    2PC     H4B 1548   4.724   4.942   6.372
    2PC     H4C 1549   4.833   5.019   6.253
    2PC     C35 1550   4.902   4.807   6.501
    2PC     H5A 1551   4.804   4.840   6.537
    2PC     H5B 1552   4.974   4.813   6.583
    2PC     H5C 1553   4.895   4.709   6.454
    2PC     O33 1554   5.043   4.642   5.937
    2PC     O34 1555   5.195   4.502   6.083
    2PC     O21 1556   5.564   4.807   5.874
    2PC     C21 1557   5.688   4.842   5.836
    2PC     O22 1558   5.788   4.773   5.837
    3OL     C12 1559   5.690   4.981   5.776
    3OL     H2R 1560   5.755   5.045   5.835
    3OL     H2S 1561   5.590   5.024   5.777
    3OL     C13 1562   5.750   4.979   5.634
    3OL     H3R 1563   5.677   4.916   5.583
    3OL     H3S 1564   5.848   4.932   5.635
    3OL     C14 1565   5.750   5.118   5.570
    3OL     H4R 1566   5.797   5.195   5.631
    3OL     H4S 1567   5.646   5.147   5.553
    3OL     C15 1568   5.826   5.118   5.436
    3OL     H5R 1569   5.784   5.055   5.358
    3OL     H5S 1570   5.932   5.101   5.454
    3OL     C16 1571   5.820   5.262   5.381
    3OL     H6R 1572   5.853   5.336   5.455
    3OL     H6S 1573   5.717   5.284   5.351
    3OL     C17 1574   5.919   5.282   5.266
    3OL     H7R 1575   5.910   5.206   5.188
    3OL     H7S 1576   6.020   5.272   5.306
    3OL     C18 1577   5.909   5.420   5.199
    3OL     H8R 1578   5.808   5.450   5.169
    3OL     H8S 1579   5.971   5.416   5.110
    3OL     C19 1580   5.980   5.518   5.289
    3OL     H9R 1581   6.079   5.484   5.319
    3OL    C110 1582   5.929   5.629   5.340
    3OL    H10R 1583   5.990   5.696   5.400
    3OL    C111 1584   5.794   5.685   5.299
    3OL    H11R 1585   5.735   5.694   5.390
    3OL    H11S 1586   5.735   5.632   5.224
    3OL    C112 1587   5.817   5.831   5.256
    3OL    H12R 1588   5.884   5.838   5.170
    3OL    H12S 1589   5.877   5.870   5.339
    3OL    C113 1590   5.688   5.912   5.239
    3OL    H13R 1591   5.615   5.894   5.318
    3OL    H13S 1592   5.641   5.866   5.152
    3OL    C114 1593   5.709   6.063   5.219
    3OL    H14R 1594   5.770   6.081   5.130
    3OL    H14S 1595   5.754   6.114   5.305
    3OL    C115 1596   5.572   6.123   5.185
    3OL    H15R 1597   5.583   6.231   5.194
    3OL    H15S 1598   5.494   6.084   5.250
    3OL    C116 1599   5.530   6.107   5.038
    3OL    H16R 1600   5.522   6.000   5.015
    3OL    H16S 1601   5.603   6.154   4.973
    3OL    C117 1602   5.395   6.177   5.019
    3OL    H17R 1603   5.400   6.283   5.045
    3OL    H17S 1604   5.331   6.144   5.102
    3OL    C118 1605   5.323   6.142   4.888
    3OL    H18R 1606   5.366   6.180   4.795
    3OL    H18S 1607   5.224   6.188   4.886
    3OL    H18T 1608   5.316   6.033   4.889
    1PA    C116 1609   3.858   2.332   3.397
    1PA    H16R 1610   3.942   2.286   3.344
    1PA    H16S 1611   3.791   2.378   3.324
    1PA    H16T 1612   3.799   2.253   3.441
    1PA    C115 1613   3.910   2.433   3.501
    1PA    H15R 1614   3.965   2.518   3.460
    1PA    H15S 1615   3.831   2.479   3.561
    1PA    C114 1616   4.012   2.367   3.595
    1PA    H14R 1617   3.981   2.270   3.634
    1PA    H14S 1618   4.101   2.347   3.535
    1PA    C113 1619   4.042   2.443   3.725
    1PA    H13R 1620   4.142   2.411   3.756
    1PA    H13S 1621   4.050   2.549   3.700
    1PA    C112 1622   3.938   2.422   3.836
    1PA    H12R 1623   3.840   2.464   3.811
    1PA    H12S 1624   3.927   2.317   3.862
    1PA    C111 1625   3.985   2.496   3.962
    1PA    H11R 1626   4.070   2.436   3.996
    1PA    H11S 1627   4.023   2.595   3.937
    1PA    C110 1628   3.884   2.510   4.076
    1PA    H10R 1629   3.792   2.565   4.055
    1PA    H10S 1630   3.850   2.410   4.101
    1PA     C19 1631   3.945   2.573   4.202
    1PA     H9R 1632   4.036   2.522   4.236
    1PA     H9S 1633   3.971   2.677   4.183
    1PA     C18 1634   3.841   2.566   4.315
    1PA     H8R 1635   3.751   2.627   4.302
    1PA     H8S 1636   3.804   2.464   4.327
    1PA     C17 1637   3.888   2.601   4.457
    1PA     H7R 1638   3.980   2.550   4.484
    1PA     H7S 1639   3.904   2.707   4.476
    1PA     C16 1640   3.778   2.562   4.557
    1PA     H6R 1641   3.708   2.646   4.561
    1PA     H6S 1642   3.735   2.467   4.523
    1PA     C15 1643   3.832   2.541   4.699
    1PA     H5R 1644   3.909   2.464   4.704
    1PA     H5S 1645   3.890   2.627   4.734
    1PA     C14 1646   3.723   2.505   4.800
    1PA     H4R 1647   3.633   2.564   4.780
    1PA     H4S 1648   3.697   2.401   4.781
    1PA     C13 1649   3.775   2.516   4.944
    1PA     H3R 1650   3.846   2.598   4.953
    1PA     H3S 1651   3.691   2.539   5.011
    1PA     C12 1652   3.858   2.394   4.985
    1PA     H2R 1653   3.820   2.307   4.930
    1PA     H2S 1654   3.963   2.413   4.962
    2PC     C11 1655   3.842   2.386   5.134
    2PC     O12 1656   3.764   2.307   5.185
    2PC     O11 1657   3.915   2.476   5.201
    2PC      C1 1658   3.922   2.466   5.345
    2PC      HR 1659   3.969   2.559   5.378
    2PC      HS 1660   3.825   2.455   5.393
    2PC      C2 1661   4.005   2.339   5.372
    2PC      HX 1662   3.964   2.252   5.321
    2PC      C3 1663   4.000   2.301   5.521
    2PC      HA 1664   3.904   2.255   5.540
    2PC      HB 1665   4.078   2.231   5.552
    2PC     O31 1666   4.012   2.422   5.598
    2PC     P31 1667   4.002   2.402   5.757
    2PC     O32 1668   3.998   2.558   5.796
    2PC     C31 1669   4.109   2.630   5.852
    2PC     H1A 1670   4.150   2.582   5.941
    2PC     H1B 1671   4.188   2.619   5.777
    2PC     C32 1672   4.067   2.777   5.870
    2PC     H2A 1673   4.009   2.785   5.962
    2PC     H2B 1674   4.161   2.832   5.860
    2PC     N31 1675   3.987   2.844   5.763
    2PC     C33 1676   4.007   2.987   5.801
    2PC     H3A 1677   4.115   3.004   5.797
    2PC     H3B 1678   3.957   3.050   5.727
    2PC     H3C 1679   3.977   3.009   5.903
    2PC     C34 1680   4.045   2.817   5.627
    2PC     H4A 1681   4.153   2.809   5.635
    2PC     H4B 1682   4.007   2.718   5.600
    2PC     H4C 1683   4.017   2.896   5.558
    2PC     C35 1684   3.841   2.808   5.769
    2PC     H5A 1685   3.791   2.882   5.705
    2PC     H5B 1686   3.796   2.822   5.867
    2PC     H5C 1687   3.831   2.704   5.737
    2PC     O33 1688   3.890   2.325   5.814
    2PC     O34 1689   4.131   2.345   5.805
    2PC     O21 1690   4.140   2.363   5.329
    2PC     C21 1691   4.184   2.319   5.210
    2PC     O22 1692   4.113   2.267   5.127
    3OL     C12 1693   4.333   2.332   5.193
    3OL     H2R 1694   4.395   2.302   5.278
    3OL     H2S 1695   4.353   2.435   5.166
    3OL     C13 1696   4.387   2.233   5.089
    3OL     H3R 1697   4.334   2.258   4.997
    3OL     H3S 1698   4.365   2.127   5.102
    3OL     C14 1699   4.537   2.235   5.056
    3OL     H4R 1700   4.567   2.335   5.024
    3OL     H4S 1701   4.547   2.179   4.962
    3OL     C15 1702   4.624   2.167   5.162
    3OL     H5R 1703   4.585   2.066   5.177
    3OL     H5S 1704   4.612   2.223   5.255
    3OL     C16 1705   4.770   2.142   5.125
    3OL     H6R 1706   4.755   2.070   5.044
    3OL     H6S 1707   4.825   2.096   5.208
    3OL     C17 1708   4.833   2.276   5.085
    3OL     H7R 1709   4.833   2.343   5.172
    3OL     H7S 1710   4.778   2.313   4.998
    3OL     C18 1711   4.976   2.263   5.033
    3OL     H8R 1712   4.949   2.224   4.935
    3OL     H8S 1713   5.030   2.182   5.084
    3OL     C19 1714   5.056   2.391   5.035
    3OL     H9R 1715   5.071   2.438   5.131
    3OL    C110 1716   5.123   2.446   4.935
    3OL    H10R 1717   5.183   2.535   4.946
    3OL    C111 1718   5.119   2.405   4.789
    3OL    H11R 1719   5.015   2.421   4.761
    3OL    H11S 1720   5.149   2.300   4.785
    3OL    C112 1721   5.215   2.483   4.698
    3OL    H12R 1722   5.313   2.474   4.745
    3OL    H12S 1723   5.191   2.589   4.690
    3OL    C113 1724   5.226   2.423   4.557
    3OL    H13R 1725   5.127   2.402   4.514
    3OL    H13S 1726   5.264   2.325   4.585
    3OL    C114 1727   5.323   2.494   4.462
    3OL    H14R 1728   5.379   2.428   4.396
    3OL    H14S 1729   5.405   2.536   4.521
    3OL    C115 1730   5.250   2.594   4.372
    3OL    H15R 1731   5.192   2.660   4.436
    3OL    H15S 1732   5.177   2.538   4.312
    3OL    C116 1733   5.349   2.665   4.280
    3OL    H16R 1734   5.417   2.592   4.235
    3OL    H16S 1735   5.410   2.729   4.344
    3OL    C117 1736   5.267   2.735   4.170
    3OL    H17R 1737   5.215   2.818   4.219
    3OL    H17S 1738   5.188   2.676   4.125
    3OL    C118 1739   5.358   2.796   4.063
    3OL    H18R 1740   5.388   2.722   3.988
    3OL    H18S 1741   5.443   2.859   4.092
    3OL    H18T 1742   5.296   2.863   4.003
    1PA    C116 1743   6.133   2.100   4.393
    1PA    H16R 1744   6.122   2.102   4.284
    1PA    H16S 1745   6.060   2.024   4.422
    1PA    H16T 1746   6.230   2.062   4.425
    1PA    C115 1747   6.101   2.239   4.451
    1PA    H15R 1748   6.176   2.314   4.424
    1PA    H15S 1749   6.009   2.286   4.417
    1PA    C114 1750   6.101   2.236   4.604
    1PA    H14R 1751   6.193   2.193   4.644
    1PA    H14S 1752   6.095   2.342   4.630
    1PA    C113 1753   5.990   2.159   4.676
    1PA    H13R 1754   5.899   2.218   4.662
    1PA    H13S 1755   5.968   2.060   4.634
    1PA    C112 1756   6.007   2.139   4.827
    1PA    H12R 1757   6.085   2.063   4.838
    1PA    H12S 1758   6.042   2.234   4.868
    1PA    C111 1759   5.868   2.101   4.880
    1PA    H11R 1760   5.805   2.186   4.854
    1PA    H11S 1761   5.823   2.009   4.842
    1PA    C110 1762   5.871   2.070   5.030
    1PA    H10R 1763   5.944   1.991   5.044
    1PA    H10S 1764   5.909   2.152   5.091
    1PA     C19 1765   5.736   2.024   5.087
    1PA     H9R 1766   5.676   2.115   5.081
    1PA     H9S 1767   5.687   1.943   5.033
    1PA     C18 1768   5.752   1.986   5.235
    1PA     H8R 1769   5.767   2.071   5.302
    1PA     H8S 1770   5.660   1.938   5.268
    1PA     C17 1771   5.864   1.883   5.251
    1PA     H7R 1772   5.837   1.781   5.223
    1PA     H7S 1773   5.960   1.922   5.216
    1PA     C16 1774   5.896   1.854   5.399
    1PA     H6R 1775   5.923   1.945   5.452
    1PA     H6S 1776   5.807   1.827   5.455
    1PA     C15 1777   5.991   1.734   5.414
    1PA     H5R 1778   5.958   1.640   5.371
    1PA     H5S 1779   6.087   1.764   5.371
    1PA     C14 1780   6.023   1.714   5.563
    1PA     H4R 1781   6.112   1.650   5.566
    1PA     H4S 1782   6.059   1.806   5.609
    1PA     C13 1783   5.905   1.667   5.650
    1PA     H3R 1784   5.947   1.674   5.751
    1PA     H3S 1785   5.813   1.721   5.628
    1PA     C12 1786   5.888   1.517   5.623
    1PA     H2R 1787   5.868   1.502   5.516
    1PA     H2S 1788   5.985   1.477   5.651
    2PC     C11 1789   5.787   1.464   5.721
    2PC     O12 1790   5.816   1.406   5.824
    2PC     O11 1791   5.660   1.501   5.696
    2PC      C1 1792   5.549   1.466   5.780
    2PC      HR 1793   5.449   1.481   5.739
    2PC      HS 1794   5.558   1.357   5.791
    2PC      C2 1795   5.548   1.530   5.920
    2PC      HX 1796   5.649   1.554   5.953
    2PC      C3 1797   5.489   1.451   6.038
    2PC      HA 1798   5.383   1.477   6.051
    2PC      HB 1799   5.496   1.345   6.013
    2PC     O31 1800   5.560   1.470   6.162
    2PC     P31 1801   5.511   1.595   6.249
    2PC     O32 1802   5.602   1.570   6.378
    2PC     C31 1803   5.639   1.683   6.461
    2PC     H1A 1804   5.714   1.748   6.415
    2PC     H1B 1805   5.550   1.737   6.494
    2PC     C32 1806   5.703   1.622   6.586
    2PC     H2A 1807   5.674   1.518   6.604
    2PC     H2B 1808   5.812   1.620   6.571
    2PC     N31 1809   5.670   1.677   6.721
    2PC     C33 1810   5.523   1.689   6.748
    2PC     H3A 1811   5.479   1.589   6.749
    2PC     H3B 1812   5.503   1.745   6.840
    2PC     H3C 1813   5.487   1.754   6.669
    2PC     C34 1814   5.725   1.575   6.817
    2PC     H4A 1815   5.721   1.604   6.922
    2PC     H4B 1816   5.686   1.474   6.802
    2PC     H4C 1817   5.831   1.553   6.804
    2PC     C35 1818   5.742   1.806   6.745
    2PC     H5A 1819   5.720   1.867   6.658
    2PC     H5B 1820   5.850   1.794   6.739
    2PC     H5C 1821   5.714   1.861   6.835
    2PC     O33 1822   5.552   1.726   6.193
    2PC     O34 1823   5.369   1.585   6.292
    2PC     O21 1824   5.470   1.650   5.907
    2PC     C21 1825   5.524   1.763   5.857
    2PC     O22 1826   5.640   1.762   5.824
    3OL     C12 1827   5.415   1.864   5.831
    3OL     H2R 1828   5.465   1.962   5.828
    3OL     H2S 1829   5.355   1.878   5.921
    3OL     C13 1830   5.343   1.835   5.699
    3OL     H3R 1831   5.261   1.907   5.691
    3OL     H3S 1832   5.305   1.733   5.712
    3OL     C14 1833   5.428   1.861   5.574
    3OL     H4R 1834   5.514   1.795   5.589
    3OL     H4S 1835   5.454   1.967   5.574
    3OL     C15 1836   5.351   1.829   5.445
    3OL     H5R 1837   5.253   1.876   5.438
    3OL     H5S 1838   5.325   1.724   5.436
    3OL     C16 1839   5.426   1.869   5.317
    3OL     H6R 1840   5.499   1.793   5.291
    3OL     H6S 1841   5.469   1.968   5.332
    3OL     C17 1842   5.316   1.887   5.211
    3OL     H7R 1843   5.243   1.955   5.256
    3OL     H7S 1844   5.271   1.792   5.180
    3OL     C18 1845   5.383   1.954   5.090
    3OL     H8R 1846   5.449   1.882   5.040
    3OL     H8S 1847   5.449   2.034   5.121
    3OL     C19 1848   5.281   2.004   4.990
    3OL     H9R 1849   5.185   2.027   5.035
    3OL    C110 1850   5.304   2.014   4.860
    3OL    H10R 1851   5.240   2.074   4.796
    3OL    C111 1852   5.434   1.987   4.789
    3OL    H11R 1853   5.444   1.881   4.764
    3OL    H11S 1854   5.512   2.008   4.861
    3OL    C112 1855   5.459   2.062   4.657
    3OL    H12R 1856   5.476   2.168   4.680
    3OL    H12S 1857   5.373   2.062   4.589
    3OL    C113 1858   5.592   2.031   4.587
    3OL    H13R 1859   5.591   1.924   4.565
    3OL    H13S 1860   5.673   2.044   4.658
    3OL    C114 1861   5.617   2.123   4.466
    3OL    H14R 1862   5.622   2.228   4.496
    3OL    H14S 1863   5.534   2.113   4.396
    3OL    C115 1864   5.748   2.086   4.395
    3OL    H15R 1865   5.827   2.067   4.468
    3OL    H15S 1866   5.779   2.170   4.333
    3OL    C116 1867   5.726   1.962   4.306
    3OL    H16R 1868   5.641   1.983   4.241
    3OL    H16S 1869   5.698   1.872   4.362
    3OL    C117 1870   5.853   1.936   4.224
    3OL    H17R 1871   5.934   1.895   4.285
    3OL    H17S 1872   5.888   2.028   4.177
    3OL    C118 1873   5.811   1.838   4.112
    3OL    H18R 1874   5.811   1.736   4.152
    3OL    H18S 1875   5.876   1.838   4.024
    3OL    H18T 1876   5.713   1.862   4.072
    1PA    C116 1877   0.483   5.301   4.121
    1PA    H16R 1878   0.513   5.324   4.018
    1PA    H16S 1879   0.386   5.348   4.136
    1PA    H16T 1880   0.475   5.193   4.132
    1PA    C115 1881   0.600   5.357   4.202
    1PA    H15R 1882   0.692   5.313   4.164
    1PA    H15S 1883   0.611   5.462   4.174
    1PA    C114 1884   0.585   5.334   4.353
    1PA    H14R 1885   0.504   5.400   4.386
    1PA    H14S 1886   0.562   5.230   4.378
    1PA    C113 1887   0.705   5.381   4.436
    1PA    H13R 1888   0.793   5.316   4.438
    1PA    H13S 1889   0.735   5.484   4.413
    1PA    C112 1890   0.659   5.380   4.582
    1PA    H12R 1891   0.599   5.469   4.604
    1PA    H12S 1892   0.599   5.292   4.606
    1PA    C111 1893   0.775   5.391   4.683
    1PA    H11R 1894   0.841   5.304   4.676
    1PA    H11S 1895   0.831   5.482   4.660
    1PA    C110 1896   0.726   5.399   4.828
    1PA    H10R 1897   0.651   5.477   4.838
    1PA    H10S 1898   0.678   5.305   4.858
    1PA     C19 1899   0.836   5.425   4.932
    1PA     H9R 1900   0.903   5.339   4.929
    1PA     H9S 1901   0.880   5.520   4.904
    1PA     C18 1902   0.781   5.439   5.075
    1PA     H8R 1903   0.734   5.535   5.095
    1PA     H8S 1904   0.704   5.365   5.095
    1PA     C17 1905   0.894   5.408   5.175
    1PA     H7R 1906   0.934   5.307   5.171
    1PA     H7S 1907   0.973   5.478   5.149
    1PA     C16 1908   0.851   5.441   5.319
    1PA     H6R 1909   0.940   5.440   5.382
    1PA     H6S 1910   0.822   5.545   5.338
    1PA     C15 1911   0.748   5.344   5.379
    1PA     H5R 1912   0.652   5.366   5.330
    1PA     H5S 1913   0.777   5.244   5.347
    1PA     C14 1914   0.725   5.369   5.529
    1PA     H4R 1915   0.724   5.474   5.557
    1PA     H4S 1916   0.626   5.331   5.556
    1PA     C13 1917   0.831   5.296   5.612
    1PA     H3R 1918   0.834   5.191   5.582
    1PA     H3S 1919   0.929   5.340   5.589
    1PA     C12 1920   0.788   5.305   5.759
    1PA     H2R 1921   0.755   5.405   5.787
    1PA     H2S 1922   0.696   5.250   5.778
    2PC     C11 1923   0.903   5.275   5.851
    2PC     O12 1924   0.982   5.354   5.898
    2PC     O11 1925   0.927   5.144   5.871
    2PC      C1 1926   1.030   5.104   5.963
    2PC      HR 1927   1.134   5.120   5.933
    2PC      HS 1928   1.024   5.174   6.047
    2PC      C2 1929   1.011   4.967   6.028
    2PC      HX 1930   0.906   4.965   6.060
    2PC      C3 1931   1.100   4.931   6.148
    2PC      HA 1932   1.077   5.008   6.221
    2PC      HB 1933   1.088   4.830   6.190
    2PC     O31 1934   1.234   4.956   6.104
    2PC     P31 1935   1.327   5.055   6.189
    2PC     O32 1936   1.246   5.192   6.173
    2PC     C31 1937   1.306   5.310   6.117
    2PC     H1A 1938   1.353   5.285   6.022
    2PC     H1B 1939   1.223   5.375   6.088
    2PC     C32 1940   1.400   5.380   6.217
    2PC     H2A 1941   1.473   5.305   6.246
    2PC     H2B 1942   1.456   5.455   6.160
    2PC     N31 1943   1.346   5.444   6.341
    2PC     C33 1944   1.262   5.563   6.305
    2PC     H3A 1945   1.329   5.631   6.253
    2PC     H3B 1946   1.179   5.536   6.240
    2PC     H3C 1947   1.220   5.615   6.391
    2PC     C34 1948   1.268   5.357   6.435
    2PC     H4A 1949   1.338   5.280   6.469
    2PC     H4B 1950   1.238   5.409   6.526
    2PC     H4C 1951   1.179   5.315   6.388
    2PC     C35 1952   1.464   5.491   6.420
    2PC     H5A 1953   1.431   5.544   6.510
    2PC     H5B 1954   1.530   5.548   6.354
    2PC     H5C 1955   1.525   5.406   6.450
    2PC     O33 1956   1.344   5.027   6.334
    2PC     O34 1957   1.463   5.072   6.132
    2PC     O21 1958   1.035   4.859   5.936
    2PC     C21 1959   0.998   4.732   5.955
    2PC     O22 1960   0.917   4.699   6.039
    3OL     C12 1961   1.071   4.647   5.854
    3OL     H2R 1962   1.090   4.543   5.882
    3OL     H2S 1963   1.167   4.698   5.849
    3OL     C13 1964   0.996   4.648   5.720
    3OL     H3R 1965   0.974   4.751   5.693
    3OL     H3S 1966   0.894   4.611   5.735
    3OL     C14 1967   1.068   4.574   5.606
    3OL     H4R 1968   1.107   4.478   5.640
    3OL     H4S 1969   1.158   4.624   5.569
    3OL     C15 1970   0.972   4.554   5.488
    3OL     H5R 1971   0.919   4.644   5.457
    3OL     H5S 1972   0.887   4.495   5.524
    3OL     C16 1973   1.032   4.482   5.366
    3OL     H6R 1974   1.081   4.392   5.405
    3OL     H6S 1975   1.102   4.559   5.334
    3OL     C17 1976   0.933   4.452   5.253
    3OL     H7R 1977   0.885   4.549   5.239
    3OL     H7S 1978   0.868   4.378   5.300
    3OL     C18 1979   1.014   4.393   5.136
    3OL     H8R 1980   0.940   4.363   5.061
    3OL     H8S 1981   1.064   4.299   5.160
    3OL     C19 1982   1.116   4.486   5.077
    3OL     H9R 1983   1.213   4.486   5.127
    3OL    C110 1984   1.097   4.558   4.967
    3OL    H10R 1985   1.175   4.630   4.942
    3OL    C111 1986   0.965   4.571   4.896
    3OL    H11R 1987   0.965   4.680   4.894
    3OL    H11S 1988   0.883   4.523   4.949
    3OL    C112 1989   0.983   4.514   4.754
    3OL    H12R 1990   0.882   4.511   4.714
    3OL    H12S 1991   0.997   4.408   4.775
    3OL    C113 1992   1.088   4.566   4.655
    3OL    H13R 1993   1.190   4.565   4.694
    3OL    H13S 1994   1.071   4.673   4.643
    3OL    C114 1995   1.076   4.497   4.518
    3OL    H14R 1996   0.970   4.484   4.499
    3OL    H14S 1997   1.117   4.396   4.531
    3OL    C115 1998   1.140   4.575   4.403
    3OL    H15R 1999   1.241   4.609   4.429
    3OL    H15S 2000   1.093   4.672   4.382
    3OL    C116 2001   1.140   4.490   4.276
    3OL    H16R 2002   1.048   4.495   4.217
    3OL    H16S 2003   1.160   4.384   4.292
    3OL    C117 2004   1.254   4.540   4.185
    3OL    H17R 2005   1.345   4.530   4.244
    3OL    H17S 2006   1.243   4.648   4.174
    3OL    C118 2007   1.273   4.471   4.050
    3OL    H18R 2008   1.377   4.495   4.026
    3OL    H18S 2009   1.203   4.515   3.979
    3OL    H18T 2010   1.266   4.362   4.057
    1PA    C116 2011   1.540   1.888   4.671
    1PA    H16R 2012   1.599   1.884   4.763
    1PA    H16S 2013   1.452   1.950   4.685
    1PA    H16T 2014   1.597   1.937   4.592
    1PA    C115 2015   1.504   1.744   4.631
    1PA    H15R 2016   1.459   1.747   4.532
    1PA    H15S 2017   1.591   1.680   4.617
    1PA    C114 2018   1.400   1.689   4.730
    1PA    H14R 2019   1.392   1.582   4.712
    1PA    H14S 2020   1.434   1.695   4.834
    1PA    C113 2021   1.255   1.734   4.706
    1PA    H13R 2022   1.252   1.843   4.713
    1PA    H13S 2023   1.225   1.714   4.603
    1PA    C112 2024   1.158   1.659   4.798
    1PA    H12R 2025   1.064   1.707   4.769
    1PA    H12S 2026   1.162   1.556   4.761
    1PA    C111 2027   1.182   1.675   4.949
    1PA    H11R 2028   1.287   1.658   4.973
    1PA    H11S 2029   1.157   1.777   4.981
    1PA    C110 2030   1.094   1.568   5.014
    1PA    H10R 2031   0.989   1.578   4.984
    1PA    H10S 2032   1.126   1.475   4.966
    1PA     C19 2033   1.102   1.559   5.167
    1PA     H9R 2034   1.206   1.538   5.190
    1PA     H9S 2035   1.070   1.658   5.200
    1PA     C18 2036   1.005   1.453   5.223
    1PA     H8R 2037   0.903   1.468   5.188
    1PA     H8S 2038   1.035   1.361   5.172
    1PA     C17 2039   1.006   1.448   5.377
    1PA     H7R 2040   0.930   1.377   5.410
    1PA     H7S 2041   1.102   1.410   5.412
    1PA     C16 2042   0.975   1.579   5.452
    1PA     H6R 2043   1.060   1.646   5.435
    1PA     H6S 2044   0.884   1.624   5.412
    1PA     C15 2045   0.982   1.539   5.600
    1PA     H5R 2046   0.907   1.462   5.619
    1PA     H5S 2047   1.076   1.497   5.635
    1PA     C14 2048   0.946   1.657   5.692
    1PA     H4R 2049   1.024   1.733   5.681
    1PA     H4S 2050   0.858   1.707   5.651
    1PA     C13 2051   0.902   1.616   5.833
    1PA     H3R 2052   0.805   1.568   5.820
    1PA     H3S 2053   0.966   1.537   5.871
    1PA     C12 2054   0.897   1.729   5.936
    1PA     H2R 2055   0.996   1.774   5.947
    1PA     H2S 2056   0.829   1.812   5.914
    2PC     C11 2057   0.858   1.666   6.067
    2PC     O12 2058   0.777   1.724   6.137
    2PC     O11 2059   0.930   1.559   6.105
    2PC      C1 2060   0.903   1.508   6.237
    2PC      HR 2061   0.975   1.428   6.252
    2PC      HS 2062   0.927   1.585   6.310
    2PC      C2 2063   0.761   1.454   6.258
    2PC      HX 2064   0.686   1.530   6.232
    2PC      C3 2065   0.738   1.418   6.406
    2PC      HA 2066   0.793   1.324   6.420
    2PC      HB 2067   0.792   1.495   6.461
    2PC     O31 2068   0.602   1.410   6.450
    2PC     P31 2069   0.587   1.412   6.610
    2PC     O32 2070   0.616   1.564   6.652
    2PC     C31 2071   0.655   1.585   6.789
    2PC     H1A 2072   0.568   1.566   6.852
    2PC     H1B 2073   0.737   1.516   6.805
    2PC     C32 2074   0.692   1.731   6.816
    2PC     H2A 2075   0.608   1.795   6.790
    2PC     H2B 2076   0.716   1.738   6.922
    2PC     N31 2077   0.813   1.795   6.752
    2PC     C33 2078   0.832   1.938   6.791
    2PC     H3A 2079   0.876   1.935   6.891
    2PC     H3B 2080   0.897   1.988   6.719
    2PC     H3C 2081   0.735   1.986   6.784
    2PC     C34 2082   0.927   1.708   6.796
    2PC     H4A 2083   0.914   1.675   6.899
    2PC     H4B 2084   0.927   1.619   6.734
    2PC     H4C 2085   1.016   1.770   6.786
    2PC     C35 2086   0.796   1.790   6.604
    2PC     H5A 2087   0.792   1.688   6.564
    2PC     H5B 2088   0.891   1.835   6.574
    2PC     H5C 2089   0.710   1.853   6.581
    2PC     O33 2090   0.450   1.372   6.649
    2PC     O34 2091   0.669   1.302   6.667
    2PC     O21 2092   0.734   1.340   6.175
    2PC     C21 2093   0.695   1.362   6.048
    2PC     O22 2094   0.664   1.474   6.013
    3OL     C12 2095   0.701   1.234   5.969
    3OL     H2R 2096   0.603   1.191   5.989
    3OL     H2S 2097   0.781   1.167   6.004
    3OL     C13 2098   0.711   1.259   5.818
    3OL     H3R 2099   0.803   1.306   5.784
    3OL     H3S 2100   0.627   1.328   5.807
    3OL     C14 2101   0.679   1.136   5.731
    3OL     H4R 2102   0.590   1.083   5.765
    3OL     H4S 2103   0.757   1.061   5.745
    3OL     C15 2104   0.677   1.196   5.590
    3OL     H5R 2105   0.776   1.237   5.568
    3OL     H5S 2106   0.598   1.271   5.594
    3OL     C16 2107   0.633   1.091   5.487
    3OL     H6R 2108   0.539   1.042   5.514
    3OL     H6S 2109   0.709   1.013   5.475
    3OL     C17 2110   0.614   1.166   5.354
    3OL     H7R 2111   0.712   1.203   5.324
    3OL     H7S 2112   0.560   1.260   5.369
    3OL     C18 2113   0.565   1.070   5.245
    3OL     H8R 2114   0.542   1.126   5.154
    3OL     H8S 2115   0.465   1.035   5.272
    3OL     C19 2116   0.648   0.946   5.220
    3OL     H9R 2117   0.694   0.905   5.309
    3OL    C110 2118   0.665   0.897   5.098
    3OL    H10R 2119   0.735   0.817   5.074
    3OL    C111 2120   0.594   0.943   4.974
    3OL    H11R 2121   0.491   0.975   4.993
    3OL    H11S 2122   0.576   0.860   4.905
    3OL    C112 2123   0.679   1.050   4.903
    3OL    H12R 2124   0.775   1.000   4.886
    3OL    H12S 2125   0.713   1.126   4.974
    3OL    C113 2126   0.614   1.126   4.787
    3OL    H13R 2127   0.513   1.161   4.811
    3OL    H13S 2128   0.598   1.063   4.700
    3OL    C114 2129   0.708   1.243   4.756
    3OL    H14R 2130   0.675   1.273   4.656
    3OL    H14S 2131   0.810   1.205   4.753
    3OL    C115 2132   0.696   1.369   4.844
    3OL    H15R 2133   0.725   1.344   4.946
    3OL    H15S 2134   0.591   1.400   4.847
    3OL    C116 2135   0.783   1.488   4.803
    3OL    H16R 2136   0.888   1.466   4.826
    3OL    H16S 2137   0.768   1.575   4.867
    3OL    C117 2138   0.765   1.533   4.657
    3OL    H17R 2139   0.794   1.453   4.588
    3OL    H17S 2140   0.827   1.620   4.634
    3OL    C118 2141   0.621   1.572   4.624
    3OL    H18R 2142   0.560   1.485   4.652
    3OL    H18S 2143   0.608   1.585   4.517
    3OL    H18T 2144   0.583   1.666   4.664
    1PA    C116 2145   1.148   5.515   4.617
    1PA    H16R 2146   1.191   5.532   4.518
    1PA    H16S 2147   1.151   5.613   4.664
    1PA    H16T 2148   1.045   5.478   4.612
    1PA    C115 2149   1.234   5.420   4.701
    1PA    H15R 2150   1.267   5.328   4.653
    1PA    H15S 2151   1.326   5.477   4.717
    1PA    C114 2152   1.189   5.389   4.845
    1PA    H14R 2153   1.145   5.481   4.884
    1PA    H14S 2154   1.111   5.312   4.851
    1PA    C113 2155   1.295   5.328   4.937
    1PA    H13R 2156   1.350   5.242   4.896
    1PA    H13S 2157   1.372   5.403   4.955
    1PA    C112 2158   1.239   5.291   5.075
    1PA    H12R 2159   1.178   5.371   5.116
    1PA    H12S 2160   1.160   5.218   5.056
    1PA    C111 2161   1.341   5.234   5.175
    1PA    H11R 2162   1.288   5.189   5.259
    1PA    H11S 2163   1.397   5.155   5.123
    1PA    C110 2164   1.433   5.339   5.239
    1PA    H10R 2165   1.477   5.400   5.160
    1PA    H10S 2166   1.366   5.404   5.296
    1PA     C19 2167   1.529   5.274   5.340
    1PA     H9R 2168   1.464   5.241   5.421
    1PA     H9S 2169   1.577   5.188   5.293
    1PA     C18 2170   1.648   5.359   5.386
    1PA     H8R 2171   1.695   5.304   5.467
    1PA     H8S 2172   1.728   5.365   5.312
    1PA     C17 2173   1.602   5.498   5.432
    1PA     H7R 2174   1.495   5.501   5.455
    1PA     H7S 2175   1.649   5.516   5.529
    1PA     C16 2176   1.624   5.619   5.340
    1PA     H6R 2177   1.651   5.576   5.244
    1PA     H6S 2178   1.532   5.672   5.314
    1PA     C15 2179   1.742   5.713   5.369
    1PA     H5R 2180   1.835   5.654   5.368
    1PA     H5S 2181   1.749   5.783   5.286
    1PA     C14 2182   1.723   5.788   5.502
    1PA     H4R 2183   1.640   5.857   5.483
    1PA     H4S 2184   1.686   5.719   5.578
    1PA     C13 2185   1.852   5.854   5.551
    1PA     H3R 2186   1.920   5.773   5.578
    1PA     H3S 2187   1.898   5.907   5.467
    1PA     C12 2188   1.823   5.956   5.663
    1PA     H2R 2189   1.788   6.054   5.630
    1PA     H2S 2190   1.758   5.912   5.739
    2PC     C11 2191   1.944   5.994   5.744
    2PC     O12 2192   1.981   6.109   5.742
    2PC     O11 2193   2.003   5.888   5.804
    2PC      C1 2194   2.136   5.900   5.855
    2PC      HR 2195   2.156   5.997   5.900
    2PC      HS 2196   2.154   5.831   5.938
    2PC      C2 2197   2.232   5.866   5.740
    2PC      HX 2198   2.195   5.776   5.691
    2PC      C3 2199   2.375   5.851   5.794
    2PC      HA 2200   2.360   5.772   5.868
    2PC      HB 2201   2.452   5.835   5.718
    2PC     O31 2202   2.418   5.967   5.867
    2PC     P31 2203   2.568   5.963   5.923
    2PC     O32 2204   2.652   6.044   5.814
    2PC     C31 2205   2.755   5.971   5.745
    2PC     H1A 2206   2.715   5.871   5.726
    2PC     H1B 2207   2.784   6.021   5.652
    2PC     C32 2208   2.879   5.952   5.835
    2PC     H2A 2209   2.854   5.963   5.940
    2PC     H2B 2210   2.917   5.852   5.813
    2PC     N31 2211   3.000   6.037   5.811
    2PC     C33 2212   3.107   6.000   5.910
    2PC     H3A 2213   3.071   6.038   6.006
    2PC     H3B 2214   3.108   5.891   5.915
    2PC     H3C 2215   3.207   6.034   5.887
    2PC     C34 2216   3.055   6.008   5.674
    2PC     H4A 2217   3.145   6.068   5.664
    2PC     H4B 2218   3.069   5.901   5.657
    2PC     H4C 2219   2.975   6.032   5.604
    2PC     C35 2220   2.968   6.183   5.811
    2PC     H5A 2221   2.934   6.216   5.909
    2PC     H5B 2222   2.895   6.202   5.732
    2PC     H5C 2223   3.055   6.243   5.784
    2PC     O33 2224   2.590   6.033   6.051
    2PC     O34 2225   2.623   5.829   5.957
    2PC     O21 2226   2.233   5.977   5.648
    2PC     C21 2227   2.262   5.961   5.518
    2PC     O22 2228   2.281   5.850   5.475
    3OL     C12 2229   2.273   6.089   5.438
    3OL     H2R 2230   2.364   6.142   5.465
    3OL     H2S 2231   2.184   6.149   5.458
    3OL     C13 2232   2.259   6.060   5.288
    3OL     H3R 2233   2.166   6.003   5.277
    3OL     H3S 2234   2.339   6.004   5.240
    3OL     C14 2235   2.262   6.194   5.214
    3OL     H4R 2236   2.331   6.183   5.129
    3OL     H4S 2237   2.302   6.276   5.274
    3OL     C15 2238   2.121   6.228   5.164
    3OL     H5R 2239   2.118   6.335   5.143
    3OL     H5S 2240   2.052   6.202   5.244
    3OL     C16 2241   2.090   6.142   5.041
    3OL     H6R 2242   2.087   6.036   5.068
    3OL     H6S 2243   2.171   6.159   4.969
    3OL     C17 2244   1.957   6.194   4.986
    3OL     H7R 2245   1.969   6.296   4.948
    3OL     H7S 2246   1.875   6.196   5.058
    3OL     C18 2247   1.902   6.110   4.870
    3OL     H8R 2248   1.893   6.004   4.897
    3OL     H8S 2249   1.987   6.120   4.802
    3OL     C19 2250   1.761   6.146   4.833
    3OL     H9R 2251   1.710   6.190   4.918
    3OL    C110 2252   1.703   6.146   4.714
    3OL    H10R 2253   1.599   6.178   4.707
    3OL    C111 2254   1.764   6.086   4.589
    3OL    H11R 2255   1.824   6.002   4.625
    3OL    H11S 2256   1.822   6.168   4.547
    3OL    C112 2257   1.654   6.052   4.488
    3OL    H12R 2258   1.599   6.142   4.461
    3OL    H12S 2259   1.583   5.984   4.536
    3OL    C113 2260   1.714   5.982   4.365
    3OL    H13R 2261   1.639   5.937   4.300
    3OL    H13S 2262   1.774   5.903   4.412
    3OL    C114 2263   1.806   6.080   4.291
    3OL    H14R 2264   1.895   6.096   4.352
    3OL    H14S 2265   1.747   6.170   4.279
    3OL    C115 2266   1.840   6.030   4.150
    3OL    H15R 2267   1.867   6.126   4.105
    3OL    H15S 2268   1.752   5.992   4.097
    3OL    C116 2269   1.949   5.922   4.139
    3OL    H16R 2270   2.022   5.928   4.220
    3OL    H16S 2271   2.003   5.955   4.050
    3OL    C117 2272   1.903   5.778   4.111
    3OL    H17R 2273   1.845   5.762   4.020
    3OL    H17S 2274   1.847   5.744   4.198
    3OL    C118 2275   2.022   5.682   4.098
    3OL    H18R 2276   2.083   5.712   4.012
    3OL    H18S 2277   1.993   5.582   4.068
    3OL    H18T 2278   2.080   5.683   4.191
    1PA    C116 2279   2.703   6.112   3.776
    1PA    H16R 2280   2.729   6.031   3.844
    1PA    H16S 2281   2.754   6.096   3.681
    1PA    H16T 2282   2.598   6.108   3.747
    1PA    C115 2283   2.732   6.249   3.839
    1PA    H15R 2284   2.700   6.339   3.786
    1PA    H15S 2285   2.678   6.249   3.933
    1PA    C114 2286   2.882   6.267   3.867
    1PA    H14R 2287   2.934   6.218   3.784
    1PA    H14S 2288   2.903   6.374   3.866
    1PA    C113 2289   2.927   6.217   4.005
    1PA    H13R 2290   2.865   6.264   4.081
    1PA    H13S 2291   2.911   6.109   4.012
    1PA    C112 2292   3.076   6.239   4.036
    1PA    H12R 2293   3.135   6.180   3.966
    1PA    H12S 2294   3.084   6.348   4.026
    1PA    C111 2295   3.124   6.183   4.171
    1PA    H11R 2296   3.051   6.202   4.250
    1PA    H11S 2297   3.128   6.074   4.163
    1PA    C110 2298   3.264   6.232   4.209
    1PA    H10R 2299   3.344   6.187   4.150
    1PA    H10S 2300   3.267   6.338   4.181
    1PA     C19 2301   3.274   6.215   4.361
    1PA     H9R 2302   3.191   6.269   4.407
    1PA     H9S 2303   3.284   6.111   4.393
    1PA     C18 2304   3.407   6.273   4.409
    1PA     H8R 2305   3.491   6.222   4.360
    1PA     H8S 2306   3.411   6.380   4.388
    1PA     C17 2307   3.409   6.274   4.562
    1PA     H7R 2308   3.329   6.337   4.604
    1PA     H7S 2309   3.387   6.176   4.605
    1PA     C16 2310   3.544   6.324   4.615
    1PA     H6R 2311   3.618   6.264   4.561
    1PA     H6S 2312   3.551   6.430   4.590
    1PA     C15 2313   3.557   6.311   4.767
    1PA     H5R 2314   3.475   6.358   4.822
    1PA     H5S 2315   3.555   6.204   4.791
    1PA     C14 2316   3.688   6.368   4.822
    1PA     H4R 2317   3.765   6.320   4.761
    1PA     H4S 2318   3.703   6.474   4.798
    1PA     C13 2319   3.717   6.349   4.972
    1PA     H3R 2320   3.737   6.244   4.993
    1PA     H3S 2321   3.809   6.404   4.994
    1PA     C12 2322   3.608   6.411   5.060
    1PA     H2R 2323   3.611   6.516   5.030
    1PA     H2S 2324   3.505   6.384   5.034
    2PC     C11 2325   3.632   6.386   5.207
    2PC     O12 2326   3.741   6.416   5.252
    2PC     O11 2327   3.535   6.329   5.280
    2PC      C1 2328   3.563   6.309   5.420
    2PC      HR 2329   3.653   6.250   5.439
    2PC      HS 2330   3.574   6.404   5.473
    2PC      C2 2331   3.441   6.236   5.478
    2PC      HX 2332   3.358   6.277   5.420
    2PC      C3 2333   3.420   6.254   5.629
    2PC      HA 2334   3.313   6.256   5.652
    2PC      HB 2335   3.456   6.167   5.685
    2PC     O31 2336   3.478   6.375   5.681
    2PC     P31 2337   3.469   6.387   5.841
    2PC     O32 2338   3.545   6.526   5.861
    2PC     C31 2339   3.689   6.532   5.865
    2PC     H1A 2340   3.717   6.574   5.962
    2PC     H1B 2341   3.724   6.429   5.852
    2PC     C32 2342   3.730   6.623   5.749
    2PC     H2A 2343   3.686   6.577   5.660
    2PC     H2B 2344   3.695   6.726   5.760
    2PC     N31 2345   3.876   6.644   5.726
    2PC     C33 2346   3.940   6.538   5.641
    2PC     H3A 2347   4.042   6.572   5.625
    2PC     H3B 2348   3.939   6.440   5.690
    2PC     H3C 2349   3.906   6.535   5.538
    2PC     C34 2350   3.882   6.773   5.649
    2PC     H4A 2351   3.823   6.847   5.703
    2PC     H4B 2352   3.986   6.803   5.639
    2PC     H4C 2353   3.848   6.746   5.549
    2PC     C35 2354   3.953   6.665   5.853
    2PC     H5A 2355   3.904   6.751   5.899
    2PC     H5B 2356   4.055   6.701   5.840
    2PC     H5C 2357   3.948   6.572   5.909
    2PC     O33 2358   3.338   6.385   5.912
    2PC     O34 2359   3.547   6.275   5.898
    2PC     O21 2360   3.455   6.100   5.434
    2PC     C21 2361   3.343   6.034   5.401
    2PC     O22 2362   3.229   6.070   5.427
    3OL     C12 2363   3.374   5.897   5.347
    3OL     H2R 2364   3.373   5.833   5.436
    3OL     H2S 2365   3.475   5.909   5.308
    3OL     C13 2366   3.270   5.846   5.246
    3OL     H3R 2367   3.168   5.854   5.282
    3OL     H3S 2368   3.288   5.740   5.228
    3OL     C14 2369   3.281   5.924   5.114
    3OL     H4R 2370   3.384   5.924   5.078
    3OL     H4S 2371   3.249   6.028   5.118
    3OL     C15 2372   3.193   5.869   5.001
    3OL     H5R 2373   3.090   5.861   5.036
    3OL     H5S 2374   3.224   5.766   4.980
    3OL     C16 2375   3.183   5.957   4.875
    3OL     H6R 2376   3.257   6.037   4.878
    3OL     H6S 2377   3.085   6.003   4.862
    3OL     C17 2378   3.210   5.878   4.746
    3OL     H7R 2379   3.158   5.782   4.750
    3OL     H7S 2380   3.315   5.849   4.750
    3OL     C18 2381   3.166   5.958   4.622
    3OL     H8R 2382   3.225   6.049   4.612
    3OL     H8S 2383   3.064   5.997   4.619
    3OL     C19 2384   3.203   5.877   4.500
    3OL     H9R 2385   3.305   5.842   4.485
    3OL    C110 2386   3.132   5.864   4.389
    3OL    H10R 2387   3.173   5.813   4.303
    3OL    C111 2388   2.987   5.901   4.374
    3OL    H11R 2389   2.989   6.010   4.361
    3OL    H11S 2390   2.932   5.890   4.468
    3OL    C112 2391   2.915   5.832   4.257
    3OL    H12R 2392   2.904   5.725   4.273
    3OL    H12S 2393   2.973   5.857   4.168
    3OL    C113 2394   2.776   5.895   4.239
    3OL    H13R 2395   2.798   6.002   4.236
    3OL    H13S 2396   2.724   5.880   4.334
    3OL    C114 2397   2.707   5.838   4.114
    3OL    H14R 2398   2.774   5.818   4.030
    3OL    H14S 2399   2.637   5.912   4.077
    3OL    C115 2400   2.634   5.709   4.154
    3OL    H15R 2401   2.579   5.724   4.247
    3OL    H15S 2402   2.703   5.624   4.168
    3OL    C116 2403   2.532   5.669   4.047
    3OL    H16R 2404   2.470   5.757   4.028
    3OL    H16S 2405   2.457   5.601   4.087
    3OL    C117 2406   2.603   5.606   3.926
    3OL    H17R 2407   2.646   5.509   3.952
    3OL    H17S 2408   2.678   5.679   3.894
    3OL    C118 2409   2.493   5.587   3.821
    3OL    H18R 2410   2.532   5.563   3.722
    3OL    H18S 2411   2.444   5.683   3.808
    3OL    H18T 2412   2.410   5.526   3.856
    1PA    C116 2413   1.900   4.463   4.210
    1PA    H16R 2414   1.803   4.503   4.178
    1PA    H16S 2415   1.874   4.396   4.292
    1PA    H16T 2416   1.936   4.407   4.124
    1PA    C115 2417   1.985   4.586   4.243
    1PA    H15R 2418   1.989   4.647   4.153
    1PA    H15S 2419   1.944   4.650   4.321
    1PA    C114 2420   2.124   4.536   4.285
    1PA    H14R 2421   2.169   4.470   4.211
    1PA    H14S 2422   2.193   4.621   4.289
    1PA    C113 2423   2.113   4.455   4.415
    1PA    H13R 2424   2.062   4.510   4.494
    1PA    H13S 2425   2.057   4.362   4.408
    1PA    C112 2426   2.259   4.431   4.456
    1PA    H12R 2427   2.316   4.381   4.378
    1PA    H12S 2428   2.317   4.523   4.468
    1PA    C111 2429   2.277   4.363   4.593
    1PA    H11R 2430   2.249   4.430   4.675
    1PA    H11S 2431   2.207   4.283   4.569
    1PA    C110 2432   2.415   4.300   4.614
    1PA    H10R 2433   2.408   4.204   4.562
    1PA    H10S 2434   2.498   4.359   4.575
    1PA     C19 2435   2.439   4.282   4.765
    1PA     H9R 2436   2.430   4.376   4.818
    1PA     H9S 2437   2.357   4.222   4.805
    1PA     C18 2438   2.563   4.198   4.797
    1PA     H8R 2439   2.539   4.166   4.899
    1PA     H8S 2440   2.564   4.114   4.727
    1PA     C17 2441   2.698   4.271   4.800
    1PA     H7R 2442   2.767   4.192   4.830
    1PA     H7S 2443   2.722   4.298   4.697
    1PA     C16 2444   2.706   4.402   4.880
    1PA     H6R 2445   2.637   4.477   4.840
    1PA     H6S 2446   2.671   4.376   4.981
    1PA     C15 2447   2.847   4.462   4.882
    1PA     H5R 2448   2.905   4.402   4.952
    1PA     H5S 2449   2.888   4.467   4.781
    1PA     C14 2450   2.833   4.604   4.941
    1PA     H4R 2451   2.921   4.654   4.901
    1PA     H4S 2452   2.747   4.664   4.908
    1PA     C13 2453   2.825   4.602   5.094
    1PA     H3R 2454   2.737   4.544   5.122
    1PA     H3S 2455   2.909   4.544   5.134
    1PA     C12 2456   2.828   4.746   5.147
    1PA     H2R 2457   2.921   4.800   5.129
    1PA     H2S 2458   2.742   4.806   5.115
    2PC     C11 2459   2.809   4.733   5.296
    2PC     O12 2460   2.886   4.661   5.356
    2PC     O11 2461   2.719   4.817   5.351
    2PC      C1 2462   2.679   4.803   5.488
    2PC      HR 2463   2.635   4.709   5.523
    2PC      HS 2464   2.766   4.827   5.551
    2PC      C2 2465   2.574   4.912   5.515
    2PC      HX 2466   2.619   5.011   5.506
    2PC      C3 2467   2.503   4.891   5.650
    2PC      HA 2468   2.578   4.927   5.721
    2PC      HB 2469   2.418   4.959   5.659
    2PC     O31 2470   2.468   4.752   5.661
    2PC     P31 2471   2.431   4.689   5.803
    2PC     O32 2472   2.324   4.575   5.768
    2PC     C31 2473   2.244   4.524   5.876
    2PC     H1A 2474   2.291   4.439   5.926
    2PC     H1B 2475   2.224   4.600   5.953
    2PC     C32 2476   2.109   4.487   5.812
    2PC     H2A 2477   2.064   4.584   5.790
    2PC     H2B 2478   2.134   4.431   5.722
    2PC     N31 2479   2.018   4.404   5.897
    2PC     C33 2480   1.883   4.433   5.838
    2PC     H3A 2481   1.867   4.541   5.824
    2PC     H3B 2482   1.881   4.382   5.742
    2PC     H3C 2483   1.809   4.384   5.902
    2PC     C34 2484   2.044   4.257   5.882
    2PC     H4A 2485   2.115   4.224   5.958
    2PC     H4B 2486   1.946   4.209   5.897
    2PC     H4C 2487   2.064   4.231   5.778
    2PC     C35 2488   2.016   4.442   6.042
    2PC     H5A 2489   2.024   4.551   6.043
    2PC     H5B 2490   2.110   4.401   6.081
    2PC     H5C 2491   1.923   4.409   6.088
    2PC     O33 2492   2.545   4.615   5.864
    2PC     O34 2493   2.370   4.790   5.892
    2PC     O21 2494   2.476   4.896   5.411
    2PC     C21 2495   2.376   4.984   5.395
    2PC     O22 2496   2.359   5.082   5.465
    3OL     C12 2497   2.295   4.946   5.273
    3OL     H2R 2498   2.214   4.878   5.299
    3OL     H2S 2499   2.366   4.899   5.204
    3OL     C13 2500   2.239   5.065   5.193
    3OL     H3R 2501   2.322   5.113   5.141
    3OL     H3S 2502   2.189   5.126   5.269
    3OL     C14 2503   2.131   5.018   5.095
    3OL     H4R 2504   2.043   4.979   5.147
    3OL     H4S 2505   2.178   4.942   5.031
    3OL     C15 2506   2.088   5.135   5.006
    3OL     H5R 2507   2.089   5.107   4.901
    3OL     H5S 2508   2.159   5.217   5.021
    3OL     C16 2509   1.956   5.201   5.049
    3OL     H6R 2510   1.948   5.228   5.155
    3OL     H6S 2511   1.879   5.124   5.034
    3OL     C17 2512   1.915   5.318   4.959
    3OL     H7R 2513   1.929   5.289   4.855
    3OL     H7S 2514   1.981   5.402   4.983
    3OL     C18 2515   1.773   5.370   4.986
    3OL     H8R 2516   1.753   5.474   4.958
    3OL     H8S 2517   1.767   5.386   5.094
    3OL     C19 2518   1.662   5.283   4.933
    3OL     H9R 2519   1.628   5.207   5.002
    3OL    C110 2520   1.608   5.295   4.812
    3OL    H10R 2521   1.531   5.225   4.780
    3OL    C111 2522   1.669   5.383   4.706
    3OL    H11R 2523   1.767   5.341   4.682
    3OL    H11S 2524   1.689   5.483   4.745
    3OL    C112 2525   1.584   5.404   4.580
    3OL    H12R 2526   1.632   5.481   4.518
    3OL    H12S 2527   1.492   5.458   4.599
    3OL    C113 2528   1.561   5.279   4.495
    3OL    H13R 2529   1.526   5.201   4.562
    3OL    H13S 2530   1.658   5.238   4.466
    3OL    C114 2531   1.467   5.309   4.377
    3OL    H14R 2532   1.491   5.408   4.337
    3OL    H14S 2533   1.366   5.330   4.412
    3OL    C115 2534   1.461   5.198   4.272
    3OL    H15R 2535   1.395   5.120   4.311
    3OL    H15S 2536   1.557   5.147   4.277
    3OL    C116 2537   1.434   5.232   4.124
    3OL    H16R 2538   1.330   5.263   4.115
    3OL    H16S 2539   1.431   5.139   4.067
    3OL    C117 2540   1.526   5.339   4.065
    3OL    H17R 2541   1.497   5.441   4.091
    3OL    H17S 2542   1.526   5.317   3.957
    3OL    C118 2543   1.670   5.319   4.113
    3OL    H18R 2544   1.680   5.360   4.214
    3OL    H18S 2545   1.738   5.373   4.047
    3OL    H18T 2546   1.697   5.213   4.114
    1PA    C116 2547   4.430   3.768   3.911
    1PA    H16R 2548   4.424   3.708   4.002
    1PA    H16S 2549   4.358   3.722   3.843
    1PA    H16T 2550   4.404   3.869   3.943
    1PA    C115 2551   4.576   3.767   3.864
    1PA    H15R 2552   4.616   3.665   3.861
    1PA    H15S 2553   4.584   3.801   3.760
    1PA    C114 2554   4.656   3.859   3.958
    1PA    H14R 2555   4.622   3.961   3.939
    1PA    H14S 2556   4.637   3.822   4.059
    1PA    C113 2557   4.807   3.853   3.937
    1PA    H13R 2558   4.841   3.753   3.963
    1PA    H13S 2559   4.829   3.859   3.830
    1PA    C112 2560   4.895   3.963   3.998
    1PA    H12R 2561   4.997   3.965   3.959
    1PA    H12S 2562   4.861   4.063   3.969
    1PA    C111 2563   4.898   3.954   4.151
    1PA    H11R 2564   4.957   4.034   4.196
    1PA    H11S 2565   4.797   3.971   4.187
    1PA    C110 2566   4.947   3.819   4.206
    1PA    H10R 2567   4.870   3.746   4.177
    1PA    H10S 2568   5.046   3.798   4.166
    1PA     C19 2569   4.953   3.822   4.359
    1PA     H9R 2570   5.017   3.741   4.394
    1PA     H9S 2571   4.976   3.920   4.404
    1PA     C18 2572   4.815   3.792   4.419
    1PA     H8R 2573   4.754   3.880   4.397
    1PA     H8S 2574   4.769   3.699   4.383
    1PA     C17 2575   4.813   3.792   4.572
    1PA     H7R 2576   4.863   3.880   4.614
    1PA     H7S 2577   4.707   3.797   4.601
    1PA     C16 2578   4.878   3.668   4.634
    1PA     H6R 2579   4.834   3.578   4.590
    1PA     H6S 2580   4.985   3.662   4.613
    1PA     C15 2581   4.852   3.669   4.785
    1PA     H5R 2582   4.885   3.757   4.841
    1PA     H5S 2583   4.744   3.674   4.801
    1PA     C14 2584   4.906   3.540   4.847
    1PA     H4R 2585   4.846   3.453   4.817
    1PA     H4S 2586   5.009   3.533   4.811
    1PA     C13 2587   4.883   3.545   4.998
    1PA     H3R 2588   4.946   3.471   5.048
    1PA     H3S 2589   4.935   3.636   5.030
    1PA     C12 2590   4.737   3.532   5.042
    1PA     H2R 2591   4.680   3.609   4.989
    1PA     H2S 2592   4.703   3.433   5.010
    2PC     C11 2593   4.715   3.550   5.190
    2PC     O12 2594   4.785   3.607   5.271
    2PC     O11 2595   4.603   3.483   5.222
    2PC      C1 2596   4.537   3.513   5.346
    2PC      HR 2597   4.456   3.440   5.361
    2PC      HS 2598   4.617   3.508   5.420
    2PC      C2 2599   4.482   3.655   5.360
    2PC      HX 2600   4.556   3.728   5.326
    2PC      C3 2601   4.433   3.676   5.504
    2PC      HA 2602   4.520   3.682   5.570
    2PC      HB 2603   4.383   3.774   5.498
    2PC     O31 2604   4.354   3.564   5.546
    2PC     P31 2605   4.311   3.573   5.700
    2PC     O32 2606   4.452   3.553   5.774
    2PC     C31 2607   4.465   3.450   5.873
    2PC     H1A 2608   4.421   3.357   5.836
    2PC     H1B 2609   4.568   3.420   5.895
    2PC     C32 2610   4.394   3.498   6.000
    2PC     H2A 2611   4.305   3.550   5.965
    2PC     H2B 2612   4.367   3.417   6.069
    2PC     N31 2613   4.478   3.592   6.082
    2PC     C33 2614   4.531   3.710   6.006
    2PC     H3A 2615   4.570   3.683   5.908
    2PC     H3B 2616   4.458   3.790   6.005
    2PC     H3C 2617   4.610   3.756   6.066
    2PC     C34 2618   4.382   3.645   6.184
    2PC     H4A 2619   4.303   3.696   6.130
    2PC     H4B 2620   4.349   3.556   6.239
    2PC     H4C 2621   4.437   3.713   6.250
    2PC     C35 2622   4.590   3.530   6.160
    2PC     H5A 2623   4.547   3.438   6.198
    2PC     H5B 2624   4.629   3.595   6.239
    2PC     H5C 2625   4.676   3.502   6.098
    2PC     O33 2626   4.258   3.705   5.741
    2PC     O34 2627   4.207   3.470   5.727
    2PC     O21 2628   4.368   3.649   5.272
    2PC     C21 2629   4.378   3.678   5.141
    2PC     O22 2630   4.484   3.720   5.098
    3OL     C12 2631   4.247   3.662   5.069
    3OL     H2R 2632   4.161   3.685   5.133
    3OL     H2S 2633   4.248   3.559   5.033
    3OL     C13 2634   4.238   3.746   4.941
    3OL     H3R 2635   4.313   3.716   4.868
    3OL     H3S 2636   4.251   3.853   4.955
    3OL     C14 2637   4.098   3.736   4.877
    3OL     H4R 2638   4.017   3.748   4.949
    3OL     H4S 2639   4.077   3.638   4.836
    3OL     C15 2640   4.067   3.840   4.768
    3OL     H5R 2641   4.132   3.808   4.687
    3OL     H5S 2642   4.103   3.938   4.802
    3OL     C16 2643   3.920   3.830   4.725
    3OL     H6R 2644   3.908   3.925   4.673
    3OL     H6S 2645   3.852   3.818   4.809
    3OL     C17 2646   3.896   3.710   4.633
    3OL     H7R 2647   3.917   3.617   4.685
    3OL     H7S 2648   3.964   3.708   4.547
    3OL     C18 2649   3.747   3.707   4.594
    3OL     H8R 2650   3.725   3.796   4.534
    3OL     H8S 2651   3.680   3.707   4.680
    3OL     C19 2652   3.732   3.583   4.510
    3OL     H9R 2653   3.712   3.496   4.572
    3OL    C110 2654   3.724   3.572   4.378
    3OL    H10R 2655   3.718   3.474   4.332
    3OL    C111 2656   3.733   3.687   4.280
    3OL    H11R 2657   3.834   3.690   4.239
    3OL    H11S 2658   3.721   3.785   4.326
    3OL    C112 2659   3.632   3.668   4.167
    3OL    H12R 2660   3.534   3.647   4.211
    3OL    H12S 2661   3.640   3.577   4.108
    3OL    C113 2662   3.632   3.783   4.065
    3OL    H13R 2663   3.727   3.789   4.011
    3OL    H13S 2664   3.620   3.875   4.124
    3OL    C114 2665   3.501   3.775   3.985
    3OL    H14R 2666   3.476   3.876   3.953
    3OL    H14S 2667   3.418   3.726   4.037
    3OL    C115 2668   3.516   3.699   3.853
    3OL    H15R 2669   3.432   3.632   3.832
    3OL    H15S 2670   3.598   3.627   3.865
    3OL    C116 2671   3.540   3.789   3.731
    3OL    H16R 2672   3.629   3.848   3.752
    3OL    H16S 2673   3.452   3.851   3.710
    3OL    C117 2674   3.566   3.723   3.595
    3OL    H17R 2675   3.655   3.660   3.597
    3OL    H17S 2676   3.579   3.810   3.530
    3OL    C118 2677   3.448   3.639   3.545
    3OL    H18R 2678   3.351   3.685   3.562
    3OL    H18S 2679   3.435   3.552   3.609
    3OL    H18T 2680   3.461   3.606   3.441
    1PA    C116 2681   0.713   5.961   4.257
    1PA    H16R 2682   0.640   6.040   4.268
    1PA    H16S 2683   0.702   5.927   4.154
    1PA    H16T 2684   0.811   6.010   4.265
    1PA    C115 2685   0.699   5.836   4.345
    1PA    H15R 2686   0.607   5.784   4.315
    1PA    H15S 2687   0.782   5.766   4.329
    1PA    C114 2688   0.686   5.877   4.492
    1PA    H14R 2689   0.774   5.936   4.518
    1PA    H14S 2690   0.600   5.945   4.491
    1PA    C113 2691   0.672   5.762   4.592
    1PA    H13R 2692   0.610   5.682   4.550
    1PA    H13S 2693   0.774   5.722   4.597
    1PA    C112 2694   0.632   5.808   4.733
    1PA    H12R 2695   0.560   5.891   4.727
    1PA    H12S 2696   0.575   5.723   4.772
    1PA    C111 2697   0.755   5.838   4.819
    1PA    H11R 2698   0.826   5.757   4.803
    1PA    H11S 2699   0.804   5.933   4.797
    1PA    C110 2700   0.721   5.835   4.969
    1PA    H10R 2701   0.656   5.922   4.979
    1PA    H10S 2702   0.657   5.751   4.994
    1PA     C19 2703   0.843   5.839   5.062
    1PA     H9R 2704   0.892   5.741   5.054
    1PA     H9S 2705   0.908   5.922   5.035
    1PA     C18 2706   0.797   5.876   5.204
    1PA     H8R 2707   0.760   5.979   5.202
    1PA     H8S 2708   0.722   5.805   5.239
    1PA     C17 2709   0.918   5.864   5.298
    1PA     H7R 2710   0.961   5.765   5.286
    1PA     H7S 2711   0.997   5.932   5.267
    1PA     C16 2712   0.875   5.882   5.444
    1PA     H6R 2713   0.965   5.906   5.502
    1PA     H6S 2714   0.813   5.971   5.451
    1PA     C15 2715   0.794   5.764   5.499
    1PA     H5R 2716   0.700   5.745   5.446
    1PA     H5S 2717   0.853   5.672   5.498
    1PA     C14 2718   0.769   5.800   5.646
    1PA     H4R 2719   0.863   5.827   5.694
    1PA     H4S 2720   0.705   5.887   5.661
    1PA     C13 2721   0.702   5.693   5.733
    1PA     H3R 2722   0.606   5.650   5.701
    1PA     H3S 2723   0.778   5.615   5.741
    1PA     C12 2724   0.675   5.734   5.878
    1PA     H2R 2725   0.668   5.646   5.942
    1PA     H2S 2726   0.766   5.782   5.916
    2PC     C11 2727   0.559   5.825   5.908
    2PC     O12 2728   0.571   5.945   5.923
    2PC     O11 2729   0.444   5.758   5.930
    2PC      C1 2730   0.329   5.818   5.990
    2PC      HR 2731   0.315   5.924   5.967
    2PC      HS 2732   0.237   5.768   5.959
    2PC      C2 2733   0.342   5.808   6.143
    2PC      HX 2734   0.254   5.853   6.188
    2PC      C3 2735   0.453   5.889   6.213
    2PC      HA 2736   0.552   5.851   6.186
    2PC      HB 2737   0.449   5.996   6.190
    2PC     O31 2738   0.428   5.859   6.351
    2PC     P31 2739   0.523   5.905   6.472
    2PC     O32 2740   0.480   5.802   6.588
    2PC     C31 2741   0.531   5.668   6.582
    2PC     H1A 2742   0.518   5.616   6.486
    2PC     H1B 2743   0.639   5.674   6.576
    2PC     C32 2744   0.479   5.594   6.706
    2PC     H2A 2745   0.371   5.597   6.696
    2PC     H2B 2746   0.513   5.491   6.696
    2PC     N31 2747   0.528   5.640   6.840
    2PC     C33 2748   0.477   5.539   6.938
    2PC     H3A 2749   0.520   5.442   6.916
    2PC     H3B 2750   0.515   5.573   7.035
    2PC     H3C 2751   0.369   5.547   6.930
    2PC     C34 2752   0.678   5.653   6.847
    2PC     H4A 2753   0.721   5.554   6.830
    2PC     H4B 2754   0.707   5.729   6.775
    2PC     H4C 2755   0.694   5.689   6.949
    2PC     C35 2756   0.465   5.773   6.871
    2PC     H5A 2757   0.358   5.763   6.852
    2PC     H5B 2758   0.499   5.858   6.812
    2PC     H5C 2759   0.484   5.808   6.973
    2PC     O33 2760   0.664   5.897   6.427
    2PC     O34 2761   0.500   6.043   6.521
    2PC     O21 2762   0.326   5.674   6.190
    2PC     C21 2763   0.422   5.580   6.181
    2PC     O22 2764   0.539   5.603   6.164
    3OL     C12 2765   0.362   5.442   6.174
    3OL     H2R 2766   0.298   5.430   6.262
    3OL     H2S 2767   0.450   5.380   6.190
    3OL     C13 2768   0.277   5.419   6.049
    3OL     H3R 2769   0.217   5.509   6.031
    3OL     H3S 2770   0.220   5.326   6.050
    3OL     C14 2771   0.373   5.408   5.930
    3OL     H4R 2772   0.457   5.340   5.946
    3OL     H4S 2773   0.415   5.503   5.896
    3OL     C15 2774   0.303   5.351   5.806
    3OL     H5R 2775   0.210   5.408   5.794
    3OL     H5S 2776   0.278   5.245   5.809
    3OL     C16 2777   0.399   5.375   5.689
    3OL     H6R 2778   0.414   5.281   5.636
    3OL     H6S 2779   0.497   5.410   5.724
    3OL     C17 2780   0.331   5.475   5.595
    3OL     H7R 2781   0.409   5.525   5.538
    3OL     H7S 2782   0.281   5.556   5.648
    3OL     C18 2783   0.232   5.396   5.508
    3OL     H8R 2784   0.168   5.338   5.574
    3OL     H8S 2785   0.289   5.320   5.453
    3OL     C19 2786   0.164   5.481   5.404
    3OL     H9R 2787   0.066   5.513   5.439
    3OL    C110 2788   0.216   5.505   5.284
    3OL    H10R 2789   0.151   5.553   5.211
    3OL    C111 2790   0.352   5.466   5.233
    3OL    H11R 2791   0.342   5.374   5.176
    3OL    H11S 2792   0.423   5.442   5.313
    3OL    C112 2793   0.418   5.578   5.151
    3OL    H12R 2794   0.520   5.549   5.123
    3OL    H12S 2795   0.422   5.665   5.216
    3OL    C113 2796   0.331   5.628   5.035
    3OL    H13R 2797   0.375   5.720   4.997
    3OL    H13S 2798   0.241   5.663   5.085
    3OL    C114 2799   0.305   5.522   4.927
    3OL    H14R 2800   0.246   5.443   4.974
    3OL    H14S 2801   0.394   5.466   4.897
    3OL    C115 2802   0.229   5.580   4.807
    3OL    H15R 2803   0.146   5.638   4.848
    3OL    H15S 2804   0.177   5.510   4.742
    3OL    C116 2805   0.314   5.670   4.715
    3OL    H16R 2806   0.404   5.613   4.690
    3OL    H16S 2807   0.334   5.766   4.763
    3OL    C117 2808   0.237   5.710   4.589
    3OL    H17R 2809   0.154   5.781   4.601
    3OL    H17S 2810   0.200   5.616   4.548
    3OL    C118 2811   0.337   5.780   4.496
    3OL    H18R 2812   0.409   5.852   4.536
    3OL    H18S 2813   0.284   5.830   4.416
    3OL    H18T 2814   0.404   5.704   4.453
    1PA    C116 2815   0.528   3.302   4.212
    1PA    H16R 2816   0.560   3.227   4.139
    1PA    H16S 2817   0.505   3.395   4.160
    1PA    H16T 2818   0.439   3.257   4.255
    1PA    C115 2819   0.630   3.319   4.326
    1PA    H15R 2820   0.723   3.348   4.277
    1PA    H15S 2821   0.604   3.391   4.404
    1PA    C114 2822   0.645   3.181   4.390
    1PA    H14R 2823   0.554   3.151   4.443
    1PA    H14S 2824   0.672   3.102   4.320
    1PA    C113 2825   0.761   3.191   4.490
    1PA    H13R 2826   0.778   3.091   4.530
    1PA    H13S 2827   0.847   3.226   4.433
    1PA    C112 2828   0.745   3.294   4.602
    1PA    H12R 2829   0.838   3.310   4.657
    1PA    H12S 2830   0.724   3.393   4.561
    1PA    C111 2831   0.629   3.277   4.700
    1PA    H11R 2832   0.639   3.366   4.762
    1PA    H11S 2833   0.534   3.293   4.648
    1PA    C110 2834   0.632   3.148   4.783
    1PA    H10R 2835   0.612   3.059   4.722
    1PA    H10S 2836   0.732   3.150   4.827
    1PA     C19 2837   0.520   3.148   4.887
    1PA     H9R 2838   0.546   3.235   4.947
    1PA     H9S 2839   0.425   3.163   4.836
    1PA     C18 2840   0.518   3.021   4.974
    1PA     H8R 2841   0.619   2.994   5.006
    1PA     H8S 2842   0.456   3.042   5.061
    1PA     C17 2843   0.454   2.910   4.890
    1PA     H7R 2844   0.366   2.950   4.838
    1PA     H7S 2845   0.512   2.886   4.801
    1PA     C16 2846   0.431   2.781   4.970
    1PA     H6R 2847   0.381   2.720   4.895
    1PA     H6S 2848   0.527   2.734   4.995
    1PA     C15 2849   0.332   2.784   5.087
    1PA     H5R 2850   0.366   2.859   5.158
    1PA     H5S 2851   0.231   2.811   5.052
    1PA     C14 2852   0.334   2.656   5.171
    1PA     H4R 2853   0.315   2.575   5.100
    1PA     H4S 2854   0.432   2.650   5.218
    1PA     C13 2855   0.223   2.660   5.277
    1PA     H3R 2856   0.211   2.762   5.316
    1PA     H3S 2857   0.130   2.616   5.241
    1PA     C12 2858   0.260   2.556   5.383
    1PA     H2R 2859   0.270   2.458   5.336
    1PA     H2S 2860   0.355   2.570   5.435
    2PC     C11 2861   0.160   2.530   5.493
    2PC     O12 2862   0.061   2.598   5.513
    2PC     O11 2863   0.190   2.416   5.557
    2PC      C1 2864   0.110   2.342   5.651
    2PC      HR 2865   0.165   2.254   5.687
    2PC      HS 2866   0.094   2.409   5.736
    2PC      C2 2867  -0.016   2.289   5.582
    2PC      HX 2868  -0.080   2.369   5.544
    2PC      C3 2869  -0.097   2.210   5.686
    2PC      HA 2870  -0.114   2.267   5.778
    2PC      HB 2871  -0.194   2.175   5.650
    2PC     O31 2872  -0.021   2.094   5.726
    2PC     P31 2873  -0.092   2.014   5.845
    2PC     O32 2874  -0.234   1.967   5.787
    2PC     C31 2875  -0.353   1.949   5.867
    2PC     H1A 2876  -0.389   2.043   5.909
    2PC     H1B 2877  -0.429   1.896   5.809
    2PC     C32 2878  -0.332   1.864   5.993
    2PC     H2A 2879  -0.277   1.773   5.967
    2PC     H2B 2880  -0.272   1.925   6.061
    2PC     N31 2881  -0.453   1.822   6.071
    2PC     C33 2882  -0.491   1.684   6.026
    2PC     H3A 2883  -0.525   1.686   5.923
    2PC     H3B 2884  -0.409   1.613   6.013
    2PC     H3C 2885  -0.569   1.646   6.093
    2PC     C34 2886  -0.424   1.815   6.217
    2PC     H4A 2887  -0.517   1.800   6.272
    2PC     H4B 2888  -0.349   1.739   6.241
    2PC     H4C 2889  -0.384   1.912   6.249
    2PC     C35 2890  -0.566   1.920   6.056
    2PC     H5A 2891  -0.645   1.897   6.127
    2PC     H5B 2892  -0.598   1.909   5.952
    2PC     H5C 2893  -0.519   2.017   6.075
    2PC     O33 2894  -0.018   1.890   5.879
    2PC     O34 2895  -0.117   2.092   5.968
    2PC     O21 2896   0.019   2.197   5.477
    2PC     C21 2897  -0.080   2.150   5.399
    2PC     O22 2898  -0.182   2.215   5.383
    3OL     C12 2899  -0.062   2.020   5.324
    3OL     H2R 2900  -0.144   2.012   5.253
    3OL     H2S 2901  -0.054   1.942   5.400
    3OL     C13 2902   0.067   2.025   5.241
    3OL     H3R 2903   0.079   1.926   5.196
    3OL     H3S 2904   0.148   2.045   5.312
    3OL     C14 2905   0.076   2.131   5.131
    3OL     H4R 2906   0.064   2.229   5.177
    3OL     H4S 2907  -0.012   2.116   5.068
    3OL     C15 2908   0.210   2.137   5.056
    3OL     H5R 2909   0.235   2.040   5.014
    3OL     H5S 2910   0.280   2.174   5.132
    3OL     C16 2911   0.221   2.245   4.947
    3OL     H6R 2912   0.322   2.286   4.943
    3OL     H6S 2913   0.171   2.338   4.975
    3OL     C17 2914   0.165   2.205   4.809
    3OL     H7R 2915   0.056   2.197   4.809
    3OL     H7S 2916   0.190   2.102   4.784
    3OL     C18 2917   0.193   2.307   4.698
    3OL     H8R 2918   0.166   2.406   4.734
    3OL     H8S 2919   0.142   2.269   4.609
    3OL     C19 2920   0.339   2.328   4.670
    3OL     H9R 2921   0.413   2.287   4.739
    3OL    C110 2922   0.385   2.390   4.562
    3OL    H10R 2923   0.492   2.407   4.554
    3OL    C111 2924   0.311   2.456   4.448
    3OL    H11R 2925   0.356   2.555   4.457
    3OL    H11S 2926   0.204   2.461   4.470
    3OL    C112 2927   0.316   2.381   4.314
    3OL    H12R 2928   0.229   2.316   4.311
    3OL    H12S 2929   0.404   2.317   4.307
    3OL    C113 2930   0.334   2.491   4.208
    3OL    H13R 2931   0.424   2.550   4.228
    3OL    H13S 2932   0.247   2.555   4.216
    3OL    C114 2933   0.332   2.433   4.066
    3OL    H14R 2934   0.240   2.378   4.045
    3OL    H14S 2935   0.419   2.366   4.059
    3OL    C115 2936   0.353   2.543   3.962
    3OL    H15R 2937   0.441   2.601   3.991
    3OL    H15S 2938   0.281   2.626   3.965
    3OL    C116 2939   0.371   2.478   3.824
    3OL    H16R 2940   0.278   2.422   3.813
    3OL    H16S 2941   0.440   2.393   3.823
    3OL    C117 2942   0.386   2.577   3.707
    3OL    H17R 2943   0.487   2.619   3.712
    3OL    H17S 2944   0.318   2.662   3.713
    3OL    C118 2945   0.386   2.507   3.570
    3OL    H18R 2946   0.286   2.471   3.549
    3OL    H18S 2947   0.461   2.428   3.569
    3OL    H18T 2948   0.410   2.580   3.492
    1PA    C116 2949   3.945   1.408   3.802
    1PA    H16R 2950   3.928   1.441   3.699
    1PA    H16S 2951   3.872   1.457   3.867
    1PA    H16T 2952   3.930   1.301   3.813
    1PA    C115 2953   4.084   1.459   3.840
    1PA    H15R 2954   4.146   1.436   3.754
    1PA    H15S 2955   4.076   1.566   3.859
    1PA    C114 2956   4.145   1.394   3.965
    1PA    H14R 2957   4.220   1.464   4.002
    1PA    H14S 2958   4.069   1.397   4.043
    1PA    C113 2959   4.221   1.260   3.957
    1PA    H13R 2960   4.155   1.176   3.936
    1PA    H13S 2961   4.304   1.262   3.885
    1PA    C112 2962   4.293   1.226   4.088
    1PA    H12R 2963   4.356   1.143   4.055
    1PA    H12S 2964   4.352   1.314   4.115
    1PA    C111 2965   4.194   1.179   4.195
    1PA    H11R 2966   4.126   1.258   4.226
    1PA    H11S 2967   4.123   1.112   4.145
    1PA    C110 2968   4.265   1.111   4.313
    1PA    H10R 2969   4.369   1.096   4.282
    1PA    H10S 2970   4.265   1.161   4.409
    1PA     C19 2971   4.207   0.969   4.323
    1PA     H9R 2972   4.102   0.974   4.350
    1PA     H9S 2973   4.220   0.911   4.231
    1PA     C18 2974   4.291   0.902   4.434
    1PA     H8R 2975   4.398   0.921   4.436
    1PA     H8S 2976   4.256   0.949   4.527
    1PA     C17 2977   4.279   0.751   4.454
    1PA     H7R 2978   4.175   0.716   4.451
    1PA     H7S 2979   4.335   0.705   4.372
    1PA     C16 2980   4.338   0.709   4.590
    1PA     H6R 2981   4.443   0.736   4.600
    1PA     H6S 2982   4.286   0.757   4.673
    1PA     C15 2983   4.340   0.556   4.604
    1PA     H5R 2984   4.236   0.523   4.597
    1PA     H5S 2985   4.390   0.519   4.515
    1PA     C14 2986   4.403   0.507   4.735
    1PA     H4R 2987   4.415   0.399   4.732
    1PA     H4S 2988   4.502   0.552   4.741
    1PA     C13 2989   4.322   0.526   4.865
    1PA     H3R 2990   4.301   0.629   4.891
    1PA     H3S 2991   4.225   0.475   4.863
    1PA     C12 2992   4.401   0.477   4.986
    1PA     H2R 2993   4.419   0.370   4.976
    1PA     H2S 2994   4.502   0.518   4.994
    2PC     C11 2995   4.326   0.493   5.116
    2PC     O12 2996   4.227   0.428   5.144
    2PC     O11 2997   4.379   0.575   5.208
    2PC      C1 2998   4.318   0.595   5.337
    2PC      HR 2999   4.211   0.577   5.328
    2PC      HS 3000   4.364   0.520   5.403
    2PC      C2 3001   4.345   0.734   5.394
    2PC      HX 3002   4.453   0.731   5.412
    2PC      C3 3003   4.275   0.746   5.530
    2PC      HA 3004   4.167   0.747   5.518
    2PC      HB 3005   4.308   0.664   5.594
    2PC     O31 3006   4.299   0.873   5.593
    2PC     P31 3007   4.261   0.884   5.748
    2PC     O32 3008   4.353   1.005   5.800
    2PC     C31 3009   4.321   1.135   5.746
    2PC     H1A 3010   4.291   1.138   5.641
    2PC     H1B 3011   4.233   1.169   5.801
    2PC     C32 3012   4.433   1.233   5.784
    2PC     H2A 3013   4.447   1.241   5.892
    2PC     H2B 3014   4.523   1.178   5.754
    2PC     N31 3015   4.440   1.362   5.709
    2PC     C33 3016   4.330   1.453   5.755
    2PC     H3A 3017   4.336   1.543   5.693
    2PC     H3B 3018   4.240   1.397   5.731
    2PC     H3C 3019   4.348   1.474   5.861
    2PC     C34 3020   4.569   1.429   5.748
    2PC     H4A 3021   4.567   1.442   5.856
    2PC     H4B 3022   4.645   1.364   5.705
    2PC     H4C 3023   4.591   1.523   5.696
    2PC     C35 3024   4.446   1.338   5.561
    2PC     H5A 3025   4.491   1.241   5.541
    2PC     H5B 3026   4.506   1.415   5.512
    2PC     H5C 3027   4.344   1.348   5.524
    2PC     O33 3028   4.123   0.897   5.800
    2PC     O34 3029   4.308   0.765   5.823
    2PC     O21 3030   4.295   0.829   5.297
    2PC     C21 3031   4.338   0.955   5.292
    2PC     O22 3032   4.416   1.001   5.373
    3OL     C12 3033   4.260   1.028   5.185
    3OL     H2R 3034   4.156   0.996   5.194
    3OL     H2S 3035   4.313   0.998   5.094
    3OL     C13 3036   4.269   1.181   5.192
    3OL     H3R 3037   4.246   1.220   5.291
    3OL     H3S 3038   4.186   1.217   5.130
    3OL     C14 3039   4.401   1.246   5.149
    3OL     H4R 3040   4.489   1.184   5.168
    3OL     H4S 3041   4.422   1.340   5.201
    3OL     C15 3042   4.413   1.282   5.001
    3OL     H5R 3043   4.393   1.189   4.948
    3OL     H5S 3044   4.518   1.304   4.978
    3OL     C16 3045   4.314   1.391   4.957
    3OL     H6R 3046   4.342   1.494   4.980
    3OL     H6S 3047   4.220   1.385   5.012
    3OL     C17 3048   4.287   1.380   4.806
    3OL     H7R 3049   4.216   1.460   4.785
    3OL     H7S 3050   4.243   1.285   4.774
    3OL     C18 3051   4.407   1.416   4.717
    3OL     H8R 3052   4.492   1.356   4.751
    3OL     H8S 3053   4.426   1.523   4.731
    3OL     C19 3054   4.375   1.392   4.572
    3OL     H9R 3055   4.278   1.344   4.558
    3OL    C110 3056   4.460   1.424   4.476
    3OL    H10R 3057   4.439   1.409   4.370
    3OL    C111 3058   4.596   1.485   4.497
    3OL    H11R 3059   4.671   1.452   4.424
    3OL    H11S 3060   4.642   1.453   4.591
    3OL    C112 3061   4.593   1.638   4.501
    3OL    H12R 3062   4.510   1.684   4.556
    3OL    H12S 3063   4.589   1.653   4.393
    3OL    C113 3064   4.723   1.685   4.567
    3OL    H13R 3065   4.810   1.637   4.521
    3OL    H13S 3066   4.739   1.649   4.669
    3OL    C114 3067   4.732   1.837   4.552
    3OL    H14R 3068   4.646   1.891   4.591
    3OL    H14S 3069   4.741   1.866   4.447
    3OL    C115 3070   4.858   1.891   4.622
    3OL    H15R 3071   4.944   1.840   4.579
    3OL    H15S 3072   4.846   1.852   4.723
    3OL    C116 3073   4.869   2.044   4.622
    3OL    H16R 3074   4.841   2.078   4.522
    3OL    H16S 3075   4.974   2.064   4.641
    3OL    C117 3076   4.775   2.117   4.719
    3OL    H17R 3077   4.806   2.108   4.823
    3OL    H17S 3078   4.678   2.067   4.717
    3OL    C118 3079   4.768   2.267   4.684
    3OL    H18R 3080   4.865   2.312   4.703
    3OL    H18S 3081   4.693   2.309   4.751
    3OL    H18T 3082   4.724   2.286   4.586
    1PA    C116 3083   5.003   6.291   4.551
    1PA    H16R 3084   5.053   6.386   4.572
    1PA    H16S 3085   4.980   6.297   4.444
    1PA    H16T 3086   5.076   6.212   4.565
    1PA    C115 3087   4.874   6.284   4.635
    1PA    H15R 3088   4.901   6.244   4.733
    1PA    H15S 3089   4.828   6.379   4.662
    1PA    C114 3090   4.771   6.201   4.558
    1PA    H14R 3091   4.749   6.251   4.464
    1PA    H14S 3092   4.816   6.104   4.537
    1PA    C113 3093   4.636   6.204   4.632
    1PA    H13R 3094   4.652   6.167   4.734
    1PA    H13S 3095   4.618   6.311   4.645
    1PA    C112 3096   4.527   6.126   4.557
    1PA    H12R 3097   4.512   6.181   4.464
    1PA    H12S 3098   4.556   6.022   4.541
    1PA    C111 3099   4.397   6.131   4.639
    1PA    H11R 3100   4.426   6.100   4.740
    1PA    H11S 3101   4.350   6.230   4.637
    1PA    C110 3102   4.292   6.040   4.575
    1PA    H10R 3103   4.268   6.067   4.472
    1PA    H10S 3104   4.326   5.938   4.555
    1PA     C19 3105   4.160   6.030   4.652
    1PA     H9R 3106   4.101   6.122   4.645
    1PA     H9S 3107   4.110   5.951   4.595
    1PA     C18 3108   4.174   5.981   4.797
    1PA     H8R 3109   4.227   5.885   4.793
    1PA     H8S 3110   4.221   6.054   4.864
    1PA     C17 3111   4.034   5.944   4.847
    1PA     H7R 3112   3.965   6.029   4.839
    1PA     H7S 3113   3.999   5.864   4.782
    1PA     C16 3114   4.026   5.881   4.987
    1PA     H6R 3115   4.097   5.798   4.990
    1PA     H6S 3116   4.065   5.953   5.058
    1PA     C15 3117   3.884   5.836   5.024
    1PA     H5R 3118   3.816   5.921   5.033
    1PA     H5S 3119   3.845   5.779   4.939
    1PA     C14 3120   3.898   5.764   5.159
    1PA     H4R 3121   3.812   5.697   5.163
    1PA     H4S 3122   3.994   5.712   5.163
    1PA     C13 3123   3.891   5.864   5.275
    1PA     H3R 3124   3.945   5.959   5.263
    1PA     H3S 3125   3.787   5.894   5.287
    1PA     C12 3126   3.935   5.787   5.400
    1PA     H2R 3127   3.873   5.698   5.411
    1PA     H2S 3128   4.042   5.765   5.401
    2PC     C11 3129   3.912   5.865   5.527
    2PC     O12 3130   3.958   5.830   5.634
    2PC     O11 3131   3.827   5.969   5.519
    2PC      C1 3132   3.812   6.053   5.634
    2PC      HR 3133   3.739   6.131   5.607
    2PC      HS 3134   3.767   6.005   5.721
    2PC      C2 3135   3.942   6.128   5.664
    2PC      HX 3136   4.028   6.060   5.664
    2PC      C3 3137   3.929   6.204   5.797
    2PC      HA 3138   3.838   6.265   5.807
    2PC      HB 3139   3.925   6.136   5.882
    2PC     O31 3140   4.040   6.291   5.825
    2PC     P31 3141   4.055   6.352   5.973
    2PC     O32 3142   4.109   6.240   6.073
    2PC     C31 3143   4.032   6.214   6.192
    2PC     H1A 3144   3.989   6.307   6.228
    2PC     H1B 3145   3.958   6.134   6.177
    2PC     C32 3146   4.135   6.168   6.297
    2PC     H2A 3147   4.183   6.070   6.290
    2PC     H2B 3148   4.212   6.243   6.280
    2PC     N31 3149   4.101   6.174   6.443
    2PC     C33 3150   4.211   6.106   6.517
    2PC     H3A 3151   4.201   6.099   6.625
    2PC     H3B 3152   4.217   6.001   6.486
    2PC     H3C 3153   4.310   6.151   6.509
    2PC     C34 3154   4.065   6.313   6.488
    2PC     H4A 3155   4.141   6.374   6.441
    2PC     H4B 3156   3.966   6.339   6.450
    2PC     H4C 3157   4.073   6.316   6.597
    2PC     C35 3158   3.977   6.091   6.457
    2PC     H5A 3159   4.009   5.988   6.439
    2PC     H5B 3160   3.910   6.106   6.372
    2PC     H5C 3161   3.935   6.097   6.557
    2PC     O33 3162   4.147   6.469   5.965
    2PC     O34 3163   3.916   6.397   5.994
    2PC     O21 3164   3.971   6.225   5.562
    2PC     C21 3165   4.052   6.194   5.459
    2PC     O22 3166   4.115   6.091   5.446
    3OL     C12 3167   4.050   6.313   5.366
    3OL     H2R 3168   4.115   6.388   5.412
    3OL     H2S 3169   3.946   6.348   5.362
    3OL     C13 3170   4.110   6.289   5.227
    3OL     H3R 3171   4.062   6.207   5.174
    3OL     H3S 3172   4.212   6.259   5.252
    3OL     C14 3173   4.108   6.412   5.134
    3OL     H4R 3174   4.174   6.485   5.180
    3OL     H4S 3175   4.009   6.457   5.124
    3OL     C15 3176   4.157   6.385   4.992
    3OL     H5R 3177   4.072   6.351   4.931
    3OL     H5S 3178   4.223   6.299   5.011
    3OL     C16 3179   4.230   6.508   4.936
    3OL     H6R 3180   4.304   6.540   5.009
    3OL     H6S 3181   4.160   6.592   4.940
    3OL     C17 3182   4.300   6.480   4.802
    3OL     H7R 3183   4.351   6.384   4.812
    3OL     H7S 3184   4.384   6.550   4.793
    3OL     C18 3185   4.212   6.481   4.677
    3OL     H8R 3186   4.121   6.423   4.695
    3OL     H8S 3187   4.270   6.420   4.607
    3OL     C19 3188   4.182   6.617   4.619
    3OL     H9R 3189   4.257   6.670   4.561
    3OL    C110 3190   4.063   6.675   4.624
    3OL    H10R 3191   4.051   6.774   4.581
    3OL    C111 3192   3.933   6.642   4.692
    3OL    H11R 3193   3.931   6.541   4.735
    3OL    H11S 3194   3.855   6.649   4.616
    3OL    C112 3195   3.907   6.743   4.804
    3OL    H12R 3196   3.924   6.846   4.771
    3OL    H12S 3197   3.983   6.715   4.877
    3OL    C113 3198   3.771   6.733   4.874
    3OL    H13R 3199   3.762   6.786   4.970
    3OL    H13S 3200   3.753   6.634   4.917
    3OL    C114 3201   3.653   6.769   4.783
    3OL    H14R 3202   3.645   6.699   4.700
    3OL    H14S 3203   3.665   6.870   4.744
    3OL    C115 3204   3.519   6.765   4.857
    3OL    H15R 3205   3.521   6.821   4.951
    3OL    H15S 3206   3.498   6.660   4.877
    3OL    C116 3207   3.400   6.809   4.770
    3OL    H16R 3208   3.304   6.792   4.819
    3OL    H16S 3209   3.398   6.738   4.687
    3OL    C117 3210   3.404   6.952   4.715
    3OL    H17R 3211   3.317   6.962   4.651
    3OL    H17S 3212   3.502   6.963   4.666
    3OL    C118 3213   3.381   7.052   4.829
    3OL    H18R 3214   3.472   7.089   4.877
    3OL    H18S 3215   3.312   7.011   4.903
    3OL    H18T 3216   3.333   7.140   4.785
    1PA    C116 3217   5.625   3.804   4.264
    1PA    H16R 3218   5.689   3.723   4.229
    1PA    H16S 3219   5.548   3.830   4.191
    1PA    H16T 3220   5.584   3.776   4.362
    1PA    C115 3221   5.725   3.918   4.288
    1PA    H15R 3222   5.770   3.939   4.190
    1PA    H15S 3223   5.665   3.998   4.330
    1PA    C114 3224   5.846   3.880   4.375
    1PA    H14R 3225   5.894   3.792   4.332
    1PA    H14S 3226   5.912   3.967   4.382
    1PA    C113 3227   5.806   3.844   4.519
    1PA    H13R 3228   5.727   3.770   4.530
    1PA    H13S 3229   5.895   3.798   4.562
    1PA    C112 3230   5.780   3.977   4.591
    1PA    H12R 3231   5.844   4.060   4.560
    1PA    H12S 3232   5.677   4.007   4.568
    1PA    C111 3233   5.782   3.963   4.744
    1PA    H11R 3234   5.719   3.877   4.768
    1PA    H11S 3235   5.883   3.936   4.777
    1PA    C110 3236   5.749   4.095   4.815
    1PA    H10R 3237   5.818   4.170   4.777
    1PA    H10S 3238   5.658   4.131   4.766
    1PA     C19 3239   5.742   4.089   4.968
    1PA     H9R 3240   5.728   4.191   5.006
    1PA     H9S 3241   5.651   4.035   4.996
    1PA     C18 3242   5.865   4.024   5.033
    1PA     H8R 3243   5.848   3.919   5.007
    1PA     H8S 3244   5.962   4.063   5.002
    1PA     C17 3245   5.867   4.021   5.186
    1PA     H7R 3246   5.962   3.976   5.218
    1PA     H7S 3247   5.870   4.124   5.221
    1PA     C16 3248   5.752   3.937   5.243
    1PA     H6R 3249   5.661   3.991   5.214
    1PA     H6S 3250   5.752   3.835   5.206
    1PA     C15 3251   5.765   3.930   5.396
    1PA     H5R 3252   5.798   4.028   5.429
    1PA     H5S 3253   5.666   3.912   5.437
    1PA     C14 3254   5.876   3.832   5.437
    1PA     H4R 3255   5.862   3.738   5.384
    1PA     H4S 3256   5.974   3.866   5.403
    1PA     C13 3257   5.866   3.802   5.588
    1PA     H3R 3258   5.967   3.777   5.621
    1PA     H3S 3259   5.835   3.897   5.632
    1PA     C12 3260   5.768   3.691   5.628
    1PA     H2R 3261   5.667   3.715   5.593
    1PA     H2S 3262   5.799   3.594   5.590
    2PC     C11 3263   5.747   3.688   5.777
    2PC     O12 3264   5.836   3.670   5.858
    2PC     O11 3265   5.618   3.710   5.809
    2PC      C1 3266   5.588   3.730   5.948
    2PC      HR 3267   5.479   3.729   5.958
    2PC      HS 3268   5.637   3.648   6.001
    2PC      C2 3269   5.633   3.868   5.998
    2PC      HX 3270   5.740   3.890   5.986
    2PC      C3 3271   5.587   3.885   6.143
    2PC      HA 3272   5.623   3.799   6.201
    2PC      HB 3273   5.616   3.982   6.183
    2PC     O31 3274   5.443   3.877   6.149
    2PC     P31 3275   5.375   3.916   6.288
    2PC     O32 3276   5.241   3.829   6.281
    2PC     C31 3277   5.256   3.686   6.292
    2PC     H1A 3278   5.318   3.646   6.212
    2PC     H1B 3279   5.307   3.666   6.387
    2PC     C32 3280   5.117   3.622   6.304
    2PC     H2A 3281   5.111   3.530   6.362
    2PC     H2B 3282   5.054   3.694   6.356
    2PC     N31 3283   5.045   3.587   6.178
    2PC     C33 3284   4.998   3.713   6.111
    2PC     H3A 3285   5.075   3.784   6.082
    2PC     H3B 3286   4.941   3.676   6.025
    2PC     H3C 3287   4.930   3.760   6.182
    2PC     C34 3288   5.131   3.501   6.090
    2PC     H4A 3289   5.073   3.469   6.003
    2PC     H4B 3290   5.214   3.562   6.054
    2PC     H4C 3291   5.156   3.417   6.155
    2PC     C35 3292   4.925   3.503   6.210
    2PC     H5A 3293   4.957   3.407   6.250
    2PC     H5B 3294   4.873   3.475   6.118
    2PC     H5C 3295   4.868   3.565   6.279
    2PC     O33 3296   5.457   3.875   6.405
    2PC     O34 3297   5.351   4.061   6.310
    2PC     O21 3298   5.568   3.973   5.923
    2PC     C21 3299   5.624   4.095   5.921
    2PC     O22 3300   5.718   4.130   5.989
    3OL     C12 3301   5.563   4.185   5.817
    3OL     H2R 3302   5.619   4.279   5.812
    3OL     H2S 3303   5.461   4.213   5.842
    3OL     C13 3304   5.572   4.121   5.677
    3OL     H3R 3305   5.532   4.019   5.682
    3OL     H3S 3306   5.672   4.116   5.635
    3OL     C14 3307   5.478   4.202   5.586
    3OL     H4R 3308   5.513   4.305   5.586
    3OL     H4S 3309   5.378   4.201   5.631
    3OL     C15 3310   5.469   4.144   5.444
    3OL     H5R 3311   5.415   4.049   5.443
    3OL     H5S 3312   5.567   4.127   5.399
    3OL     C16 3313   5.396   4.246   5.355
    3OL     H6R 3314   5.435   4.347   5.367
    3OL     H6S 3315   5.290   4.252   5.380
    3OL     C17 3316   5.403   4.194   5.211
    3OL     H7R 3317   5.374   4.088   5.213
    3OL     H7S 3318   5.507   4.191   5.178
    3OL     C18 3319   5.305   4.272   5.121
    3OL     H8R 3320   5.354   4.369   5.117
    3OL     H8S 3321   5.209   4.283   5.172
    3OL     C19 3322   5.277   4.205   4.989
    3OL     H9R 3323   5.186   4.147   4.996
    3OL    C110 3324   5.331   4.224   4.869
    3OL    H10R 3325   5.285   4.177   4.782
    3OL    C111 3326   5.435   4.329   4.841
    3OL    H11R 3327   5.514   4.268   4.797
    3OL    H11S 3328   5.495   4.365   4.925
    3OL    C112 3329   5.397   4.431   4.732
    3OL    H12R 3330   5.322   4.497   4.776
    3OL    H12S 3331   5.354   4.386   4.643
    3OL    C113 3332   5.523   4.505   4.685
    3OL    H13R 3333   5.575   4.539   4.775
    3OL    H13S 3334   5.502   4.604   4.644
    3OL    C114 3335   5.615   4.414   4.602
    3OL    H14R 3336   5.550   4.384   4.519
    3OL    H14S 3337   5.648   4.324   4.654
    3OL    C115 3338   5.735   4.494   4.551
    3OL    H15R 3339   5.798   4.537   4.629
    3OL    H15S 3340   5.694   4.583   4.505
    3OL    C116 3341   5.811   4.410   4.447
    3OL    H16R 3342   5.757   4.378   4.358
    3OL    H16S 3343   5.861   4.315   4.468
    3OL    C117 3344   5.935   4.491   4.407
    3OL    H17R 3345   5.924   4.595   4.376
    3OL    H17S 3346   5.987   4.443   4.325
    3OL    C118 3347   6.039   4.500   4.521
    3OL    H18R 3348   6.115   4.574   4.496
    3OL    H18S 3349   6.093   4.407   4.541
    3OL    H18T 3350   5.986   4.521   4.614
    1PA    C116 3351   5.338   3.434   4.175
    1PA    H16R 3352   5.379   3.518   4.119
    1PA    H16S 3353   5.230   3.431   4.157
    1PA    H16T 3354   5.373   3.336   4.142
    1PA    C115 3355   5.383   3.468   4.318
    1PA    H15R 3356   5.492   3.475   4.325
    1PA    H15S 3357   5.352   3.572   4.327
    1PA    C114 3358   5.321   3.375   4.422
    1PA    H14R 3359   5.215   3.399   4.414
    1PA    H14S 3360   5.328   3.268   4.401
    1PA    C113 3361   5.378   3.418   4.558
    1PA    H13R 3362   5.487   3.430   4.560
    1PA    H13S 3363   5.334   3.517   4.569
    1PA    C112 3364   5.316   3.335   4.671
    1PA    H12R 3365   5.208   3.350   4.678
    1PA    H12S 3366   5.327   3.229   4.646
    1PA    C111 3367   5.381   3.364   4.808
    1PA    H11R 3368   5.488   3.352   4.822
    1PA    H11S 3369   5.360   3.467   4.837
    1PA    C110 3370   5.308   3.283   4.917
    1PA    H10R 3371   5.200   3.298   4.910
    1PA    H10S 3372   5.331   3.176   4.912
    1PA     C19 3373   5.358   3.326   5.055
    1PA     H9R 3374   5.461   3.289   5.054
    1PA     H9S 3375   5.366   3.432   5.080
    1PA     C18 3376   5.284   3.260   5.173
    1PA     H8R 3377   5.180   3.286   5.151
    1PA     H8S 3378   5.283   3.152   5.161
    1PA     C17 3379   5.329   3.300   5.314
    1PA     H7R 3380   5.431   3.266   5.328
    1PA     H7S 3381   5.331   3.409   5.312
    1PA     C16 3382   5.237   3.242   5.423
    1PA     H6R 3383   5.136   3.284   5.428
    1PA     H6S 3384   5.232   3.134   5.416
    1PA     C15 3385   5.297   3.273   5.561
    1PA     H5R 3386   5.327   3.378   5.563
    1PA     H5S 3387   5.219   3.259   5.636
    1PA     C14 3388   5.415   3.179   5.592
    1PA     H4R 3389   5.383   3.078   5.566
    1PA     H4S 3390   5.506   3.206   5.538
    1PA     C13 3391   5.449   3.194   5.741
    1PA     H3R 3392   5.474   3.300   5.752
    1PA     H3S 3393   5.358   3.187   5.801
    1PA     C12 3394   5.555   3.096   5.793
    1PA     H2R 3395   5.525   2.991   5.801
    1PA     H2S 3396   5.642   3.098   5.726
    2PC     C11 3397   5.586   3.134   5.936
    2PC     O12 3398   5.502   3.177   6.012
    2PC     O11 3399   5.714   3.109   5.966
    2PC      C1 3400   5.741   3.147   6.102
    2PC      HR 3401   5.710   3.249   6.125
    2PC      HS 3402   5.684   3.081   6.168
    2PC      C2 3403   5.892   3.123   6.118
    2PC      HX 3404   5.913   3.028   6.068
    2PC      C3 3405   5.939   3.135   6.263
    2PC      HA 3406   5.894   3.220   6.314
    2PC      HB 3407   5.903   3.052   6.324
    2PC     O31 3408   6.081   3.149   6.286
    2PC     P31 3409   6.141   3.145   6.435
    2PC     O32 3410   6.179   3.297   6.470
    2PC     C31 3411   6.239   3.377   6.367
    2PC     H1A 3412   6.307   3.319   6.304
    2PC     H1B 3413   6.161   3.400   6.293
    2PC     C32 3414   6.313   3.491   6.438
    2PC     H2A 3415   6.381   3.460   6.518
    2PC     H2B 3416   6.371   3.538   6.359
    2PC     N31 3417   6.220   3.595   6.492
    2PC     C33 3418   6.301   3.683   6.582
    2PC     H3A 3419   6.237   3.753   6.635
    2PC     H3B 3420   6.350   3.628   6.662
    2PC     H3C 3421   6.380   3.740   6.533
    2PC     C34 3422   6.165   3.683   6.383
    2PC     H4A 3423   6.088   3.743   6.431
    2PC     H4B 3424   6.242   3.736   6.327
    2PC     H4C 3425   6.122   3.619   6.306
    2PC     C35 3426   6.104   3.545   6.572
    2PC     H5A 3427   6.131   3.462   6.638
    2PC     H5B 3428   6.026   3.524   6.499
    2PC     H5C 3429   6.069   3.622   6.642
    2PC     O33 3430   6.054   3.093   6.543
    2PC     O34 3431   6.258   3.055   6.435
    2PC     O21 3432   5.961   3.224   6.041
    2PC     C21 3433   6.084   3.199   5.993
    2PC     O22 3434   6.139   3.091   5.988
    3OL     C12 3435   6.149   3.328   5.951
    3OL     H2R 3436   6.254   3.320   5.922
    3OL     H2S 3437   6.165   3.397   6.034
    3OL     C13 3438   6.069   3.401   5.842
    3OL     H3R 3439   6.098   3.504   5.821
    3OL     H3S 3440   5.962   3.406   5.866
    3OL     C14 3441   6.075   3.326   5.709
    3OL     H4R 3442   6.038   3.225   5.731
    3OL     H4S 3443   6.175   3.317   5.666
    3OL     C15 3444   5.980   3.383   5.602
    3OL     H5R 3445   6.004   3.489   5.600
    3OL     H5S 3446   5.882   3.367   5.647
    3OL     C16 3447   5.998   3.323   5.462
    3OL     H6R 3448   6.024   3.220   5.486
    3OL     H6S 3449   6.084   3.365   5.408
    3OL     C17 3450   5.871   3.346   5.379
    3OL     H7R 3451   5.839   3.450   5.386
    3OL     H7S 3452   5.787   3.301   5.432
    3OL     C18 3453   5.887   3.294   5.235
    3OL     H8R 3454   5.902   3.185   5.239
    3OL     H8S 3455   5.968   3.347   5.185
    3OL     C19 3456   5.751   3.308   5.172
    3OL     H9R 3457   5.679   3.231   5.199
    3OL    C110 3458   5.718   3.408   5.092
    3OL    H10R 3459   5.615   3.411   5.057
    3OL    C111 3460   5.805   3.526   5.058
    3OL    H11R 3461   5.905   3.491   5.031
    3OL    H11S 3462   5.812   3.577   5.155
    3OL    C112 3463   5.736   3.616   4.954
    3OL    H12R 3464   5.780   3.716   4.963
    3OL    H12S 3465   5.630   3.633   4.975
    3OL    C113 3466   5.757   3.553   4.816
    3OL    H13R 3467   5.699   3.612   4.745
    3OL    H13S 3468   5.726   3.448   4.817
    3OL    C114 3469   5.903   3.554   4.771
    3OL    H14R 3470   5.972   3.500   4.836
    3OL    H14S 3471   5.945   3.654   4.787
    3OL    C115 3472   5.915   3.513   4.623
    3OL    H15R 3473   5.848   3.571   4.559
    3OL    H15S 3474   5.887   3.408   4.616
    3OL    C116 3475   6.059   3.533   4.573
    3OL    H16R 3476   6.127   3.465   4.624
    3OL    H16S 3477   6.096   3.633   4.595
    3OL    C117 3478   6.067   3.503   4.423
    3OL    H17R 3479   5.996   3.568   4.372
    3OL    H17S 3480   6.031   3.404   4.392
    3OL    C118 3481   6.211   3.532   4.377
    3OL    H18R 3482   6.273   3.473   4.444
    3OL    H18S 3483   6.240   3.637   4.379
    3OL    H18T 3484   6.215   3.491   4.275
    1PA    C116 3485   5.453   1.209   4.454
    1PA    H16R 3486   5.472   1.121   4.393
    1PA    H16S 3487   5.508   1.192   4.547
    1PA    H16T 3488   5.346   1.229   4.460
    1PA    C115 3489   5.512   1.333   4.384
    1PA    H15R 3490   5.615   1.307   4.359
    1PA    H15S 3491   5.457   1.363   4.294
    1PA    C114 3492   5.513   1.460   4.470
    1PA    H14R 3493   5.567   1.437   4.562
    1PA    H14S 3494   5.556   1.547   4.420
    1PA    C113 3495   5.374   1.500   4.521
    1PA    H13R 3496   5.302   1.517   4.440
    1PA    H13S 3497   5.338   1.415   4.579
    1PA    C112 3498   5.381   1.624   4.611
    1PA    H12R 3499   5.439   1.598   4.699
    1PA    H12S 3500   5.432   1.709   4.564
    1PA    C111 3501   5.243   1.675   4.655
    1PA    H11R 3502   5.248   1.780   4.684
    1PA    H11S 3503   5.186   1.683   4.562
    1PA    C110 3504   5.172   1.587   4.759
    1PA    H10R 3505   5.138   1.491   4.718
    1PA    H10S 3506   5.242   1.581   4.842
    1PA     C19 3507   5.042   1.648   4.814
    1PA     H9R 3508   5.068   1.705   4.903
    1PA     H9S 3509   5.005   1.711   4.733
    1PA     C18 3510   4.930   1.545   4.837
    1PA     H8R 3511   4.844   1.588   4.888
    1PA     H8S 3512   4.892   1.499   4.746
    1PA     C17 3513   4.981   1.429   4.925
    1PA     H7R 3514   5.072   1.381   4.888
    1PA     H7S 3515   5.008   1.475   5.020
    1PA     C16 3516   4.879   1.316   4.933
    1PA     H6R 3517   4.786   1.352   4.979
    1PA     H6S 3518   4.849   1.297   4.829
    1PA     C15 3519   4.932   1.184   4.992
    1PA     H5R 3520   4.892   1.096   4.941
    1PA     H5S 3521   5.039   1.183   4.974
    1PA     C14 3522   4.906   1.168   5.143
    1PA     H4R 3523   4.962   1.236   5.208
    1PA     H4S 3524   4.799   1.176   5.162
    1PA     C13 3525   4.950   1.029   5.190
    1PA     H3R 3526   4.883   0.962   5.136
    1PA     H3S 3527   5.054   1.013   5.158
    1PA     C12 3528   4.945   1.005   5.342
    1PA     H2R 3529   4.847   1.035   5.382
    1PA     H2S 3530   4.956   0.901   5.372
    2PC     C11 3531   5.042   1.087   5.423
    2PC     O12 3532   5.107   1.179   5.378
    2PC     O11 3533   5.039   1.046   5.551
    2PC      C1 3534   5.099   1.123   5.656
    2PC      HR 3535   5.126   1.054   5.736
    2PC      HS 3536   5.190   1.177   5.628
    2PC      C2 3537   5.011   1.235   5.713
    2PC      HX 3538   5.054   1.281   5.803
    2PC      C3 3539   4.882   1.170   5.763
    2PC      HA 3540   4.826   1.161   5.669
    2PC      HB 3541   4.897   1.072   5.810
    2PC     O31 3542   4.814   1.256   5.856
    2PC     P31 3543   4.819   1.214   6.010
    2PC     O32 3544   4.694   1.115   6.024
    2PC     C31 3545   4.686   0.987   5.958
    2PC     H1A 3546   4.670   1.008   5.852
    2PC     H1B 3547   4.778   0.931   5.978
    2PC     C32 3548   4.571   0.911   6.025
    2PC     H2A 3549   4.475   0.962   6.022
    2PC     H2B 3550   4.556   0.819   5.968
    2PC     N31 3551   4.580   0.871   6.170
    2PC     C33 3552   4.544   0.990   6.253
    2PC     H3A 3553   4.440   1.020   6.242
    2PC     H3B 3554   4.564   0.978   6.360
    2PC     H3C 3555   4.607   1.072   6.219
    2PC     C34 3556   4.480   0.763   6.199
    2PC     H4A 3557   4.516   0.702   6.282
    2PC     H4B 3558   4.386   0.816   6.215
    2PC     H4C 3559   4.475   0.702   6.108
    2PC     C35 3560   4.715   0.816   6.205
    2PC     H5A 3561   4.707   0.778   6.307
    2PC     H5B 3562   4.789   0.894   6.183
    2PC     H5C 3563   4.739   0.734   6.138
    2PC     O33 3564   4.949   1.146   6.032
    2PC     O34 3565   4.805   1.328   6.104
    2PC     O21 3566   4.979   1.331   5.610
    2PC     C21 3567   5.063   1.431   5.579
    2PC     O22 3568   5.148   1.475   5.654
    3OL     C12 3569   5.034   1.489   5.443
    3OL     H2R 3570   5.000   1.419   5.366
    3OL     H2S 3571   5.119   1.535   5.392
    3OL     C13 3572   4.916   1.587   5.456
    3OL     H3R 3573   4.963   1.674   5.503
    3OL     H3S 3574   4.832   1.544   5.511
    3OL     C14 3575   4.853   1.632   5.324
    3OL     H4R 3576   4.921   1.620   5.239
    3OL     H4S 3577   4.821   1.736   5.325
    3OL     C15 3578   4.723   1.553   5.298
    3OL     H5R 3579   4.644   1.576   5.370
    3OL     H5S 3580   4.743   1.446   5.304
    3OL     C16 3581   4.671   1.581   5.156
    3OL     H6R 3582   4.586   1.516   5.135
    3OL     H6S 3583   4.745   1.555   5.080
    3OL     C17 3584   4.614   1.720   5.126
    3OL     H7R 3585   4.693   1.795   5.125
    3OL     H7S 3586   4.534   1.749   5.195
    3OL     C18 3587   4.569   1.724   4.979
    3OL     H8R 3588   4.483   1.660   4.962
    3OL     H8S 3589   4.643   1.687   4.908
    3OL     C19 3590   4.533   1.868   4.950
    3OL     H9R 3591   4.616   1.934   4.972
    3OL    C110 3592   4.419   1.919   4.905
    3OL    H10R 3593   4.412   2.028   4.901
    3OL    C111 3594   4.295   1.852   4.853
    3OL    H11R 3595   4.205   1.890   4.902
    3OL    H11S 3596   4.300   1.745   4.876
    3OL    C112 3597   4.295   1.867   4.700
    3OL    H12R 3598   4.393   1.841   4.659
    3OL    H12S 3599   4.269   1.969   4.673
    3OL    C113 3600   4.194   1.764   4.646
    3OL    H13R 3601   4.102   1.791   4.698
    3OL    H13S 3602   4.220   1.667   4.687
    3OL    C114 3603   4.171   1.759   4.494
    3OL    H14R 3604   4.266   1.778   4.445
    3OL    H14S 3605   4.107   1.843   4.466
    3OL    C115 3606   4.114   1.622   4.458
    3OL    H15R 3607   4.039   1.592   4.532
    3OL    H15S 3608   4.203   1.559   4.466
    3OL    C116 3609   4.072   1.628   4.310
    3OL    H16R 3610   4.083   1.534   4.255
    3OL    H16S 3611   4.132   1.706   4.262
    3OL    C117 3612   3.922   1.662   4.302
    3OL    H17R 3613   3.894   1.748   4.363
    3OL    H17S 3614   3.867   1.573   4.332
    3OL    C118 3615   3.897   1.686   4.152
    3OL    H18R 3616   3.967   1.758   4.109
    3OL    H18S 3617   3.800   1.735   4.149
    3OL    H18T 3618   3.900   1.594   4.094
    1PA    C116 3619  -0.042   4.478   4.314
    1PA    H16R 3620  -0.027   4.445   4.211
    1PA    H16S 3621  -0.091   4.576   4.307
    1PA    H16T 3622  -0.109   4.407   4.363
    1PA    C115 3623   0.087   4.500   4.395
    1PA    H15R 3624   0.144   4.407   4.394
    1PA    H15S 3625   0.146   4.574   4.340
    1PA    C114 3626   0.064   4.548   4.539
    1PA    H14R 3627   0.016   4.646   4.546
    1PA    H14S 3628   0.002   4.469   4.582
    1PA    C113 3629   0.198   4.539   4.613
    1PA    H13R 3630   0.252   4.448   4.586
    1PA    H13S 3631   0.263   4.612   4.565
    1PA    C112 3632   0.192   4.568   4.763
    1PA    H12R 3633   0.283   4.614   4.801
    1PA    H12S 3634   0.107   4.634   4.786
    1PA    C111 3635   0.170   4.437   4.840
    1PA    H11R 3636   0.070   4.404   4.814
    1PA    H11S 3637   0.235   4.355   4.808
    1PA    C110 3638   0.178   4.441   4.994
    1PA    H10R 3639   0.114   4.520   5.033
    1PA    H10S 3640   0.149   4.342   5.030
    1PA     C19 3641   0.320   4.463   5.045
    1PA     H9R 3642   0.360   4.362   5.051
    1PA     H9S 3643   0.375   4.523   4.972
    1PA     C18 3644   0.332   4.540   5.178
    1PA     H8R 3645   0.314   4.647   5.168
    1PA     H8S 3646   0.258   4.496   5.245
    1PA     C17 3647   0.472   4.519   5.239
    1PA     H7R 3648   0.484   4.411   5.236
    1PA     H7S 3649   0.551   4.566   5.180
    1PA     C16 3650   0.468   4.558   5.388
    1PA     H6R 3651   0.451   4.665   5.398
    1PA     H6S 3652   0.387   4.501   5.435
    1PA     C15 3653   0.600   4.525   5.460
    1PA     H5R 3654   0.621   4.419   5.450
    1PA     H5S 3655   0.672   4.586   5.406
    1PA     C14 3656   0.599   4.551   5.611
    1PA     H4R 3657   0.696   4.562   5.661
    1PA     H4S 3658   0.554   4.648   5.631
    1PA     C13 3659   0.517   4.444   5.685
    1PA     H3R 3660   0.417   4.451   5.642
    1PA     H3S 3661   0.566   4.349   5.662
    1PA     C12 3662   0.517   4.458   5.837
    1PA     H2R 3663   0.451   4.379   5.872
    1PA     H2S 3664   0.613   4.438   5.886
    2PC     C11 3665   0.459   4.587   5.890
    2PC     O12 3666   0.343   4.605   5.919
    2PC     O11 3667   0.550   4.685   5.905
    2PC      C1 3668   0.517   4.802   5.981
    2PC      HR 3669   0.434   4.850   5.928
    2PC      HS 3670   0.492   4.777   6.084
    2PC      C2 3671   0.637   4.897   5.969
    2PC      HX 3672   0.724   4.854   6.018
    2PC      C3 3673   0.607   5.024   6.051
    2PC      HA 3674   0.685   5.098   6.029
    2PC      HB 3675   0.503   5.056   6.039
    2PC     O31 3676   0.620   4.983   6.188
    2PC     P31 3677   0.549   5.071   6.301
    2PC     O32 3678   0.607   5.010   6.438
    2PC     C31 3679   0.537   5.033   6.561
    2PC     H1A 3680   0.533   5.138   6.591
    2PC     H1B 3681   0.434   4.997   6.550
    2PC     C32 3682   0.592   4.947   6.676
    2PC     H2A 3683   0.700   4.946   6.690
    2PC     H2B 3684   0.552   4.997   6.765
    2PC     N31 3685   0.542   4.806   6.690
    2PC     C33 3686   0.579   4.720   6.573
    2PC     H3A 3687   0.682   4.747   6.552
    2PC     H3B 3688   0.544   4.620   6.598
    2PC     H3C 3689   0.514   4.752   6.491
    2PC     C34 3690   0.614   4.743   6.805
    2PC     H4A 3691   0.590   4.637   6.805
    2PC     H4B 3692   0.719   4.738   6.778
    2PC     H4C 3693   0.586   4.798   6.895
    2PC     C35 3694   0.393   4.796   6.700
    2PC     H5A 3695   0.360   4.834   6.797
    2PC     H5B 3696   0.368   4.690   6.692
    2PC     H5C 3697   0.344   4.841   6.614
    2PC     O33 3698   0.602   5.209   6.288
    2PC     O34 3699   0.401   5.074   6.298
    2PC     O21 3700   0.675   4.929   5.834
    2PC     C21 3701   0.586   4.990   5.754
    2PC     O22 3702   0.485   5.047   5.789
    3OL     C12 3703   0.618   4.972   5.607
    3OL     H2R 3704   0.668   4.876   5.602
    3OL     H2S 3705   0.691   5.043   5.567
    3OL     C13 3706   0.489   4.963   5.525
    3OL     H3R 3707   0.416   5.042   5.543
    3OL     H3S 3708   0.433   4.870   5.540
    3OL     C14 3709   0.525   4.952   5.376
    3OL     H4R 3710   0.579   4.858   5.363
    3OL     H4S 3711   0.594   5.029   5.342
    3OL     C15 3712   0.397   4.948   5.291
    3OL     H5R 3713   0.339   5.039   5.305
    3OL     H5S 3714   0.336   4.864   5.327
    3OL     C16 3715   0.446   4.934   5.147
    3OL     H6R 3716   0.480   4.833   5.126
    3OL     H6S 3717   0.529   4.998   5.117
    3OL     C17 3718   0.325   4.941   5.053
    3OL     H7R 3719   0.272   5.033   5.077
    3OL     H7S 3720   0.267   4.853   5.082
    3OL     C18 3721   0.355   4.935   4.903
    3OL     H8R 3722   0.409   4.844   4.875
    3OL     H8S 3723   0.420   5.020   4.879
    3OL     C19 3724   0.230   4.946   4.820
    3OL     H9R 3725   0.164   4.860   4.835
    3OL    C110 3726   0.209   5.037   4.727
    3OL    H10R 3727   0.110   5.033   4.681
    3OL    C111 3728   0.290   5.160   4.694
    3OL    H11R 3729   0.385   5.165   4.747
    3OL    H11S 3730   0.229   5.249   4.714
    3OL    C112 3731   0.314   5.155   4.542
    3OL    H12R 3732   0.350   5.058   4.508
    3OL    H12S 3733   0.386   5.234   4.520
    3OL    C113 3734   0.189   5.189   4.459
    3OL    H13R 3735   0.118   5.106   4.465
    3OL    H13S 3736   0.231   5.190   4.358
    3OL    C114 3737   0.108   5.310   4.506
    3OL    H14R 3738   0.189   5.383   4.508
    3OL    H14S 3739   0.061   5.290   4.603
    3OL    C115 3740   0.000   5.347   4.403
    3OL    H15R 3741  -0.084   5.287   4.439
    3OL    H15S 3742   0.028   5.320   4.301
    3OL    C116 3743  -0.023   5.498   4.416
    3OL    H16R 3744   0.064   5.549   4.374
    3OL    H16S 3745  -0.028   5.533   4.519
    3OL    C117 3746  -0.147   5.541   4.336
    3OL    H17R 3747  -0.227   5.478   4.374
    3OL    H17S 3748  -0.137   5.515   4.231
    3OL    C118 3749  -0.178   5.688   4.365
    3OL    H18R 3750  -0.092   5.748   4.335
    3OL    H18S 3751  -0.204   5.705   4.470
    3OL    H18T 3752  -0.262   5.720   4.302
    1PA    C116 3753   0.869   5.125   3.981
    1PA    H16R 3754   0.936   5.110   3.896
    1PA    H16S 3755   0.803   5.210   3.961
    1PA    H16T 3756   0.793   5.046   3.986
    1PA    C115 3757   0.949   5.143   4.111
    1PA    H15R 3758   1.031   5.214   4.093
    1PA    H15S 3759   0.893   5.188   4.193
    1PA    C114 3760   1.009   5.011   4.160
    1PA    H14R 3761   0.928   4.941   4.180
    1PA    H14S 3762   1.076   4.975   4.081
    1PA    C113 3763   1.095   5.044   4.283
    1PA    H13R 3764   1.180   4.977   4.291
    1PA    H13S 3765   1.135   5.144   4.263
    1PA    C112 3766   1.015   5.027   4.413
    1PA    H12R 3767   0.923   5.087   4.413
    1PA    H12S 3768   0.992   4.921   4.426
    1PA    C111 3769   1.094   5.069   4.538
    1PA    H11R 3770   1.175   5.133   4.500
    1PA    H11S 3771   1.026   5.138   4.589
    1PA    C110 3772   1.156   4.955   4.618
    1PA    H10R 3773   1.069   4.896   4.649
    1PA    H10S 3774   1.235   4.898   4.568
    1PA     C19 3775   1.221   5.003   4.749
    1PA     H9R 3776   1.293   5.083   4.730
    1PA     H9S 3777   1.138   5.045   4.807
    1PA     C18 3778   1.277   4.895   4.842
    1PA     H8R 3779   1.205   4.814   4.856
    1PA     H8S 3780   1.364   4.849   4.795
    1PA     C17 3781   1.331   4.957   4.972
    1PA     H7R 3782   1.414   5.026   4.956
    1PA     H7S 3783   1.248   5.011   5.018
    1PA     C16 3784   1.385   4.852   5.070
    1PA     H6R 3785   1.294   4.811   5.116
    1PA     H6S 3786   1.430   4.772   5.012
    1PA     C15 3787   1.473   4.902   5.185
    1PA     H5R 3788   1.559   4.950   5.137
    1PA     H5S 3789   1.432   4.983   5.246
    1PA     C14 3790   1.534   4.787   5.265
    1PA     H4R 3791   1.465   4.726   5.324
    1PA     H4S 3792   1.589   4.722   5.196
    1PA     C13 3793   1.640   4.829   5.368
    1PA     H3R 3794   1.590   4.909   5.423
    1PA     H3S 3795   1.661   4.753   5.443
    1PA     C12 3796   1.771   4.879   5.306
    1PA     H2R 3797   1.837   4.798   5.273
    1PA     H2S 3798   1.751   4.949   5.225
    2PC     C11 3799   1.861   4.960   5.395
    2PC     O12 3800   1.944   5.038   5.351
    2PC     O11 3801   1.847   4.938   5.527
    2PC      C1 3802   1.908   5.031   5.618
    2PC      HR 3803   2.015   5.037   5.598
    2PC      HS 3804   1.858   5.127   5.600
    2PC      C2 3805   1.884   4.980   5.761
    2PC      HX 3806   1.925   5.053   5.831
    2PC      C3 3807   1.962   4.849   5.772
    2PC      HA 3808   1.930   4.782   5.691
    2PC      HB 3809   2.070   4.858   5.760
    2PC     O31 3810   1.949   4.778   5.896
    2PC     P31 3811   1.962   4.858   6.035
    2PC     O32 3812   1.987   4.743   6.143
    2PC     C31 3813   1.891   4.719   6.248
    2PC     H1A 3814   1.789   4.731   6.211
    2PC     H1B 3815   1.907   4.621   6.295
    2PC     C32 3816   1.898   4.827   6.357
    2PC     H2A 3817   1.983   4.815   6.424
    2PC     H2B 3818   1.908   4.925   6.311
    2PC     N31 3819   1.788   4.832   6.458
    2PC     C33 3820   1.655   4.833   6.387
    2PC     H3A 3821   1.651   4.735   6.339
    2PC     H3B 3822   1.573   4.852   6.456
    2PC     H3C 3823   1.657   4.915   6.315
    2PC     C34 3824   1.783   4.708   6.543
    2PC     H4A 3825   1.740   4.620   6.494
    2PC     H4B 3826   1.887   4.694   6.571
    2PC     H4C 3827   1.723   4.731   6.631
    2PC     C35 3828   1.813   4.951   6.545
    2PC     H5A 3829   1.738   4.977   6.620
    2PC     H5B 3830   1.820   5.039   6.481
    2PC     H5C 3831   1.905   4.932   6.600
    2PC     O33 3832   2.058   4.971   6.037
    2PC     O34 3833   1.840   4.936   6.066
    2PC     O21 3834   1.745   4.954   5.791
    2PC     C21 3835   1.659   5.057   5.788
    2PC     O22 3836   1.701   5.171   5.795
    3OL     C12 3837   1.514   5.021   5.772
    3OL     H2R 3838   1.474   4.978   5.864
    3OL     H2S 3839   1.517   4.945   5.694
    3OL     C13 3840   1.438   5.141   5.715
    3OL     H3R 3841   1.490   5.182   5.628
    3OL     H3S 3842   1.441   5.220   5.790
    3OL     C14 3843   1.291   5.107   5.686
    3OL     H4R 3844   1.227   5.195   5.695
    3OL     H4S 3845   1.257   5.041   5.766
    3OL     C15 3846   1.268   5.049   5.546
    3OL     H5R 3847   1.328   4.960   5.526
    3OL     H5S 3848   1.298   5.121   5.470
    3OL     C16 3849   1.119   5.014   5.527
    3OL     H6R 3850   1.052   5.100   5.531
    3OL     H6S 3851   1.093   4.941   5.604
    3OL     C17 3852   1.093   4.945   5.393
    3OL     H7R 3853   1.147   4.850   5.388
    3OL     H7S 3854   1.148   5.000   5.316
    3OL     C18 3855   0.946   4.929   5.351
    3OL     H8R 3856   0.902   5.029   5.355
    3OL     H8S 3857   0.897   4.863   5.423
    3OL     C19 3858   0.948   4.856   5.219
    3OL     H9R 3859   0.972   4.750   5.219
    3OL    C110 3860   0.927   4.905   5.098
    3OL    H10R 3861   0.939   4.841   5.011
    3OL    C111 3862   0.866   5.040   5.071
    3OL    H11R 3863   0.944   5.115   5.052
    3OL    H11S 3864   0.804   5.071   5.155
    3OL    C112 3865   0.775   5.020   4.949
    3OL    H12R 3866   0.708   5.105   4.933
    3OL    H12S 3867   0.704   4.939   4.968
    3OL    C113 3868   0.852   5.004   4.817
    3OL    H13R 3869   0.938   4.939   4.837
    3OL    H13S 3870   0.888   5.102   4.785
    3OL    C114 3871   0.773   4.954   4.696
    3OL    H14R 3872   0.830   4.969   4.604
    3OL    H14S 3873   0.686   5.016   4.672
    3OL    C115 3874   0.738   4.804   4.697
    3OL    H15R 3875   0.698   4.776   4.795
    3OL    H15S 3876   0.834   4.751   4.704
    3OL    C116 3877   0.639   4.757   4.590
    3OL    H16R 3878   0.567   4.839   4.587
    3OL    H16S 3879   0.596   4.667   4.634
    3OL    C117 3880   0.716   4.745   4.458
    3OL    H17R 3881   0.801   4.677   4.467
    3OL    H17S 3882   0.744   4.844   4.422
    3OL    C118 3883   0.630   4.698   4.339
    3OL    H18R 3884   0.606   4.593   4.353
    3OL    H18S 3885   0.693   4.709   4.251
    3OL    H18T 3886   0.539   4.757   4.328
    1PA    C116 3887   6.732   2.840   4.525
    1PA    H16R 3888   6.785   2.866   4.433
    1PA    H16S 3889   6.778   2.747   4.560
    1PA    H16T 3890   6.756   2.911   4.603
    1PA    C115 3891   6.580   2.842   4.504
    1PA    H15R 3892   6.541   2.941   4.479
    1PA    H15S 3893   6.559   2.774   4.421
    1PA    C114 3894   6.518   2.771   4.625
    1PA    H14R 3895   6.526   2.663   4.611
    1PA    H14S 3896   6.556   2.804   4.721
    1PA    C113 3897   6.364   2.777   4.618
    1PA    H13R 3898   6.325   2.876   4.644
    1PA    H13S 3899   6.327   2.773   4.515
    1PA    C112 3900   6.289   2.664   4.689
    1PA    H12R 3901   6.187   2.658   4.652
    1PA    H12S 3902   6.324   2.564   4.664
    1PA    C111 3903   6.289   2.689   4.841
    1PA    H11R 3904   6.390   2.661   4.873
    1PA    H11S 3905   6.270   2.795   4.855
    1PA    C110 3906   6.175   2.609   4.904
    1PA    H10R 3907   6.075   2.644   4.876
    1PA    H10S 3908   6.192   2.510   4.860
    1PA     C19 3909   6.174   2.613   5.058
    1PA     H9R 3910   6.256   2.550   5.093
    1PA     H9S 3911   6.204   2.714   5.087
    1PA     C18 3912   6.044   2.550   5.110
    1PA     H8R 3913   5.952   2.592   5.069
    1PA     H8S 3914   6.043   2.444   5.084
    1PA     C17 3915   6.037   2.549   5.263
    1PA     H7R 3916   6.132   2.510   5.301
    1PA     H7S 3917   6.033   2.654   5.294
    1PA     C16 3918   5.917   2.474   5.321
    1PA     H6R 3919   5.822   2.502   5.276
    1PA     H6S 3920   5.927   2.369   5.296
    1PA     C15 3921   5.916   2.492   5.474
    1PA     H5R 3922   6.014   2.466   5.513
    1PA     H5S 3923   5.886   2.596   5.492
    1PA     C14 3924   5.813   2.400   5.539
    1PA     H4R 3925   5.792   2.442   5.637
    1PA     H4S 3926   5.730   2.393   5.468
    1PA     C13 3927   5.862   2.256   5.563
    1PA     H3R 3928   5.911   2.214   5.474
    1PA     H3S 3929   5.931   2.258   5.647
    1PA     C12 3930   5.749   2.160   5.600
    1PA     H2R 3931   5.674   2.160   5.521
    1PA     H2S 3932   5.785   2.057   5.600
    2PC     C11 3933   5.693   2.188   5.736
    2PC     O12 3934   5.763   2.161   5.831
    2PC     O11 3935   5.564   2.228   5.732
    2PC      C1 3936   5.476   2.241   5.845
    2PC      HR 3937   5.374   2.225   5.808
    2PC      HS 3938   5.496   2.164   5.919
    2PC      C2 3939   5.487   2.379   5.911
    2PC      HX 3940   5.583   2.368   5.962
    2PC      C3 3941   5.382   2.411   6.018
    2PC      HA 3942   5.306   2.481   5.982
    2PC      HB 3943   5.340   2.316   6.051
    2PC     O31 3944   5.452   2.468   6.131
    2PC     P31 3945   5.379   2.462   6.273
    2PC     O32 3946   5.428   2.597   6.345
    2PC     C31 3947   5.384   2.643   6.474
    2PC     H1A 3948   5.275   2.649   6.472
    2PC     H1B 3949   5.434   2.586   6.553
    2PC     C32 3950   5.449   2.781   6.487
    2PC     H2A 3951   5.553   2.765   6.514
    2PC     H2B 3952   5.452   2.835   6.392
    2PC     N31 3953   5.396   2.867   6.598
    2PC     C33 3954   5.440   2.807   6.728
    2PC     H3A 3955   5.403   2.706   6.745
    2PC     H3B 3956   5.549   2.810   6.725
    2PC     H3C 3957   5.409   2.873   6.809
    2PC     C34 3958   5.452   3.006   6.593
    2PC     H4A 3959   5.422   3.063   6.681
    2PC     H4B 3960   5.560   2.986   6.595
    2PC     H4C 3961   5.433   3.060   6.500
    2PC     C35 3962   5.247   2.881   6.600
    2PC     H5A 3963   5.231   2.971   6.659
    2PC     H5B 3964   5.191   2.798   6.642
    2PC     H5C 3965   5.223   2.891   6.494
    2PC     O33 3966   5.233   2.451   6.256
    2PC     O34 3967   5.419   2.345   6.356
    2PC     O21 3968   5.495   2.480   5.808
    2PC     C21 3969   5.391   2.497   5.725
    2PC     O22 3970   5.276   2.464   5.739
    3OL     C12 3971   5.440   2.550   5.592
    3OL     H2R 3972   5.363   2.573   5.518
    3OL     H2S 3973   5.498   2.469   5.549
    3OL     C13 3974   5.538   2.668   5.601
    3OL     H3R 3975   5.624   2.652   5.666
    3OL     H3S 3976   5.484   2.750   5.650
    3OL     C14 3977   5.572   2.727   5.464
    3OL     H4R 3978   5.480   2.738   5.405
    3OL     H4S 3979   5.616   2.645   5.407
    3OL     C15 3980   5.653   2.857   5.467
    3OL     H5R 3981   5.740   2.830   5.528
    3OL     H5S 3982   5.594   2.936   5.514
    3OL     C16 3983   5.683   2.918   5.329
    3OL     H6R 3984   5.720   3.020   5.338
    3OL     H6S 3985   5.593   2.925   5.268
    3OL     C17 3986   5.782   2.826   5.256
    3OL     H7R 3987   5.733   2.728   5.257
    3OL     H7S 3988   5.873   2.811   5.314
    3OL     C18 3989   5.794   2.858   5.106
    3OL     H8R 3990   5.706   2.917   5.079
    3OL     H8S 3991   5.788   2.761   5.056
    3OL     C19 3992   5.924   2.931   5.081
    3OL     H9R 3993   6.006   2.878   5.129
    3OL    C110 3994   5.946   3.017   4.984
    3OL    H10R 3995   6.048   3.040   4.954
    3OL    C111 3996   5.837   3.096   4.916
    3OL    H11R 3997   5.860   3.203   4.924
    3OL    H11S 3998   5.738   3.083   4.960
    3OL    C112 3999   5.818   3.065   4.767
    3OL    H12R 4000   5.732   3.126   4.739
    3OL    H12S 4001   5.784   2.961   4.765
    3OL    C113 4002   5.949   3.087   4.692
    3OL    H13R 4003   6.020   3.011   4.726
    3OL    H13S 4004   5.999   3.180   4.721
    3OL    C114 4005   5.934   3.093   4.539
    3OL    H14R 4006   5.873   3.179   4.512
    3OL    H14S 4007   5.886   3.002   4.502
    3OL    C115 4008   6.070   3.089   4.468
    3OL    H15R 4009   6.123   3.000   4.501
    3OL    H15S 4010   6.131   3.177   4.490
    3OL    C116 4011   6.063   3.068   4.316
    3OL    H16R 4012   6.009   3.155   4.278
    3OL    H16S 4013   5.989   2.994   4.282
    3OL    C117 4014   6.193   3.039   4.240
    3OL    H17R 4015   6.170   3.025   4.135
    3OL    H17S 4016   6.239   2.946   4.273
    3OL    C118 4017   6.279   3.167   4.238
    3OL    H18R 4018   6.281   3.205   4.340
    3OL    H18S 4019   6.247   3.245   4.168
    3OL    H18T 4020   6.385   3.149   4.218
    1PA    C116 4021   0.448   6.343   4.617
    1PA    H16R 4022   0.456   6.398   4.711
    1PA    H16S 4023   0.340   6.329   4.616
    1PA    H16T 4024   0.486   6.411   4.541
    1PA    C115 4025   0.522   6.208   4.627
    1PA    H15R 4026   0.488   6.159   4.718
    1PA    H15S 4027   0.481   6.150   4.544
    1PA    C114 4028   0.673   6.225   4.611
    1PA    H14R 4029   0.714   6.126   4.586
    1PA    H14S 4030   0.703   6.290   4.529
    1PA    C113 4031   0.751   6.276   4.733
    1PA    H13R 4032   0.713   6.374   4.762
    1PA    H13S 4033   0.737   6.194   4.804
    1PA    C112 4034   0.902   6.282   4.704
    1PA    H12R 4035   0.945   6.188   4.669
    1PA    H12S 4036   0.909   6.360   4.628
    1PA    C111 4037   0.972   6.324   4.834
    1PA    H11R 4038   0.945   6.428   4.856
    1PA    H11S 4039   0.944   6.262   4.919
    1PA    C110 4040   1.123   6.302   4.822
    1PA    H10R 4041   1.151   6.196   4.815
    1PA    H10S 4042   1.155   6.360   4.736
    1PA     C19 4043   1.200   6.359   4.942
    1PA     H9R 4044   1.307   6.353   4.924
    1PA     H9S 4045   1.183   6.466   4.958
    1PA     C18 4046   1.153   6.279   5.065
    1PA     H8R 4047   1.062   6.325   5.103
    1PA     H8S 4048   1.141   6.172   5.043
    1PA     C17 4049   1.255   6.300   5.177
    1PA     H7R 4050   1.347   6.255   5.141
    1PA     H7S 4051   1.273   6.407   5.193
    1PA     C16 4052   1.205   6.222   5.300
    1PA     H6R 4053   1.122   6.276   5.346
    1PA     H6S 4054   1.168   6.126   5.264
    1PA     C15 4055   1.323   6.191   5.393
    1PA     H5R 4056   1.407   6.156   5.333
    1PA     H5S 4057   1.355   6.286   5.437
    1PA     C14 4058   1.293   6.086   5.501
    1PA     H4R 4059   1.205   6.121   5.556
    1PA     H4S 4060   1.285   5.986   5.456
    1PA     C13 4061   1.409   6.081   5.601
    1PA     H3R 4062   1.510   6.063   5.563
    1PA     H3S 4063   1.411   6.179   5.650
    1PA     C12 4064   1.385   5.977   5.710
    1PA     H2R 4065   1.278   5.967   5.734
    1PA     H2S 4066   1.413   5.882   5.664
    2PC     C11 4067   1.477   6.000   5.827
    2PC     O12 4068   1.535   6.104   5.849
    2PC     O11 4069   1.487   5.895   5.911
    2PC      C1 4070   1.587   5.908   6.014
    2PC      HR 4071   1.679   5.953   5.974
    2PC      HS 4072   1.541   5.969   6.092
    2PC      C2 4073   1.619   5.767   6.065
    2PC      HX 4074   1.532   5.716   6.107
    2PC      C3 4075   1.713   5.787   6.185
    2PC      HA 4076   1.665   5.851   6.258
    2PC      HB 4077   1.744   5.689   6.223
    2PC     O31 4078   1.832   5.853   6.140
    2PC     P31 4079   1.938   5.914   6.244
    2PC     O32 4080   2.086   5.873   6.199
    2PC     C31 4081   2.135   5.739   6.219
    2PC     H1A 4082   2.099   5.698   6.314
    2PC     H1B 4083   2.101   5.683   6.132
    2PC     C32 4084   2.288   5.743   6.217
    2PC     H2A 4085   2.325   5.643   6.242
    2PC     H2B 4086   2.325   5.766   6.117
    2PC     N31 4087   2.367   5.839   6.300
    2PC     C33 4088   2.342   5.985   6.274
    2PC     H3A 4089   2.368   6.023   6.176
    2PC     H3B 4090   2.239   6.002   6.308
    2PC     H3C 4091   2.408   6.027   6.350
    2PC     C34 4092   2.332   5.810   6.442
    2PC     H4A 4093   2.235   5.853   6.467
    2PC     H4B 4094   2.319   5.701   6.448
    2PC     H4C 4095   2.415   5.844   6.503
    2PC     C35 4096   2.514   5.816   6.281
    2PC     H5A 4097   2.527   5.825   6.173
    2PC     H5B 4098   2.536   5.713   6.310
    2PC     H5C 4099   2.573   5.895   6.329
    2PC     O33 4100   1.923   6.062   6.248
    2PC     O34 4101   1.908   5.884   6.386
    2PC     O21 4102   1.681   5.699   5.954
    2PC     C21 4103   1.700   5.566   5.959
    2PC     O22 4104   1.667   5.496   6.052
    3OL     C12 4105   1.768   5.514   5.835
    3OL     H2R 4106   1.713   5.556   5.751
    3OL     H2S 4107   1.755   5.405   5.839
    3OL     C13 4108   1.921   5.533   5.837
    3OL     H3R 4109   1.963   5.503   5.933
    3OL     H3S 4110   1.951   5.634   5.809
    3OL     C14 4111   1.992   5.432   5.745
    3OL     H4R 4112   1.963   5.333   5.779
    3OL     H4S 4113   2.099   5.443   5.764
    3OL     C15 4114   1.951   5.454   5.599
    3OL     H5R 4115   1.976   5.551   5.557
    3OL     H5S 4116   1.843   5.444   5.580
    3OL     C16 4117   2.020   5.356   5.502
    3OL     H6R 4118   1.949   5.339   5.421
    3OL     H6S 4119   2.041   5.259   5.548
    3OL     C17 4120   2.156   5.413   5.461
    3OL     H7R 4121   2.203   5.339   5.396
    3OL     H7S 4122   2.226   5.441   5.540
    3OL     C18 4123   2.140   5.527   5.360
    3OL     H8R 4124   2.121   5.621   5.413
    3OL     H8S 4125   2.059   5.506   5.290
    3OL     C19 4126   2.277   5.556   5.304
    3OL     H9R 4127   2.357   5.533   5.374
    3OL    C110 4128   2.305   5.584   5.177
    3OL    H10R 4129   2.409   5.590   5.146
    3OL    C111 4130   2.205   5.600   5.065
    3OL    H11R 4131   2.119   5.534   5.080
    3OL    H11S 4132   2.256   5.558   4.978
    3OL    C112 4133   2.158   5.744   5.042
    3OL    H12R 4134   2.242   5.811   5.063
    3OL    H12S 4135   2.077   5.768   5.112
    3OL    C113 4136   2.106   5.760   4.899
    3OL    H13R 4137   2.184   5.730   4.829
    3OL    H13S 4138   2.097   5.868   4.881
    3OL    C114 4139   1.967   5.702   4.870
    3OL    H14R 4140   1.904   5.768   4.931
    3OL    H14S 4141   1.958   5.603   4.917
    3OL    C115 4142   1.935   5.700   4.720
    3OL    H15R 4143   1.983   5.791   4.683
    3OL    H15S 4144   1.833   5.721   4.687
    3OL    C116 4145   1.997   5.579   4.651
    3OL    H16R 4146   1.967   5.488   4.703
    3OL    H16S 4147   2.106   5.587   4.654
    3OL    C117 4148   1.940   5.554   4.510
    3OL    H17R 4149   1.945   5.638   4.441
    3OL    H17S 4150   1.834   5.529   4.506
    3OL    C118 4151   2.000   5.432   4.438
    3OL    H18R 4152   2.101   5.454   4.403
    3OL    H18S 4153   1.941   5.402   4.351
    3OL    H18T 4154   1.996   5.348   4.507
    1PA    C116 4155   4.366   3.775   4.391
    1PA    H16R 4156   4.344   3.874   4.351
    1PA    H16S 4157   4.474   3.770   4.398
    1PA    H16T 4158   4.326   3.784   4.492
    1PA    C115 4159   4.307   3.653   4.317
    1PA    H15R 4160   4.341   3.662   4.213
    1PA    H15S 4161   4.353   3.560   4.350
    1PA    C114 4162   4.155   3.634   4.321
    1PA    H14R 4163   4.112   3.674   4.413
    1PA    H14S 4164   4.115   3.683   4.231
    1PA    C113 4165   4.121   3.485   4.303
    1PA    H13R 4166   4.035   3.479   4.237
    1PA    H13S 4167   4.199   3.437   4.243
    1PA    C112 4168   4.095   3.412   4.436
    1PA    H12R 4169   4.183   3.414   4.501
    1PA    H12S 4170   4.011   3.462   4.486
    1PA    C111 4171   4.056   3.265   4.418
    1PA    H11R 4172   3.958   3.268   4.370
    1PA    H11S 4173   4.125   3.214   4.349
    1PA    C110 4174   4.051   3.186   4.550
    1PA    H10R 4175   4.026   3.082   4.527
    1PA    H10S 4176   4.145   3.196   4.603
    1PA     C19 4177   3.938   3.239   4.639
    1PA     H9R 4178   3.969   3.338   4.672
    1PA     H9S 4179   3.844   3.243   4.584
    1PA     C18 4180   3.914   3.161   4.769
    1PA     H8R 4181   4.004   3.161   4.831
    1PA     H8S 4182   3.842   3.226   4.818
    1PA     C17 4183   3.859   3.018   4.752
    1PA     H7R 4184   3.761   3.029   4.704
    1PA     H7S 4185   3.917   2.965   4.677
    1PA     C16 4186   3.859   2.943   4.886
    1PA     H6R 4187   3.854   2.836   4.866
    1PA     H6S 4188   3.948   2.963   4.946
    1PA     C15 4189   3.730   2.965   4.967
    1PA     H5R 4190   3.721   3.073   4.981
    1PA     H5S 4191   3.645   2.944   4.901
    1PA     C14 4192   3.720   2.872   5.089
    1PA     H4R 4193   3.615   2.858   5.115
    1PA     H4S 4194   3.756   2.771   5.064
    1PA     C13 4195   3.792   2.941   5.205
    1PA     H3R 4196   3.884   2.980   5.162
    1PA     H3S 4197   3.742   3.030   5.243
    1PA     C12 4198   3.833   2.842   5.315
    1PA     H2R 4199   3.878   2.758   5.262
    1PA     H2S 4200   3.910   2.904   5.362
    2PC     C11 4201   3.727   2.790   5.410
    2PC     O12 4202   3.752   2.691   5.477
    2PC     O11 4203   3.617   2.864   5.428
    2PC      C1 4204   3.516   2.821   5.521
    2PC      HR 4205   3.531   2.722   5.564
    2PC      HS 4206   3.518   2.886   5.609
    2PC      C2 4207   3.391   2.823   5.432
    2PC      HX 4208   3.397   2.898   5.352
    2PC      C3 4209   3.279   2.857   5.531
    2PC      HA 4210   3.311   2.948   5.583
    2PC      HB 4211   3.184   2.888   5.488
    2PC     O31 4212   3.269   2.741   5.616
    2PC     P31 4213   3.181   2.744   5.749
    2PC     O32 4214   3.063   2.646   5.700
    2PC     C31 4215   2.946   2.629   5.781
    2PC     H1A 4216   2.970   2.619   5.887
    2PC     H1B 4217   2.877   2.713   5.770
    2PC     C32 4218   2.868   2.503   5.739
    2PC     H2A 4219   2.947   2.430   5.723
    2PC     H2B 4220   2.796   2.471   5.815
    2PC     N31 4221   2.796   2.504   5.608
    2PC     C33 4222   2.891   2.538   5.497
    2PC     H3A 4223   2.918   2.642   5.515
    2PC     H3B 4224   2.983   2.480   5.505
    2PC     H3C 4225   2.848   2.511   5.401
    2PC     C34 4226   2.762   2.362   5.574
    2PC     H4A 4227   2.672   2.357   5.512
    2PC     H4B 4228   2.838   2.309   5.518
    2PC     H4C 4229   2.740   2.312   5.668
    2PC     C35 4230   2.671   2.586   5.626
    2PC     H5A 4231   2.603   2.575   5.542
    2PC     H5B 4232   2.702   2.690   5.637
    2PC     H5C 4233   2.625   2.544   5.715
    2PC     O33 4234   3.267   2.690   5.858
    2PC     O34 4235   3.127   2.875   5.791
    2PC     O21 4236   3.372   2.693   5.374
    2PC     C21 4237   3.259   2.653   5.312
    2PC     O22 4238   3.165   2.726   5.287
    3OL     C12 4239   3.282   2.517   5.251
    3OL     H2R 4240   3.187   2.466   5.230
    3OL     H2S 4241   3.329   2.453   5.326
    3OL     C13 4242   3.366   2.533   5.124
    3OL     H3R 4243   3.459   2.582   5.153
    3OL     H3S 4244   3.316   2.599   5.053
    3OL     C14 4245   3.406   2.396   5.068
    3OL     H4R 4246   3.436   2.335   5.154
    3OL     H4S 4247   3.503   2.401   5.019
    3OL     C15 4248   3.294   2.333   4.984
    3OL     H5R 4249   3.273   2.407   4.906
    3OL     H5S 4250   3.196   2.325   5.031
    3OL     C16 4251   3.324   2.193   4.928
    3OL     H6R 4252   3.229   2.147   4.899
    3OL     H6S 4253   3.358   2.135   5.014
    3OL     C17 4254   3.419   2.191   4.808
    3OL     H7R 4255   3.422   2.086   4.775
    3OL     H7S 4256   3.517   2.235   4.828
    3OL     C18 4257   3.356   2.244   4.679
    3OL     H8R 4258   3.320   2.345   4.701
    3OL     H8S 4259   3.261   2.203   4.644
    3OL     C19 4260   3.465   2.242   4.575
    3OL     H9R 4261   3.528   2.329   4.558
    3OL    C110 4262   3.490   2.128   4.513
    3OL    H10R 4263   3.569   2.128   4.438
    3OL    C111 4264   3.416   1.997   4.521
    3OL    H11R 4265   3.315   2.010   4.561
    3OL    H11S 4266   3.482   1.930   4.576
    3OL    C112 4267   3.394   1.943   4.379
    3OL    H12R 4268   3.347   2.023   4.321
    3OL    H12S 4269   3.330   1.855   4.375
    3OL    C113 4270   3.523   1.915   4.301
    3OL    H13R 4271   3.586   1.849   4.360
    3OL    H13S 4272   3.584   2.006   4.294
    3OL    C114 4273   3.504   1.863   4.158
    3OL    H14R 4274   3.596   1.891   4.107
    3OL    H14S 4275   3.414   1.910   4.118
    3OL    C115 4276   3.494   1.710   4.170
    3OL    H15R 4277   3.422   1.676   4.245
    3OL    H15S 4278   3.593   1.676   4.201
    3OL    C116 4279   3.442   1.658   4.035
    3OL    H16R 4280   3.503   1.692   3.951
    3OL    H16S 4281   3.345   1.705   4.016
    3OL    C117 4282   3.429   1.505   4.042
    3OL    H17R 4283   3.367   1.471   3.959
    3OL    H17S 4284   3.377   1.476   4.134
    3OL    C118 4285   3.567   1.438   4.032
    3OL    H18R 4286   3.626   1.464   3.944
    3OL    H18S 4287   3.548   1.331   4.017
    3OL    H18T 4288   3.629   1.457   4.120
    1PA    C116 4289   0.568   1.854   4.196
    1PA    H16R 4290   0.526   1.771   4.253
    1PA    H16S 4291   0.617   1.819   4.104
    1PA    H16T 4292   0.487   1.920   4.164
    1PA    C115 4293   0.666   1.929   4.287
    1PA    H15R 4294   0.733   1.985   4.221
    1PA    H15S 4295   0.604   2.005   4.333
    1PA    C114 4296   0.748   1.835   4.376
    1PA    H14R 4297   0.678   1.765   4.422
    1PA    H14S 4298   0.819   1.775   4.318
    1PA    C113 4299   0.822   1.906   4.490
    1PA    H13R 4300   0.888   1.836   4.542
    1PA    H13S 4301   0.878   1.990   4.450
    1PA    C112 4302   0.734   1.967   4.601
    1PA    H12R 4303   0.650   2.024   4.561
    1PA    H12S 4304   0.701   1.881   4.660
    1PA    C111 4305   0.813   2.057   4.697
    1PA    H11R 4306   0.871   2.126   4.636
    1PA    H11S 4307   0.748   2.133   4.740
    1PA    C110 4308   0.893   1.983   4.806
    1PA    H10R 4309   0.908   1.881   4.769
    1PA    H10S 4310   0.993   2.025   4.812
    1PA     C19 4311   0.813   1.976   4.937
    1PA     H9R 4312   0.868   1.941   5.024
    1PA     H9S 4313   0.785   2.075   4.973
    1PA     C18 4314   0.682   1.895   4.927
    1PA     H8R 4315   0.626   1.939   4.845
    1PA     H8S 4316   0.707   1.792   4.900
    1PA     C17 4317   0.602   1.907   5.058
    1PA     H7R 4318   0.666   1.897   5.145
    1PA     H7S 4319   0.557   2.006   5.054
    1PA     C16 4320   0.489   1.803   5.066
    1PA     H6R 4321   0.418   1.815   4.983
    1PA     H6S 4322   0.538   1.706   5.060
    1PA     C15 4323   0.410   1.802   5.197
    1PA     H5R 4324   0.479   1.782   5.280
    1PA     H5S 4325   0.373   1.903   5.214
    1PA     C14 4326   0.294   1.701   5.195
    1PA     H4R 4327   0.228   1.731   5.113
    1PA     H4S 4328   0.330   1.599   5.178
    1PA     C13 4329   0.214   1.700   5.326
    1PA     H3R 4330   0.180   1.799   5.356
    1PA     H3S 4331   0.121   1.645   5.312
    1PA     C12 4332   0.286   1.634   5.445
    1PA     H2R 4333   0.267   1.527   5.444
    1PA     H2S 4334   0.394   1.646   5.437
    2PC     C11 4335   0.234   1.698   5.571
    2PC     O12 4336   0.147   1.649   5.641
    2PC     O11 4337   0.306   1.801   5.617
    2PC      C1 4338   0.240   1.892   5.708
    2PC      HR 4339   0.152   1.936   5.660
    2PC      HS 4340   0.199   1.843   5.797
    2PC      C2 4341   0.346   1.998   5.743
    2PC      HX 4342   0.444   1.960   5.771
    2PC      C3 4343   0.294   2.072   5.867
    2PC      HA 4344   0.207   2.135   5.847
    2PC      HB 4345   0.256   2.003   5.943
    2PC     O31 4346   0.395   2.160   5.920
    2PC     P31 4347   0.386   2.211   6.071
    2PC     O32 4348   0.368   2.074   6.152
    2PC     C31 4349   0.420   2.065   6.285
    2PC     H1A 4350   0.529   2.064   6.291
    2PC     H1B 4351   0.389   2.156   6.338
    2PC     C32 4352   0.374   1.934   6.349
    2PC     H2A 4353   0.368   1.951   6.457
    2PC     H2B 4354   0.271   1.914   6.318
    2PC     N31 4355   0.449   1.807   6.324
    2PC     C33 4356   0.467   1.789   6.176
    2PC     H3A 4357   0.512   1.881   6.139
    2PC     H3B 4358   0.535   1.707   6.153
    2PC     H3C 4359   0.371   1.779   6.125
    2PC     C34 4360   0.579   1.814   6.399
    2PC     H4A 4361   0.610   1.918   6.405
    2PC     H4B 4362   0.560   1.767   6.496
    2PC     H4C 4363   0.658   1.757   6.350
    2PC     C35 4364   0.379   1.691   6.387
    2PC     H5A 4365   0.371   1.712   6.494
    2PC     H5B 4366   0.431   1.597   6.365
    2PC     H5C 4367   0.281   1.688   6.339
    2PC     O33 4368   0.506   2.282   6.121
    2PC     O34 4369   0.265   2.296   6.088
    2PC     O21 4370   0.367   2.098   5.642
    2PC     C21 4371   0.453   2.091   5.539
    2PC     O22 4372   0.527   1.997   5.515
    3OL     C12 4373   0.440   2.211   5.450
    3OL     H2R 4374   0.449   2.304   5.506
    3OL     H2S 4375   0.344   2.200   5.398
    3OL     C13 4376   0.549   2.197   5.343
    3OL     H3R 4377   0.550   2.101   5.291
    3OL     H3S 4378   0.645   2.207   5.394
    3OL     C14 4379   0.529   2.314   5.246
    3OL     H4R 4380   0.527   2.405   5.305
    3OL     H4S 4381   0.428   2.303   5.205
    3OL     C15 4382   0.636   2.320   5.136
    3OL     H5R 4383   0.658   2.220   5.098
    3OL     H5S 4384   0.728   2.360   5.180
    3OL     C16 4385   0.601   2.413   5.019
    3OL     H6R 4386   0.576   2.510   5.063
    3OL     H6S 4387   0.510   2.368   4.978
    3OL     C17 4388   0.708   2.421   4.910
    3OL     H7R 4389   0.727   2.320   4.874
    3OL     H7S 4390   0.806   2.451   4.949
    3OL     C18 4391   0.667   2.514   4.795
    3OL     H8R 4392   0.681   2.618   4.828
    3OL     H8S 4393   0.563   2.492   4.771
    3OL     C19 4394   0.745   2.475   4.672
    3OL     H9R 4395   0.792   2.377   4.672
    3OL    C110 4396   0.787   2.571   4.590
    3OL    H10R 4397   0.872   2.547   4.527
    3OL    C111 4398   0.726   2.709   4.581
    3OL    H11R 4399   0.787   2.764   4.653
    3OL    H11S 4400   0.622   2.711   4.612
    3OL    C112 4401   0.745   2.769   4.441
    3OL    H12R 4402   0.709   2.872   4.457
    3OL    H12S 4403   0.673   2.718   4.376
    3OL    C113 4404   0.888   2.787   4.390
    3OL    H13R 4405   0.932   2.688   4.376
    3OL    H13S 4406   0.933   2.824   4.482
    3OL    C114 4407   0.885   2.865   4.258
    3OL    H14R 4408   0.820   2.951   4.274
    3OL    H14S 4409   0.834   2.812   4.177
    3OL    C115 4410   1.028   2.904   4.219
    3OL    H15R 4411   1.095   2.818   4.228
    3OL    H15S 4412   1.070   2.979   4.286
    3OL    C116 4413   1.045   2.975   4.084
    3OL    H16R 4414   0.987   2.911   4.017
    3OL    H16S 4415   1.147   2.966   4.045
    3OL    C117 4416   0.996   3.120   4.083
    3OL    H17R 4417   1.041   3.171   4.168
    3OL    H17S 4418   0.888   3.115   4.094
    3OL    C118 4419   1.035   3.196   3.955
    3OL    H18R 4420   1.144   3.195   3.945
    3OL    H18S 4421   0.992   3.296   3.945
    3OL    H18T 4422   0.989   3.135   3.877
    1PA    C116 4423   1.760  -0.083   5.419
    1PA    H16R 4424   1.657  -0.116   5.433
    1PA    H16S 4425   1.836  -0.150   5.460
    1PA    H16T 4426   1.775  -0.080   5.311
    1PA    C115 4427   1.787   0.050   5.492
    1PA    H15R 4428   1.783   0.040   5.601
    1PA    H15S 4429   1.887   0.084   5.464
    1PA    C114 4430   1.677   0.151   5.459
    1PA    H14R 4431   1.666   0.162   5.351
    1PA    H14S 4432   1.579   0.118   5.495
    1PA    C113 4433   1.712   0.289   5.518
    1PA    H13R 4434   1.622   0.346   5.543
    1PA    H13S 4435   1.747   0.270   5.619
    1PA    C112 4436   1.822   0.369   5.447
    1PA    H12R 4437   1.908   0.301   5.441
    1PA    H12S 4438   1.797   0.403   5.347
    1PA    C111 4439   1.869   0.480   5.541
    1PA    H11R 4440   1.794   0.559   5.540
    1PA    H11S 4441   1.880   0.436   5.640
    1PA    C110 4442   2.002   0.544   5.497
    1PA    H10R 4443   2.053   0.597   5.579
    1PA    H10S 4444   2.076   0.464   5.483
    1PA     C19 4445   1.999   0.620   5.364
    1PA     H9R 4446   2.104   0.626   5.333
    1PA     H9S 4447   1.952   0.565   5.282
    1PA     C18 4448   1.932   0.757   5.368
    1PA     H8R 4449   1.927   0.791   5.264
    1PA     H8S 4450   1.827   0.759   5.400
    1PA     C17 4451   2.019   0.860   5.441
    1PA     H7R 4452   2.041   0.822   5.541
    1PA     H7S 4453   2.110   0.862   5.380
    1PA     C16 4454   1.951   0.996   5.456
    1PA     H6R 4455   1.931   1.025   5.352
    1PA     H6S 4456   1.860   0.982   5.515
    1PA     C15 4457   2.032   1.109   5.521
    1PA     H5R 4458   2.060   1.075   5.621
    1PA     H5S 4459   2.124   1.123   5.463
    1PA     C14 4460   1.958   1.243   5.523
    1PA     H4R 4461   1.934   1.279   5.423
    1PA     H4S 4462   1.864   1.234   5.578
    1PA     C13 4463   2.043   1.360   5.575
    1PA     H3R 4464   2.138   1.365   5.520
    1PA     H3S 4465   1.989   1.453   5.561
    1PA     C12 4466   2.082   1.349   5.723
    1PA     H2R 4467   1.994   1.326   5.783
    1PA     H2S 4468   2.149   1.263   5.733
    2PC     C11 4469   2.138   1.473   5.788
    2PC     O12 4470   2.071   1.573   5.807
    2PC     O11 4471   2.266   1.458   5.824
    2PC      C1 4472   2.317   1.568   5.902
    2PC      HR 4473   2.316   1.653   5.833
    2PC      HS 4474   2.254   1.598   5.985
    2PC      C2 4475   2.460   1.537   5.948
    2PC      HX 4476   2.477   1.439   5.994
    2PC      C3 4477   2.502   1.651   6.043
    2PC      HA 4478   2.611   1.655   6.037
    2PC      HB 4479   2.460   1.748   6.016
    2PC     O31 4480   2.459   1.620   6.177
    2PC     P31 4481   2.482   1.723   6.297
    2PC     O32 4482   2.517   1.616   6.410
    2PC     C31 4483   2.538   1.665   6.544
    2PC     H1A 4484   2.631   1.722   6.548
    2PC     H1B 4485   2.443   1.711   6.571
    2PC     C32 4486   2.539   1.551   6.647
    2PC     H2A 4487   2.552   1.594   6.746
    2PC     H2B 4488   2.445   1.496   6.641
    2PC     N31 4489   2.659   1.461   6.651
    2PC     C33 4490   2.664   1.378   6.527
    2PC     H3A 4491   2.759   1.324   6.524
    2PC     H3B 4492   2.577   1.313   6.534
    2PC     H3C 4493   2.661   1.448   6.444
    2PC     C34 4494   2.789   1.536   6.659
    2PC     H4A 4495   2.865   1.459   6.667
    2PC     H4B 4496   2.802   1.598   6.570
    2PC     H4C 4497   2.780   1.591   6.753
    2PC     C35 4498   2.660   1.375   6.774
    2PC     H5A 4499   2.672   1.443   6.859
    2PC     H5B 4500   2.747   1.310   6.772
    2PC     H5C 4501   2.574   1.311   6.794
    2PC     O33 4502   2.593   1.817   6.269
    2PC     O34 4503   2.347   1.781   6.321
    2PC     O21 4504   2.545   1.559   5.834
    2PC     C21 4505   2.674   1.520   5.836
    2PC     O22 4506   2.723   1.457   5.927
    3OL     C12 4507   2.759   1.551   5.715
    3OL     H2R 4508   2.857   1.505   5.727
    3OL     H2S 4509   2.776   1.658   5.721
    3OL     C13 4510   2.692   1.500   5.587
    3OL     H3R 4511   2.590   1.538   5.588
    3OL     H3S 4512   2.694   1.391   5.585
    3OL     C14 4513   2.765   1.555   5.463
    3OL     H4R 4514   2.743   1.497   5.373
    3OL     H4S 4515   2.871   1.540   5.481
    3OL     C15 4516   2.754   1.707   5.443
    3OL     H5R 4517   2.828   1.753   5.510
    3OL     H5S 4518   2.653   1.740   5.468
    3OL     C16 4519   2.818   1.752   5.311
    3OL     H6R 4520   2.913   1.700   5.297
    3OL     H6S 4521   2.829   1.860   5.316
    3OL     C17 4522   2.728   1.723   5.190
    3OL     H7R 4523   2.668   1.634   5.212
    3OL     H7S 4524   2.785   1.683   5.105
    3OL     C18 4525   2.645   1.843   5.142
    3OL     H8R 4526   2.708   1.932   5.139
    3OL     H8S 4527   2.567   1.855   5.218
    3OL     C19 4528   2.589   1.815   5.005
    3OL     H9R 4529   2.501   1.751   5.001
    3OL    C110 4530   2.615   1.881   4.893
    3OL    H10R 4531   2.557   1.857   4.805
    3OL    C111 4532   2.713   1.994   4.876
    3OL    H11R 4533   2.730   2.058   4.963
    3OL    H11S 4534   2.661   2.059   4.805
    3OL    C112 4535   2.836   1.943   4.801
    3OL    H12R 4536   2.895   2.022   4.753
    3OL    H12S 4537   2.803   1.870   4.727
    3OL    C113 4538   2.942   1.888   4.897
    3OL    H13R 4539   2.903   1.796   4.940
    3OL    H13S 4540   2.961   1.961   4.976
    3OL    C114 4541   3.080   1.866   4.832
    3OL    H14R 4542   3.102   1.952   4.769
    3OL    H14S 4543   3.081   1.779   4.767
    3OL    C115 4544   3.187   1.855   4.942
    3OL    H15R 4545   3.160   1.774   5.010
    3OL    H15S 4546   3.185   1.929   5.022
    3OL    C116 4547   3.330   1.824   4.897
    3OL    H16R 4548   3.358   1.888   4.813
    3OL    H16S 4549   3.325   1.720   4.863
    3OL    C117 4550   3.427   1.808   5.014
    3OL    H17R 4551   3.421   1.899   5.074
    3OL    H17S 4552   3.527   1.816   4.971
    3OL    C118 4553   3.407   1.673   5.083
    3OL    H18R 4554   3.315   1.659   5.142
    3OL    H18S 4555   3.490   1.650   5.150
    3OL    H18T 4556   3.429   1.595   5.010
    1PA    C116 4557   3.677   0.538   4.034
    1PA    H16R 4558   3.709   0.470   3.954
    1PA    H16S 4559   3.668   0.636   3.988
    1PA    H16T 4560   3.581   0.505   4.075
    1PA    C115 4561   3.776   0.535   4.152
    1PA    H15R 4562   3.784   0.433   4.192
    1PA    H15S 4563   3.876   0.564   4.120
    1PA    C114 4564   3.728   0.632   4.261
    1PA    H14R 4565   3.720   0.729   4.212
    1PA    H14S 4566   3.632   0.610   4.308
    1PA    C113 4567   3.831   0.647   4.374
    1PA    H13R 4568   3.845   0.552   4.426
    1PA    H13S 4569   3.930   0.672   4.337
    1PA    C112 4570   3.779   0.751   4.475
    1PA    H12R 4571   3.748   0.838   4.418
    1PA    H12S 4572   3.698   0.708   4.535
    1PA    C111 4573   3.896   0.806   4.558
    1PA    H11R 4574   3.955   0.724   4.599
    1PA    H11S 4575   3.961   0.856   4.486
    1PA    C110 4576   3.855   0.898   4.674
    1PA    H10R 4577   3.811   0.986   4.626
    1PA    H10S 4578   3.786   0.854   4.746
    1PA     C19 4579   3.984   0.934   4.748
    1PA     H9R 4580   4.064   0.972   4.685
    1PA     H9S 4581   3.955   1.019   4.809
    1PA     C18 4582   4.041   0.828   4.844
    1PA     H8R 4583   4.080   0.738   4.798
    1PA     H8S 4584   4.119   0.881   4.899
    1PA     C17 4585   3.952   0.785   4.962
    1PA     H7R 4586   3.918   0.871   5.020
    1PA     H7S 4587   3.865   0.740   4.914
    1PA     C16 4588   4.016   0.683   5.057
    1PA     H6R 4589   4.042   0.589   5.008
    1PA     H6S 4590   4.112   0.711   5.101
    1PA     C15 4591   3.920   0.648   5.172
    1PA     H5R 4592   3.820   0.626   5.132
    1PA     H5S 4593   3.957   0.559   5.222
    1PA     C14 4594   3.919   0.757   5.281
    1PA     H4R 4595   4.017   0.804   5.294
    1PA     H4S 4596   3.855   0.833   5.237
    1PA     C13 4597   3.849   0.717   5.411
    1PA     H3R 4598   3.906   0.639   5.462
    1PA     H3S 4599   3.842   0.803   5.478
    1PA     C12 4600   3.710   0.657   5.384
    1PA     H2R 4601   3.659   0.710   5.303
    1PA     H2S 4602   3.720   0.553   5.352
    2PC     C11 4603   3.614   0.633   5.498
    2PC     O12 4604   3.624   0.548   5.583
    2PC     O11 4605   3.516   0.724   5.483
    2PC      C1 4606   3.420   0.736   5.590
    2PC      HR 4607   3.378   0.653   5.647
    2PC      HS 4608   3.467   0.802   5.663
    2PC      C2 4609   3.298   0.812   5.537
    2PC      HX 4610   3.346   0.896   5.485
    2PC      C3 4611   3.204   0.877   5.640
    2PC      HA 4612   3.264   0.918   5.722
    2PC      HB 4613   3.140   0.952   5.593
    2PC     O31 4614   3.131   0.774   5.709
    2PC     P31 4615   3.039   0.824   5.830
    2PC     O32 4616   3.081   0.745   5.962
    2PC     C31 4617   3.219   0.724   5.996
    2PC     H1A 4618   3.282   0.700   5.910
    2PC     H1B 4619   3.255   0.821   6.033
    2PC     C32 4620   3.238   0.615   6.102
    2PC     H2A 4621   3.200   0.654   6.196
    2PC     H2B 4622   3.170   0.535   6.072
    2PC     N31 4623   3.379   0.571   6.128
    2PC     C33 4624   3.421   0.482   6.015
    2PC     H3A 4625   3.462   0.554   5.944
    2PC     H3B 4626   3.498   0.413   6.051
    2PC     H3C 4627   3.340   0.436   5.958
    2PC     C34 4628   3.475   0.686   6.139
    2PC     H4A 4629   3.452   0.758   6.061
    2PC     H4B 4630   3.460   0.723   6.241
    2PC     H4C 4631   3.577   0.648   6.132
    2PC     C35 4632   3.381   0.488   6.253
    2PC     H5A 4633   3.309   0.407   6.249
    2PC     H5B 4634   3.346   0.561   6.326
    2PC     H5C 4635   3.482   0.453   6.276
    2PC     O33 4636   3.057   0.966   5.867
    2PC     O34 4637   2.898   0.808   5.785
    2PC     O21 4638   3.221   0.726   5.452
    2PC     C21 4639   3.139   0.775   5.358
    2PC     O22 4640   3.086   0.883   5.371
    3OL     C12 4641   3.122   0.679   5.243
    3OL     H2R 4642   3.083   0.581   5.269
    3OL     H2S 4643   3.222   0.676   5.199
    3OL     C13 4644   3.018   0.727   5.141
    3OL     H3R 4645   3.048   0.821   5.094
    3OL     H3S 4646   2.921   0.744   5.187
    3OL     C14 4647   3.005   0.623   5.029
    3OL     H4R 4648   3.062   0.534   5.057
    3OL     H4S 4649   3.038   0.661   4.932
    3OL     C15 4650   2.857   0.581   5.018
    3OL     H5R 4651   2.799   0.672   5.000
    3OL     H5S 4652   2.817   0.540   5.111
    3OL     C16 4653   2.830   0.494   4.895
    3OL     H6R 4654   2.854   0.390   4.922
    3OL     H6S 4655   2.896   0.532   4.817
    3OL     C17 4656   2.682   0.503   4.855
    3OL     H7R 4657   2.668   0.600   4.809
    3OL     H7S 4658   2.614   0.494   4.940
    3OL     C18 4659   2.658   0.393   4.750
    3OL     H8R 4660   2.699   0.300   4.789
    3OL     H8S 4661   2.723   0.402   4.663
    3OL     C19 4662   2.510   0.382   4.721
    3OL     H9R 4663   2.464   0.479   4.706
    3OL    C110 4664   2.433   0.275   4.714
    3OL    H10R 4665   2.327   0.286   4.696
    3OL    C111 4666   2.473   0.133   4.748
    3OL    H11R 4667   2.538   0.144   4.835
    3OL    H11S 4668   2.533   0.088   4.668
    3OL    C112 4669   2.362   0.034   4.786
    3OL    H12R 4670   2.269   0.049   4.731
    3OL    H12S 4671   2.335   0.046   4.891
    3OL    C113 4672   2.398  -0.114   4.764
    3OL    H13R 4673   2.369  -0.159   4.860
    3OL    H13S 4674   2.505  -0.134   4.757
    3OL    C114 4675   2.314  -0.178   4.653
    3OL    H14R 4676   2.331  -0.130   4.556
    3OL    H14S 4677   2.207  -0.170   4.672
    3OL    C115 4678   2.346  -0.328   4.635
    3OL    H15R 4679   2.310  -0.396   4.713
    3OL    H15S 4680   2.455  -0.331   4.641
    3OL    C116 4681   2.296  -0.383   4.501
    3OL    H16R 4682   2.338  -0.330   4.415
    3OL    H16S 4683   2.188  -0.372   4.493
    3OL    C117 4684   2.322  -0.534   4.492
    3OL    H17R 4685   2.299  -0.582   4.587
    3OL    H17S 4686   2.430  -0.547   4.485
    3OL    C118 4687   2.262  -0.600   4.367
    3OL    H18R 4688   2.295  -0.554   4.274
    3OL    H18S 4689   2.153  -0.605   4.377
    3OL    H18T 4690   2.297  -0.703   4.370
    1PA    C116 4691   5.510   4.275   4.164
    1PA    H16R 4692   5.547   4.189   4.109
    1PA    H16S 4693   5.590   4.349   4.178
    1PA    H16T 4694   5.429   4.323   4.109
    1PA    C115 4695   5.448   4.235   4.299
    1PA    H15R 4696   5.521   4.173   4.351
    1PA    H15S 4697   5.424   4.318   4.366
    1PA    C114 4698   5.326   4.147   4.272
    1PA    H14R 4699   5.262   4.195   4.197
    1PA    H14S 4700   5.359   4.049   4.238
    1PA    C113 4701   5.236   4.132   4.396
    1PA    H13R 4702   5.190   4.226   4.426
    1PA    H13S 4703   5.153   4.065   4.374
    1PA    C112 4704   5.313   4.066   4.511
    1PA    H12R 4705   5.407   4.119   4.529
    1PA    H12S 4706   5.262   4.087   4.605
    1PA    C111 4707   5.345   3.917   4.493
    1PA    H11R 4708   5.249   3.870   4.473
    1PA    H11S 4709   5.418   3.906   4.412
    1PA    C110 4710   5.415   3.859   4.617
    1PA    H10R 4711   5.453   3.761   4.587
    1PA    H10S 4712   5.503   3.910   4.656
    1PA     C19 4713   5.328   3.842   4.742
    1PA     H9R 4714   5.287   3.941   4.765
    1PA     H9S 4715   5.254   3.763   4.730
    1PA     C18 4716   5.416   3.804   4.862
    1PA     H8R 4717   5.478   3.716   4.844
    1PA     H8S 4718   5.498   3.868   4.896
    1PA     C17 4719   5.325   3.781   4.984
    1PA     H7R 4720   5.264   3.867   5.009
    1PA     H7S 4721   5.256   3.700   4.957
    1PA     C16 4722   5.406   3.731   5.105
    1PA     H6R 4723   5.454   3.635   5.085
    1PA     H6S 4724   5.489   3.801   5.119
    1PA     C15 4725   5.312   3.717   5.226
    1PA     H5R 4726   5.240   3.798   5.232
    1PA     H5S 4727   5.249   3.629   5.213
    1PA     C14 4728   5.393   3.718   5.357
    1PA     H4R 4729   5.485   3.659   5.349
    1PA     H4S 4730   5.427   3.821   5.369
    1PA     C13 4731   5.300   3.678   5.472
    1PA     H3R 4732   5.210   3.740   5.475
    1PA     H3S 4733   5.261   3.577   5.455
    1PA     C12 4734   5.376   3.689   5.604
    1PA     H2R 4735   5.439   3.600   5.600
    1PA     H2S 4736   5.446   3.773   5.595
    2PC     C11 4737   5.288   3.708   5.725
    2PC     O12 4738   5.248   3.624   5.803
    2PC     O11 4739   5.266   3.838   5.749
    2PC      C1 4740   5.186   3.878   5.862
    2PC      HR 4741   5.085   3.837   5.857
    2PC      HS 4742   5.230   3.845   5.957
    2PC      C2 4743   5.175   4.030   5.874
    2PC      HX 4744   5.276   4.072   5.869
    2PC      C3 4745   5.100   4.058   6.005
    2PC      HA 4746   5.162   4.021   6.088
    2PC      HB 4747   5.079   4.161   6.032
    2PC     O31 4748   4.969   3.998   6.000
    2PC     P31 4749   4.857   4.050   6.102
    2PC     O32 4750   4.766   4.157   6.025
    2PC     C31 4751   4.681   4.118   5.916
    2PC     H1A 4752   4.749   4.076   5.841
    2PC     H1B 4753   4.618   4.036   5.952
    2PC     C32 4754   4.600   4.230   5.850
    2PC     H2A 4755   4.666   4.309   5.815
    2PC     H2B 4756   4.554   4.190   5.760
    2PC     N31 4757   4.508   4.300   5.946
    2PC     C33 4758   4.430   4.210   6.037
    2PC     H3A 4759   4.485   4.195   6.130
    2PC     H3B 4760   4.338   4.263   6.061
    2PC     H3C 4761   4.414   4.111   5.996
    2PC     C34 4762   4.588   4.401   6.022
    2PC     H4A 4763   4.519   4.473   6.067
    2PC     H4B 4764   4.645   4.348   6.099
    2PC     H4C 4765   4.658   4.452   5.956
    2PC     C35 4766   4.417   4.372   5.850
    2PC     H5A 4767   4.480   4.438   5.791
    2PC     H5B 4768   4.344   4.433   5.903
    2PC     H5C 4769   4.370   4.292   5.792
    2PC     O33 4770   4.774   3.934   6.143
    2PC     O34 4771   4.922   4.112   6.219
    2PC     O21 4772   5.099   4.071   5.759
    2PC     C21 4773   5.096   4.201   5.726
    2PC     O22 4774   5.177   4.279   5.772
    3OL     C12 4775   4.974   4.232   5.643
    3OL     H2R 4776   4.994   4.330   5.598
    3OL     H2S 4777   4.892   4.233   5.714
    3OL     C13 4778   4.933   4.130   5.536
    3OL     H3R 4779   4.838   4.161   5.491
    3OL     H3S 4780   4.913   4.034   5.583
    3OL     C14 4781   5.036   4.108   5.424
    3OL     H4R 4782   5.133   4.075   5.462
    3OL     H4S 4783   5.065   4.204   5.382
    3OL     C15 4784   4.981   4.001   5.328
    3OL     H5R 4785   4.926   3.928   5.388
    3OL     H5S 4786   5.068   3.953   5.282
    3OL     C16 4787   4.898   4.066   5.217
    3OL     H6R 4788   4.962   4.128   5.155
    3OL     H6S 4789   4.822   4.135   5.256
    3OL     C17 4790   4.845   3.954   5.126
    3OL     H7R 4791   4.765   3.897   5.174
    3OL     H7S 4792   4.926   3.884   5.103
    3OL     C18 4793   4.793   4.007   4.992
    3OL     H8R 4794   4.736   4.096   5.017
    3OL     H8S 4795   4.735   3.929   4.941
    3OL     C19 4796   4.911   4.051   4.909
    3OL     H9R 4797   4.984   3.974   4.888
    3OL    C110 4798   4.937   4.170   4.858
    3OL    H10R 4799   5.025   4.182   4.796
    3OL    C111 4800   4.850   4.294   4.862
    3OL    H11R 4801   4.894   4.368   4.929
    3OL    H11S 4802   4.755   4.271   4.911
    3OL    C112 4803   4.822   4.351   4.722
    3OL    H12R 4804   4.915   4.381   4.674
    3OL    H12S 4805   4.755   4.437   4.721
    3OL    C113 4806   4.741   4.247   4.642
    3OL    H13R 4807   4.649   4.220   4.694
    3OL    H13S 4808   4.801   4.160   4.617
    3OL    C114 4809   4.694   4.306   4.509
    3OL    H14R 4810   4.783   4.342   4.457
    3OL    H14S 4811   4.617   4.380   4.533
    3OL    C115 4812   4.637   4.195   4.419
    3OL    H15R 4813   4.575   4.124   4.475
    3OL    H15S 4814   4.722   4.137   4.380
    3OL    C116 4815   4.561   4.254   4.300
    3OL    H16R 4816   4.622   4.328   4.248
    3OL    H16S 4817   4.475   4.315   4.329
    3OL    C117 4818   4.509   4.149   4.201
    3OL    H17R 4819   4.460   4.072   4.261
    3OL    H17S 4820   4.582   4.088   4.147
    3OL    C118 4821   4.419   4.222   4.100
    3OL    H18R 4822   4.370   4.152   4.033
    3OL    H18S 4823   4.481   4.293   4.045
    3OL    H18T 4824   4.336   4.273   4.148
    1PA    C116 4825   1.322   0.459   5.000
    1PA    H16R 4826   1.271   0.546   5.042
    1PA    H16S 4827   1.253   0.385   4.959
    1PA    H16T 4828   1.389   0.487   4.918
    1PA    C115 4829   1.403   0.401   5.116
    1PA    H15R 4830   1.475   0.473   5.155
    1PA    H15S 4831   1.341   0.386   5.205
    1PA    C114 4832   1.487   0.280   5.073
    1PA    H14R 4833   1.551   0.242   5.152
    1PA    H14S 4834   1.418   0.202   5.038
    1PA    C113 4835   1.584   0.316   4.960
    1PA    H13R 4836   1.540   0.331   4.861
    1PA    H13S 4837   1.636   0.408   4.984
    1PA    C112 4838   1.683   0.202   4.933
    1PA    H12R 4839   1.741   0.198   5.025
    1PA    H12S 4840   1.635   0.104   4.929
    1PA    C111 4841   1.762   0.231   4.805
    1PA    H11R 4842   1.823   0.145   4.774
    1PA    H11S 4843   1.701   0.275   4.726
    1PA    C110 4844   1.868   0.340   4.828
    1PA    H10R 4845   1.912   0.355   4.729
    1PA    H10S 4846   1.812   0.432   4.843
    1PA     C19 4847   1.971   0.317   4.939
    1PA     H9R 4848   1.919   0.320   5.035
    1PA     H9S 4849   2.004   0.212   4.937
    1PA     C18 4850   2.091   0.413   4.940
    1PA     H8R 4851   2.163   0.389   4.862
    1PA     H8S 4852   2.064   0.518   4.932
    1PA     C17 4853   2.158   0.391   5.076
    1PA     H7R 4854   2.230   0.472   5.093
    1PA     H7S 4855   2.082   0.401   5.153
    1PA     C16 4856   2.242   0.262   5.075
    1PA     H6R 4857   2.169   0.182   5.068
    1PA     H6S 4858   2.297   0.257   4.981
    1PA     C15 4859   2.340   0.238   5.191
    1PA     H5R 4860   2.385   0.139   5.184
    1PA     H5S 4861   2.412   0.320   5.194
    1PA     C14 4862   2.267   0.248   5.326
    1PA     H4R 4863   2.212   0.341   5.341
    1PA     H4S 4864   2.193   0.168   5.336
    1PA     C13 4865   2.376   0.228   5.432
    1PA     H3R 4866   2.430   0.136   5.409
    1PA     H3S 4867   2.450   0.309   5.429
    1PA     C12 4868   2.324   0.237   5.577
    1PA     H2R 4869   2.246   0.313   5.582
    1PA     H2S 4870   2.281   0.140   5.602
    2PC     C11 4871   2.423   0.280   5.682
    2PC     O12 4872   2.538   0.242   5.689
    2PC     O11 4873   2.372   0.373   5.765
    2PC      C1 4874   2.448   0.438   5.868
    2PC      HR 4875   2.515   0.370   5.921
    2PC      HS 4876   2.524   0.500   5.820
    2PC      C2 4877   2.365   0.511   5.975
    2PC      HX 4878   2.434   0.549   6.051
    2PC      C3 4879   2.274   0.418   6.055
    2PC      HA 4880   2.172   0.422   6.014
    2PC      HB 4881   2.313   0.318   6.038
    2PC     O31 4882   2.270   0.451   6.195
    2PC     P31 4883   2.182   0.362   6.295
    2PC     O32 4884   2.040   0.432   6.269
    2PC     C31 4885   1.941   0.422   6.372
    2PC     H1A 4886   1.987   0.444   6.469
    2PC     H1B 4887   1.867   0.498   6.348
    2PC     C32 4888   1.865   0.288   6.376
    2PC     H2A 4889   1.928   0.206   6.411
    2PC     H2B 4890   1.797   0.306   6.459
    2PC     N31 4891   1.793   0.239   6.255
    2PC     C33 4892   1.721   0.350   6.184
    2PC     H3A 4893   1.796   0.422   6.150
    2PC     H3B 4894   1.662   0.316   6.098
    2PC     H3C 4895   1.644   0.393   6.248
    2PC     C34 4896   1.883   0.176   6.153
    2PC     H4A 4897   1.939   0.099   6.206
    2PC     H4B 4898   1.823   0.129   6.076
    2PC     H4C 4899   1.953   0.252   6.117
    2PC     C35 4900   1.690   0.138   6.297
    2PC     H5A 4901   1.619   0.179   6.369
    2PC     H5B 4902   1.743   0.051   6.334
    2PC     H5C 4903   1.634   0.092   6.216
    2PC     O33 4904   2.176   0.219   6.255
    2PC     O34 4905   2.220   0.353   6.438
    2PC     O21 4906   2.295   0.618   5.908
    2PC     C21 4907   2.364   0.720   5.855
    2PC     O22 4908   2.483   0.736   5.877
    3OL     C12 4909   2.273   0.808   5.774
    3OL     H2R 4910   2.256   0.905   5.821
    3OL     H2S 4911   2.175   0.759   5.766
    3OL     C13 4912   2.324   0.834   5.632
    3OL     H3R 4913   2.427   0.868   5.643
    3OL     H3S 4914   2.260   0.913   5.592
    3OL     C14 4915   2.336   0.714   5.536
    3OL     H4R 4916   2.240   0.669   5.510
    3OL     H4S 4917   2.401   0.645   5.590
    3OL     C15 4918   2.402   0.746   5.402
    3OL     H5R 4919   2.497   0.799   5.412
    3OL     H5S 4920   2.347   0.820   5.343
    3OL     C16 4921   2.420   0.617   5.320
    3OL     H6R 4922   2.327   0.559   5.310
    3OL     H6S 4923   2.489   0.555   5.378
    3OL     C17 4924   2.483   0.642   5.183
    3OL     H7R 4925   2.464   0.552   5.124
    3OL     H7S 4926   2.588   0.669   5.186
    3OL     C18 4927   2.403   0.750   5.108
    3OL     H8R 4928   2.415   0.850   5.149
    3OL     H8S 4929   2.296   0.730   5.107
    3OL     C19 4930   2.468   0.746   4.972
    3OL     H9R 4931   2.464   0.653   4.917
    3OL    C110 4932   2.524   0.848   4.908
    3OL    H10R 4933   2.542   0.857   4.801
    3OL    C111 4934   2.546   0.986   4.965
    3OL    H11R 4935   2.455   1.008   5.020
    3OL    H11S 4936   2.557   1.050   4.877
    3OL    C112 4937   2.668   0.980   5.058
    3OL    H12R 4938   2.754   0.954   4.995
    3OL    H12S 4939   2.652   0.897   5.127
    3OL    C113 4940   2.695   1.105   5.142
    3OL    H13R 4941   2.694   1.194   5.079
    3OL    H13S 4942   2.796   1.081   5.177
    3OL    C114 4943   2.595   1.111   5.258
    3OL    H14R 4944   2.604   1.018   5.315
    3OL    H14S 4945   2.495   1.103   5.214
    3OL    C115 4946   2.620   1.234   5.346
    3OL    H15R 4947   2.629   1.322   5.281
    3OL    H15S 4948   2.710   1.223   5.407
    3OL    C116 4949   2.500   1.237   5.441
    3OL    H16R 4950   2.405   1.222   5.389
    3OL    H16S 4951   2.496   1.339   5.480
    3OL    C117 4952   2.510   1.141   5.560
    3OL    H17R 4953   2.613   1.142   5.597
    3OL    H17S 4954   2.484   1.038   5.535
    3OL    C118 4955   2.412   1.198   5.664
    3OL    H18R 4956   2.408   1.137   5.755
    3OL    H18S 4957   2.316   1.201   5.613
    3OL    H18T 4958   2.436   1.301   5.692
    1PA    C116 4959   5.508   3.008   4.347
    1PA    H16R 4960   5.439   2.946   4.289
    1PA    H16S 4961   5.599   3.014   4.286
    1PA    H16T 4962   5.470   3.110   4.344
    1PA    C115 4963   5.539   2.944   4.483
    1PA    H15R 4964   5.571   2.841   4.463
    1PA    H15S 4965   5.615   2.988   4.547
    1PA    C114 4966   5.410   2.931   4.565
    1PA    H14R 4967   5.345   3.019   4.559
    1PA    H14S 4968   5.349   2.852   4.520
    1PA    C113 4969   5.446   2.910   4.712
    1PA    H13R 4970   5.519   2.832   4.736
    1PA    H13S 4971   5.491   3.006   4.740
    1PA    C112 4972   5.314   2.881   4.784
    1PA    H12R 4973   5.258   2.975   4.781
    1PA    H12S 4974   5.258   2.801   4.735
    1PA    C111 4975   5.334   2.846   4.932
    1PA    H11R 4976   5.405   2.763   4.943
    1PA    H11S 4977   5.387   2.933   4.970
    1PA    C110 4978   5.210   2.813   5.016
    1PA    H10R 4979   5.159   2.908   5.036
    1PA    H10S 4980   5.142   2.744   4.965
    1PA     C19 4981   5.263   2.768   5.152
    1PA     H9R 4982   5.321   2.676   5.138
    1PA     H9S 4983   5.328   2.845   5.194
    1PA     C18 4984   5.157   2.742   5.261
    1PA     H8R 4985   5.101   2.653   5.233
    1PA     H8S 4986   5.203   2.718   5.357
    1PA     C17 4987   5.052   2.852   5.276
    1PA     H7R 4988   5.091   2.954   5.283
    1PA     H7S 4989   4.991   2.857   5.185
    1PA     C16 4990   4.968   2.833   5.403
    1PA     H6R 4991   4.882   2.900   5.392
    1PA     H6S 4992   4.930   2.731   5.411
    1PA     C15 4993   5.041   2.881   5.528
    1PA     H5R 4994   5.114   2.961   5.508
    1PA     H5S 4995   4.965   2.920   5.595
    1PA     C14 4996   5.118   2.765   5.593
    1PA     H4R 4997   5.064   2.671   5.579
    1PA     H4S 4998   5.213   2.740   5.545
    1PA     C13 4999   5.146   2.778   5.743
    1PA     H3R 5000   5.053   2.809   5.791
    1PA     H3S 5001   5.191   2.695   5.798
    1PA     C12 5002   5.241   2.897   5.764
    1PA     H2R 5003   5.322   2.900   5.692
    1PA     H2S 5004   5.179   2.987   5.755
    2PC     C11 5005   5.292   2.878   5.905
    2PC     O12 5006   5.234   2.914   6.005
    2PC     O11 5007   5.410   2.814   5.903
    2PC      C1 5008   5.472   2.798   6.032
    2PC      HR 5009   5.500   2.894   6.076
    2PC      HS 5010   5.402   2.743   6.096
    2PC      C2 5011   5.607   2.731   6.002
    2PC      HX 5012   5.584   2.638   5.949
    2PC      C3 5013   5.683   2.676   6.123
    2PC      HA 5014   5.627   2.606   6.185
    2PC      HB 5015   5.781   2.640   6.090
    2PC     O31 5016   5.703   2.791   6.208
    2PC     P31 5017   5.804   2.779   6.332
    2PC     O32 5018   5.949   2.792   6.264
    2PC     C31 5019   6.056   2.782   6.359
    2PC     H1A 5020   6.062   2.882   6.402
    2PC     H1B 5021   6.042   2.697   6.427
    2PC     C32 5022   6.187   2.750   6.285
    2PC     H2A 5023   6.207   2.829   6.212
    2PC     H2B 5024   6.271   2.763   6.352
    2PC     N31 5025   6.200   2.616   6.218
    2PC     C33 5026   6.108   2.590   6.102
    2PC     H3A 5027   6.134   2.495   6.056
    2PC     H3B 5028   6.002   2.596   6.126
    2PC     H3C 5029   6.129   2.669   6.030
    2PC     C34 5030   6.338   2.583   6.172
    2PC     H4A 5031   6.371   2.657   6.098
    2PC     H4B 5032   6.402   2.578   6.260
    2PC     H4C 5033   6.333   2.484   6.126
    2PC     C35 5034   6.158   2.517   6.322
    2PC     H5A 5035   6.206   2.551   6.414
    2PC     H5B 5036   6.196   2.420   6.293
    2PC     H5C 5037   6.050   2.527   6.335
    2PC     O33 5038   5.771   2.886   6.429
    2PC     O34 5039   5.777   2.648   6.395
    2PC     O21 5040   5.680   2.825   5.921
    2PC     C21 5041   5.784   2.768   5.857
    2PC     O22 5042   5.812   2.651   5.838
    3OL     C12 5043   5.871   2.869   5.786
    3OL     H2R 5044   5.896   2.944   5.862
    3OL     H2S 5045   5.807   2.919   5.712
    3OL     C13 5046   5.997   2.821   5.714
    3OL     H3R 5047   5.985   2.723   5.668
    3OL     H3S 5048   6.078   2.799   5.785
    3OL     C14 5049   6.056   2.917   5.611
    3OL     H4R 5050   6.109   2.998   5.663
    3OL     H4S 5051   5.985   2.967   5.545
    3OL     C15 5052   6.174   2.852   5.537
    3OL     H5R 5053   6.138   2.776   5.467
    3OL     H5S 5054   6.229   2.797   5.613
    3OL     C16 5055   6.261   2.957   5.465
    3OL     H6R 5056   6.354   2.908   5.436
    3OL     H6S 5057   6.279   3.036   5.537
    3OL     C17 5058   6.198   3.018   5.339
    3OL     H7R 5059   6.096   3.054   5.347
    3OL     H7S 5060   6.182   2.941   5.264
    3OL     C18 5061   6.286   3.139   5.301
    3OL     H8R 5062   6.384   3.101   5.273
    3OL     H8S 5063   6.304   3.208   5.383
    3OL     C19 5064   6.242   3.219   5.181
    3OL     H9R 5065   6.175   3.303   5.201
    3OL    C110 5066   6.296   3.216   5.060
    3OL    H10R 5067   6.274   3.295   4.990
    3OL    C111 5068   6.381   3.107   4.999
    3OL    H11R 5069   6.351   3.013   5.047
    3OL    H11S 5070   6.485   3.129   5.024
    3OL    C112 5071   6.371   3.106   4.846
    3OL    H12R 5072   6.263   3.108   4.830
    3OL    H12S 5073   6.411   3.015   4.800
    3OL    C113 5074   6.433   3.233   4.787
    3OL    H13R 5075   6.525   3.265   4.835
    3OL    H13S 5076   6.371   3.320   4.810
    3OL    C114 5077   6.465   3.223   4.637
    3OL    H14R 5078   6.381   3.209   4.569
    3OL    H14S 5079   6.525   3.133   4.624
    3OL    C115 5080   6.525   3.352   4.580
    3OL    H15R 5081   6.621   3.363   4.629
    3OL    H15S 5082   6.464   3.436   4.613
    3OL    C116 5083   6.545   3.343   4.428
    3OL    H16R 5084   6.447   3.357   4.382
    3OL    H16S 5085   6.576   3.242   4.398
    3OL    C117 5086   6.637   3.445   4.360
    3OL    H17R 5087   6.633   3.425   4.253
    3OL    H17S 5088   6.738   3.438   4.400
    3OL    C118 5089   6.572   3.584   4.374
    3OL    H18R 5090   6.478   3.601   4.322
    3OL    H18S 5091   6.649   3.656   4.347
    3OL    H18T 5092   6.546   3.600   4.479
    1PA    C116 5093   3.877   5.643   3.922
    1PA    H16R 5094   3.808   5.646   4.007
    1PA    H16S 5095   3.823   5.639   3.828
    1PA    H16T 5096   3.925   5.741   3.925
    1PA    C115 5097   3.970   5.522   3.937
    1PA    H15R 5098   3.926   5.453   4.010
    1PA    H15S 5099   3.970   5.485   3.834
    1PA    C114 5100   4.110   5.563   3.985
    1PA    H14R 5101   4.175   5.480   3.959
    1PA    H14S 5102   4.142   5.643   3.918
    1PA    C113 5103   4.120   5.590   4.136
    1PA    H13R 5104   4.044   5.664   4.162
    1PA    H13S 5105   4.078   5.496   4.173
    1PA    C112 5106   4.265   5.622   4.175
    1PA    H12R 5107   4.336   5.544   4.150
    1PA    H12S 5108   4.301   5.715   4.132
    1PA    C111 5109   4.276   5.634   4.328
    1PA    H11R 5110   4.192   5.694   4.362
    1PA    H11S 5111   4.248   5.537   4.370
    1PA    C110 5112   4.406   5.679   4.397
    1PA    H10R 5113   4.484   5.613   4.358
    1PA    H10S 5114   4.421   5.785   4.376
    1PA     C19 5115   4.379   5.656   4.546
    1PA     H9R 5116   4.301   5.725   4.581
    1PA     H9S 5117   4.344   5.555   4.570
    1PA     C18 5118   4.504   5.680   4.631
    1PA     H8R 5119   4.580   5.609   4.598
    1PA     H8S 5120   4.548   5.779   4.613
    1PA     C17 5121   4.493   5.669   4.784
    1PA     H7R 5122   4.594   5.670   4.826
    1PA     H7S 5123   4.447   5.756   4.831
    1PA     C16 5124   4.420   5.541   4.828
    1PA     H6R 5125   4.319   5.547   4.787
    1PA     H6S 5126   4.473   5.462   4.774
    1PA     C15 5127   4.426   5.534   4.981
    1PA     H5R 5128   4.444   5.633   5.024
    1PA     H5S 5129   4.335   5.487   5.018
    1PA     C14 5130   4.541   5.445   5.032
    1PA     H4R 5131   4.522   5.341   5.006
    1PA     H4S 5132   4.635   5.472   4.984
    1PA     C13 5133   4.557   5.455   5.185
    1PA     H3R 5134   4.644   5.391   5.202
    1PA     H3S 5135   4.578   5.557   5.220
    1PA     C12 5136   4.444   5.388   5.263
    1PA     H2R 5137   4.368   5.466   5.275
    1PA     H2S 5138   4.397   5.308   5.207
    2PC     C11 5139   4.482   5.331   5.398
    2PC     O12 5140   4.395   5.313   5.480
    2PC     O11 5141   4.610   5.290   5.404
    2PC      C1 5142   4.668   5.256   5.531
    2PC      HR 5143   4.776   5.275   5.534
    2PC      HS 5144   4.614   5.306   5.612
    2PC      C2 5145   4.647   5.106   5.554
    2PC      HX 5146   4.539   5.091   5.565
    2PC      C3 5147   4.716   5.055   5.680
    2PC      HA 5148   4.666   4.961   5.707
    2PC      HB 5149   4.820   5.029   5.658
    2PC     O31 5150   4.709   5.151   5.787
    2PC     P31 5151   4.766   5.113   5.932
    2PC     O32 5152   4.914   5.109   5.871
    2PC     C31 5153   5.028   5.161   5.941
    2PC     H1A 5154   5.005   5.261   5.977
    2PC     H1B 5155   5.057   5.104   6.030
    2PC     C32 5156   5.146   5.171   5.843
    2PC     H2A 5157   5.107   5.218   5.753
    2PC     H2B 5158   5.225   5.234   5.885
    2PC     N31 5159   5.209   5.039   5.810
    2PC     C33 5160   5.275   4.981   5.932
    2PC     H3A 5161   5.200   4.951   6.006
    2PC     H3B 5162   5.335   4.893   5.910
    2PC     H3C 5163   5.344   5.056   5.971
    2PC     C34 5164   5.105   4.946   5.755
    2PC     H4A 5165   5.042   4.985   5.675
    2PC     H4B 5166   5.159   4.864   5.707
    2PC     H4C 5167   5.046   4.909   5.839
    2PC     C35 5168   5.309   5.069   5.703
    2PC     H5A 5169   5.387   5.126   5.753
    2PC     H5B 5170   5.251   5.123   5.628
    2PC     H5C 5171   5.352   4.975   5.668
    2PC     O33 5172   4.737   5.225   6.024
    2PC     O34 5173   4.720   4.981   5.980
    2PC     O21 5174   4.677   5.034   5.433
    2PC     C21 5175   4.800   5.016   5.384
    2PC     O22 5176   4.903   5.060   5.431
    3OL     C12 5177   4.797   4.930   5.259
    3OL     H2R 5178   4.708   4.868   5.269
    3OL     H2S 5179   4.886   4.867   5.254
    3OL     C13 5180   4.766   5.018   5.137
    3OL     H3R 5181   4.833   5.104   5.131
    3OL     H3S 5182   4.667   5.065   5.143
    3OL     C14 5183   4.775   4.942   5.004
    3OL     H4R 5184   4.879   4.908   4.996
    3OL     H4S 5185   4.762   5.009   4.920
    3OL     C15 5186   4.679   4.822   5.006
    3OL     H5R 5187   4.577   4.854   5.029
    3OL     H5S 5188   4.712   4.747   5.077
    3OL     C16 5189   4.668   4.748   4.871
    3OL     H6R 5190   4.603   4.661   4.864
    3OL     H6S 5191   4.766   4.703   4.856
    3OL     C17 5192   4.660   4.834   4.744
    3OL     H7R 5193   4.751   4.892   4.732
    3OL     H7S 5194   4.577   4.902   4.760
    3OL     C18 5195   4.637   4.755   4.614
    3OL     H8R 5196   4.579   4.671   4.651
    3OL     H8S 5197   4.737   4.718   4.591
    3OL     C19 5198   4.582   4.842   4.504
    3OL     H9R 5199   4.652   4.918   4.470
    3OL    C110 5200   4.461   4.843   4.450
    3OL    H10R 5201   4.447   4.912   4.367
    3OL    C111 5202   4.351   4.749   4.492
    3OL    H11R 5203   4.255   4.800   4.487
    3OL    H11S 5204   4.359   4.724   4.598
    3OL    C112 5205   4.349   4.630   4.394
    3OL    H12R 5206   4.274   4.560   4.430
    3OL    H12S 5207   4.449   4.595   4.369
    3OL    C113 5208   4.287   4.677   4.261
    3OL    H13R 5209   4.353   4.757   4.226
    3OL    H13S 5210   4.200   4.738   4.283
    3OL    C114 5211   4.238   4.561   4.174
    3OL    H14R 5212   4.141   4.531   4.215
    3OL    H14S 5213   4.305   4.475   4.184
    3OL    C115 5214   4.217   4.590   4.025
    3OL    H15R 5215   4.311   4.615   3.975
    3OL    H15S 5216   4.154   4.679   4.016
    3OL    C116 5217   4.150   4.465   3.965
    3OL    H16R 5218   4.172   4.375   4.024
    3OL    H16S 5219   4.199   4.446   3.869
    3OL    C117 5220   3.999   4.480   3.948
    3OL    H17R 5221   3.959   4.573   3.908
    3OL    H17S 5222   3.956   4.457   4.046
    3OL    C118 5223   3.943   4.367   3.861
    3OL    H18R 5224   3.977   4.267   3.888
    3OL    H18S 5225   3.975   4.378   3.757
    3OL    H18T 5226   3.834   4.357   3.860
    1PA    C116 5227   2.157   0.460   4.528
    1PA    H16R 5228   2.231   0.472   4.448
    1PA    H16S 5229   2.063   0.416   4.494
    1PA    H16T 5230   2.200   0.389   4.599
    1PA    C115 5231   2.123   0.593   4.596
    1PA    H15R 5232   2.053   0.660   4.546
    1PA    H15S 5233   2.064   0.573   4.687
    1PA    C114 5234   2.254   0.661   4.639
    1PA    H14R 5235   2.304   0.624   4.728
    1PA    H14S 5236   2.334   0.660   4.565
    1PA    C113 5237   2.238   0.810   4.670
    1PA    H13R 5238   2.336   0.853   4.691
    1PA    H13S 5239   2.187   0.870   4.595
    1PA    C112 5240   2.158   0.824   4.801
    1PA    H12R 5241   2.053   0.803   4.780
    1PA    H12S 5242   2.191   0.754   4.877
    1PA    C111 5243   2.172   0.970   4.848
    1PA    H11R 5244   2.279   0.987   4.866
    1PA    H11S 5245   2.136   1.045   4.777
    1PA    C110 5246   2.086   0.978   4.974
    1PA    H10R 5247   1.985   0.940   4.961
    1PA    H10S 5248   2.140   0.920   5.050
    1PA     C19 5249   2.082   1.122   5.030
    1PA     H9R 5250   2.011   1.181   4.971
    1PA     H9S 5251   2.044   1.103   5.131
    1PA     C18 5252   2.218   1.192   5.025
    1PA     H8R 5253   2.294   1.129   5.071
    1PA     H8S 5254   2.239   1.214   4.920
    1PA     C17 5255   2.220   1.327   5.099
    1PA     H7R 5256   2.143   1.388   5.050
    1PA     H7S 5257   2.200   1.305   5.204
    1PA     C16 5258   2.357   1.394   5.085
    1PA     H6R 5259   2.433   1.318   5.106
    1PA     H6S 5260   2.372   1.411   4.978
    1PA     C15 5261   2.370   1.527   5.160
    1PA     H5R 5262   2.471   1.526   5.201
    1PA     H5S 5263   2.357   1.612   5.093
    1PA     C14 5264   2.281   1.542   5.285
    1PA     H4R 5265   2.175   1.539   5.260
    1PA     H4S 5266   2.310   1.464   5.355
    1PA     C13 5267   2.322   1.666   5.366
    1PA     H3R 5268   2.430   1.662   5.381
    1PA     H3S 5269   2.313   1.755   5.303
    1PA     C12 5270   2.256   1.675   5.504
    1PA     H2R 5271   2.147   1.677   5.494
    1PA     H2S 5272   2.275   1.583   5.559
    2PC     C11 5273   2.315   1.783   5.592
    2PC     O12 5274   2.412   1.760   5.660
    2PC     O11 5275   2.242   1.896   5.594
    2PC      C1 5276   2.276   2.007   5.679
    2PC      HR 5277   2.189   2.074   5.680
    2PC      HS 5278   2.311   1.982   5.780
    2PC      C2 5279   2.395   2.075   5.611
    2PC      HX 5280   2.470   2.000   5.585
    2PC      C3 5281   2.458   2.183   5.700
    2PC      HA 5282   2.490   2.137   5.794
    2PC      HB 5283   2.547   2.233   5.662
    2PC     O31 5284   2.366   2.289   5.731
    2PC     P31 5285   2.419   2.405   5.828
    2PC     O32 5286   2.386   2.533   5.738
    2PC     C31 5287   2.330   2.650   5.801
    2PC     H1A 5288   2.282   2.709   5.723
    2PC     H1B 5289   2.251   2.619   5.870
    2PC     C32 5290   2.447   2.718   5.875
    2PC     H2A 5291   2.500   2.643   5.933
    2PC     H2B 5292   2.519   2.766   5.808
    2PC     N31 5293   2.408   2.820   5.977
    2PC     C33 5294   2.328   2.782   6.098
    2PC     H3A 5295   2.401   2.729   6.159
    2PC     H3B 5296   2.283   2.869   6.145
    2PC     H3C 5297   2.242   2.725   6.061
    2PC     C34 5298   2.530   2.889   6.028
    2PC     H4A 5299   2.574   2.939   5.941
    2PC     H4B 5300   2.491   2.963   6.098
    2PC     H4C 5301   2.598   2.822   6.081
    2PC     C35 5302   2.331   2.929   5.908
    2PC     H5A 5303   2.319   3.010   5.980
    2PC     H5B 5304   2.236   2.881   5.885
    2PC     H5C 5305   2.390   2.964   5.823
    2PC     O33 5306   2.341   2.401   5.954
    2PC     O34 5307   2.560   2.405   5.876
    2PC     O21 5308   2.343   2.142   5.494
    2PC     C21 5309   2.337   2.068   5.382
    2PC     O22 5310   2.385   1.957   5.369
    3OL     C12 5311   2.288   2.154   5.268
    3OL     H2R 5312   2.283   2.259   5.299
    3OL     H2S 5313   2.191   2.104   5.264
    3OL     C13 5314   2.364   2.127   5.137
    3OL     H3R 5315   2.377   2.020   5.119
    3OL     H3S 5316   2.463   2.164   5.162
    3OL     C14 5317   2.291   2.209   5.030
    3OL     H4R 5318   2.305   2.316   5.045
    3OL     H4S 5319   2.183   2.191   5.034
    3OL     C15 5320   2.347   2.178   4.890
    3OL     H5R 5321   2.345   2.075   4.856
    3OL     H5S 5322   2.452   2.205   4.900
    3OL     C16 5323   2.285   2.272   4.786
    3OL     H6R 5324   2.293   2.378   4.814
    3OL     H6S 5325   2.182   2.236   4.780
    3OL     C17 5326   2.342   2.268   4.643
    3OL     H7R 5327   2.259   2.291   4.576
    3OL     H7S 5328   2.382   2.168   4.624
    3OL     C18 5329   2.460   2.365   4.631
    3OL     H8R 5330   2.539   2.334   4.700
    3OL     H8S 5331   2.443   2.468   4.661
    3OL     C19 5332   2.504   2.382   4.487
    3OL     H9R 5333   2.436   2.436   4.421
    3OL    C110 5334   2.624   2.342   4.450
    3OL    H10R 5335   2.653   2.369   4.349
    3OL    C111 5336   2.728   2.260   4.523
    3OL    H11R 5337   2.744   2.179   4.452
    3OL    H11S 5338   2.684   2.210   4.609
    3OL    C112 5339   2.856   2.335   4.563
    3OL    H12R 5340   2.916   2.344   4.472
    3OL    H12S 5341   2.907   2.264   4.628
    3OL    C113 5342   2.836   2.474   4.625
    3OL    H13R 5343   2.771   2.449   4.709
    3OL    H13S 5344   2.788   2.548   4.561
    3OL    C114 5345   2.968   2.532   4.679
    3OL    H14R 5346   3.022   2.576   4.595
    3OL    H14S 5347   3.037   2.460   4.723
    3OL    C115 5348   2.940   2.643   4.782
    3OL    H15R 5349   2.880   2.607   4.866
    3OL    H15S 5350   2.888   2.727   4.737
    3OL    C116 5351   3.063   2.705   4.851
    3OL    H16R 5352   3.125   2.750   4.773
    3OL    H16S 5353   3.121   2.630   4.905
    3OL    C117 5354   3.021   2.804   4.961
    3OL    H17R 5355   2.986   2.741   5.043
    3OL    H17S 5356   2.931   2.855   4.925
    3OL    C118 5357   3.134   2.900   5.002
    3OL    H18R 5358   3.189   2.949   4.922
    3OL    H18S 5359   3.201   2.822   5.039
    3OL    H18T 5360   3.109   2.969   5.083
    1PA    C116 5361   2.178   5.227   3.800
    1PA    H16R 5362   2.165   5.335   3.809
    1PA    H16S 5363   2.114   5.172   3.869
    1PA    H16T 5364   2.153   5.193   3.699
    1PA    C115 5365   2.324   5.192   3.833
    1PA    H15R 5366   2.344   5.091   3.796
    1PA    H15S 5367   2.395   5.253   3.777
    1PA    C114 5368   2.363   5.185   3.981
    1PA    H14R 5369   2.315   5.264   4.040
    1PA    H14S 5370   2.316   5.092   4.013
    1PA    C113 5371   2.513   5.183   4.011
    1PA    H13R 5372   2.558   5.095   3.965
    1PA    H13S 5373   2.551   5.272   3.961
    1PA    C112 5374   2.538   5.191   4.163
    1PA    H12R 5375   2.471   5.258   4.217
    1PA    H12S 5376   2.516   5.095   4.209
    1PA    C111 5377   2.687   5.218   4.186
    1PA    H11R 5378   2.745   5.126   4.180
    1PA    H11S 5379   2.732   5.286   4.113
    1PA    C110 5380   2.716   5.286   4.321
    1PA    H10R 5381   2.660   5.379   4.321
    1PA    H10S 5382   2.672   5.225   4.401
    1PA     C19 5383   2.867   5.301   4.346
    1PA     H9R 5384   2.923   5.208   4.356
    1PA     H9S 5385   2.914   5.347   4.259
    1PA     C18 5386   2.880   5.382   4.476
    1PA     H8R 5387   2.850   5.485   4.456
    1PA     H8S 5388   2.824   5.330   4.553
    1PA     C17 5389   3.026   5.400   4.520
    1PA     H7R 5390   3.062   5.301   4.549
    1PA     H7S 5391   3.092   5.445   4.446
    1PA     C16 5392   3.041   5.502   4.634
    1PA     H6R 5393   3.145   5.533   4.639
    1PA     H6S 5394   2.982   5.594   4.621
    1PA     C15 5395   3.007   5.433   4.767
    1PA     H5R 5396   2.901   5.408   4.772
    1PA     H5S 5397   3.059   5.337   4.777
    1PA     C14 5398   3.046   5.507   4.895
    1PA     H4R 5399   3.151   5.536   4.884
    1PA     H4S 5400   2.995   5.604   4.897
    1PA     C13 5401   3.038   5.422   5.023
    1PA     H3R 5402   2.936   5.391   5.046
    1PA     H3S 5403   3.089   5.327   5.009
    1PA     C12 5404   3.083   5.506   5.144
    1PA     H2R 5405   3.187   5.536   5.131
    1PA     H2S 5406   3.025   5.599   5.150
    2PC     C11 5407   3.078   5.430   5.273
    2PC     O12 5408   3.087   5.476   5.385
    2PC     O11 5409   3.067   5.297   5.256
    2PC      C1 5410   3.070   5.202   5.364
    2PC      HR 5411   3.086   5.100   5.327
    2PC      HS 5412   3.156   5.228   5.425
    2PC      C2 5413   2.943   5.205   5.451
    2PC      HX 5414   2.927   5.298   5.506
    2PC      C3 5415   2.952   5.095   5.557
    2PC      HA 5416   2.931   4.999   5.509
    2PC      HB 5417   3.048   5.091   5.609
    2PC     O31 5418   2.842   5.114   5.649
    2PC     P31 5419   2.846   5.076   5.805
    2PC     O32 5420   2.704   5.148   5.827
    2PC     C31 5421   2.669   5.157   5.966
    2PC     H1A 5422   2.666   5.056   6.008
    2PC     H1B 5423   2.741   5.228   6.009
    2PC     C32 5424   2.532   5.227   5.966
    2PC     H2A 5425   2.541   5.325   5.919
    2PC     H2B 5426   2.467   5.161   5.909
    2PC     N31 5427   2.466   5.242   6.100
    2PC     C33 5428   2.545   5.314   6.206
    2PC     H3A 5429   2.622   5.246   6.240
    2PC     H3B 5430   2.584   5.410   6.173
    2PC     H3C 5431   2.476   5.330   6.289
    2PC     C34 5432   2.334   5.306   6.070
    2PC     H4A 5433   2.360   5.409   6.048
    2PC     H4B 5434   2.287   5.257   5.984
    2PC     H4C 5435   2.283   5.305   6.167
    2PC     C35 5436   2.431   5.108   6.156
    2PC     H5A 5437   2.385   5.059   6.070
    2PC     H5B 5438   2.352   5.118   6.232
    2PC     H5C 5439   2.525   5.065   6.192
    2PC     O33 5440   2.840   4.930   5.833
    2PC     O34 5441   2.951   5.149   5.878
    2PC     O21 5442   2.834   5.162   5.367
    2PC     C21 5443   2.763   5.244   5.289
    2PC     O22 5444   2.773   5.365   5.282
    3OL     C12 5445   2.652   5.170   5.218
    3OL     H2R 5446   2.556   5.193   5.265
    3OL     H2S 5447   2.669   5.063   5.234
    3OL     C13 5448   2.645   5.209   5.070
    3OL     H3R 5449   2.687   5.306   5.044
    3OL     H3S 5450   2.547   5.200   5.024
    3OL     C14 5451   2.743   5.112   5.001
    3OL     H4R 5452   2.729   5.011   5.041
    3OL     H4S 5453   2.845   5.140   5.027
    3OL     C15 5454   2.715   5.118   4.851
    3OL     H5R 5455   2.755   5.216   4.824
    3OL     H5S 5456   2.608   5.122   4.828
    3OL     C16 5457   2.772   4.995   4.779
    3OL     H6R 5458   2.720   4.907   4.817
    3OL     H6S 5459   2.873   4.963   4.805
    3OL     C17 5460   2.753   4.996   4.626
    3OL     H7R 5461   2.834   5.062   4.593
    3OL     H7S 5462   2.668   5.055   4.591
    3OL     C18 5463   2.762   4.852   4.574
    3OL     H8R 5464   2.689   4.783   4.618
    3OL     H8S 5465   2.856   4.809   4.610
    3OL     C19 5466   2.748   4.855   4.424
    3OL     H9R 5467   2.651   4.883   4.384
    3OL    C110 5468   2.846   4.822   4.341
    3OL    H10R 5469   2.819   4.828   4.236
    3OL    C111 5470   2.984   4.780   4.384
    3OL    H11R 5471   2.973   4.728   4.479
    3OL    H11S 5472   3.048   4.868   4.397
    3OL    C112 5473   3.060   4.684   4.293
    3OL    H12R 5474   3.000   4.601   4.253
    3OL    H12S 5475   3.143   4.642   4.350
    3OL    C113 5476   3.109   4.755   4.166
    3OL    H13R 5477   3.171   4.841   4.191
    3OL    H13S 5478   3.039   4.812   4.105
    3OL    C114 5479   3.189   4.659   4.077
    3OL    H14R 5480   3.121   4.589   4.028
    3OL    H14S 5481   3.263   4.599   4.131
    3OL    C115 5482   3.254   4.741   3.964
    3OL    H15R 5483   3.306   4.829   4.003
    3OL    H15S 5484   3.173   4.784   3.906
    3OL    C116 5485   3.341   4.650   3.876
    3OL    H16R 5486   3.288   4.564   3.834
    3OL    H16S 5487   3.426   4.612   3.934
    3OL    C117 5488   3.399   4.729   3.758
    3OL    H17R 5489   3.345   4.817   3.725
    3OL    H17S 5490   3.404   4.661   3.672
    3OL    C118 5491   3.540   4.786   3.779
    3OL    H18R 5492   3.594   4.696   3.807
    3OL    H18S 5493   3.533   4.859   3.860
    3OL    H18T 5494   3.576   4.818   3.681
    1PA    C116 5495   6.121   5.295   3.980
    1PA    H16R 5496   6.169   5.301   3.882
    1PA    H16S 5497   6.123   5.395   4.023
    1PA    H16T 5498   6.019   5.263   3.957
    1PA    C115 5499   6.181   5.179   4.061
    1PA    H15R 5500   6.165   5.085   4.008
    1PA    H15S 5501   6.289   5.193   4.065
    1PA    C114 5502   6.101   5.160   4.191
    1PA    H14R 5503   6.082   5.254   4.242
    1PA    H14S 5504   6.004   5.115   4.169
    1PA    C113 5505   6.175   5.058   4.279
    1PA    H13R 5506   6.184   4.965   4.222
    1PA    H13S 5507   6.276   5.091   4.302
    1PA    C112 5508   6.105   5.018   4.409
    1PA    H12R 5509   6.083   5.104   4.473
    1PA    H12S 5510   6.017   4.963   4.373
    1PA    C111 5511   6.188   4.925   4.499
    1PA    H11R 5512   6.216   4.832   4.450
    1PA    H11S 5513   6.279   4.976   4.532
    1PA    C110 5514   6.095   4.902   4.619
    1PA    H10R 5515   6.077   5.000   4.663
    1PA    H10S 5516   6.004   4.847   4.596
    1PA     C19 5517   6.177   4.833   4.730
    1PA     H9R 5518   6.166   4.727   4.710
    1PA     H9S 5519   6.284   4.852   4.731
    1PA     C18 5520   6.122   4.868   4.869
    1PA     H8R 5521   6.123   4.975   4.891
    1PA     H8S 5522   6.019   4.830   4.873
    1PA     C17 5523   6.184   4.786   4.983
    1PA     H7R 5524   6.168   4.679   4.966
    1PA     H7S 5525   6.291   4.807   4.986
    1PA     C16 5526   6.133   4.833   5.120
    1PA     H6R 5527   6.125   4.942   5.122
    1PA     H6S 5528   6.034   4.791   5.135
    1PA     C15 5529   6.228   4.794   5.234
    1PA     H5R 5530   6.330   4.823   5.206
    1PA     H5S 5531   6.210   4.858   5.321
    1PA     C14 5532   6.211   4.649   5.280
    1PA     H4R 5533   6.105   4.622   5.283
    1PA     H4S 5534   6.257   4.581   5.208
    1PA     C13 5535   6.261   4.639   5.425
    1PA     H3R 5536   6.231   4.728   5.479
    1PA     H3S 5537   6.211   4.550   5.464
    1PA     C12 5538   6.413   4.618   5.431
    1PA     H2R 5539   6.438   4.537   5.362
    1PA     H2S 5540   6.469   4.702   5.389
    2PC     C11 5541   6.448   4.584   5.573
    2PC     O12 5542   6.478   4.667   5.656
    2PC     O11 5543   6.439   4.454   5.605
    2PC      C1 5544   6.472   4.409   5.738
    2PC      HR 5545   6.515   4.309   5.743
    2PC      HS 5546   6.548   4.481   5.770
    2PC      C2 5547   6.344   4.427   5.820
    2PC      HX 5548   6.300   4.527   5.810
    2PC      C3 5549   6.379   4.393   5.965
    2PC      HA 5550   6.409   4.288   5.972
    2PC      HB 5551   6.459   4.457   6.002
    2PC     O31 5552   6.265   4.412   6.050
    2PC     P31 5553   6.262   4.333   6.189
    2PC     O32 5554   6.170   4.434   6.271
    2PC     C31 5555   6.028   4.418   6.252
    2PC     H1A 5556   6.010   4.419   6.144
    2PC     H1B 5557   6.013   4.315   6.287
    2PC     C32 5558   5.945   4.514   6.338
    2PC     H2A 5559   5.841   4.482   6.342
    2PC     H2B 5560   5.986   4.506   6.439
    2PC     N31 5561   5.932   4.656   6.291
    2PC     C33 5562   5.853   4.733   6.392
    2PC     H3A 5563   5.748   4.727   6.365
    2PC     H3B 5564   5.864   4.703   6.497
    2PC     H3C 5565   5.880   4.838   6.377
    2PC     C34 5566   6.070   4.714   6.284
    2PC     H4A 5567   6.066   4.822   6.268
    2PC     H4B 5568   6.130   4.702   6.375
    2PC     H4C 5569   6.130   4.665   6.207
    2PC     C35 5570   5.867   4.678   6.158
    2PC     H5A 5571   5.831   4.781   6.161
    2PC     H5B 5572   5.780   4.613   6.158
    2PC     H5C 5573   5.949   4.661   6.088
    2PC     O33 5574   6.207   4.195   6.187
    2PC     O34 5575   6.399   4.319   6.243
    2PC     O21 5576   6.243   4.331   5.785
    2PC     C21 5577   6.112   4.361   5.792
    2PC     O22 5578   6.077   4.477   5.783
    3OL     C12 5579   6.025   4.241   5.817
    3OL     H2R 5580   5.919   4.265   5.811
    3OL     H2S 5581   6.041   4.207   5.919
    3OL     C13 5582   6.054   4.124   5.721
    3OL     H3R 5583   6.009   4.033   5.761
    3OL     H3S 5584   6.160   4.103   5.735
    3OL     C14 5585   6.033   4.153   5.572
    3OL     H4R 5586   5.944   4.215   5.557
    3OL     H4S 5587   6.024   4.059   5.516
    3OL     C15 5588   6.159   4.207   5.503
    3OL     H5R 5589   6.247   4.164   5.550
    3OL     H5S 5590   6.169   4.313   5.530
    3OL     C16 5591   6.157   4.195   5.350
    3OL     H6R 5592   6.069   4.250   5.318
    3OL     H6S 5593   6.139   4.093   5.316
    3OL     C17 5594   6.288   4.250   5.292
    3OL     H7R 5595   6.313   4.350   5.325
    3OL     H7S 5596   6.269   4.251   5.184
    3OL     C18 5597   6.403   4.152   5.323
    3OL     H8R 5598   6.372   4.054   5.286
    3OL     H8S 5599   6.417   4.151   5.431
    3OL     C19 5600   6.533   4.193   5.259
    3OL     H9R 5601   6.564   4.293   5.288
    3OL    C110 5602   6.607   4.112   5.185
    3OL    H10R 5603   6.699   4.154   5.145
    3OL    C111 5604   6.584   3.968   5.147
    3OL    H11R 5605   6.517   3.915   5.215
    3OL    H11S 5606   6.680   3.917   5.148
    3OL    C112 5607   6.529   3.948   5.005
    3OL    H12R 5608   6.445   4.017   4.994
    3OL    H12S 5609   6.479   3.851   4.996
    3OL    C113 5610   6.626   3.981   4.890
    3OL    H13R 5611   6.719   3.925   4.897
    3OL    H13S 5612   6.647   4.088   4.889
    3OL    C114 5613   6.562   3.941   4.757
    3OL    H14R 5614   6.472   3.999   4.734
    3OL    H14S 5615   6.538   3.834   4.761
    3OL    C115 5616   6.653   3.965   4.635
    3OL    H15R 5617   6.609   3.919   4.546
    3OL    H15S 5618   6.745   3.911   4.653
    3OL    C116 5619   6.676   4.113   4.601
    3OL    H16R 5620   6.704   4.168   4.691
    3OL    H16S 5621   6.581   4.154   4.566
    3OL    C117 5622   6.781   4.128   4.490
    3OL    H17R 5623   6.740   4.092   4.395
    3OL    H17S 5624   6.873   4.071   4.506
    3OL    C118 5625   6.831   4.273   4.487
    3OL    H18R 5626   6.918   4.257   4.422
    3OL    H18S 5627   6.851   4.313   4.587
    3OL    H18T 5628   6.751   4.338   4.452
    1PA    C116 5629   0.811   4.159   4.218
    1PA    H16R 5630   0.905   4.205   4.188
    1PA    H16S 5631   0.798   4.184   4.324
    1PA    H16T 5632   0.730   4.210   4.165
    1PA    C115 5633   0.799   4.011   4.181
    1PA    H15R 5634   0.763   3.997   4.079
    1PA    H15S 5635   0.896   3.963   4.199
    1PA    C114 5636   0.705   3.944   4.282
    1PA    H14R 5637   0.741   3.965   4.382
    1PA    H14S 5638   0.607   3.991   4.265
    1PA    C113 5639   0.702   3.792   4.260
    1PA    H13R 5640   0.692   3.766   4.154
    1PA    H13S 5641   0.802   3.759   4.291
    1PA    C112 5642   0.593   3.719   4.339
    1PA    H12R 5643   0.494   3.757   4.313
    1PA    H12S 5644   0.591   3.613   4.315
    1PA    C111 5645   0.623   3.729   4.489
    1PA    H11R 5646   0.724   3.694   4.512
    1PA    H11S 5647   0.615   3.834   4.517
    1PA    C110 5648   0.512   3.662   4.572
    1PA    H10R 5649   0.420   3.709   4.535
    1PA    H10S 5650   0.517   3.559   4.536
    1PA     C19 5651   0.539   3.664   4.723
    1PA     H9R 5652   0.639   3.625   4.740
    1PA     H9S 5653   0.539   3.767   4.758
    1PA     C18 5654   0.430   3.588   4.800
    1PA     H8R 5655   0.335   3.624   4.760
    1PA     H8S 5656   0.447   3.482   4.783
    1PA     C17 5657   0.432   3.622   4.949
    1PA     H7R 5658   0.528   3.602   4.998
    1PA     H7S 5659   0.410   3.728   4.967
    1PA     C16 5660   0.335   3.535   5.030
    1PA     H6R 5661   0.237   3.567   4.994
    1PA     H6S 5662   0.350   3.430   5.006
    1PA     C15 5663   0.327   3.566   5.180
    1PA     H5R 5664   0.426   3.569   5.227
    1PA     H5S 5665   0.279   3.662   5.201
    1PA     C14 5666   0.233   3.466   5.248
    1PA     H4R 5667   0.128   3.481   5.223
    1PA     H4S 5668   0.268   3.364   5.227
    1PA     C13 5669   0.246   3.477   5.401
    1PA     H3R 5670   0.351   3.455   5.421
    1PA     H3S 5671   0.231   3.579   5.437
    1PA     C12 5672   0.145   3.381   5.466
    1PA     H2R 5673   0.044   3.416   5.442
    1PA     H2S 5674   0.155   3.279   5.430
    2PC     C11 5675   0.156   3.389   5.616
    2PC     O12 5676   0.164   3.495   5.674
    2PC     O11 5677   0.148   3.263   5.663
    2PC      C1 5678   0.132   3.252   5.805
    2PC      HR 5679   0.118   3.346   5.860
    2PC      HS 5680   0.042   3.196   5.832
    2PC      C2 5681   0.262   3.186   5.852
    2PC      HX 5682   0.277   3.093   5.797
    2PC      C3 5683   0.262   3.168   6.004
    2PC      HA 5684   0.164   3.127   6.027
    2PC      HB 5685   0.336   3.096   6.038
    2PC     O31 5686   0.277   3.298   6.065
    2PC     P31 5687   0.282   3.312   6.224
    2PC     O32 5688   0.435   3.307   6.272
    2PC     C31 5689   0.510   3.420   6.225
    2PC     H1A 5690   0.519   3.410   6.117
    2PC     H1B 5691   0.462   3.516   6.247
    2PC     C32 5692   0.652   3.423   6.282
    2PC     H2A 5693   0.700   3.325   6.276
    2PC     H2B 5694   0.712   3.500   6.233
    2PC     N31 5695   0.665   3.455   6.428
    2PC     C33 5696   0.619   3.595   6.455
    2PC     H3A 5697   0.666   3.636   6.544
    2PC     H3B 5698   0.660   3.668   6.386
    2PC     H3C 5699   0.510   3.595   6.463
    2PC     C34 5700   0.585   3.365   6.518
    2PC     H4A 5701   0.592   3.407   6.619
    2PC     H4B 5702   0.485   3.373   6.478
    2PC     H4C 5703   0.611   3.259   6.512
    2PC     C35 5704   0.809   3.456   6.467
    2PC     H5A 5705   0.820   3.479   6.573
    2PC     H5B 5706   0.861   3.538   6.418
    2PC     H5C 5707   0.849   3.357   6.440
    2PC     O33 5708   0.218   3.433   6.281
    2PC     O34 5709   0.213   3.194   6.281
    2PC     O21 5710   0.367   3.275   5.810
    2PC     C21 5711   0.494   3.238   5.833
    2PC     O22 5712   0.531   3.127   5.867
    3OL     C12 5713   0.597   3.345   5.807
    3OL     H2R 5714   0.688   3.315   5.859
    3OL     H2S 5715   0.563   3.434   5.860
    3OL     C13 5716   0.606   3.380   5.657
    3OL     H3R 5717   0.506   3.391   5.615
    3OL     H3S 5718   0.653   3.302   5.597
    3OL     C14 5719   0.678   3.514   5.632
    3OL     H4R 5720   0.710   3.529   5.529
    3OL     H4S 5721   0.773   3.522   5.685
    3OL     C15 5722   0.584   3.630   5.669
    3OL     H5R 5723   0.640   3.717   5.705
    3OL     H5S 5724   0.509   3.598   5.742
    3OL     C16 5725   0.501   3.684   5.552
    3OL     H6R 5726   0.408   3.633   5.525
    3OL     H6S 5727   0.574   3.708   5.474
    3OL     C17 5728   0.450   3.825   5.585
    3OL     H7R 5729   0.412   3.876   5.497
    3OL     H7S 5730   0.536   3.887   5.612
    3OL     C18 5731   0.340   3.823   5.692
    3OL     H8R 5732   0.386   3.820   5.791
    3OL     H8S 5733   0.275   3.736   5.686
    3OL     C19 5734   0.254   3.947   5.693
    3OL     H9R 5735   0.297   4.022   5.758
    3OL    C110 5736   0.145   3.973   5.621
    3OL    H10R 5737   0.092   4.066   5.639
    3OL    C111 5738   0.083   3.878   5.522
    3OL    H11R 5739   0.133   3.781   5.520
    3OL    H11S 5740   0.099   3.924   5.424
    3OL    C112 5741  -0.069   3.857   5.533
    3OL    H12R 5742  -0.125   3.941   5.491
    3OL    H12S 5743  -0.101   3.854   5.638
    3OL    C113 5744  -0.122   3.732   5.461
    3OL    H13R 5745  -0.223   3.722   5.502
    3OL    H13S 5746  -0.070   3.640   5.490
    3OL    C114 5747  -0.121   3.744   5.308
    3OL    H14R 5748  -0.016   3.749   5.278
    3OL    H14S 5749  -0.171   3.834   5.274
    3OL    C115 5750  -0.174   3.613   5.248
    3OL    H15R 5751  -0.283   3.608   5.254
    3OL    H15S 5752  -0.131   3.531   5.305
    3OL    C116 5753  -0.121   3.597   5.105
    3OL    H16R 5754  -0.150   3.497   5.072
    3OL    H16S 5755  -0.013   3.587   5.108
    3OL    C117 5756  -0.156   3.708   5.006
    3OL    H17R 5757  -0.124   3.809   5.035
    3OL    H17S 5758  -0.265   3.703   5.000
    3OL    C118 5759  -0.088   3.687   4.870
    3OL    H18R 5760   0.013   3.728   4.871
    3OL    H18S 5761  -0.149   3.735   4.793
    3OL    H18T 5762  -0.080   3.578   4.859
    1PA    C116 5763   4.589   1.966   4.182
    1PA    H16R 5764   4.572   1.963   4.290
    1PA    H16S 5765   4.640   2.059   4.155
    1PA    H16T 5766   4.651   1.880   4.158
    1PA    C115 5767   4.446   1.957   4.128
    1PA    H15R 5768   4.454   1.920   4.026
    1PA    H15S 5769   4.381   1.889   4.184
    1PA    C114 5770   4.381   2.096   4.134
    1PA    H14R 5771   4.386   2.140   4.234
    1PA    H14S 5772   4.427   2.171   4.069
    1PA    C113 5773   4.238   2.096   4.078
    1PA    H13R 5774   4.215   2.199   4.049
    1PA    H13S 5775   4.252   2.033   3.991
    1PA    C112 5776   4.131   2.043   4.175
    1PA    H12R 5777   4.096   1.941   4.160
    1PA    H12S 5778   4.179   2.047   4.273
    1PA    C111 5779   4.011   2.137   4.187
    1PA    H11R 5780   4.042   2.239   4.210
    1PA    H11S 5781   3.966   2.145   4.088
    1PA    C110 5782   3.911   2.098   4.298
    1PA    H10R 5783   3.811   2.135   4.277
    1PA    H10S 5784   3.902   1.990   4.299
    1PA     C19 5785   3.947   2.149   4.438
    1PA     H9R 5786   4.040   2.097   4.463
    1PA     H9S 5787   3.972   2.255   4.432
    1PA     C18 5788   3.845   2.130   4.551
    1PA     H8R 5789   3.888   2.176   4.640
    1PA     H8S 5790   3.751   2.180   4.528
    1PA     C17 5791   3.826   1.981   4.582
    1PA     H7R 5792   3.765   1.931   4.506
    1PA     H7S 5793   3.925   1.935   4.575
    1PA     C16 5794   3.764   1.966   4.721
    1PA     H6R 5795   3.677   2.033   4.727
    1PA     H6S 5796   3.734   1.862   4.736
    1PA     C15 5797   3.866   2.002   4.830
    1PA     H5R 5798   3.957   1.943   4.813
    1PA     H5S 5799   3.897   2.107   4.830
    1PA     C14 5800   3.807   1.963   4.966
    1PA     H4R 5801   3.711   2.012   4.982
    1PA     H4S 5802   3.792   1.855   4.963
    1PA     C13 5803   3.908   1.996   5.077
    1PA     H3R 5804   4.002   1.947   5.050
    1PA     H3S 5805   3.921   2.104   5.069
    1PA     C12 5806   3.854   1.959   5.216
    1PA     H2R 5807   3.772   2.027   5.241
    1PA     H2S 5808   3.831   1.853   5.224
    2PC     C11 5809   3.955   1.984   5.325
    2PC     O12 5810   4.075   1.986   5.304
    2PC     O11 5811   3.907   1.984   5.450
    2PC      C1 5812   3.996   1.965   5.562
    2PC      HR 5813   4.098   1.997   5.539
    2PC      HS 5814   3.950   2.009   5.650
    2PC      C2 5815   4.008   1.813   5.582
    2PC      HX 5816   3.910   1.772   5.610
    2PC      C3 5817   4.116   1.778   5.685
    2PC      HA 5818   4.077   1.783   5.787
    2PC      HB 5819   4.150   1.676   5.667
    2PC     O31 5820   4.230   1.865   5.671
    2PC     P31 5821   4.356   1.833   5.766
    2PC     O32 5822   4.412   1.974   5.818
    2PC     C31 5823   4.323   2.048   5.903
    2PC     H1A 5824   4.250   2.098   5.838
    2PC     H1B 5825   4.262   1.981   5.964
    2PC     C32 5826   4.397   2.151   5.989
    2PC     H2A 5827   4.484   2.182   5.931
    2PC     H2B 5828   4.338   2.243   5.991
    2PC     N31 5829   4.448   2.115   6.125
    2PC     C33 5830   4.541   1.998   6.135
    2PC     H3A 5831   4.493   1.924   6.199
    2PC     H3B 5832   4.547   1.945   6.040
    2PC     H3C 5833   4.640   2.033   6.165
    2PC     C34 5834   4.519   2.235   6.180
    2PC     H4A 5835   4.598   2.258   6.108
    2PC     H4B 5836   4.450   2.318   6.192
    2PC     H4C 5837   4.561   2.204   6.275
    2PC     C35 5838   4.328   2.098   6.213
    2PC     H5A 5839   4.368   2.088   6.314
    2PC     H5B 5840   4.279   2.003   6.192
    2PC     H5C 5841   4.253   2.175   6.196
    2PC     O33 5842   4.333   1.738   5.877
    2PC     O34 5843   4.459   1.772   5.679
    2PC     O21 5844   4.045   1.754   5.456
    2PC     C21 5845   4.033   1.622   5.435
    2PC     O22 5846   3.991   1.545   5.518
    3OL     C12 5847   4.065   1.597   5.289
    3OL     H2R 5848   4.173   1.586   5.277
    3OL     H2S 5849   4.027   1.679   5.229
    3OL     C13 5850   3.993   1.472   5.236
    3OL     H3R 5851   4.017   1.386   5.298
    3OL     H3S 5852   4.020   1.440   5.135
    3OL     C14 5853   3.841   1.490   5.240
    3OL     H4R 5854   3.808   1.588   5.275
    3OL     H4S 5855   3.797   1.413   5.304
    3OL     C15 5856   3.783   1.456   5.101
    3OL     H5R 5857   3.679   1.425   5.104
    3OL     H5S 5858   3.829   1.367   5.058
    3OL     C16 5859   3.794   1.579   5.009
    3OL     H6R 5860   3.897   1.614   4.995
    3OL     H6S 5861   3.739   1.665   5.048
    3OL     C17 5862   3.745   1.541   4.869
    3OL     H7R 5863   3.689   1.628   4.832
    3OL     H7S 5864   3.667   1.465   4.869
    3OL     C18 5865   3.846   1.504   4.760
    3OL     H8R 5866   3.943   1.550   4.782
    3OL     H8S 5867   3.792   1.536   4.670
    3OL     C19 5868   3.873   1.356   4.758
    3OL     H9R 5869   3.904   1.321   4.856
    3OL    C110 5870   3.898   1.281   4.651
    3OL    H10R 5871   3.917   1.175   4.667
    3OL    C111 5872   3.884   1.322   4.506
    3OL    H11R 5873   3.977   1.367   4.470
    3OL    H11S 5874   3.806   1.395   4.486
    3OL    C112 5875   3.855   1.200   4.418
    3OL    H12R 5876   3.763   1.158   4.461
    3OL    H12S 5877   3.939   1.131   4.427
    3OL    C113 5878   3.826   1.237   4.272
    3OL    H13R 5879   3.914   1.291   4.236
    3OL    H13S 5880   3.734   1.295   4.270
    3OL    C114 5881   3.822   1.105   4.194
    3OL    H14R 5882   3.726   1.058   4.214
    3OL    H14S 5883   3.903   1.044   4.235
    3OL    C115 5884   3.822   1.142   4.045
    3OL    H15R 5885   3.892   1.224   4.031
    3OL    H15S 5886   3.731   1.199   4.023
    3OL    C116 5887   3.847   1.023   3.951
    3OL    H16R 5888   3.898   0.938   3.997
    3OL    H16S 5889   3.913   1.059   3.872
    3OL    C117 5890   3.714   0.964   3.900
    3OL    H17R 5891   3.641   0.952   3.979
    3OL    H17S 5892   3.730   0.861   3.867
    3OL    C118 5893   3.655   1.050   3.787
    3OL    H18R 5894   3.666   1.152   3.825
    3OL    H18S 5895   3.556   1.017   3.757
    3OL    H18T 5896   3.725   1.048   3.703
    1PA    C116 5897   0.777   4.133   4.782
    1PA    H16R 5898   0.802   4.231   4.741
    1PA    H16S 5899   0.679   4.134   4.831
    1PA    H16T 5900   0.769   4.051   4.710
    1PA    C115 5901   0.871   4.088   4.894
    1PA    H15R 5902   0.968   4.079   4.845
    1PA    H15S 5903   0.878   4.159   4.977
    1PA    C114 5904   0.827   3.951   4.947
    1PA    H14R 5905   0.820   3.875   4.869
    1PA    H14S 5906   0.904   3.903   5.009
    1PA    C113 5907   0.697   3.945   5.028
    1PA    H13R 5908   0.610   3.973   4.969
    1PA    H13S 5909   0.687   3.843   5.066
    1PA    C112 5910   0.682   4.044   5.145
    1PA    H12R 5911   0.687   4.150   5.120
    1PA    H12S 5912   0.579   4.031   5.177
    1PA    C111 5913   0.784   4.015   5.256
    1PA    H11R 5914   0.766   3.911   5.283
    1PA    H11S 5915   0.882   4.035   5.212
    1PA    C110 5916   0.759   4.102   5.380
    1PA    H10R 5917   0.763   4.208   5.354
    1PA    H10S 5918   0.658   4.084   5.418
    1PA     C19 5919   0.858   4.078   5.495
    1PA     H9R 5920   0.853   3.972   5.519
    1PA     H9S 5921   0.959   4.096   5.457
    1PA     C18 5922   0.827   4.172   5.612
    1PA     H8R 5923   0.864   4.269   5.579
    1PA     H8S 5924   0.718   4.177   5.612
    1PA     C17 5925   0.875   4.111   5.744
    1PA     H7R 5926   0.789   4.117   5.811
    1PA     H7S 5927   0.910   4.009   5.730
    1PA     C16 5928   0.984   4.186   5.822
    1PA     H6R 5929   0.971   4.294   5.813
    1PA     H6S 5930   0.971   4.151   5.925
    1PA     C15 5931   1.125   4.152   5.770
    1PA     H5R 5932   1.142   4.044   5.768
    1PA     H5S 5933   1.135   4.189   5.668
    1PA     C14 5934   1.231   4.225   5.853
    1PA     H4R 5935   1.327   4.227   5.801
    1PA     H4S 5936   1.226   4.334   5.855
    1PA     C13 5937   1.246   4.146   5.983
    1PA     H3R 5938   1.151   4.152   6.037
    1PA     H3S 5939   1.279   4.043   5.970
    1PA     C12 5940   1.345   4.224   6.072
    1PA     H2R 5941   1.434   4.242   6.011
    1PA     H2S 5942   1.309   4.322   6.104
    2PC     C11 5943   1.396   4.140   6.186
    2PC     O12 5944   1.330   4.113   6.284
    2PC     O11 5945   1.518   4.086   6.168
    2PC      C1 5946   1.592   4.042   6.283
    2PC      HR 5947   1.692   4.021   6.244
    2PC      HS 5948   1.594   4.122   6.357
    2PC      C2 5949   1.533   3.907   6.327
    2PC      HX 5950   1.425   3.899   6.308
    2PC      C3 5951   1.544   3.900   6.480
    2PC      HA 5952   1.464   3.957   6.528
    2PC      HB 5953   1.532   3.801   6.524
    2PC     O31 5954   1.660   3.972   6.527
    2PC     P31 5955   1.689   3.977   6.684
    2PC     O32 5956   1.657   4.127   6.731
    2PC     C31 5957   1.702   4.233   6.646
    2PC     H1A 5958   1.666   4.224   6.543
    2PC     H1B 5959   1.656   4.325   6.683
    2PC     C32 5960   1.855   4.245   6.638
    2PC     H2A 5961   1.891   4.151   6.597
    2PC     H2B 5962   1.883   4.320   6.563
    2PC     N31 5963   1.927   4.299   6.758
    2PC     C33 5964   2.076   4.301   6.741
    2PC     H3A 5965   2.101   4.196   6.721
    2PC     H3B 5966   2.103   4.371   6.663
    2PC     H3C 5967   2.125   4.339   6.831
    2PC     C34 5968   1.891   4.442   6.787
    2PC     H4A 5969   1.909   4.506   6.700
    2PC     H4B 5970   1.790   4.448   6.828
    2PC     H4C 5971   1.953   4.474   6.871
    2PC     C35 5972   1.897   4.214   6.878
    2PC     H5A 5973   1.789   4.196   6.881
    2PC     H5B 5974   1.930   4.262   6.970
    2PC     H5C 5975   1.960   4.126   6.876
    2PC     O33 5976   1.609   3.877   6.758
    2PC     O34 5977   1.826   3.927   6.709
    2PC     O21 5978   1.609   3.802   6.267
    2PC     C21 5979   1.544   3.685   6.254
    2PC     O22 5980   1.435   3.663   6.301
    3OL     C12 5981   1.611   3.584   6.163
    3OL     H2R 5982   1.540   3.503   6.146
    3OL     H2S 5983   1.688   3.533   6.220
    3OL     C13 5984   1.671   3.631   6.029
    3OL     H3R 5985   1.735   3.555   5.984
    3OL     H3S 5986   1.739   3.712   6.057
    3OL     C14 5987   1.569   3.661   5.919
    3OL     H4R 5988   1.492   3.584   5.922
    3OL     H4S 5989   1.613   3.662   5.820
    3OL     C15 5990   1.493   3.792   5.946
    3OL     H5R 5991   1.564   3.872   5.969
    3OL     H5S 5992   1.422   3.778   6.028
    3OL     C16 5993   1.411   3.824   5.820
    3OL     H6R 5994   1.328   3.885   5.855
    3OL     H6S 5995   1.370   3.737   5.768
    3OL     C17 5996   1.499   3.901   5.721
    3OL     H7R 5997   1.575   3.845   5.664
    3OL     H7S 5998   1.559   3.982   5.762
    3OL     C18 5999   1.408   3.957   5.611
    3OL     H8R 6000   1.366   4.053   5.642
    3OL     H8S 6001   1.323   3.893   5.586
    3OL     C19 6002   1.488   3.978   5.486
    3OL     H9R 6003   1.553   3.896   5.457
    3OL    C110 6004   1.498   4.090   5.415
    3OL    H10R 6005   1.566   4.091   5.330
    3OL    C111 6006   1.410   4.211   5.432
    3OL    H11R 6007   1.416   4.257   5.531
    3OL    H11S 6008   1.305   4.190   5.410
    3OL    C112 6009   1.453   4.307   5.321
    3OL    H12R 6010   1.551   4.352   5.337
    3OL    H12S 6011   1.395   4.399   5.338
    3OL    C113 6012   1.428   4.244   5.183
    3OL    H13R 6013   1.325   4.210   5.180
    3OL    H13S 6014   1.492   4.160   5.158
    3OL    C114 6015   1.450   4.353   5.076
    3OL    H14R 6016   1.552   4.390   5.077
    3OL    H14S 6017   1.385   4.433   5.110
    3OL    C115 6018   1.419   4.294   4.937
    3OL    H15R 6019   1.320   4.250   4.948
    3OL    H15S 6020   1.484   4.208   4.921
    3OL    C116 6021   1.444   4.385   4.816
    3OL    H16R 6022   1.552   4.386   4.796
    3OL    H16S 6023   1.405   4.486   4.827
    3OL    C117 6024   1.377   4.316   4.696
    3OL    H17R 6025   1.271   4.330   4.715
    3OL    H17S 6026   1.399   4.210   4.683
    3OL    C118 6027   1.416   4.405   4.577
    3OL    H18R 6028   1.384   4.357   4.485
    3OL    H18S 6029   1.525   4.407   4.565
    3OL    H18T 6030   1.377   4.507   4.588
    1PA    C116 6031   1.167   6.147   4.407
    1PA    H16R 6032   1.215   6.175   4.501
    1PA    H16S 6033   1.064   6.182   4.402
    1PA    H16T 6034   1.228   6.179   4.323
    1PA    C115 6035   1.175   5.994   4.392
    1PA    H15R 6036   1.138   5.980   4.290
    1PA    H15S 6037   1.281   5.968   4.390
    1PA    C114 6038   1.089   5.911   4.488
    1PA    H14R 6039   0.983   5.934   4.474
    1PA    H14S 6040   1.102   5.808   4.454
    1PA    C113 6041   1.133   5.925   4.634
    1PA    H13R 6042   1.106   6.026   4.666
    1PA    H13S 6043   1.064   5.857   4.685
    1PA    C112 6044   1.279   5.887   4.663
    1PA    H12R 6045   1.322   5.801   4.611
    1PA    H12S 6046   1.343   5.969   4.628
    1PA    C111 6047   1.315   5.887   4.812
    1PA    H11R 6048   1.423   5.881   4.820
    1PA    H11S 6049   1.291   5.977   4.869
    1PA    C110 6050   1.254   5.777   4.900
    1PA    H10R 6051   1.147   5.776   4.881
    1PA    H10S 6052   1.307   5.683   4.879
    1PA     C19 6053   1.280   5.804   5.049
    1PA     H9R 6054   1.386   5.797   5.074
    1PA     H9S 6055   1.241   5.902   5.078
    1PA     C18 6056   1.207   5.698   5.134
    1PA     H8R 6057   1.099   5.706   5.120
    1PA     H8S 6058   1.248   5.600   5.112
    1PA     C17 6059   1.235   5.713   5.284
    1PA     H7R 6060   1.342   5.723   5.303
    1PA     H7S 6061   1.198   5.814   5.305
    1PA     C16 6062   1.167   5.609   5.373
    1PA     H6R 6063   1.058   5.615   5.367
    1PA     H6S 6064   1.207   5.511   5.344
    1PA     C15 6065   1.206   5.642   5.517
    1PA     H5R 6066   1.315   5.649   5.517
    1PA     H5S 6067   1.160   5.740   5.535
    1PA     C14 6068   1.163   5.537   5.620
    1PA     H4R 6069   1.075   5.570   5.675
    1PA     H4S 6070   1.134   5.442   5.575
    1PA     C13 6071   1.270   5.488   5.719
    1PA     H3R 6072   1.241   5.413   5.793
    1PA     H3S 6073   1.345   5.434   5.659
    1PA     C12 6074   1.351   5.595   5.793
    1PA     H2R 6075   1.441   5.541   5.822
    1PA     H2S 6076   1.380   5.675   5.726
    2PC     C11 6077   1.281   5.647   5.916
    2PC     O12 6078   1.306   5.617   6.031
    2PC     O11 6079   1.189   5.741   5.887
    2PC      C1 6080   1.097   5.789   5.987
    2PC      HR 6081   1.016   5.840   5.935
    2PC      HS 6082   1.051   5.703   6.037
    2PC      C2 6083   1.173   5.887   6.078
    2PC      HX 6084   1.281   5.874   6.085
    2PC      C3 6085   1.114   5.882   6.219
    2PC      HA 6086   1.030   5.951   6.226
    2PC      HB 6087   1.077   5.782   6.244
    2PC     O31 6088   1.211   5.913   6.322
    2PC     P31 6089   1.176   5.926   6.478
    2PC     O32 6090   1.234   6.073   6.507
    2PC     C31 6091   1.166   6.178   6.436
    2PC     H1A 6092   1.222   6.191   6.343
    2PC     H1B 6093   1.063   6.152   6.409
    2PC     C32 6094   1.162   6.313   6.509
    2PC     H2A 6095   1.260   6.358   6.490
    2PC     H2B 6096   1.091   6.384   6.468
    2PC     N31 6097   1.140   6.308   6.657
    2PC     C33 6098   1.127   6.452   6.696
    2PC     H3A 6099   1.049   6.501   6.638
    2PC     H3B 6100   1.115   6.477   6.801
    2PC     H3C 6101   1.216   6.503   6.659
    2PC     C34 6102   1.018   6.237   6.707
    2PC     H4A 6103   1.011   6.133   6.672
    2PC     H4B 6104   1.020   6.245   6.815
    2PC     H4C 6105   0.935   6.294   6.666
    2PC     C35 6106   1.257   6.248   6.728
    2PC     H5A 6107   1.345   6.299   6.690
    2PC     H5B 6108   1.266   6.141   6.706
    2PC     H5C 6109   1.257   6.252   6.837
    2PC     O33 6110   1.034   5.928   6.521
    2PC     O34 6111   1.245   5.817   6.550
    2PC     O21 6112   1.157   6.018   6.020
    2PC     C21 6113   1.230   6.120   6.067
    2PC     O22 6114   1.330   6.107   6.134
    3OL     C12 6115   1.178   6.252   6.017
    3OL     H2R 6116   1.207   6.339   6.077
    3OL     H2S 6117   1.069   6.248   6.024
    3OL     C13 6118   1.220   6.293   5.875
    3OL     H3R 6119   1.188   6.213   5.808
    3OL     H3S 6120   1.329   6.300   5.865
    3OL     C14 6121   1.164   6.428   5.829
    3OL     H4R 6122   1.186   6.499   5.909
    3OL     H4S 6123   1.055   6.427   5.824
    3OL     C15 6124   1.214   6.457   5.686
    3OL     H5R 6125   1.174   6.377   5.622
    3OL     H5S 6126   1.322   6.443   5.682
    3OL     C16 6127   1.166   6.594   5.638
    3OL     H6R 6128   1.228   6.670   5.685
    3OL     H6S 6129   1.062   6.616   5.665
    3OL     C17 6130   1.182   6.605   5.486
    3OL     H7R 6131   1.123   6.521   5.447
    3OL     H7S 6132   1.284   6.585   5.453
    3OL     C18 6133   1.143   6.733   5.411
    3OL     H8R 6134   1.171   6.700   5.311
    3OL     H8S 6135   1.215   6.810   5.437
    3OL     C19 6136   1.004   6.781   5.445
    3OL     H9R 6137   0.983   6.783   5.552
    3OL    C110 6138   0.905   6.802   5.359
    3OL    H10R 6139   0.811   6.836   5.401
    3OL    C111 6140   0.920   6.818   5.210
    3OL    H11R 6141   0.972   6.730   5.171
    3OL    H11S 6142   0.977   6.909   5.195
    3OL    C112 6143   0.797   6.843   5.121
    3OL    H12R 6144   0.737   6.924   5.162
    3OL    H12S 6145   0.732   6.755   5.122
    3OL    C113 6146   0.827   6.861   4.971
    3OL    H13R 6147   0.855   6.769   4.920
    3OL    H13S 6148   0.912   6.930   4.971
    3OL    C114 6149   0.716   6.926   4.888
    3OL    H14R 6150   0.687   7.023   4.931
    3OL    H14S 6151   0.630   6.859   4.882
    3OL    C115 6152   0.752   6.945   4.740
    3OL    H15R 6153   0.665   6.991   4.694
    3OL    H15S 6154   0.761   6.845   4.696
    3OL    C116 6155   0.880   7.024   4.709
    3OL    H16R 6156   0.971   6.976   4.744
    3OL    H16S 6157   0.878   7.124   4.753
    3OL    C117 6158   0.874   7.049   4.557
    3OL    H17R 6159   0.847   6.953   4.512
    3OL    H17S 6160   0.972   7.082   4.522
    3OL    C118 6161   0.770   7.152   4.510
    3OL    H18R 6162   0.672   7.137   4.554
    3OL    H18S 6163   0.747   7.156   4.403
    3OL    H18T 6164   0.798   7.252   4.541
    1PA    C116 6165   3.545   3.166   3.456
    1PA    H16R 6166   3.440   3.170   3.424
    1PA    H16S 6167   3.593   3.095   3.389
    1PA    H16T 6168   3.592   3.263   3.435
    1PA    C115 6169   3.559   3.133   3.605
    1PA    H15R 6170   3.511   3.035   3.615
    1PA    H15S 6171   3.660   3.132   3.646
    1PA    C114 6172   3.474   3.228   3.691
    1PA    H14R 6173   3.492   3.334   3.676
    1PA    H14S 6174   3.372   3.213   3.657
    1PA    C113 6175   3.479   3.193   3.840
    1PA    H13R 6176   3.441   3.090   3.842
    1PA    H13S 6177   3.579   3.173   3.879
    1PA    C112 6178   3.381   3.274   3.925
    1PA    H12R 6179   3.404   3.381   3.921
    1PA    H12S 6180   3.284   3.263   3.876
    1PA    C111 6181   3.376   3.219   4.068
    1PA    H11R 6182   3.293   3.266   4.120
    1PA    H11S 6183   3.392   3.111   4.081
    1PA    C110 6184   3.489   3.291   4.143
    1PA    H10R 6185   3.585   3.267   4.096
    1PA    H10S 6186   3.472   3.398   4.126
    1PA     C19 6187   3.486   3.262   4.294
    1PA     H9R 6188   3.471   3.154   4.297
    1PA     H9S 6189   3.583   3.285   4.338
    1PA     C18 6190   3.381   3.348   4.366
    1PA     H8R 6191   3.405   3.454   4.357
    1PA     H8S 6192   3.278   3.325   4.336
    1PA     C17 6193   3.369   3.308   4.514
    1PA     H7R 6194   3.299   3.386   4.546
    1PA     H7S 6195   3.327   3.208   4.525
    1PA     C16 6196   3.505   3.311   4.584
    1PA     H6R 6197   3.573   3.228   4.563
    1PA     H6S 6198   3.552   3.397   4.536
    1PA     C15 6199   3.504   3.357   4.731
    1PA     H5R 6200   3.605   3.371   4.770
    1PA     H5S 6201   3.436   3.442   4.733
    1PA     C14 6202   3.441   3.244   4.813
    1PA     H4R 6203   3.340   3.222   4.775
    1PA     H4S 6204   3.497   3.151   4.800
    1PA     C13 6205   3.443   3.284   4.961
    1PA     H3R 6206   3.537   3.333   4.986
    1PA     H3S 6207   3.372   3.365   4.978
    1PA     C12 6208   3.422   3.161   5.051
    1PA     H2R 6209   3.356   3.089   5.002
    1PA     H2S 6210   3.516   3.111   5.076
    2PC     C11 6211   3.364   3.198   5.184
    2PC     O12 6212   3.303   3.114   5.248
    2PC     O11 6213   3.403   3.317   5.231
    2PC      C1 6214   3.394   3.346   5.372
    2PC      HR 6215   3.384   3.454   5.385
    2PC      HS 6216   3.298   3.316   5.415
    2PC      C2 6217   3.501   3.265   5.447
    2PC      HX 6218   3.481   3.159   5.429
    2PC      C3 6219   3.494   3.287   5.599
    2PC      HA 6220   3.543   3.380   5.628
    2PC      HB 6221   3.391   3.300   5.631
    2PC     O31 6222   3.557   3.176   5.666
    2PC     P31 6223   3.569   3.170   5.826
    2PC     O32 6224   3.676   3.289   5.837
    2PC     C31 6225   3.804   3.267   5.775
    2PC     H1A 6226   3.849   3.174   5.811
    2PC     H1B 6227   3.781   3.264   5.668
    2PC     C32 6228   3.898   3.384   5.807
    2PC     H2A 6229   4.002   3.364   5.780
    2PC     H2B 6230   3.868   3.473   5.751
    2PC     N31 6231   3.904   3.429   5.950
    2PC     C33 6232   3.907   3.312   6.043
    2PC     H3A 6233   3.993   3.249   6.021
    2PC     H3B 6234   3.916   3.346   6.146
    2PC     H3C 6235   3.814   3.255   6.033
    2PC     C34 6236   4.022   3.521   5.963
    2PC     H4A 6237   4.116   3.466   5.954
    2PC     H4B 6238   4.016   3.598   5.885
    2PC     H4C 6239   4.022   3.575   6.058
    2PC     C35 6240   3.785   3.516   5.978
    2PC     H5A 6241   3.790   3.590   5.898
    2PC     H5B 6242   3.782   3.570   6.073
    2PC     H5C 6243   3.696   3.454   5.972
    2PC     O33 6244   3.447   3.214   5.896
    2PC     O34 6245   3.626   3.041   5.870
    2PC     O21 6246   3.632   3.310   5.409
    2PC     C21 6247   3.678   3.435   5.395
    2PC     O22 6248   3.615   3.535   5.421
    3OL     C12 6249   3.822   3.436   5.348
    3OL     H2R 6250   3.886   3.361   5.396
    3OL     H2S 6251   3.862   3.533   5.378
    3OL     C13 6252   3.825   3.425   5.195
    3OL     H3R 6253   3.773   3.512   5.155
    3OL     H3S 6254   3.760   3.342   5.165
    3OL     C14 6255   3.971   3.418   5.150
    3OL     H4R 6256   4.034   3.495   5.194
    3OL     H4S 6257   3.969   3.424   5.041
    3OL     C15 6258   4.041   3.283   5.171
    3OL     H5R 6259   3.984   3.202   5.125
    3OL     H5S 6260   4.032   3.271   5.279
    3OL     C16 6261   4.190   3.280   5.135
    3OL     H6R 6262   4.230   3.191   5.185
    3OL     H6S 6263   4.232   3.375   5.168
    3OL     C17 6264   4.216   3.254   4.986
    3OL     H7R 6265   4.178   3.337   4.926
    3OL     H7S 6266   4.177   3.158   4.952
    3OL     C18 6267   4.365   3.257   4.946
    3OL     H8R 6268   4.357   3.219   4.844
    3OL     H8S 6269   4.425   3.187   5.005
    3OL     C19 6270   4.435   3.390   4.958
    3OL     H9R 6271   4.457   3.420   5.060
    3OL    C110 6272   4.477   3.468   4.859
    3OL    H10R 6273   4.527   3.558   4.894
    3OL    C111 6274   4.445   3.455   4.713
    3OL    H11R 6275   4.418   3.558   4.688
    3OL    H11S 6276   4.364   3.383   4.698
    3OL    C112 6277   4.569   3.409   4.635
    3OL    H12R 6278   4.586   3.301   4.645
    3OL    H12S 6279   4.654   3.452   4.688
    3OL    C113 6280   4.561   3.451   4.487
    3OL    H13R 6281   4.573   3.559   4.482
    3OL    H13S 6282   4.464   3.429   4.441
    3OL    C114 6283   4.672   3.381   4.409
    3OL    H14R 6284   4.664   3.273   4.427
    3OL    H14S 6285   4.762   3.404   4.466
    3OL    C115 6286   4.679   3.411   4.258
    3OL    H15R 6287   4.772   3.373   4.215
    3OL    H15S 6288   4.675   3.520   4.251
    3OL    C116 6289   4.563   3.343   4.184
    3OL    H16R 6290   4.470   3.368   4.236
    3OL    H16S 6291   4.565   3.234   4.188
    3OL    C117 6292   4.555   3.380   4.036
    3OL    H17R 6293   4.652   3.346   3.998
    3OL    H17S 6294   4.541   3.487   4.021
    3OL    C118 6295   4.428   3.316   3.978
    3OL    H18R 6296   4.416   3.210   3.997
    3OL    H18S 6297   4.429   3.339   3.872
    3OL    H18T 6298   4.341   3.370   4.018
    1PA    C116 6299   6.225   2.585   4.284
    1PA    H16R 6300   6.268   2.678   4.324
    1PA    H16S 6301   6.311   2.548   4.227
    1PA    H16T 6302   6.206   2.523   4.372
    1PA    C115 6303   6.103   2.606   4.195
    1PA    H15R 6304   6.129   2.652   4.099
    1PA    H15S 6305   6.068   2.507   4.165
    1PA    C114 6306   5.987   2.685   4.258
    1PA    H14R 6307   6.039   2.777   4.288
    1PA    H14S 6308   5.903   2.693   4.190
    1PA    C113 6309   5.938   2.619   4.388
    1PA    H13R 6310   5.910   2.516   4.364
    1PA    H13S 6311   6.015   2.616   4.465
    1PA    C112 6312   5.812   2.691   4.438
    1PA    H12R 6313   5.826   2.799   4.446
    1PA    H12S 6314   5.726   2.670   4.375
    1PA    C111 6315   5.774   2.642   4.578
    1PA    H11R 6316   5.867   2.654   4.634
    1PA    H11S 6317   5.700   2.706   4.628
    1PA    C110 6318   5.734   2.494   4.589
    1PA    H10R 6319   5.639   2.472   4.541
    1PA    H10S 6320   5.811   2.439   4.534
    1PA     C19 6321   5.723   2.434   4.730
    1PA     H9R 6322   5.703   2.328   4.713
    1PA     H9S 6323   5.816   2.445   4.787
    1PA     C18 6324   5.607   2.488   4.815
    1PA     H8R 6325   5.622   2.596   4.824
    1PA     H8S 6326   5.514   2.484   4.759
    1PA     C17 6327   5.602   2.398   4.940
    1PA     H7R 6328   5.598   2.294   4.909
    1PA     H7S 6329   5.695   2.393   4.997
    1PA     C16 6330   5.477   2.425   5.026
    1PA     H6R 6331   5.500   2.514   5.084
    1PA     H6S 6332   5.391   2.461   4.969
    1PA     C15 6333   5.434   2.321   5.131
    1PA     H5R 6334   5.373   2.247   5.079
    1PA     H5S 6335   5.517   2.280   5.188
    1PA     C14 6336   5.347   2.387   5.239
    1PA     H4R 6337   5.419   2.441   5.300
    1PA     H4S 6338   5.278   2.459   5.196
    1PA     C13 6339   5.273   2.287   5.329
    1PA     H3R 6340   5.214   2.223   5.262
    1PA     H3S 6341   5.338   2.224   5.390
    1PA     C12 6342   5.171   2.365   5.414
    1PA     H2R 6343   5.216   2.436   5.483
    1PA     H2S 6344   5.100   2.415   5.348
    2PC     C11 6345   5.089   2.271   5.498
    2PC     O12 6346   5.138   2.207   5.589
    2PC     O11 6347   4.962   2.254   5.456
    2PC      C1 6348   4.859   2.188   5.531
    2PC      HR 6349   4.764   2.181   5.477
    2PC      HS 6350   4.880   2.083   5.551
    2PC      C2 6351   4.836   2.255   5.668
    2PC      HX 6352   4.931   2.259   5.722
    2PC      C3 6353   4.729   2.183   5.751
    2PC      HA 6354   4.630   2.198   5.708
    2PC      HB 6355   4.741   2.074   5.753
    2PC     O31 6356   4.726   2.219   5.890
    2PC     P31 6357   4.840   2.165   5.990
    2PC     O32 6358   4.856   2.009   5.958
    2PC     C31 6359   4.920   1.933   6.062
    2PC     H1A 6360   5.026   1.961   6.064
    2PC     H1B 6361   4.866   1.955   6.154
    2PC     C32 6362   4.898   1.782   6.040
    2PC     H2A 6363   4.901   1.736   6.138
    2PC     H2B 6364   4.798   1.769   5.998
    2PC     N31 6365   4.996   1.708   5.953
    2PC     C33 6366   5.015   1.774   5.820
    2PC     H3A 6367   5.107   1.733   5.779
    2PC     H3B 6368   4.929   1.742   5.761
    2PC     H3C 6369   5.012   1.883   5.816
    2PC     C34 6370   5.134   1.705   6.010
    2PC     H4A 6371   5.141   1.672   6.114
    2PC     H4B 6372   5.191   1.632   5.952
    2PC     H4C 6373   5.175   1.806   6.013
    2PC     C35 6374   4.946   1.569   5.929
    2PC     H5A 6375   4.996   1.523   5.844
    2PC     H5B 6376   4.841   1.582   5.902
    2PC     H5C 6377   4.958   1.508   6.019
    2PC     O33 6378   4.968   2.234   5.960
    2PC     O34 6379   4.812   2.198   6.132
    2PC     O21 6380   4.796   2.392   5.649
    2PC     C21 6381   4.690   2.422   5.571
    2PC     O22 6382   4.623   2.346   5.504
    3OL     C12 6383   4.669   2.571   5.563
    3OL     H2R 6384   4.767   2.619   5.576
    3OL     H2S 6385   4.608   2.602   5.648
    3OL     C13 6386   4.600   2.612   5.432
    3OL     H3R 6387   4.559   2.713   5.433
    3OL     H3S 6388   4.511   2.551   5.413
    3OL     C14 6389   4.690   2.600   5.308
    3OL     H4R 6390   4.736   2.501   5.304
    3OL     H4S 6391   4.763   2.680   5.317
    3OL     C15 6392   4.618   2.625   5.175
    3OL     H5R 6393   4.578   2.726   5.183
    3OL     H5S 6394   4.544   2.547   5.153
    3OL     C16 6395   4.726   2.620   5.066
    3OL     H6R 6396   4.761   2.517   5.053
    3OL     H6S 6397   4.808   2.682   5.100
    3OL     C17 6398   4.683   2.679   4.931
    3OL     H7R 6399   4.666   2.786   4.944
    3OL     H7S 6400   4.591   2.626   4.905
    3OL     C18 6401   4.791   2.675   4.821
    3OL     H8R 6402   4.817   2.572   4.795
    3OL     H8S 6403   4.886   2.717   4.854
    3OL     C19 6404   4.744   2.753   4.701
    3OL     H9R 6405   4.674   2.834   4.721
    3OL    C110 6406   4.773   2.725   4.574
    3OL    H10R 6407   4.731   2.796   4.503
    3OL    C111 6408   4.861   2.620   4.513
    3OL    H11R 6409   4.888   2.556   4.597
    3OL    H11S 6410   4.954   2.673   4.489
    3OL    C112 6411   4.802   2.549   4.390
    3OL    H12R 6412   4.802   2.616   4.304
    3OL    H12S 6413   4.697   2.531   4.416
    3OL    C113 6414   4.886   2.427   4.353
    3OL    H13R 6415   4.889   2.353   4.434
    3OL    H13S 6416   4.990   2.457   4.338
    3OL    C114 6417   4.818   2.360   4.233
    3OL    H14R 6418   4.834   2.421   4.144
    3OL    H14S 6419   4.710   2.347   4.243
    3OL    C115 6420   4.886   2.223   4.213
    3OL    H15R 6421   4.805   2.150   4.205
    3OL    H15S 6422   4.938   2.187   4.302
    3OL    C116 6423   4.982   2.218   4.094
    3OL    H16R 6424   4.950   2.232   3.991
    3OL    H16S 6425   5.009   2.112   4.090
    3OL    C117 6426   5.111   2.300   4.109
    3OL    H17R 6427   5.159   2.277   4.205
    3OL    H17S 6428   5.077   2.404   4.110
    3OL    C118 6429   5.214   2.286   3.996
    3OL    H18R 6430   5.307   2.340   4.016
    3OL    H18S 6431   5.175   2.317   3.898
    3OL    H18T 6432   5.239   2.181   3.980
    1PA    C116 6433   2.388   1.269   4.134
    1PA    H16R 6434   2.305   1.245   4.067
    1PA    H16S 6435   2.475   1.267   4.069
    1PA    H16T 6436   2.372   1.368   4.177
    1PA    C115 6437   2.397   1.161   4.243
    1PA    H15R 6438   2.437   1.068   4.202
    1PA    H15S 6439   2.470   1.198   4.316
    1PA    C114 6440   2.266   1.121   4.311
    1PA    H14R 6441   2.194   1.098   4.231
    1PA    H14S 6442   2.285   1.036   4.376
    1PA    C113 6443   2.212   1.245   4.384
    1PA    H13R 6444   2.294   1.291   4.439
    1PA    H13S 6445   2.174   1.328   4.324
    1PA    C112 6446   2.111   1.206   4.492
    1PA    H12R 6447   2.019   1.164   4.451
    1PA    H12S 6448   2.158   1.132   4.558
    1PA    C111 6449   2.078   1.328   4.578
    1PA    H11R 6450   2.166   1.353   4.638
    1PA    H11S 6451   2.061   1.420   4.521
    1PA    C110 6452   1.964   1.306   4.679
    1PA    H10R 6453   1.868   1.292   4.630
    1PA    H10S 6454   1.986   1.221   4.744
    1PA     C19 6455   1.948   1.423   4.777
    1PA     H9R 6456   2.019   1.434   4.860
    1PA     H9S 6457   1.945   1.511   4.713
    1PA     C18 6458   1.815   1.406   4.852
    1PA     H8R 6459   1.732   1.381   4.785
    1PA     H8S 6460   1.827   1.333   4.932
    1PA     C17 6461   1.782   1.538   4.923
    1PA     H7R 6462   1.814   1.624   4.864
    1PA     H7S 6463   1.674   1.552   4.936
    1PA     C16 6464   1.847   1.550   5.061
    1PA     H6R 6465   1.807   1.490   5.144
    1PA     H6S 6466   1.953   1.526   5.049
    1PA     C15 6467   1.818   1.693   5.106
    1PA     H5R 6468   1.849   1.769   5.034
    1PA     H5S 6469   1.709   1.692   5.111
    1PA     C14 6470   1.893   1.718   5.238
    1PA     H4R 6471   1.899   1.639   5.312
    1PA     H4S 6472   1.993   1.744   5.203
    1PA     C13 6473   1.841   1.849   5.300
    1PA     H3R 6474   1.866   1.925   5.226
    1PA     H3S 6475   1.733   1.846   5.318
    1PA     C12 6476   1.917   1.871   5.431
    1PA     H2R 6477   1.878   1.790   5.494
    1PA     H2S 6478   2.024   1.866   5.411
    2PC     C11 6479   1.882   1.999   5.505
    2PC     O12 6480   1.775   2.013   5.558
    2PC     O11 6481   1.982   2.088   5.510
    2PC      C1 6482   1.957   2.214   5.576
    2PC      HR 6483   1.851   2.237   5.568
    2PC      HS 6484   1.972   2.196   5.683
    2PC      C2 6485   2.045   2.332   5.533
    2PC      HX 6486   2.148   2.296   5.525
    2PC      C3 6487   2.051   2.438   5.643
    2PC      HA 6488   2.113   2.395   5.723
    2PC      HB 6489   2.102   2.526   5.604
    2PC     O31 6490   1.921   2.475   5.691
    2PC     P31 6491   1.889   2.547   5.831
    2PC     O32 6492   1.832   2.422   5.913
    2PC     C31 6493   1.707   2.364   5.873
    2PC     H1A 6494   1.632   2.440   5.895
    2PC     H1B 6495   1.712   2.337   5.767
    2PC     C32 6496   1.684   2.239   5.959
    2PC     H2A 6497   1.599   2.183   5.922
    2PC     H2B 6498   1.768   2.171   5.946
    2PC     N31 6499   1.655   2.254   6.105
    2PC     C33 6500   1.646   2.113   6.155
    2PC     H3A 6501   1.560   2.068   6.105
    2PC     H3B 6502   1.733   2.058   6.118
    2PC     H3C 6503   1.634   2.107   6.264
    2PC     C34 6504   1.772   2.307   6.182
    2PC     H4A 6505   1.789   2.414   6.174
    2PC     H4B 6506   1.787   2.281   6.287
    2PC     H4C 6507   1.857   2.258   6.135
    2PC     C35 6508   1.532   2.331   6.142
    2PC     H5A 6509   1.445   2.288   6.092
    2PC     H5B 6510   1.539   2.434   6.105
    2PC     H5C 6511   1.519   2.350   6.248
    2PC     O33 6512   2.009   2.615   5.885
    2PC     O34 6513   1.784   2.650   5.814
    2PC     O21 6514   2.004   2.380   5.403
    2PC     C21 6515   2.094   2.438   5.322
    2PC     O22 6516   2.205   2.478   5.348
    3OL     C12 6517   2.047   2.453   5.179
    3OL     H2R 6518   1.942   2.484   5.183
    3OL     H2S 6519   2.042   2.353   5.135
    3OL     C13 6520   2.126   2.555   5.096
    3OL     H3R 6521   2.230   2.529   5.113
    3OL     H3S 6522   2.121   2.657   5.135
    3OL     C14 6523   2.081   2.568   4.950
    3OL     H4R 6524   1.980   2.608   4.954
    3OL     H4S 6525   2.079   2.463   4.921
    3OL     C15 6526   2.178   2.655   4.868
    3OL     H5R 6527   2.271   2.598   4.877
    3OL     H5S 6528   2.197   2.755   4.907
    3OL     C16 6529   2.136   2.665   4.721
    3OL     H6R 6530   2.056   2.739   4.714
    3OL     H6S 6531   2.096   2.568   4.690
    3OL     C17 6532   2.257   2.716   4.641
    3OL     H7R 6533   2.341   2.647   4.649
    3OL     H7S 6534   2.291   2.816   4.668
    3OL     C18 6535   2.224   2.735   4.492
    3OL     H8R 6536   2.301   2.793   4.440
    3OL     H8S 6537   2.135   2.793   4.469
    3OL     C19 6538   2.200   2.603   4.424
    3OL     H9R 6539   2.247   2.520   4.476
    3OL    C110 6540   2.134   2.587   4.310
    3OL    H10R 6541   2.124   2.494   4.256
    3OL    C111 6542   2.077   2.703   4.232
    3OL    H11R 6543   2.087   2.680   4.126
    3OL    H11S 6544   2.122   2.799   4.259
    3OL    C112 6545   1.925   2.708   4.251
    3OL    H12R 6546   1.903   2.702   4.357
    3OL    H12S 6547   1.879   2.618   4.209
    3OL    C113 6548   1.875   2.845   4.203
    3OL    H13R 6549   1.887   2.859   4.095
    3OL    H13S 6550   1.933   2.919   4.259
    3OL    C114 6551   1.724   2.859   4.228
    3OL    H14R 6552   1.707   2.866   4.335
    3OL    H14S 6553   1.675   2.773   4.183
    3OL    C115 6554   1.680   2.989   4.159
    3OL    H15R 6555   1.718   2.989   4.056
    3OL    H15S 6556   1.738   3.068   4.208
    3OL    C116 6557   1.532   3.024   4.178
    3OL    H16R 6558   1.516   3.039   4.285
    3OL    H16S 6559   1.470   2.943   4.139
    3OL    C117 6560   1.490   3.157   4.115
    3OL    H17R 6561   1.539   3.238   4.169
    3OL    H17S 6562   1.383   3.176   4.130
    3OL    C118 6563   1.508   3.160   3.963
    3OL    H18R 6564   1.612   3.144   3.933
    3OL    H18S 6565   1.471   3.256   3.926
    3OL    H18T 6566   1.449   3.081   3.916
    1PA    C116 6567   2.413  -0.139   4.188
    1PA    H16R 6568   2.353  -0.206   4.250
    1PA    H16S 6569   2.407  -0.170   4.084
    1PA    H16T 6570   2.369  -0.041   4.206
    1PA    C115 6571   2.562  -0.146   4.226
    1PA    H15R 6572   2.599  -0.247   4.206
    1PA    H15S 6573   2.619  -0.069   4.173
    1PA    C114 6574   2.575  -0.122   4.377
    1PA    H14R 6575   2.531  -0.025   4.403
    1PA    H14S 6576   2.534  -0.204   4.436
    1PA    C113 6577   2.722  -0.106   4.418
    1PA    H13R 6578   2.774  -0.199   4.395
    1PA    H13S 6579   2.763  -0.024   4.360
    1PA    C112 6580   2.733  -0.068   4.566
    1PA    H12R 6581   2.694   0.034   4.557
    1PA    H12S 6582   2.674  -0.132   4.632
    1PA    C111 6583   2.883  -0.070   4.597
    1PA    H11R 6584   2.930  -0.169   4.596
    1PA    H11S 6585   2.930  -0.007   4.521
    1PA    C110 6586   2.907  -0.007   4.735
    1PA    H10R 6587   2.860   0.091   4.742
    1PA    H10S 6588   2.869  -0.070   4.816
    1PA     C19 6589   3.056   0.018   4.762
    1PA     H9R 6590   3.109  -0.077   4.754
    1PA     H9S 6591   3.100   0.080   4.683
    1PA     C18 6592   3.064   0.075   4.904
    1PA     H8R 6593   3.034   0.180   4.906
    1PA     H8S 6594   3.001   0.023   4.976
    1PA     C17 6595   3.209   0.073   4.956
    1PA     H7R 6596   3.241  -0.031   4.956
    1PA     H7S 6597   3.279   0.128   4.893
    1PA     C16 6598   3.214   0.132   5.098
    1PA     H6R 6599   3.117   0.110   5.142
    1PA     H6S 6600   3.293   0.082   5.154
    1PA     C15 6601   3.266   0.276   5.095
    1PA     H5R 6602   3.365   0.290   5.051
    1PA     H5S 6603   3.203   0.340   5.033
    1PA     C14 6604   3.276   0.332   5.238
    1PA     H4R 6605   3.298   0.438   5.224
    1PA     H4S 6606   3.187   0.336   5.300
    1PA     C13 6607   3.402   0.289   5.315
    1PA     H3R 6608   3.405   0.180   5.326
    1PA     H3S 6609   3.486   0.318   5.252
    1PA     C12 6610   3.407   0.366   5.447
    1PA     H2R 6611   3.505   0.346   5.493
    1PA     H2S 6612   3.406   0.473   5.425
    2PC     C11 6613   3.296   0.331   5.542
    2PC     O12 6614   3.239   0.223   5.537
    2PC     O11 6615   3.260   0.427   5.629
    2PC      C1 6616   3.160   0.397   5.728
    2PC      HR 6617   3.162   0.291   5.753
    2PC      HS 6618   3.196   0.452   5.816
    2PC      C2 6619   3.018   0.447   5.699
    2PC      HX 6620   3.018   0.554   5.676
    2PC      C3 6621   2.929   0.435   5.824
    2PC      HA 6622   2.978   0.495   5.900
    2PC      HB 6623   2.836   0.487   5.801
    2PC     O31 6624   2.906   0.298   5.863
    2PC     P31 6625   2.853   0.252   6.007
    2PC     O32 6626   2.718   0.173   5.975
    2PC     C31 6627   2.726   0.030   5.958
    2PC     H1A 6628   2.777   0.021   5.862
    2PC     H1B 6629   2.790  -0.011   6.036
    2PC     C32 6630   2.580  -0.017   5.965
    2PC     H2A 6631   2.511   0.037   5.900
    2PC     H2B 6632   2.573  -0.121   5.932
    2PC     N31 6633   2.511  -0.001   6.097
    2PC     C33 6634   2.479   0.143   6.125
    2PC     H3A 6635   2.402   0.144   6.202
    2PC     H3B 6636   2.566   0.190   6.173
    2PC     H3C 6637   2.447   0.201   6.038
    2PC     C34 6638   2.391  -0.091   6.094
    2PC     H4A 6639   2.335  -0.089   6.187
    2PC     H4B 6640   2.323  -0.057   6.016
    2PC     H4C 6641   2.413  -0.197   6.082
    2PC     C35 6642   2.599  -0.040   6.212
    2PC     H5A 6643   2.686   0.025   6.216
    2PC     H5B 6644   2.618  -0.146   6.194
    2PC     H5C 6645   2.550  -0.024   6.308
    2PC     O33 6646   2.957   0.174   6.077
    2PC     O34 6647   2.845   0.368   6.099
    2PC     O21 6648   2.957   0.368   5.595
    2PC     C21 6649   2.912   0.427   5.483
    2PC     O22 6650   2.924   0.543   5.451
    3OL     C12 6651   2.835   0.327   5.400
    3OL     H2R 6652   2.733   0.362   5.381
    3OL     H2S 6653   2.825   0.236   5.460
    3OL     C13 6654   2.912   0.293   5.272
    3OL     H3R 6655   2.982   0.212   5.296
    3OL     H3S 6656   2.969   0.379   5.237
    3OL     C14 6657   2.818   0.243   5.162
    3OL     H4R 6658   2.878   0.229   5.071
    3OL     H4S 6659   2.736   0.310   5.138
    3OL     C15 6660   2.753   0.107   5.189
    3OL     H5R 6661   2.689   0.105   5.278
    3OL     H5S 6662   2.823   0.024   5.199
    3OL     C16 6663   2.664   0.071   5.070
    3OL     H6R 6664   2.728   0.057   4.983
    3OL     H6S 6665   2.605   0.162   5.052
    3OL     C17 6666   2.580  -0.051   5.109
    3OL     H7R 6667   2.508  -0.077   5.031
    3OL     H7S 6668   2.531  -0.025   5.203
    3OL     C18 6669   2.651  -0.183   5.144
    3OL     H8R 6670   2.577  -0.246   5.192
    3OL     H8S 6671   2.726  -0.166   5.221
    3OL     C19 6672   2.710  -0.241   5.018
    3OL     H9R 6673   2.772  -0.167   4.969
    3OL    C110 6674   2.700  -0.365   4.970
    3OL    H10R 6675   2.760  -0.388   4.882
    3OL    C111 6676   2.614  -0.472   5.031
    3OL    H11R 6677   2.508  -0.444   5.036
    3OL    H11S 6678   2.645  -0.501   5.131
    3OL    C112 6679   2.625  -0.594   4.938
    3OL    H12R 6680   2.594  -0.678   5.002
    3OL    H12S 6681   2.730  -0.623   4.928
    3OL    C113 6682   2.555  -0.573   4.803
    3OL    H13R 6683   2.618  -0.497   4.757
    3OL    H13S 6684   2.459  -0.526   4.825
    3OL    C114 6685   2.571  -0.702   4.721
    3OL    H14R 6686   2.666  -0.744   4.754
    3OL    H14S 6687   2.594  -0.670   4.619
    3OL    C115 6688   2.448  -0.794   4.730
    3OL    H15R 6689   2.362  -0.737   4.694
    3OL    H15S 6690   2.421  -0.818   4.833
    3OL    C116 6691   2.474  -0.922   4.651
    3OL    H16R 6692   2.579  -0.952   4.651
    3OL    H16S 6693   2.451  -0.912   4.545
    3OL    C117 6694   2.403  -1.049   4.700
    3OL    H17R 6695   2.418  -1.060   4.808
    3OL    H17S 6696   2.428  -1.137   4.641
    3OL    C118 6697   2.252  -1.045   4.671
    3OL    H18R 6698   2.206  -1.141   4.694
    3OL    H18S 6699   2.238  -1.022   4.565
    3OL    H18T 6700   2.204  -0.972   4.737
    1PA    C116 6701   1.072   1.525   4.385
    1PA    H16R 6702   1.148   1.590   4.428
    1PA    H16S 6703   0.974   1.546   4.429
    1PA    H16T 6704   1.058   1.546   4.278
    1PA    C115 6705   1.100   1.375   4.400
    1PA    H15R 6706   1.201   1.371   4.360
    1PA    H15S 6707   1.098   1.349   4.506
    1PA    C114 6708   1.020   1.269   4.323
    1PA    H14R 6709   0.921   1.256   4.368
    1PA    H14S 6710   1.009   1.294   4.218
    1PA    C113 6711   1.107   1.143   4.339
    1PA    H13R 6712   1.108   1.090   4.243
    1PA    H13S 6713   1.212   1.164   4.359
    1PA    C112 6714   1.053   1.044   4.443
    1PA    H12R 6715   0.945   1.039   4.427
    1PA    H12S 6716   1.090   0.947   4.410
    1PA    C111 6717   1.109   1.078   4.581
    1PA    H11R 6718   1.215   1.104   4.580
    1PA    H11S 6719   1.063   1.172   4.614
    1PA    C110 6720   1.084   0.970   4.687
    1PA    H10R 6721   0.977   0.959   4.709
    1PA    H10S 6722   1.124   0.875   4.651
    1PA     C19 6723   1.148   0.996   4.824
    1PA     H9R 6724   1.254   1.020   4.815
    1PA     H9S 6725   1.091   1.074   4.875
    1PA     C18 6726   1.135   0.874   4.917
    1PA     H8R 6727   1.033   0.835   4.918
    1PA     H8S 6728   1.185   0.795   4.861
    1PA     C17 6729   1.188   0.895   5.059
    1PA     H7R 6730   1.205   0.798   5.106
    1PA     H7S 6731   1.276   0.960   5.066
    1PA     C16 6732   1.088   0.980   5.138
    1PA     H6R 6733   1.080   1.072   5.080
    1PA     H6S 6734   0.987   0.937   5.132
    1PA     C15 6735   1.128   1.001   5.285
    1PA     H5R 6736   1.146   0.906   5.334
    1PA     H5S 6737   1.222   1.056   5.286
    1PA     C14 6738   1.021   1.081   5.361
    1PA     H4R 6739   1.001   1.163   5.291
    1PA     H4S 6740   0.932   1.019   5.366
    1PA     C13 6741   1.062   1.138   5.497
    1PA     H3R 6742   1.161   1.186   5.499
    1PA     H3S 6743   0.987   1.215   5.517
    1PA     C12 6744   1.042   1.034   5.608
    1PA     H2R 6745   0.942   0.991   5.597
    1PA     H2S 6746   1.114   0.953   5.595
    2PC     C11 6747   1.072   1.088   5.746
    2PC     O12 6748   1.058   1.021   5.846
    2PC     O11 6749   1.118   1.214   5.747
    2PC      C1 6750   1.165   1.275   5.868
    2PC      HR 6751   1.169   1.384   5.857
    2PC      HS 6752   1.096   1.247   5.948
    2PC      C2 6753   1.299   1.212   5.910
    2PC      HX 6754   1.295   1.102   5.915
    2PC      C3 6755   1.344   1.266   6.046
    2PC      HA 6756   1.396   1.361   6.036
    2PC      HB 6757   1.261   1.283   6.115
    2PC     O31 6758   1.441   1.176   6.102
    2PC     P31 6759   1.497   1.214   6.247
    2PC     O32 6760   1.553   1.362   6.217
    2PC     C31 6761   1.692   1.399   6.208
    2PC     H1A 6762   1.746   1.384   6.302
    2PC     H1B 6763   1.720   1.330   6.129
    2PC     C32 6764   1.699   1.540   6.149
    2PC     H2A 6765   1.664   1.528   6.046
    2PC     H2B 6766   1.636   1.610   6.203
    2PC     N31 6767   1.826   1.618   6.143
    2PC     C33 6768   1.798   1.746   6.071
    2PC     H3A 6769   1.735   1.801   6.141
    2PC     H3B 6770   1.892   1.797   6.050
    2PC     H3C 6771   1.744   1.712   5.982
    2PC     C34 6772   1.874   1.649   6.282
    2PC     H4A 6773   1.792   1.694   6.337
    2PC     H4B 6774   1.908   1.562   6.339
    2PC     H4C 6775   1.965   1.710   6.276
    2PC     C35 6776   1.936   1.538   6.079
    2PC     H5A 6777   2.025   1.599   6.095
    2PC     H5B 6778   1.915   1.534   5.972
    2PC     H5C 6779   1.943   1.435   6.116
    2PC     O33 6780   1.385   1.220   6.343
    2PC     O34 6781   1.602   1.122   6.297
    2PC     O21 6782   1.399   1.248   5.813
    2PC     C21 6783   1.400   1.175   5.701
    2PC     O22 6784   1.373   1.057   5.694
    3OL     C12 6785   1.464   1.244   5.584
    3OL     H2R 6786   1.544   1.312   5.615
    3OL     H2S 6787   1.384   1.297   5.532
    3OL     C13 6788   1.532   1.135   5.500
    3OL     H3R 6789   1.455   1.064   5.468
    3OL     H3S 6790   1.607   1.074   5.552
    3OL     C14 6791   1.589   1.182   5.365
    3OL     H4R 6792   1.641   1.099   5.318
    3OL     H4S 6793   1.657   1.266   5.382
    3OL     C15 6794   1.474   1.220   5.271
    3OL     H5R 6795   1.419   1.306   5.308
    3OL     H5S 6796   1.405   1.135   5.264
    3OL     C16 6797   1.533   1.238   5.130
    3OL     H6R 6798   1.593   1.151   5.104
    3OL     H6S 6799   1.589   1.332   5.130
    3OL     C17 6800   1.421   1.239   5.025
    3OL     H7R 6801   1.355   1.323   5.050
    3OL     H7S 6802   1.357   1.151   5.032
    3OL     C18 6803   1.473   1.256   4.881
    3OL     H8R 6804   1.539   1.172   4.858
    3OL     H8S 6805   1.525   1.350   4.901
    3OL     C19 6806   1.364   1.281   4.780
    3OL     H9R 6807   1.269   1.267   4.832
    3OL    C110 6808   1.387   1.291   4.650
    3OL    H10R 6809   1.303   1.292   4.581
    3OL    C111 6810   1.523   1.284   4.586
    3OL    H11R 6811   1.589   1.250   4.666
    3OL    H11S 6812   1.555   1.383   4.551
    3OL    C112 6813   1.530   1.203   4.455
    3OL    H12R 6814   1.450   1.238   4.390
    3OL    H12S 6815   1.507   1.097   4.466
    3OL    C113 6816   1.660   1.207   4.373
    3OL    H13R 6817   1.745   1.176   4.433
    3OL    H13S 6818   1.672   1.307   4.331
    3OL    C114 6819   1.637   1.108   4.258
    3OL    H14R 6820   1.690   1.144   4.169
    3OL    H14S 6821   1.531   1.107   4.233
    3OL    C115 6822   1.685   0.966   4.291
    3OL    H15R 6823   1.642   0.894   4.221
    3OL    H15S 6824   1.672   0.928   4.392
    3OL    C116 6825   1.837   0.963   4.268
    3OL    H16R 6826   1.892   0.984   4.360
    3OL    H16S 6827   1.865   1.033   4.189
    3OL    C117 6828   1.888   0.828   4.217
    3OL    H17R 6829   1.847   0.809   4.118
    3OL    H17S 6830   1.854   0.759   4.294
    3OL    C118 6831   2.041   0.836   4.210
    3OL    H18R 6832   2.081   0.877   4.303
    3OL    H18S 6833   2.072   0.905   4.130
    3OL    H18T 6834   2.081   0.736   4.191
    1PA    C116 6835   1.447   3.218   4.627
    1PA    H16R 6836   1.539   3.268   4.597
    1PA    H16S 6837   1.367   3.222   4.553
    1PA    H16T 6838   1.464   3.111   4.646
    1PA    C115 6839   1.386   3.273   4.757
    1PA    H15R 6840   1.440   3.221   4.837
    1PA    H15S 6841   1.386   3.382   4.764
    1PA    C114 6842   1.237   3.239   4.766
    1PA    H14R 6843   1.203   3.298   4.852
    1PA    H14S 6844   1.192   3.279   4.674
    1PA    C113 6845   1.201   3.091   4.783
    1PA    H13R 6846   1.251   3.030   4.708
    1PA    H13S 6847   1.244   3.062   4.879
    1PA    C112 6848   1.049   3.075   4.770
    1PA    H12R 6849   0.989   3.115   4.852
    1PA    H12S 6850   1.021   3.125   4.677
    1PA    C111 6851   1.014   2.928   4.743
    1PA    H11R 6852   0.912   2.933   4.704
    1PA    H11S 6853   1.077   2.897   4.660
    1PA    C110 6854   1.013   2.834   4.864
    1PA    H10R 6855   0.998   2.731   4.831
    1PA    H10S 6856   1.113   2.825   4.907
    1PA     C19 6857   0.910   2.883   4.967
    1PA     H9R 6858   0.962   2.965   5.018
    1PA     H9S 6859   0.816   2.917   4.923
    1PA     C18 6860   0.892   2.776   5.075
    1PA     H8R 6861   0.853   2.687   5.025
    1PA     H8S 6862   0.993   2.762   5.116
    1PA     C17 6863   0.795   2.813   5.188
    1PA     H7R 6864   0.812   2.914   5.226
    1PA     H7S 6865   0.695   2.814   5.143
    1PA     C16 6866   0.801   2.702   5.293
    1PA     H6R 6867   0.774   2.613   5.236
    1PA     H6S 6868   0.902   2.696   5.333
    1PA     C15 6869   0.709   2.742   5.408
    1PA     H5R 6870   0.769   2.806   5.473
    1PA     H5S 6871   0.626   2.808   5.379
    1PA     C14 6872   0.659   2.621   5.489
    1PA     H4R 6873   0.595   2.655   5.570
    1PA     H4S 6874   0.597   2.551   5.433
    1PA     C13 6875   0.770   2.548   5.566
    1PA     H3R 6876   0.839   2.510   5.490
    1PA     H3S 6877   0.826   2.613   5.634
    1PA     C12 6878   0.729   2.428   5.652
    1PA     H2R 6879   0.686   2.339   5.605
    1PA     H2S 6880   0.822   2.387   5.693
    2PC     C11 6881   0.638   2.465   5.766
    2PC     O12 6882   0.677   2.457   5.881
    2PC     O11 6883   0.518   2.512   5.728
    2PC      C1 6884   0.423   2.555   5.827
    2PC      HR 6885   0.329   2.555   5.773
    2PC      HS 6886   0.425   2.476   5.903
    2PC      C2 6887   0.465   2.688   5.891
    2PC      HX 6888   0.559   2.668   5.944
    2PC      C3 6889   0.371   2.735   6.002
    2PC      HA 6890   0.276   2.766   5.958
    2PC      HB 6891   0.356   2.647   6.065
    2PC     O31 6892   0.432   2.842   6.077
    2PC     P31 6893   0.547   2.818   6.186
    2PC     O32 6894   0.464   2.816   6.323
    2PC     C31 6895   0.396   2.938   6.357
    2PC     H1A 6896   0.457   3.028   6.351
    2PC     H1B 6897   0.314   2.959   6.287
    2PC     C32 6898   0.346   2.927   6.502
    2PC     H2A 6899   0.428   2.912   6.572
    2PC     H2B 6900   0.301   3.024   6.520
    2PC     N31 6901   0.243   2.825   6.543
    2PC     C33 6902   0.179   2.866   6.672
    2PC     H3A 6903   0.140   2.968   6.675
    2PC     H3B 6904   0.099   2.796   6.695
    2PC     H3C 6905   0.250   2.856   6.755
    2PC     C34 6906   0.132   2.831   6.442
    2PC     H4A 6907   0.082   2.735   6.456
    2PC     H4B 6908   0.069   2.919   6.453
    2PC     H4C 6909   0.176   2.822   6.342
    2PC     C35 6910   0.301   2.689   6.565
    2PC     H5A 6911   0.236   2.626   6.627
    2PC     H5B 6912   0.399   2.703   6.613
    2PC     H5C 6913   0.314   2.643   6.467
    2PC     O33 6914   0.608   2.684   6.179
    2PC     O34 6915   0.658   2.915   6.173
    2PC     O21 6916   0.480   2.790   5.791
    2PC     C21 6917   0.384   2.832   5.706
    2PC     O22 6918   0.274   2.783   5.707
    3OL     C12 6919   0.438   2.945   5.621
    3OL     H2R 6920   0.536   2.910   5.585
    3OL     H2S 6921   0.450   3.043   5.669
    3OL     C13 6922   0.361   2.956   5.489
    3OL     H3R 6923   0.257   2.984   5.503
    3OL     H3S 6924   0.375   2.864   5.432
    3OL     C14 6925   0.401   3.084   5.413
    3OL     H4R 6926   0.374   3.164   5.482
    3OL     H4S 6927   0.340   3.091   5.323
    3OL     C15 6928   0.552   3.092   5.383
    3OL     H5R 6929   0.578   3.006   5.323
    3OL     H5S 6930   0.606   3.098   5.478
    3OL     C16 6931   0.573   3.225   5.310
    3OL     H6R 6932   0.520   3.303   5.365
    3OL     H6S 6933   0.515   3.226   5.217
    3OL     C17 6934   0.725   3.250   5.300
    3OL     H7R 6935   0.779   3.181   5.236
    3OL     H7S 6936   0.759   3.258   5.403
    3OL     C18 6937   0.739   3.387   5.232
    3OL     H8R 6938   0.667   3.458   5.274
    3OL     H8S 6939   0.711   3.368   5.129
    3OL     C19 6940   0.872   3.458   5.243
    3OL     H9R 6941   0.913   3.440   5.342
    3OL    C110 6942   0.943   3.512   5.145
    3OL    H10R 6943   1.044   3.546   5.166
    3OL    C111 6944   0.892   3.549   5.008
    3OL    H11R 6945   0.874   3.656   4.998
    3OL    H11S 6946   0.799   3.501   4.974
    3OL    C112 6947   0.999   3.506   4.907
    3OL    H12R 6948   0.999   3.397   4.908
    3OL    H12S 6949   1.103   3.531   4.927
    3OL    C113 6950   0.957   3.557   4.768
    3OL    H13R 6951   0.959   3.666   4.767
    3OL    H13S 6952   0.854   3.533   4.740
    3OL    C114 6953   1.050   3.507   4.657
    3OL    H14R 6954   1.046   3.399   4.668
    3OL    H14S 6955   1.147   3.551   4.680
    3OL    C115 6956   1.003   3.553   4.518
    3OL    H15R 6957   0.975   3.658   4.531
    3OL    H15S 6958   0.914   3.494   4.494
    3OL    C116 6959   1.111   3.528   4.412
    3OL    H16R 6960   1.133   3.422   4.401
    3OL    H16S 6961   1.194   3.589   4.448
    3OL    C117 6962   1.062   3.581   4.276
    3OL    H17R 6963   1.056   3.690   4.285
    3OL    H17S 6964   0.970   3.531   4.249
    3OL    C118 6965   1.178   3.541   4.183
    3OL    H18R 6966   1.272   3.583   4.220
    3OL    H18S 6967   1.162   3.573   4.080
    3OL    H18T 6968   1.179   3.432   4.183
    1PA    C116 6969   1.655   2.341   4.604
    1PA    H16R 6970   1.721   2.297   4.680
    1PA    H16S 6971   1.633   2.268   4.525
    1PA    H16T 6972   1.560   2.355   4.656
    1PA    C115 6973   1.721   2.464   4.541
    1PA    H15R 6974   1.801   2.427   4.478
    1PA    H15S 6975   1.650   2.517   4.476
    1PA    C114 6976   1.767   2.569   4.643
    1PA    H14R 6977   1.811   2.518   4.728
    1PA    H14S 6978   1.852   2.618   4.594
    1PA    C113 6979   1.659   2.664   4.698
    1PA    H13R 6980   1.618   2.716   4.611
    1PA    H13S 6981   1.583   2.605   4.750
    1PA    C112 6982   1.714   2.767   4.797
    1PA    H12R 6983   1.633   2.798   4.864
    1PA    H12S 6984   1.789   2.713   4.854
    1PA    C111 6985   1.766   2.884   4.712
    1PA    H11R 6986   1.843   2.861   4.638
    1PA    H11S 6987   1.677   2.916   4.659
    1PA    C110 6988   1.810   3.001   4.801
    1PA    H10R 6989   1.804   3.096   4.748
    1PA    H10S 6990   1.728   3.008   4.873
    1PA     C19 6991   1.950   2.984   4.862
    1PA     H9R 6992   1.963   2.880   4.896
    1PA     H9S 6993   2.026   2.989   4.784
    1PA     C18 6994   1.986   3.086   4.971
    1PA     H8R 6995   1.964   3.180   4.921
    1PA     H8S 6996   1.921   3.068   5.057
    1PA     C17 6997   2.131   3.073   5.019
    1PA     H7R 6998   2.141   2.973   5.060
    1PA     H7S 6999   2.181   3.082   4.922
    1PA     C16 7000   2.182   3.181   5.116
    1PA     H6R 7001   2.153   3.163   5.220
    1PA     H6S 7002   2.291   3.185   5.115
    1PA     C15 7003   2.130   3.321   5.080
    1PA     H5R 7004   2.148   3.341   4.975
    1PA     H5S 7005   2.021   3.325   5.086
    1PA     C14 7006   2.188   3.437   5.162
    1PA     H4R 7007   2.297   3.444   5.150
    1PA     H4S 7008   2.156   3.531   5.117
    1PA     C13 7009   2.143   3.418   5.307
    1PA     H3R 7010   2.036   3.394   5.306
    1PA     H3S 7011   2.196   3.336   5.358
    1PA     C12 7012   2.165   3.539   5.398
    1PA     H2R 7013   2.266   3.572   5.424
    1PA     H2S 7014   2.115   3.623   5.348
    2PC     C11 7015   2.090   3.518   5.528
    2PC     O12 7016   2.048   3.413   5.572
    2PC     O11 7017   2.089   3.632   5.598
    2PC      C1 7018   2.041   3.638   5.734
    2PC      HR 7019   1.932   3.631   5.724
    2PC      HS 7020   2.081   3.561   5.799
    2PC      C2 7021   2.075   3.783   5.773
    2PC      HX 7022   2.180   3.808   5.755
    2PC      C3 7023   2.031   3.801   5.919
    2PC      HA 7024   1.922   3.812   5.921
    2PC      HB 7025   2.068   3.721   5.984
    2PC     O31 7026   2.088   3.920   5.977
    2PC     P31 7027   2.032   3.984   6.113
    2PC     O32 7028   1.997   3.862   6.211
    2PC     C31 7029   1.970   3.893   6.349
    2PC     H1A 7030   2.056   3.920   6.410
    2PC     H1B 7031   1.896   3.973   6.354
    2PC     C32 7032   1.904   3.774   6.420
    2PC     H2A 7033   1.873   3.795   6.522
    2PC     H2B 7034   1.813   3.758   6.361
    2PC     N31 7035   1.977   3.644   6.434
    2PC     C33 7036   1.883   3.542   6.493
    2PC     H3A 7037   1.818   3.594   6.564
    2PC     H3B 7038   1.809   3.498   6.426
    2PC     H3C 7039   1.940   3.466   6.547
    2PC     C34 7040   2.009   3.589   6.298
    2PC     H4A 7041   2.075   3.655   6.242
    2PC     H4B 7042   2.062   3.496   6.321
    2PC     H4C 7043   1.917   3.578   6.241
    2PC     C35 7044   2.096   3.644   6.525
    2PC     H5A 7045   2.164   3.721   6.487
    2PC     H5B 7046   2.138   3.546   6.501
    2PC     H5C 7047   2.073   3.661   6.630
    2PC     O33 7048   2.136   4.054   6.191
    2PC     O34 7049   1.922   4.084   6.107
    2PC     O21 7050   2.008   3.863   5.674
    2PC     C21 7051   2.058   3.985   5.648
    2PC     O22 7052   2.147   4.035   5.715
    3OL     C12 7053   1.980   4.054   5.539
    3OL     H2R 7054   1.891   4.097   5.586
    3OL     H2S 7055   1.934   3.972   5.483
    3OL     C13 7056   2.060   4.151   5.451
    3OL     H3R 7057   2.125   4.097   5.382
    3OL     H3S 7058   2.121   4.214   5.515
    3OL     C14 7059   1.970   4.254   5.382
    3OL     H4R 7060   1.916   4.313   5.456
    3OL     H4S 7061   1.893   4.195   5.332
    3OL     C15 7062   2.061   4.342   5.295
    3OL     H5R 7063   2.109   4.281   5.218
    3OL     H5S 7064   2.135   4.387   5.360
    3OL     C16 7065   1.990   4.459   5.225
    3OL     H6R 7066   2.054   4.545   5.206
    3OL     H6S 7067   1.905   4.489   5.287
    3OL     C17 7068   1.926   4.416   5.091
    3OL     H7R 7069   1.856   4.335   5.110
    3OL     H7S 7070   2.008   4.371   5.034
    3OL     C18 7071   1.860   4.539   5.026
    3OL     H8R 7072   1.783   4.582   5.090
    3OL     H8S 7073   1.807   4.513   4.935
    3OL     C19 7074   1.960   4.643   4.981
    3OL     H9R 7075   2.065   4.620   4.964
    3OL    C110 7076   1.923   4.765   4.947
    3OL    H10R 7077   1.995   4.836   4.906
    3OL    C111 7078   1.783   4.820   4.953
    3OL    H11R 7079   1.780   4.913   5.010
    3OL    H11S 7080   1.709   4.760   5.007
    3OL    C112 7081   1.739   4.860   4.812
    3OL    H12R 7082   1.824   4.895   4.753
    3OL    H12S 7083   1.672   4.946   4.823
    3OL    C113 7084   1.662   4.746   4.744
    3OL    H13R 7085   1.574   4.721   4.804
    3OL    H13S 7086   1.731   4.662   4.740
    3OL    C114 7087   1.611   4.777   4.602
    3OL    H14R 7088   1.613   4.885   4.582
    3OL    H14S 7089   1.507   4.745   4.595
    3OL    C115 7090   1.691   4.705   4.494
    3OL    H15R 7091   1.702   4.600   4.523
    3OL    H15S 7092   1.781   4.754   4.456
    3OL    C116 7093   1.602   4.693   4.369
    3OL    H16R 7094   1.504   4.647   4.375
    3OL    H16S 7095   1.657   4.640   4.291
    3OL    C117 7096   1.588   4.833   4.308
    3OL    H17R 7097   1.677   4.883   4.270
    3OL    H17S 7098   1.546   4.897   4.385
    3OL    C118 7099   1.484   4.830   4.194
    3OL    H18R 7100   1.385   4.796   4.224
    3OL    H18S 7101   1.516   4.762   4.115
    3OL    H18T 7102   1.482   4.931   4.153
    1PA    C116 7103   1.390   2.719   4.417
    1PA    H16R 7104   1.381   2.662   4.324
    1PA    H16S 7105   1.497   2.741   4.427
    1PA    H16T 7106   1.335   2.810   4.395
    1PA    C115 7107   1.349   2.637   4.540
    1PA    H15R 7108   1.427   2.563   4.558
    1PA    H15S 7109   1.330   2.694   4.631
    1PA    C114 7110   1.222   2.556   4.509
    1PA    H14R 7111   1.147   2.621   4.462
    1PA    H14S 7112   1.240   2.480   4.433
    1PA    C113 7113   1.167   2.502   4.642
    1PA    H13R 7114   1.159   2.578   4.720
    1PA    H13S 7115   1.062   2.476   4.629
    1PA    C112 7116   1.241   2.375   4.685
    1PA    H12R 7117   1.209   2.294   4.619
    1PA    H12S 7118   1.349   2.391   4.679
    1PA    C111 7119   1.196   2.342   4.828
    1PA    H11R 7120   1.205   2.432   4.890
    1PA    H11S 7121   1.090   2.320   4.817
    1PA    C110 7122   1.279   2.227   4.886
    1PA    H10R 7123   1.281   2.145   4.814
    1PA    H10S 7124   1.377   2.264   4.915
    1PA     C19 7125   1.226   2.176   5.021
    1PA     H9R 7126   1.251   2.256   5.090
    1PA     H9S 7127   1.123   2.141   5.030
    1PA     C18 7128   1.307   2.053   5.062
    1PA     H8R 7129   1.296   1.971   4.991
    1PA     H8S 7130   1.409   2.092   5.065
    1PA     C17 7131   1.282   1.999   5.204
    1PA     H7R 7132   1.307   2.081   5.272
    1PA     H7S 7133   1.176   1.975   5.198
    1PA     C16 7134   1.363   1.873   5.237
    1PA     H6R 7135   1.323   1.782   5.191
    1PA     H6S 7136   1.467   1.893   5.209
    1PA     C15 7137   1.334   1.853   5.386
    1PA     H5R 7138   1.361   1.940   5.445
    1PA     H5S 7139   1.225   1.849   5.400
    1PA     C14 7140   1.399   1.721   5.430
    1PA     H4R 7141   1.354   1.631   5.389
    1PA     H4S 7142   1.508   1.727   5.417
    1PA     C13 7143   1.369   1.719   5.581
    1PA     H3R 7144   1.424   1.803   5.624
    1PA     H3S 7145   1.263   1.726   5.604
    1PA     C12 7146   1.430   1.589   5.636
    1PA     H2R 7147   1.388   1.505   5.581
    1PA     H2S 7148   1.537   1.600   5.621
    2PC     C11 7149   1.407   1.581   5.785
    2PC     O12 7150   1.478   1.519   5.861
    2PC     O11 7151   1.295   1.639   5.831
    2PC      C1 7152   1.250   1.619   5.966
    2PC      HR 7153   1.144   1.648   5.974
    2PC      HS 7154   1.261   1.516   5.998
    2PC      C2 7155   1.325   1.712   6.062
    2PC      HX 7156   1.432   1.705   6.041
    2PC      C3 7157   1.305   1.685   6.212
    2PC      HA 7158   1.221   1.734   6.262
    2PC      HB 7159   1.285   1.577   6.212
    2PC     O31 7160   1.430   1.715   6.277
    2PC     P31 7161   1.449   1.690   6.434
    2PC     O32 7162   1.479   1.533   6.447
    2PC     C31 7163   1.457   1.476   6.577
    2PC     H1A 7164   1.471   1.559   6.646
    2PC     H1B 7165   1.357   1.431   6.585
    2PC     C32 7166   1.567   1.372   6.600
    2PC     H2A 7167   1.542   1.286   6.538
    2PC     H2B 7168   1.659   1.414   6.559
    2PC     N31 7169   1.572   1.327   6.743
    2PC     C33 7170   1.443   1.273   6.797
    2PC     H3A 7171   1.398   1.209   6.721
    2PC     H3B 7172   1.455   1.210   6.885
    2PC     H3C 7173   1.387   1.358   6.837
    2PC     C34 7174   1.684   1.231   6.766
    2PC     H4A 7175   1.681   1.202   6.872
    2PC     H4B 7176   1.655   1.153   6.695
    2PC     H4C 7177   1.784   1.267   6.741
    2PC     C35 7178   1.610   1.443   6.831
    2PC     H5A 7179   1.535   1.522   6.828
    2PC     H5B 7180   1.707   1.475   6.793
    2PC     H5C 7181   1.612   1.396   6.930
    2PC     O33 7182   1.561   1.767   6.492
    2PC     O34 7183   1.326   1.737   6.502
    2PC     O21 7184   1.268   1.842   6.038
    2PC     C21 7185   1.330   1.919   5.947
    2PC     O22 7186   1.444   1.902   5.909
    3OL     C12 7187   1.249   2.029   5.883
    3OL     H2R 7188   1.291   2.128   5.903
    3OL     H2S 7189   1.146   2.036   5.917
    3OL     C13 7190   1.235   2.018   5.730
    3OL     H3R 7191   1.231   1.909   5.722
    3OL     H3S 7192   1.319   2.064   5.678
    3OL     C14 7193   1.102   2.080   5.683
    3OL     H4R 7194   1.080   2.173   5.736
    3OL     H4S 7195   1.013   2.023   5.711
    3OL     C15 7196   1.095   2.107   5.532
    3OL     H5R 7197   1.056   2.019   5.481
    3OL     H5S 7198   1.192   2.144   5.498
    3OL     C16 7199   1.002   2.228   5.519
    3OL     H6R 7200   1.041   2.315   5.571
    3OL     H6S 7201   0.908   2.197   5.565
    3OL     C17 7202   0.976   2.267   5.373
    3OL     H7R 7203   0.885   2.327   5.373
    3OL     H7S 7204   0.981   2.184   5.303
    3OL     C18 7205   1.090   2.360   5.326
    3OL     H8R 7206   1.179   2.297   5.322
    3OL     H8S 7207   1.103   2.437   5.403
    3OL     C19 7208   1.060   2.413   5.188
    3OL     H9R 7209   1.001   2.354   5.119
    3OL    C110 7210   1.121   2.522   5.144
    3OL    H10R 7211   1.105   2.547   5.039
    3OL    C111 7212   1.222   2.602   5.221
    3OL    H11R 7213   1.289   2.535   5.275
    3OL    H11S 7214   1.165   2.666   5.288
    3OL    C112 7215   1.303   2.683   5.118
    3OL    H12R 7216   1.242   2.749   5.056
    3OL    H12S 7217   1.360   2.615   5.055
    3OL    C113 7218   1.390   2.784   5.193
    3OL    H13R 7219   1.326   2.863   5.235
    3OL    H13S 7220   1.447   2.827   5.111
    3OL    C114 7221   1.483   2.725   5.299
    3OL    H14R 7222   1.540   2.654   5.239
    3OL    H14S 7223   1.428   2.678   5.382
    3OL    C115 7224   1.585   2.819   5.365
    3OL    H15R 7225   1.540   2.872   5.448
    3OL    H15S 7226   1.615   2.896   5.293
    3OL    C116 7227   1.717   2.756   5.410
    3OL    H16R 7228   1.751   2.687   5.333
    3OL    H16S 7229   1.696   2.691   5.496
    3OL    C117 7230   1.824   2.859   5.448
    3OL    H17R 7231   1.904   2.826   5.515
    3OL    H17S 7232   1.779   2.942   5.503
    3OL    C118 7233   1.888   2.916   5.320
    3OL    H18R 7234   1.973   2.980   5.345
    3OL    H18S 7235   1.807   2.976   5.280
    3OL    H18T 7236   1.896   2.838   5.243
    1PA    C116 7237   1.672   3.660   4.223
    1PA    H16R 7238   1.678   3.756   4.276
    1PA    H16S 7239   1.609   3.661   4.135
    1PA    H16T 7240   1.777   3.646   4.195
    1PA    C115 7241   1.643   3.543   4.318
    1PA    H15R 7242   1.628   3.452   4.261
    1PA    H15S 7243   1.733   3.515   4.374
    1PA    C114 7244   1.531   3.566   4.421
    1PA    H14R 7245   1.440   3.583   4.363
    1PA    H14S 7246   1.516   3.471   4.474
    1PA    C113 7247   1.558   3.679   4.521
    1PA    H13R 7248   1.658   3.675   4.563
    1PA    H13S 7249   1.545   3.770   4.461
    1PA    C112 7250   1.458   3.676   4.637
    1PA    H12R 7251   1.353   3.684   4.606
    1PA    H12S 7252   1.461   3.579   4.687
    1PA    C111 7253   1.468   3.787   4.742
    1PA    H11R 7254   1.558   3.768   4.801
    1PA    H11S 7255   1.484   3.881   4.687
    1PA    C110 7256   1.353   3.804   4.843
    1PA    H10R 7257   1.260   3.827   4.791
    1PA    H10S 7258   1.333   3.709   4.892
    1PA     C19 7259   1.377   3.907   4.954
    1PA     H9R 7260   1.470   3.874   5.002
    1PA     H9S 7261   1.400   4.003   4.908
    1PA     C18 7262   1.264   3.923   5.057
    1PA     H8R 7263   1.282   4.009   5.122
    1PA     H8S 7264   1.169   3.935   5.005
    1PA     C17 7265   1.266   3.805   5.156
    1PA     H7R 7266   1.227   3.710   5.120
    1PA     H7S 7267   1.361   3.785   5.205
    1PA     C16 7268   1.158   3.843   5.258
    1PA     H6R 7269   1.194   3.930   5.313
    1PA     H6S 7270   1.063   3.857   5.207
    1PA     C15 7271   1.143   3.736   5.367
    1PA     H5R 7272   1.131   3.634   5.330
    1PA     H5S 7273   1.238   3.738   5.422
    1PA     C14 7274   1.022   3.765   5.456
    1PA     H4R 7275   1.039   3.860   5.507
    1PA     H4S 7276   0.925   3.780   5.406
    1PA     C13 7277   1.006   3.663   5.569
    1PA     H3R 7278   0.917   3.688   5.627
    1PA     H3S 7279   0.984   3.565   5.527
    1PA     C12 7280   1.133   3.653   5.655
    1PA     H2R 7281   1.217   3.621   5.592
    1PA     H2S 7282   1.153   3.751   5.696
    2PC     C11 7283   1.121   3.557   5.771
    2PC     O12 7284   1.032   3.475   5.779
    2PC     O11 7285   1.224   3.567   5.856
    2PC      C1 7286   1.217   3.477   5.968
    2PC      HR 7287   1.277   3.518   6.050
    2PC      HS 7288   1.113   3.472   5.999
    2PC      C2 7289   1.275   3.339   5.933
    2PC      HX 7290   1.231   3.293   5.845
    2PC      C3 7291   1.245   3.248   6.053
    2PC      HA 7292   1.140   3.251   6.082
    2PC      HB 7293   1.266   3.142   6.038
    2PC     O31 7294   1.321   3.295   6.166
    2PC     P31 7295   1.302   3.214   6.303
    2PC     O32 7296   1.355   3.069   6.260
    2PC     C31 7297   1.442   3.002   6.353
    2PC     H1A 7298   1.536   3.057   6.362
    2PC     H1B 7299   1.392   3.005   6.450
    2PC     C32 7300   1.458   2.856   6.308
    2PC     H2A 7301   1.535   2.813   6.373
    2PC     H2B 7302   1.369   2.793   6.307
    2PC     N31 7303   1.514   2.838   6.170
    2PC     C33 7304   1.548   2.693   6.154
    2PC     H3A 7305   1.630   2.680   6.224
    2PC     H3B 7306   1.469   2.620   6.169
    2PC     H3C 7307   1.578   2.675   6.050
    2PC     C34 7308   1.413   2.868   6.063
    2PC     H4A 7309   1.444   2.835   5.963
    2PC     H4B 7310   1.313   2.836   6.091
    2PC     H4C 7311   1.419   2.977   6.062
    2PC     C35 7312   1.635   2.924   6.149
    2PC     H5A 7313   1.599   3.026   6.145
    2PC     H5B 7314   1.686   2.893   6.057
    2PC     H5C 7315   1.700   2.900   6.234
    2PC     O33 7316   1.396   3.280   6.395
    2PC     O34 7317   1.165   3.229   6.358
    2PC     O21 7318   1.416   3.351   5.908
    2PC     C21 7319   1.479   3.239   5.867
    2PC     O22 7320   1.434   3.127   5.861
    3OL     C12 7321   1.615   3.271   5.810
    3OL     H2R 7322   1.703   3.232   5.862
    3OL     H2S 7323   1.625   3.379   5.825
    3OL     C13 7324   1.617   3.238   5.660
    3OL     H3R 7325   1.618   3.129   5.656
    3OL     H3S 7326   1.711   3.276   5.618
    3OL     C14 7327   1.500   3.281   5.571
    3OL     H4R 7328   1.410   3.225   5.600
    3OL     H4S 7329   1.529   3.256   5.469
    3OL     C15 7330   1.470   3.431   5.584
    3OL     H5R 7331   1.440   3.460   5.684
    3OL     H5S 7332   1.395   3.438   5.505
    3OL     C16 7333   1.592   3.522   5.564
    3OL     H6R 7334   1.679   3.495   5.624
    3OL     H6S 7335   1.564   3.616   5.611
    3OL     C17 7336   1.635   3.523   5.417
    3OL     H7R 7337   1.555   3.566   5.357
    3OL     H7S 7338   1.642   3.421   5.379
    3OL     C18 7339   1.772   3.590   5.399
    3OL     H8R 7340   1.803   3.594   5.294
    3OL     H8S 7341   1.851   3.536   5.452
    3OL     C19 7342   1.779   3.736   5.436
    3OL     H9R 7343   1.770   3.764   5.541
    3OL    C110 7344   1.775   3.835   5.348
    3OL    H10R 7345   1.771   3.937   5.385
    3OL    C111 7346   1.773   3.821   5.198
    3OL    H11R 7347   1.675   3.785   5.166
    3OL    H11S 7348   1.857   3.755   5.173
    3OL    C112 7349   1.804   3.950   5.121
    3OL    H12R 7350   1.909   3.964   5.145
    3OL    H12S 7351   1.741   4.036   5.144
    3OL    C113 7352   1.803   3.925   4.970
    3OL    H13R 7353   1.701   3.911   4.932
    3OL    H13S 7354   1.867   3.846   4.929
    3OL    C114 7355   1.842   4.053   4.894
    3OL    H14R 7356   1.951   4.061   4.894
    3OL    H14S 7357   1.800   4.138   4.947
    3OL    C115 7358   1.785   4.050   4.752
    3OL    H15R 7359   1.677   4.065   4.751
    3OL    H15S 7360   1.800   3.951   4.708
    3OL    C116 7361   1.843   4.163   4.665
    3OL    H16R 7362   1.952   4.157   4.667
    3OL    H16S 7363   1.808   4.251   4.720
    3OL    C117 7364   1.790   4.157   4.521
    3OL    H17R 7365   1.785   4.258   4.480
    3OL    H17S 7366   1.692   4.109   4.532
    3OL    C118 7367   1.867   4.059   4.433
    3OL    H18R 7368   1.867   3.959   4.476
    3OL    H18S 7369   1.968   4.088   4.405
    3OL    H18T 7370   1.826   4.048   4.332
    1PA    C116 7371   2.428   1.581   4.377
    1PA    H16R 7372   2.419   1.559   4.483
    1PA    H16S 7373   2.372   1.505   4.321
    1PA    H16T 7374   2.382   1.676   4.353
    1PA    C115 7375   2.575   1.580   4.330
    1PA    H15R 7376   2.616   1.479   4.317
    1PA    H15S 7377   2.584   1.629   4.233
    1PA    C114 7378   2.663   1.649   4.434
    1PA    H14R 7379   2.617   1.744   4.461
    1PA    H14S 7380   2.657   1.600   4.531
    1PA    C113 7381   2.811   1.651   4.392
    1PA    H13R 7382   2.837   1.545   4.390
    1PA    H13S 7383   2.826   1.691   4.292
    1PA    C112 7384   2.893   1.730   4.495
    1PA    H12R 7385   2.856   1.833   4.493
    1PA    H12S 7386   2.873   1.694   4.596
    1PA    C111 7387   3.041   1.714   4.460
    1PA    H11R 7388   3.065   1.732   4.355
    1PA    H11S 7389   3.101   1.789   4.514
    1PA    C110 7390   3.106   1.584   4.511
    1PA    H10R 7391   3.106   1.583   4.620
    1PA    H10S 7392   3.048   1.495   4.487
    1PA     C19 7393   3.250   1.564   4.463
    1PA     H9R 7394   3.253   1.560   4.354
    1PA     H9S 7395   3.315   1.643   4.501
    1PA     C18 7396   3.303   1.425   4.503
    1PA     H8R 7397   3.241   1.352   4.451
    1PA     H8S 7398   3.403   1.421   4.460
    1PA     C17 7399   3.318   1.396   4.653
    1PA     H7R 7400   3.387   1.467   4.701
    1PA     H7S 7401   3.227   1.394   4.712
    1PA     C16 7402   3.391   1.263   4.678
    1PA     H6R 7403   3.326   1.185   4.637
    1PA     H6S 7404   3.483   1.252   4.620
    1PA     C15 7405   3.425   1.261   4.827
    1PA     H5R 7406   3.468   1.359   4.853
    1PA     H5S 7407   3.336   1.264   4.891
    1PA     C14 7408   3.510   1.141   4.870
    1PA     H4R 7409   3.452   1.050   4.856
    1PA     H4S 7410   3.594   1.142   4.800
    1PA     C13 7411   3.554   1.148   5.017
    1PA     H3R 7412   3.605   1.242   5.040
    1PA     H3S 7413   3.459   1.140   5.071
    1PA     C12 7414   3.642   1.027   5.050
    1PA     H2R 7415   3.588   0.932   5.054
    1PA     H2S 7416   3.726   1.017   4.982
    2PC     C11 7417   3.699   1.043   5.189
    2PC     O12 7418   3.809   1.091   5.207
    2PC     O11 7419   3.619   0.992   5.283
    2PC      C1 7420   3.641   1.031   5.420
    2PC      HR 7421   3.575   0.972   5.485
    2PC      HS 7422   3.747   1.029   5.447
    2PC      C2 7423   3.602   1.178   5.443
    2PC      HX 7424   3.674   1.247   5.397
    2PC      C3 7425   3.607   1.202   5.595
    2PC      HA 7426   3.712   1.197   5.623
    2PC      HB 7427   3.577   1.303   5.623
    2PC     O31 7428   3.533   1.099   5.663
    2PC     P31 7429   3.600   1.057   5.802
    2PC     O32 7430   3.593   1.201   5.872
    2PC     C31 7431   3.704   1.233   5.958
    2PC     H1A 7432   3.708   1.153   6.032
    2PC     H1B 7433   3.790   1.241   5.891
    2PC     C32 7434   3.694   1.369   6.029
    2PC     H2A 7435   3.793   1.406   6.057
    2PC     H2B 7436   3.658   1.442   5.956
    2PC     N31 7437   3.606   1.375   6.150
    2PC     C33 7438   3.590   1.515   6.200
    2PC     H3A 7439   3.693   1.549   6.212
    2PC     H3B 7440   3.545   1.571   6.118
    2PC     H3C 7441   3.527   1.523   6.289
    2PC     C34 7442   3.470   1.321   6.116
    2PC     H4A 7443   3.478   1.218   6.084
    2PC     H4B 7444   3.417   1.323   6.212
    2PC     H4C 7445   3.429   1.386   6.039
    2PC     C35 7446   3.659   1.287   6.260
    2PC     H5A 7447   3.741   1.332   6.315
    2PC     H5B 7448   3.677   1.187   6.220
    2PC     H5C 7449   3.580   1.273   6.333
    2PC     O33 7450   3.520   0.952   5.870
    2PC     O34 7451   3.738   1.009   5.779
    2PC     O21 7452   3.473   1.194   5.383
    2PC     C21 7453   3.409   1.312   5.384
    2PC     O22 7454   3.449   1.407   5.448
    3OL     C12 7455   3.266   1.303   5.335
    3OL     H2R 7456   3.210   1.378   5.392
    3OL     H2S 7457   3.225   1.202   5.344
    3OL     C13 7458   3.259   1.358   5.192
    3OL     H3R 7459   3.314   1.285   5.133
    3OL     H3S 7460   3.313   1.452   5.178
    3OL     C14 7461   3.111   1.349   5.150
    3OL     H4R 7462   3.061   1.407   5.228
    3OL     H4S 7463   3.083   1.243   5.144
    3OL     C15 7464   3.090   1.423   5.018
    3OL     H5R 7465   3.126   1.357   4.939
    3OL     H5S 7466   3.142   1.516   4.996
    3OL     C16 7467   2.938   1.443   5.002
    3OL     H6R 7468   2.904   1.514   5.078
    3OL     H6S 7469   2.894   1.348   5.031
    3OL     C17 7470   2.900   1.479   4.858
    3OL     H7R 7471   2.932   1.395   4.795
    3OL     H7S 7472   2.969   1.558   4.827
    3OL     C18 7473   2.751   1.510   4.840
    3OL     H8R 7474   2.733   1.534   4.735
    3OL     H8S 7475   2.736   1.610   4.884
    3OL     C19 7476   2.653   1.409   4.894
    3OL     H9R 7477   2.656   1.412   5.003
    3OL    C110 7478   2.578   1.334   4.815
    3OL    H10R 7479   2.502   1.275   4.866
    3OL    C111 7480   2.566   1.328   4.665
    3OL    H11R 7481   2.598   1.423   4.622
    3OL    H11S 7482   2.461   1.316   4.639
    3OL    C112 7483   2.645   1.217   4.596
    3OL    H12R 7484   2.644   1.227   4.487
    3OL    H12S 7485   2.605   1.121   4.628
    3OL    C113 7486   2.795   1.223   4.627
    3OL    H13R 7487   2.812   1.217   4.735
    3OL    H13S 7488   2.847   1.313   4.593
    3OL    C114 7489   2.870   1.106   4.561
    3OL    H14R 7490   2.862   1.126   4.454
    3OL    H14S 7491   2.812   1.013   4.569
    3OL    C115 7492   3.013   1.092   4.613
    3OL    H15R 7493   3.053   1.191   4.637
    3OL    H15S 7494   3.080   1.047   4.540
    3OL    C116 7495   3.025   1.029   4.753
    3OL    H16R 7496   2.966   1.093   4.819
    3OL    H16S 7497   3.126   1.032   4.795
    3OL    C117 7498   2.980   0.883   4.755
    3OL    H17R 7499   2.873   0.895   4.737
    3OL    H17S 7500   3.000   0.835   4.851
    3OL    C118 7501   3.041   0.797   4.643
    3OL    H18R 7502   3.150   0.799   4.646
    3OL    H18S 7503   3.005   0.826   4.545
    3OL    H18T 7504   3.014   0.694   4.669
    1PA    C116 7505   4.057   4.440   5.141
    1PA    H16R 7506   4.109   4.521   5.193
    1PA    H16S 7507   4.062   4.351   5.204
    1PA    H16T 7508   3.951   4.466   5.140
    1PA    C115 7509   4.098   4.410   4.997
    1PA    H15R 7510   4.198   4.368   4.984
    1PA    H15S 7511   4.026   4.337   4.961
    1PA    C114 7512   4.087   4.541   4.918
    1PA    H14R 7513   3.988   4.587   4.925
    1PA    H14S 7514   4.163   4.608   4.959
    1PA    C113 7515   4.113   4.513   4.769
    1PA    H13R 7516   4.213   4.469   4.765
    1PA    H13S 7517   4.043   4.435   4.737
    1PA    C112 7518   4.102   4.643   4.689
    1PA    H12R 7519   4.157   4.724   4.738
    1PA    H12S 7520   4.146   4.625   4.591
    1PA    C111 7521   3.958   4.695   4.673
    1PA    H11R 7522   3.901   4.626   4.611
    1PA    H11S 7523   3.914   4.721   4.769
    1PA    C110 7524   3.966   4.828   4.597
    1PA    H10R 7525   4.028   4.890   4.662
    1PA    H10S 7526   4.027   4.821   4.506
    1PA     C19 7527   3.827   4.885   4.562
    1PA     H9R 7528   3.858   4.976   4.511
    1PA     H9S 7529   3.781   4.820   4.488
    1PA     C18 7530   3.728   4.906   4.677
    1PA     H8R 7531   3.629   4.928   4.635
    1PA     H8S 7532   3.705   4.809   4.722
    1PA     C17 7533   3.766   4.994   4.796
    1PA     H7R 7534   3.867   4.962   4.825
    1PA     H7S 7535   3.748   5.099   4.772
    1PA     C16 7536   3.681   4.963   4.920
    1PA     H6R 7537   3.663   5.053   4.978
    1PA     H6S 7538   3.581   4.936   4.887
    1PA     C15 7539   3.738   4.852   5.010
    1PA     H5R 7540   3.657   4.822   5.077
    1PA     H5S 7541   3.766   4.758   4.960
    1PA     C14 7542   3.852   4.902   5.099
    1PA     H4R 7543   3.925   4.965   5.046
    1PA     H4S 7544   3.801   4.979   5.156
    1PA     C13 7545   3.934   4.808   5.188
    1PA     H3R 7546   3.990   4.733   5.132
    1PA     H3S 7547   4.004   4.871   5.243
    1PA     C12 7548   3.844   4.715   5.272
    1PA     H2R 7549   3.771   4.776   5.325
    1PA     H2S 7550   3.791   4.651   5.201
    2PC     C11 7551   3.908   4.636   5.384
    2PC     O12 7552   4.010   4.669   5.441
    2PC     O11 7553   3.845   4.522   5.414
    2PC      C1 7554   3.880   4.457   5.538
    2PC      HR 7555   3.873   4.351   5.511
    2PC      HS 7556   3.983   4.475   5.571
    2PC      C2 7557   3.776   4.498   5.643
    2PC      HX 7558   3.785   4.606   5.658
    2PC      C3 7559   3.802   4.431   5.779
    2PC      HA 7560   3.769   4.327   5.788
    2PC      HB 7561   3.906   4.424   5.813
    2PC     O31 7562   3.733   4.521   5.868
    2PC     P31 7563   3.787   4.543   6.017
    2PC     O32 7564   3.705   4.665   6.081
    2PC     C31 7565   3.768   4.737   6.189
    2PC     H1A 7566   3.775   4.671   6.276
    2PC     H1B 7567   3.870   4.765   6.161
    2PC     C32 7568   3.691   4.867   6.217
    2PC     H2A 7569   3.724   4.946   6.149
    2PC     H2B 7570   3.583   4.860   6.212
    2PC     N31 7571   3.701   4.914   6.359
    2PC     C33 7572   3.633   5.047   6.369
    2PC     H3A 7573   3.527   5.022   6.374
    2PC     H3B 7574   3.659   5.102   6.460
    2PC     H3C 7575   3.656   5.090   6.271
    2PC     C34 7576   3.628   4.819   6.448
    2PC     H4A 7577   3.680   4.724   6.445
    2PC     H4B 7578   3.621   4.853   6.552
    2PC     H4C 7579   3.532   4.815   6.395
    2PC     C35 7580   3.844   4.937   6.398
    2PC     H5A 7581   3.852   4.992   6.491
    2PC     H5B 7582   3.892   4.996   6.319
    2PC     H5C 7583   3.892   4.840   6.412
    2PC     O33 7584   3.762   4.420   6.095
    2PC     O34 7585   3.933   4.566   6.032
    2PC     O21 7586   3.648   4.450   5.600
    2PC     C21 7587   3.564   4.523   5.524
    2PC     O22 7588   3.568   4.644   5.511
    3OL     C12 7589   3.449   4.442   5.471
    3OL     H2R 7590   3.363   4.508   5.463
    3OL     H2S 7591   3.422   4.365   5.544
    3OL     C13 7592   3.493   4.391   5.333
    3OL     H3R 7593   3.559   4.308   5.361
    3OL     H3S 7594   3.549   4.468   5.279
    3OL     C14 7595   3.381   4.335   5.245
    3OL     H4R 7596   3.303   4.282   5.301
    3OL     H4S 7597   3.418   4.270   5.166
    3OL     C15 7598   3.309   4.450   5.174
    3OL     H5R 7599   3.375   4.512   5.112
    3OL     H5S 7600   3.261   4.507   5.254
    3OL     C16 7601   3.210   4.387   5.075
    3OL     H6R 7602   3.129   4.454   5.044
    3OL     H6S 7603   3.161   4.306   5.130
    3OL     C17 7604   3.280   4.328   4.953
    3OL     H7R 7605   3.204   4.275   4.896
    3OL     H7S 7606   3.361   4.261   4.984
    3OL     C18 7607   3.337   4.432   4.856
    3OL     H8R 7608   3.378   4.373   4.773
    3OL     H8S 7609   3.433   4.470   4.892
    3OL     C19 7610   3.236   4.536   4.814
    3OL     H9R 7611   3.146   4.533   4.874
    3OL    C110 7612   3.253   4.619   4.712
    3OL    H10R 7613   3.172   4.684   4.678
    3OL    C111 7614   3.369   4.614   4.616
    3OL    H11R 7615   3.359   4.536   4.540
    3OL    H11S 7616   3.463   4.587   4.664
    3OL    C112 7617   3.399   4.750   4.550
    3OL    H12R 7618   3.407   4.826   4.628
    3OL    H12S 7619   3.314   4.777   4.487
    3OL    C113 7620   3.516   4.742   4.451
    3OL    H13R 7621   3.611   4.709   4.494
    3OL    H13S 7622   3.524   4.845   4.416
    3OL    C114 7623   3.500   4.657   4.324
    3OL    H14R 7624   3.408   4.683   4.272
    3OL    H14S 7625   3.494   4.553   4.356
    3OL    C115 7626   3.616   4.652   4.224
    3OL    H15R 7627   3.609   4.573   4.149
    3OL    H15S 7628   3.708   4.632   4.280
    3OL    C116 7629   3.625   4.787   4.152
    3OL    H16R 7630   3.611   4.873   4.217
    3OL    H16S 7631   3.552   4.783   4.071
    3OL    C117 7632   3.755   4.796   4.070
    3OL    H17R 7633   3.758   4.879   3.999
    3OL    H17S 7634   3.756   4.699   4.018
    3OL    C118 7635   3.876   4.820   4.160
    3OL    H18R 7636   3.885   4.923   4.196
    3OL    H18S 7637   3.960   4.800   4.093
    3OL    H18T 7638   3.887   4.761   4.252
    1PA    C116 7639   4.612   2.891   3.950
    1PA    H16R 7640   4.506   2.883   3.923
    1PA    H16S 7641   4.666   2.806   3.909
    1PA    H16T 7642   4.651   2.982   3.904
    1PA    C115 7643   4.635   2.904   4.101
    1PA    H15R 7644   4.587   2.990   4.148
    1PA    H15S 7645   4.585   2.814   4.138
    1PA    C114 7646   4.783   2.906   4.142
    1PA    H14R 7647   4.803   2.852   4.235
    1PA    H14S 7648   4.852   2.867   4.067
    1PA    C113 7649   4.836   3.050   4.146
    1PA    H13R 7650   4.826   3.094   4.046
    1PA    H13S 7651   4.776   3.115   4.210
    1PA    C112 7652   4.985   3.059   4.181
    1PA    H12R 7653   5.034   2.991   4.111
    1PA    H12S 7654   5.024   3.161   4.175
    1PA    C111 7655   5.024   3.010   4.321
    1PA    H11R 7656   5.029   2.901   4.327
    1PA    H11S 7657   5.128   3.039   4.336
    1PA    C110 7658   4.926   3.064   4.426
    1PA    H10R 7659   4.896   3.166   4.401
    1PA    H10S 7660   4.834   3.006   4.427
    1PA     C19 7661   4.981   3.044   4.568
    1PA     H9R 7662   5.000   2.939   4.589
    1PA     H9S 7663   5.069   3.108   4.568
    1PA     C18 7664   4.897   3.117   4.674
    1PA     H8R 7665   4.901   3.225   4.660
    1PA     H8S 7666   4.791   3.100   4.654
    1PA     C17 7667   4.937   3.090   4.820
    1PA     H7R 7668   4.931   2.982   4.830
    1PA     H7S 7669   5.042   3.117   4.829
    1PA     C16 7670   4.858   3.163   4.929
    1PA     H6R 7671   4.859   3.268   4.898
    1PA     H6S 7672   4.760   3.115   4.937
    1PA     C15 7673   4.938   3.141   5.058
    1PA     H5R 7674   4.953   3.033   5.071
    1PA     H5S 7675   5.033   3.192   5.048
    1PA     C14 7676   4.868   3.191   5.186
    1PA     H4R 7677   4.933   3.184   5.274
    1PA     H4S 7678   4.842   3.296   5.193
    1PA     C13 7679   4.735   3.119   5.209
    1PA     H3R 7680   4.664   3.124   5.126
    1PA     H3S 7681   4.767   3.015   5.214
    1PA     C12 7682   4.671   3.171   5.339
    1PA     H2R 7683   4.724   3.154   5.433
    1PA     H2S 7684   4.665   3.280   5.344
    2PC     C11 7685   4.525   3.136   5.354
    2PC     O12 7686   4.463   3.066   5.276
    2PC     O11 7687   4.464   3.196   5.457
    2PC      C1 7688   4.326   3.177   5.493
    2PC      HR 7689   4.298   3.261   5.557
    2PC      HS 7690   4.266   3.200   5.404
    2PC      C2 7691   4.307   3.043   5.566
    2PC      HX 7692   4.215   3.043   5.624
    2PC      C3 7693   4.419   3.013   5.667
    2PC      HA 7694   4.497   2.955   5.619
    2PC      HB 7695   4.461   3.107   5.704
    2PC     O31 7696   4.359   2.946   5.779
    2PC     P31 7697   4.421   2.970   5.924
    2PC     O32 7698   4.372   2.830   5.985
    2PC     C31 7699   4.458   2.716   6.003
    2PC     H1A 7700   4.470   2.669   5.905
    2PC     H1B 7701   4.557   2.758   6.025
    2PC     C32 7702   4.390   2.628   6.109
    2PC     H2A 7703   4.294   2.591   6.073
    2PC     H2B 7704   4.467   2.551   6.124
    2PC     N31 7705   4.355   2.683   6.243
    2PC     C33 7706   4.240   2.778   6.231
    2PC     H3A 7707   4.153   2.728   6.189
    2PC     H3B 7708   4.224   2.819   6.331
    2PC     H3C 7709   4.281   2.852   6.162
    2PC     C34 7710   4.302   2.564   6.318
    2PC     H4A 7711   4.244   2.493   6.261
    2PC     H4B 7712   4.388   2.498   6.333
    2PC     H4C 7713   4.260   2.587   6.416
    2PC     C35 7714   4.479   2.736   6.309
    2PC     H5A 7715   4.454   2.786   6.403
    2PC     H5B 7716   4.530   2.813   6.250
    2PC     H5C 7717   4.552   2.656   6.319
    2PC     O33 7718   4.569   2.981   5.931
    2PC     O34 7719   4.360   3.093   5.978
    2PC     O21 7720   4.318   2.934   5.473
    2PC     C21 7721   4.230   2.923   5.372
    2PC     O22 7722   4.130   2.991   5.362
    3OL     C12 7723   4.271   2.806   5.286
    3OL     H2R 7724   4.192   2.732   5.274
    3OL     H2S 7725   4.363   2.759   5.319
    3OL     C13 7726   4.276   2.841   5.137
    3OL     H3R 7727   4.379   2.855   5.104
    3OL     H3S 7728   4.224   2.934   5.111
    3OL     C14 7729   4.217   2.732   5.046
    3OL     H4R 7730   4.109   2.725   5.064
    3OL     H4S 7731   4.264   2.637   5.075
    3OL     C15 7732   4.249   2.758   4.898
    3OL     H5R 7733   4.352   2.788   4.880
    3OL     H5S 7734   4.191   2.845   4.869
    3OL     C16 7735   4.208   2.628   4.827
    3OL     H6R 7736   4.190   2.651   4.722
    3OL     H6S 7737   4.114   2.591   4.869
    3OL     C17 7738   4.317   2.520   4.823
    3OL     H7R 7739   4.357   2.499   4.922
    3OL     H7S 7740   4.404   2.548   4.764
    3OL     C18 7741   4.259   2.392   4.759
    3OL     H8R 7742   4.204   2.420   4.669
    3OL     H8S 7743   4.182   2.354   4.826
    3OL     C19 7744   4.371   2.297   4.726
    3OL     H9R 7745   4.419   2.258   4.815
    3OL    C110 7746   4.399   2.256   4.603
    3OL    H10R 7747   4.470   2.174   4.593
    3OL    C111 7748   4.316   2.275   4.479
    3OL    H11R 7749   4.224   2.323   4.511
    3OL    H11S 7750   4.301   2.176   4.436
    3OL    C112 7751   4.384   2.365   4.375
    3OL    H12R 7752   4.322   2.359   4.285
    3OL    H12S 7753   4.482   2.326   4.345
    3OL    C113 7754   4.403   2.511   4.417
    3OL    H13R 7755   4.477   2.567   4.360
    3OL    H13S 7756   4.441   2.514   4.519
    3OL    C114 7757   4.270   2.588   4.411
    3OL    H14R 7758   4.197   2.525   4.464
    3OL    H14S 7759   4.230   2.608   4.312
    3OL    C115 7760   4.276   2.727   4.476
    3OL    H15R 7761   4.323   2.720   4.574
    3OL    H15S 7762   4.178   2.773   4.488
    3OL    C116 7763   4.367   2.824   4.399
    3OL    H16R 7764   4.318   2.873   4.314
    3OL    H16S 7765   4.454   2.766   4.369
    3OL    C117 7766   4.413   2.942   4.485
    3OL    H17R 7767   4.478   2.901   4.563
    3OL    H17S 7768   4.333   2.995   4.538
    3OL    C118 7769   4.497   3.046   4.408
    3OL    H18R 7770   4.526   3.118   4.485
    3OL    H18S 7771   4.444   3.110   4.338
    3OL    H18T 7772   4.586   3.007   4.358
    1PA    C116 7773   3.497   5.206   4.145
    1PA    H16R 7774   3.496   5.279   4.064
    1PA    H16S 7775   3.467   5.266   4.231
    1PA    H16T 7776   3.428   5.124   4.125
    1PA    C115 7777   3.632   5.137   4.167
    1PA    H15R 7778   3.637   5.099   4.270
    1PA    H15S 7779   3.644   5.052   4.099
    1PA    C114 7780   3.746   5.232   4.128
    1PA    H14R 7781   3.827   5.177   4.079
    1PA    H14S 7782   3.711   5.305   4.055
    1PA    C113 7783   3.801   5.301   4.253
    1PA    H13R 7784   3.801   5.231   4.337
    1PA    H13S 7785   3.905   5.329   4.236
    1PA    C112 7786   3.714   5.422   4.290
    1PA    H12R 7787   3.727   5.492   4.207
    1PA    H12S 7788   3.607   5.398   4.290
    1PA    C111 7789   3.763   5.479   4.424
    1PA    H11R 7790   3.681   5.539   4.464
    1PA    H11S 7791   3.797   5.400   4.490
    1PA    C110 7792   3.882   5.571   4.393
    1PA    H10R 7793   3.958   5.501   4.357
    1PA    H10S 7794   3.852   5.646   4.318
    1PA     C19 7795   3.940   5.649   4.512
    1PA     H9R 7796   3.990   5.737   4.472
    1PA     H9S 7797   3.852   5.689   4.563
    1PA     C18 7798   4.024   5.579   4.620
    1PA     H8R 7799   4.097   5.507   4.584
    1PA     H8S 7800   4.076   5.657   4.676
    1PA     C17 7801   3.937   5.514   4.729
    1PA     H7R 7802   3.859   5.585   4.757
    1PA     H7S 7803   3.889   5.424   4.690
    1PA     C16 7804   4.018   5.483   4.856
    1PA     H6R 7805   4.093   5.407   4.833
    1PA     H6S 7806   4.082   5.569   4.878
    1PA     C15 7807   3.934   5.442   4.977
    1PA     H5R 7808   3.866   5.520   5.011
    1PA     H5S 7809   3.871   5.356   4.954
    1PA     C14 7810   4.028   5.413   5.095
    1PA     H4R 7811   4.093   5.329   5.071
    1PA     H4S 7812   4.088   5.503   5.110
    1PA     C13 7813   3.951   5.387   5.225
    1PA     H3R 7814   3.893   5.475   5.255
    1PA     H3S 7815   3.887   5.300   5.206
    1PA     C12 7816   4.054   5.352   5.333
    1PA     H2R 7817   4.125   5.274   5.304
    1PA     H2S 7818   4.115   5.442   5.340
    2PC     C11 7819   4.000   5.330   5.472
    2PC     O12 7820   4.026   5.241   5.551
    2PC     O11 7821   3.919   5.431   5.506
    2PC      C1 7822   3.883   5.446   5.645
    2PC      HR 7823   3.842   5.353   5.686
    2PC      HS 7824   3.972   5.478   5.700
    2PC      C2 7825   3.770   5.549   5.658
    2PC      HX 7826   3.802   5.644   5.615
    2PC      C3 7827   3.732   5.564   5.806
    2PC      HA 7828   3.817   5.601   5.864
    2PC      HB 7829   3.644   5.627   5.820
    2PC     O31 7830   3.707   5.443   5.880
    2PC     P31 7831   3.725   5.461   6.038
    2PC     O32 7832   3.606   5.565   6.067
    2PC     C31 7833   3.621   5.677   6.156
    2PC     H1A 7834   3.608   5.644   6.259
    2PC     H1B 7835   3.720   5.721   6.138
    2PC     C32 7836   3.522   5.788   6.120
    2PC     H2A 7837   3.555   5.887   6.152
    2PC     H2B 7838   3.505   5.783   6.012
    2PC     N31 7839   3.388   5.770   6.185
    2PC     C33 7840   3.399   5.794   6.332
    2PC     H3A 7841   3.462   5.882   6.343
    2PC     H3B 7842   3.303   5.818   6.378
    2PC     H3C 7843   3.447   5.711   6.385
    2PC     C34 7844   3.285   5.872   6.145
    2PC     H4A 7845   3.315   5.977   6.152
    2PC     H4B 7846   3.259   5.849   6.041
    2PC     H4C 7847   3.201   5.845   6.208
    2PC     C35 7848   3.342   5.631   6.154
    2PC     H5A 7849   3.321   5.627   6.047
    2PC     H5B 7850   3.249   5.628   6.210
    2PC     H5C 7851   3.416   5.557   6.186
    2PC     O33 7852   3.706   5.337   6.115
    2PC     O34 7853   3.860   5.503   6.081
    2PC     O21 7854   3.659   5.496   5.584
    2PC     C21 7855   3.563   5.571   5.526
    2PC     O22 7856   3.562   5.692   5.535
    3OL     C12 7857   3.451   5.493   5.463
    3OL     H2R 7858   3.366   5.561   5.449
    3OL     H2S 7859   3.422   5.410   5.527
    3OL     C13 7860   3.503   5.434   5.331
    3OL     H3R 7861   3.606   5.401   5.348
    3OL     H3S 7862   3.487   5.505   5.250
    3OL     C14 7863   3.448   5.295   5.296
    3OL     H4R 7864   3.340   5.298   5.280
    3OL     H4S 7865   3.461   5.221   5.374
    3OL     C15 7866   3.517   5.238   5.171
    3OL     H5R 7867   3.449   5.160   5.140
    3OL     H5S 7868   3.614   5.191   5.190
    3OL     C16 7869   3.549   5.332   5.054
    3OL     H6R 7870   3.626   5.277   4.998
    3OL     H6S 7871   3.590   5.427   5.089
    3OL     C17 7872   3.425   5.374   4.974
    3OL     H7R 7873   3.346   5.411   5.039
    3OL     H7S 7874   3.377   5.286   4.932
    3OL     C18 7875   3.450   5.455   4.846
    3OL     H8R 7876   3.473   5.560   4.869
    3OL     H8S 7877   3.350   5.453   4.802
    3OL     C19 7878   3.548   5.382   4.759
    3OL     H9R 7879   3.647   5.388   4.805
    3OL    C110 7880   3.527   5.305   4.653
    3OL    H10R 7881   3.607   5.241   4.618
    3OL    C111 7882   3.397   5.288   4.578
    3OL    H11R 7883   3.420   5.304   4.472
    3OL    H11S 7884   3.318   5.356   4.610
    3OL    C112 7885   3.331   5.151   4.597
    3OL    H12R 7886   3.392   5.074   4.550
    3OL    H12S 7887   3.234   5.162   4.547
    3OL    C113 7888   3.304   5.125   4.746
    3OL    H13R 7889   3.252   5.212   4.788
    3OL    H13S 7890   3.399   5.110   4.797
    3OL    C114 7891   3.211   5.005   4.769
    3OL    H14R 7892   3.256   4.911   4.737
    3OL    H14S 7893   3.122   5.024   4.709
    3OL    C115 7894   3.175   4.987   4.917
    3OL    H15R 7895   3.078   4.936   4.913
    3OL    H15S 7896   3.156   5.084   4.964
    3OL    C116 7897   3.288   4.915   4.992
    3OL    H16R 7898   3.360   4.997   4.994
    3OL    H16S 7899   3.316   4.833   4.925
    3OL    C117 7900   3.241   4.872   5.131
    3OL    H17R 7901   3.171   4.788   5.129
    3OL    H17S 7902   3.193   4.954   5.185
    3OL    C118 7903   3.362   4.815   5.206
    3OL    H18R 7904   3.414   4.740   5.146
    3OL    H18S 7905   3.329   4.771   5.301
    3OL    H18T 7906   3.425   4.902   5.224
    1PA    C116 7907   2.581   2.392   4.009
    1PA    H16R 7908   2.513   2.418   3.928
    1PA    H16S 7909   2.534   2.322   4.079
    1PA    H16T 7910   2.667   2.345   3.961
    1PA    C115 7911   2.616   2.519   4.087
    1PA    H15R 7912   2.694   2.498   4.160
    1PA    H15S 7913   2.652   2.592   4.014
    1PA    C114 7914   2.500   2.591   4.157
    1PA    H14R 7915   2.424   2.614   4.082
    1PA    H14S 7916   2.457   2.525   4.233
    1PA    C113 7917   2.536   2.728   4.217
    1PA    H13R 7918   2.614   2.772   4.154
    1PA    H13S 7919   2.445   2.787   4.231
    1PA    C112 7920   2.592   2.706   4.359
    1PA    H12R 7921   2.525   2.630   4.400
    1PA    H12S 7922   2.690   2.658   4.369
    1PA    C111 7923   2.596   2.838   4.437
    1PA    H11R 7924   2.666   2.912   4.398
    1PA    H11S 7925   2.492   2.872   4.443
    1PA    C110 7926   2.626   2.809   4.585
    1PA    H10R 7927   2.571   2.724   4.627
    1PA    H10S 7928   2.734   2.793   4.584
    1PA     C19 7929   2.608   2.935   4.670
    1PA     H9R 7930   2.662   3.006   4.606
    1PA     H9S 7931   2.503   2.966   4.676
    1PA     C18 7932   2.660   2.918   4.814
    1PA     H8R 7933   2.616   2.832   4.863
    1PA     H8S 7934   2.767   2.898   4.805
    1PA     C17 7935   2.631   3.044   4.897
    1PA     H7R 7936   2.687   3.125   4.849
    1PA     H7S 7937   2.524   3.060   4.887
    1PA     C16 7938   2.679   3.026   5.042
    1PA     H6R 7939   2.632   2.936   5.082
    1PA     H6S 7940   2.787   3.010   5.045
    1PA     C15 7941   2.639   3.138   5.138
    1PA     H5R 7942   2.539   3.178   5.121
    1PA     H5S 7943   2.630   3.094   5.237
    1PA     C14 7944   2.741   3.252   5.152
    1PA     H4R 7945   2.842   3.213   5.137
    1PA     H4S 7946   2.739   3.320   5.067
    1PA     C13 7947   2.719   3.327   5.284
    1PA     H3R 7948   2.758   3.428   5.267
    1PA     H3S 7949   2.610   3.329   5.293
    1PA     C12 7950   2.781   3.259   5.407
    1PA     H2R 7951   2.760   3.152   5.400
    1PA     H2S 7952   2.889   3.271   5.391
    2PC     C11 7953   2.740   3.322   5.537
    2PC     O12 7954   2.711   3.437   5.562
    2PC     O11 7955   2.724   3.227   5.630
    2PC      C1 7956   2.668   3.262   5.758
    2PC      HR 7957   2.688   3.175   5.821
    2PC      HS 7958   2.714   3.352   5.799
    2PC      C2 7959   2.519   3.297   5.742
    2PC      HX 7960   2.497   3.389   5.686
    2PC      C3 7961   2.462   3.329   5.881
    2PC      HA 7962   2.509   3.418   5.922
    2PC      HB 7963   2.356   3.356   5.872
    2PC     O31 7964   2.482   3.222   5.976
    2PC     P31 7965   2.494   3.257   6.132
    2PC     O32 7966   2.643   3.314   6.147
    2PC     C31 7967   2.753   3.222   6.139
    2PC     H1A 7968   2.709   3.149   6.071
    2PC     H1B 7969   2.844   3.273   6.105
    2PC     C32 7970   2.774   3.159   6.277
    2PC     H2A 7971   2.788   3.245   6.343
    2PC     H2B 7972   2.683   3.106   6.305
    2PC     N31 7973   2.884   3.059   6.299
    2PC     C33 7974   2.855   2.998   6.433
    2PC     H3A 7975   2.769   2.932   6.421
    2PC     H3B 7976   2.948   2.948   6.462
    2PC     H3C 7977   2.843   3.076   6.508
    2PC     C34 7978   2.865   2.949   6.199
    2PC     H4A 7979   2.769   2.900   6.212
    2PC     H4B 7980   2.864   2.994   6.099
    2PC     H4C 7981   2.948   2.879   6.210
    2PC     C35 7982   3.020   3.122   6.297
    2PC     H5A 7983   3.035   3.206   6.365
    2PC     H5B 7984   3.044   3.159   6.197
    2PC     H5C 7985   3.096   3.050   6.327
    2PC     O33 7986   2.387   3.345   6.184
    2PC     O34 7987   2.470   3.132   6.209
    2PC     O21 7988   2.452   3.181   5.692
    2PC     C21 7989   2.381   3.195   5.579
    2PC     O22 7990   2.364   3.304   5.528
    3OL     C12 7991   2.333   3.062   5.525
    3OL     H2R 7992   2.247   3.079   5.460
    3OL     H2S 7993   2.314   2.994   5.609
    3OL     C13 7994   2.438   3.002   5.431
    3OL     H3R 7995   2.535   3.042   5.460
    3OL     H3S 7996   2.420   3.039   5.330
    3OL     C14 7997   2.444   2.848   5.433
    3OL     H4R 7998   2.343   2.819   5.403
    3OL     H4S 7999   2.469   2.813   5.533
    3OL     C15 8000   2.547   2.781   5.341
    3OL     H5R 8001   2.563   2.682   5.384
    3OL     H5S 8002   2.643   2.833   5.335
    3OL     C16 8003   2.478   2.756   5.206
    3OL     H6R 8004   2.450   2.851   5.159
    3OL     H6S 8005   2.386   2.698   5.216
    3OL     C17 8006   2.565   2.666   5.118
    3OL     H7R 8007   2.667   2.705   5.103
    3OL     H7S 8008   2.523   2.689   5.020
    3OL     C18 8009   2.564   2.515   5.148
    3OL     H8R 8010   2.460   2.482   5.144
    3OL     H8S 8011   2.598   2.511   5.251
    3OL     C19 8012   2.654   2.441   5.051
    3OL     H9R 8013   2.656   2.483   4.951
    3OL    C110 8014   2.734   2.341   5.084
    3OL    H10R 8015   2.800   2.297   5.009
    3OL    C111 8016   2.739   2.278   5.220
    3OL    H11R 8017   2.678   2.188   5.228
    3OL    H11S 8018   2.697   2.352   5.288
    3OL    C112 8019   2.877   2.244   5.280
    3OL    H12R 8020   2.857   2.195   5.376
    3OL    H12S 8021   2.936   2.332   5.305
    3OL    C113 8022   2.966   2.155   5.193
    3OL    H13R 8023   2.973   2.198   5.092
    3OL    H13S 8024   2.920   2.058   5.176
    3OL    C114 8025   3.104   2.148   5.260
    3OL    H14R 8026   3.131   2.248   5.294
    3OL    H14S 8027   3.180   2.128   5.184
    3OL    C115 8028   3.111   2.056   5.383
    3OL    H15R 8029   3.015   2.048   5.433
    3OL    H15S 8030   3.172   2.095   5.465
    3OL    C116 8031   3.156   1.913   5.346
    3OL    H16R 8032   3.254   1.930   5.301
    3OL    H16S 8033   3.077   1.867   5.287
    3OL    C117 8034   3.172   1.822   5.468
    3OL    H17R 8035   3.079   1.826   5.526
    3OL    H17S 8036   3.256   1.856   5.529
    3OL    C118 8037   3.182   1.673   5.433
    3OL    H18R 8038   3.276   1.644   5.383
    3OL    H18S 8039   3.104   1.644   5.361
    3OL    H18T 8040   3.174   1.616   5.525
    1PA    C116 8041   2.412   1.626   4.778
    1PA    H16R 8042   2.516   1.654   4.762
    1PA    H16S 8043   2.387   1.530   4.734
    1PA    H16T 8044   2.387   1.622   4.884
    1PA    C115 8045   2.324   1.733   4.712
    1PA    H15R 8046   2.347   1.824   4.766
    1PA    H15S 8047   2.364   1.755   4.613
    1PA    C114 8048   2.175   1.697   4.703
    1PA    H14R 8049   2.164   1.617   4.630
    1PA    H14S 8050   2.145   1.657   4.800
    1PA    C113 8051   2.085   1.816   4.664
    1PA    H13R 8052   2.128   1.868   4.577
    1PA    H13S 8053   1.985   1.779   4.642
    1PA    C112 8054   2.066   1.919   4.776
    1PA    H12R 8055   2.044   1.872   4.872
    1PA    H12S 8056   2.169   1.954   4.782
    1PA    C111 8057   1.961   2.022   4.732
    1PA    H11R 8058   1.998   2.060   4.637
    1PA    H11S 8059   1.864   1.974   4.721
    1PA    C110 8060   1.947   2.136   4.835
    1PA    H10R 8061   2.035   2.144   4.898
    1PA    H10S 8062   1.937   2.227   4.775
    1PA     C19 8063   1.824   2.115   4.924
    1PA     H9R 8064   1.743   2.123   4.851
    1PA     H9S 8065   1.811   2.012   4.957
    1PA     C18 8066   1.829   2.220   5.036
    1PA     H8R 8067   1.916   2.196   5.096
    1PA     H8S 8068   1.842   2.316   4.985
    1PA     C17 8069   1.697   2.221   5.114
    1PA     H7R 8070   1.619   2.216   5.037
    1PA     H7S 8071   1.681   2.131   5.173
    1PA     C16 8072   1.687   2.349   5.198
    1PA     H6R 8073   1.775   2.356   5.262
    1PA     H6S 8074   1.675   2.441   5.140
    1PA     C15 8075   1.570   2.344   5.298
    1PA     H5R 8076   1.546   2.448   5.320
    1PA     H5S 8077   1.481   2.318   5.241
    1PA     C14 8078   1.599   2.248   5.414
    1PA     H4R 8079   1.631   2.149   5.381
    1PA     H4S 8080   1.680   2.300   5.466
    1PA     C13 8081   1.481   2.242   5.512
    1PA     H3R 8082   1.386   2.218   5.462
    1PA     H3S 8083   1.502   2.159   5.580
    1PA     C12 8084   1.475   2.377   5.584
    1PA     H2R 8085   1.576   2.408   5.614
    1PA     H2S 8086   1.443   2.453   5.512
    2PC     C11 8087   1.385   2.374   5.704
    2PC     O12 8088   1.409   2.330   5.815
    2PC     O11 8089   1.267   2.434   5.684
    2PC      C1 8090   1.171   2.454   5.790
    2PC      HR 8091   1.071   2.481   5.755
    2PC      HS 8092   1.168   2.363   5.851
    2PC      C2 8093   1.209   2.579   5.872
    2PC      HX 8094   1.318   2.578   5.876
    2PC      C3 8095   1.152   2.573   6.014
    2PC      HA 8096   1.111   2.667   6.052
    2PC      HB 8097   1.077   2.494   6.019
    2PC     O31 8098   1.266   2.548   6.098
    2PC     P31 8099   1.231   2.532   6.253
    2PC     O32 8100   1.178   2.676   6.300
    2PC     C31 8101   1.146   2.705   6.437
    2PC     H1A 8102   1.234   2.686   6.499
    2PC     H1B 8103   1.114   2.808   6.455
    2PC     C32 8104   1.029   2.620   6.489
    2PC     H2A 8105   1.025   2.528   6.431
    2PC     H2B 8106   1.055   2.592   6.591
    2PC     N31 8107   0.890   2.675   6.494
    2PC     C33 8108   0.800   2.570   6.550
    2PC     H3A 8109   0.848   2.513   6.630
    2PC     H3B 8110   0.719   2.621   6.603
    2PC     H3C 8111   0.776   2.506   6.465
    2PC     C34 8112   0.885   2.804   6.570
    2PC     H4A 8113   0.780   2.835   6.567
    2PC     H4B 8114   0.916   2.778   6.671
    2PC     H4C 8115   0.946   2.879   6.520
    2PC     C35 8116   0.842   2.711   6.356
    2PC     H5A 8117   0.757   2.778   6.370
    2PC     H5B 8118   0.816   2.617   6.307
    2PC     H5C 8119   0.926   2.768   6.316
    2PC     O33 8120   1.153   2.407   6.267
    2PC     O34 8121   1.357   2.497   6.323
    2PC     O21 8122   1.156   2.697   5.809
    2PC     C21 8123   1.182   2.725   5.681
    2PC     O22 8124   1.278   2.686   5.618
    3OL     C12 8125   1.079   2.817   5.620
    3OL     H2R 8126   1.022   2.853   5.706
    3OL     H2S 8127   1.003   2.762   5.564
    3OL     C13 8128   1.139   2.924   5.528
    3OL     H3R 8129   1.179   2.872   5.441
    3OL     H3S 8130   1.217   2.969   5.591
    3OL     C14 8131   1.037   3.021   5.466
    3OL     H4R 8132   0.996   3.089   5.541
    3OL     H4S 8133   0.950   2.970   5.425
    3OL     C15 8134   1.092   3.096   5.343
    3OL     H5R 8135   1.015   3.164   5.305
    3OL     H5S 8136   1.131   3.037   5.260
    3OL     C16 8137   1.215   3.181   5.377
    3OL     H6R 8138   1.302   3.115   5.388
    3OL     H6S 8139   1.200   3.231   5.473
    3OL     C17 8140   1.242   3.280   5.263
    3OL     H7R 8141   1.306   3.361   5.299
    3OL     H7S 8142   1.147   3.326   5.234
    3OL     C18 8143   1.304   3.228   5.133
    3OL     H8R 8144   1.310   3.304   5.055
    3OL     H8S 8145   1.227   3.167   5.085
    3OL     C19 8146   1.439   3.162   5.148
    3OL     H9R 8147   1.439   3.057   5.174
    3OL    C110 8148   1.555   3.210   5.106
    3OL    H10R 8149   1.628   3.132   5.086
    3OL    C111 8150   1.587   3.350   5.059
    3OL    H11R 8151   1.538   3.432   5.111
    3OL    H11S 8152   1.566   3.354   4.952
    3OL    C112 8153   1.737   3.385   5.056
    3OL    H12R 8154   1.801   3.313   5.005
    3OL    H12S 8155   1.765   3.376   5.161
    3OL    C113 8156   1.761   3.528   5.007
    3OL    H13R 8157   1.854   3.555   5.056
    3OL    H13S 8158   1.682   3.589   5.053
    3OL    C114 8159   1.770   3.540   4.855
    3OL    H14R 8160   1.787   3.647   4.837
    3OL    H14S 8161   1.671   3.517   4.814
    3OL    C115 8162   1.878   3.462   4.780
    3OL    H15R 8163   1.883   3.366   4.832
    3OL    H15S 8164   1.971   3.505   4.818
    3OL    C116 8165   1.864   3.455   4.627
    3OL    H16R 8166   1.866   3.556   4.584
    3OL    H16S 8167   1.768   3.409   4.604
    3OL    C117 8168   1.980   3.370   4.574
    3OL    H17R 8169   1.968   3.267   4.608
    3OL    H17S 8170   2.079   3.412   4.593
    3OL    C118 8171   1.975   3.360   4.421
    3OL    H18R 8172   2.046   3.283   4.391
    3OL    H18S 8173   1.994   3.451   4.364
    3OL    H18T 8174   1.875   3.328   4.389
    1PA    C116 8175   3.044   4.356   4.424
    1PA    H16R 8176   3.102   4.382   4.335
    1PA    H16S 8177   3.113   4.370   4.507
    1PA    H16T 8178   2.968   4.431   4.442
    1PA    C115 8179   2.993   4.211   4.426
    1PA    H15R 8180   2.946   4.194   4.523
    1PA    H15S 8181   2.918   4.175   4.355
    1PA    C114 8182   3.114   4.117   4.410
    1PA    H14R 8183   3.080   4.015   4.430
    1PA    H14S 8184   3.153   4.129   4.309
    1PA    C113 8185   3.226   4.132   4.514
    1PA    H13R 8186   3.257   4.236   4.528
    1PA    H13S 8187   3.192   4.093   4.610
    1PA    C112 8188   3.356   4.056   4.483
    1PA    H12R 8189   3.388   4.099   4.388
    1PA    H12S 8190   3.430   4.071   4.562
    1PA    C111 8191   3.340   3.905   4.459
    1PA    H11R 8192   3.264   3.902   4.382
    1PA    H11S 8193   3.430   3.855   4.423
    1PA    C110 8194   3.296   3.842   4.592
    1PA    H10R 8195   3.224   3.903   4.648
    1PA    H10S 8196   3.236   3.755   4.565
    1PA     C19 8197   3.421   3.807   4.673
    1PA     H9R 8198   3.467   3.722   4.624
    1PA     H9S 8199   3.490   3.892   4.675
    1PA     C18 8200   3.380   3.757   4.812
    1PA     H8R 8201   3.324   3.840   4.855
    1PA     H8S 8202   3.316   3.670   4.795
    1PA     C17 8203   3.500   3.723   4.902
    1PA     H7R 8204   3.551   3.634   4.864
    1PA     H7S 8205   3.578   3.800   4.895
    1PA     C16 8206   3.465   3.701   5.050
    1PA     H6R 8207   3.378   3.635   5.060
    1PA     H6S 8208   3.550   3.660   5.105
    1PA     C15 8209   3.432   3.832   5.122
    1PA     H5R 8210   3.482   3.915   5.070
    1PA     H5S 8211   3.328   3.854   5.096
    1PA     C14 8212   3.444   3.822   5.275
    1PA     H4R 8213   3.396   3.734   5.317
    1PA     H4S 8214   3.550   3.813   5.301
    1PA     C13 8215   3.390   3.954   5.331
    1PA     H3R 8216   3.450   4.034   5.289
    1PA     H3S 8217   3.288   3.967   5.296
    1PA     C12 8218   3.387   3.964   5.484
    1PA     H2R 8219   3.344   4.062   5.509
    1PA     H2S 8220   3.331   3.882   5.529
    2PC     C11 8221   3.529   3.961   5.535
    2PC     O12 8222   3.576   3.868   5.596
    2PC     O11 8223   3.591   4.078   5.511
    2PC      C1 8224   3.713   4.101   5.585
    2PC      HR 8225   3.728   4.210   5.580
    2PC      HS 8226   3.690   4.080   5.690
    2PC      C2 8227   3.840   4.033   5.533
    2PC      HX 8228   3.821   3.927   5.515
    2PC      C3 8229   3.955   4.032   5.634
    2PC      HA 8230   3.932   3.966   5.718
    2PC      HB 8231   4.054   4.010   5.592
    2PC     O31 8232   3.975   4.162   5.691
    2PC     P31 8233   4.086   4.174   5.807
    2PC     O32 8234   3.985   4.186   5.931
    2PC     C31 8235   3.945   4.059   5.986
    2PC     H1A 8236   3.925   3.987   5.907
    2PC     H1B 8237   4.026   4.015   6.045
    2PC     C32 8238   3.821   4.083   6.074
    2PC     H2A 8239   3.830   4.184   6.115
    2PC     H2B 8240   3.731   4.082   6.012
    2PC     N31 8241   3.799   3.983   6.183
    2PC     C33 8242   3.790   3.845   6.125
    2PC     H3A 8243   3.770   3.778   6.208
    2PC     H3B 8244   3.720   3.840   6.041
    2PC     H3C 8245   3.888   3.818   6.084
    2PC     C34 8246   3.908   3.993   6.286
    2PC     H4A 8247   3.898   4.086   6.342
    2PC     H4B 8248   3.910   3.901   6.344
    2PC     H4C 8249   4.003   3.992   6.234
    2PC     C35 8250   3.674   4.011   6.261
    2PC     H5A 8251   3.634   3.927   6.319
    2PC     H5B 8252   3.605   4.010   6.176
    2PC     H5C 8253   3.672   4.106   6.314
    2PC     O33 8254   4.191   4.072   5.827
    2PC     O34 8255   4.154   4.306   5.804
    2PC     O21 8256   3.881   4.090   5.407
    2PC     C21 8257   3.916   3.996   5.319
    2PC     O22 8258   3.962   3.885   5.339
    3OL     C12 8259   3.898   4.048   5.179
    3OL     H2R 8260   3.903   3.960   5.115
    3OL     H2S 8261   3.973   4.122   5.148
    3OL     C13 8262   3.753   4.099   5.174
    3OL     H3R 8263   3.750   4.191   5.232
    3OL     H3S 8264   3.684   4.035   5.229
    3OL     C14 8265   3.699   4.119   5.032
    3OL     H4R 8266   3.591   4.132   5.048
    3OL     H4S 8267   3.716   4.030   4.972
    3OL     C15 8268   3.758   4.237   4.953
    3OL     H5R 8269   3.866   4.228   4.938
    3OL     H5S 8270   3.733   4.330   5.004
    3OL     C16 8271   3.679   4.237   4.822
    3OL     H6R 8272   3.576   4.266   4.843
    3OL     H6S 8273   3.677   4.141   4.770
    3OL     C17 8274   3.739   4.343   4.728
    3OL     H7R 8275   3.848   4.342   4.737
    3OL     H7S 8276   3.710   4.445   4.758
    3OL     C18 8277   3.697   4.311   4.584
    3OL     H8R 8278   3.589   4.308   4.569
    3OL     H8S 8279   3.760   4.228   4.552
    3OL     C19 8280   3.745   4.424   4.496
    3OL     H9R 8281   3.717   4.519   4.541
    3OL    C110 8282   3.824   4.413   4.390
    3OL    H10R 8283   3.851   4.509   4.346
    3OL    C111 8284   3.878   4.290   4.322
    3OL    H11R 8285   3.847   4.305   4.219
    3OL    H11S 8286   3.821   4.203   4.356
    3OL    C112 8287   4.030   4.279   4.341
    3OL    H12R 8288   4.080   4.375   4.346
    3OL    H12S 8289   4.079   4.227   4.259
    3OL    C113 8290   4.058   4.203   4.472
    3OL    H13R 8291   4.000   4.111   4.483
    3OL    H13S 8292   4.034   4.280   4.546
    3OL    C114 8293   4.203   4.158   4.487
    3OL    H14R 8294   4.274   4.219   4.430
    3OL    H14S 8295   4.206   4.052   4.462
    3OL    C115 8296   4.232   4.180   4.636
    3OL    H15R 8297   4.143   4.162   4.696
    3OL    H15S 8298   4.263   4.285   4.643
    3OL    C116 8299   4.346   4.107   4.709
    3OL    H16R 8300   4.438   4.126   4.653
    3OL    H16S 8301   4.322   4.001   4.714
    3OL    C117 8302   4.355   4.154   4.855
    3OL    H17R 8303   4.263   4.133   4.909
    3OL    H17S 8304   4.361   4.263   4.850
    3OL    C118 8305   4.468   4.099   4.943
    3OL    H18R 8306   4.452   4.135   5.045
    3OL    H18S 8307   4.564   4.137   4.909
    3OL    H18T 8308   4.476   3.991   4.932
    1PA    C116 8309   1.820   4.990   3.987
    1PA    H16R 8310   1.782   4.896   4.027
    1PA    H16S 8311   1.862   4.967   3.888
    1PA    H16T 8312   1.727   5.047   3.980
    1PA    C115 8313   1.923   5.065   4.072
    1PA    H15R 8314   2.022   5.029   4.043
    1PA    H15S 8315   1.910   5.171   4.052
    1PA    C114 8316   1.913   5.034   4.222
    1PA    H14R 8317   1.826   5.095   4.249
    1PA    H14S 8318   1.890   4.928   4.236
    1PA    C113 8319   2.040   5.062   4.303
    1PA    H13R 8320   2.121   5.016   4.246
    1PA    H13S 8321   2.049   5.166   4.335
    1PA    C112 8322   2.022   4.983   4.433
    1PA    H12R 8323   1.946   5.040   4.486
    1PA    H12S 8324   1.981   4.882   4.419
    1PA    C111 8325   2.146   4.981   4.523
    1PA    H11R 8326   2.195   5.077   4.504
    1PA    H11S 8327   2.128   4.979   4.630
    1PA    C110 8328   2.245   4.871   4.482
    1PA    H10R 8329   2.187   4.781   4.463
    1PA    H10S 8330   2.283   4.900   4.384
    1PA     C19 8331   2.355   4.836   4.583
    1PA     H9R 8332   2.433   4.774   4.539
    1PA     H9S 8333   2.397   4.930   4.621
    1PA     C18 8334   2.301   4.763   4.707
    1PA     H8R 8335   2.217   4.818   4.750
    1PA     H8S 8336   2.271   4.665   4.670
    1PA     C17 8337   2.406   4.748   4.818
    1PA     H7R 8338   2.492   4.696   4.775
    1PA     H7S 8339   2.444   4.846   4.846
    1PA     C16 8340   2.343   4.672   4.935
    1PA     H6R 8341   2.261   4.737   4.968
    1PA     H6S 8342   2.297   4.580   4.900
    1PA     C15 8343   2.445   4.653   5.048
    1PA     H5R 8344   2.528   4.588   5.019
    1PA     H5S 8345   2.490   4.741   5.093
    1PA     C14 8346   2.371   4.575   5.159
    1PA     H4R 8347   2.297   4.639   5.209
    1PA     H4S 8348   2.318   4.486   5.125
    1PA     C13 8349   2.467   4.544   5.274
    1PA     H3R 8350   2.555   4.493   5.234
    1PA     H3S 8351   2.501   4.637   5.319
    1PA     C12 8352   2.394   4.462   5.381
    1PA     H2R 8353   2.313   4.522   5.423
    1PA     H2S 8354   2.355   4.374   5.331
    2PC     C11 8355   2.486   4.421   5.493
    2PC     O12 8356   2.597   4.467   5.515
    2PC     O11 8357   2.431   4.325   5.569
    2PC      C1 8358   2.508   4.262   5.672
    2PC      HR 8359   2.617   4.261   5.659
    2PC      HS 8360   2.480   4.320   5.761
    2PC      C2 8361   2.455   4.120   5.695
    2PC      HX 8362   2.349   4.102   5.674
    2PC      C3 8363   2.476   4.085   5.843
    2PC      HA 8364   2.404   4.145   5.900
    2PC      HB 8365   2.450   3.979   5.857
    2PC     O31 8366   2.610   4.120   5.880
    2PC     P31 8367   2.650   4.114   6.035
    2PC     O32 8368   2.719   3.970   6.032
    2PC     C31 8369   2.753   3.912   6.159
    2PC     H1A 8370   2.825   3.964   6.223
    2PC     H1B 8371   2.659   3.899   6.213
    2PC     C32 8372   2.807   3.770   6.139
    2PC     H2A 8373   2.738   3.714   6.075
    2PC     H2B 8374   2.909   3.781   6.102
    2PC     N31 8375   2.825   3.676   6.254
    2PC     C33 8376   2.700   3.635   6.325
    2PC     H3A 8377   2.631   3.605   6.246
    2PC     H3B 8378   2.723   3.549   6.388
    2PC     H3C 8379   2.663   3.718   6.386
    2PC     C34 8380   2.887   3.548   6.208
    2PC     H4A 8381   2.969   3.554   6.136
    2PC     H4B 8382   2.917   3.497   6.300
    2PC     H4C 8383   2.807   3.489   6.164
    2PC     C35 8384   2.924   3.749   6.341
    2PC     H5A 8385   2.946   3.686   6.427
    2PC     H5B 8386   2.878   3.844   6.367
    2PC     H5C 8387   3.012   3.764   6.279
    2PC     O33 8388   2.740   4.227   6.070
    2PC     O34 8389   2.535   4.128   6.127
    2PC     O21 8390   2.538   4.033   5.615
    2PC     C21 8391   2.530   3.899   5.608
    2PC     O22 8392   2.459   3.827   5.674
    3OL     C12 8393   2.605   3.847   5.488
    3OL     H2R 8394   2.534   3.785   5.432
    3OL     H2S 8395   2.675   3.770   5.522
    3OL     C13 8396   2.677   3.952   5.403
    3OL     H3R 8397   2.764   3.894   5.371
    3OL     H3S 8398   2.715   4.040   5.455
    3OL     C14 8399   2.593   3.980   5.277
    3OL     H4R 8400   2.581   3.880   5.234
    3OL     H4S 8401   2.663   4.031   5.210
    3OL     C15 8402   2.470   4.067   5.304
    3OL     H5R 8403   2.498   4.167   5.337
    3OL     H5S 8404   2.415   4.017   5.384
    3OL     C16 8405   2.383   4.075   5.178
    3OL     H6R 8406   2.447   4.097   5.092
    3OL     H6S 8407   2.318   4.162   5.189
    3OL     C17 8408   2.310   3.944   5.146
    3OL     H7R 8409   2.243   3.930   5.231
    3OL     H7S 8410   2.380   3.861   5.136
    3OL     C18 8411   2.217   3.959   5.024
    3OL     H8R 8412   2.278   3.998   4.942
    3OL     H8S 8413   2.133   4.028   5.033
    3OL     C19 8414   2.169   3.823   4.983
    3OL     H9R 8415   2.143   3.765   5.071
    3OL    C110 8416   2.165   3.777   4.858
    3OL    H10R 8417   2.124   3.677   4.845
    3OL    C111 8418   2.220   3.850   4.738
    3OL    H11R 8419   2.329   3.856   4.747
    3OL    H11S 8420   2.170   3.944   4.717
    3OL    C112 8421   2.186   3.754   4.623
    3OL    H12R 8422   2.079   3.755   4.603
    3OL    H12S 8423   2.211   3.651   4.652
    3OL    C113 8424   2.262   3.787   4.494
    3OL    H13R 8425   2.371   3.788   4.508
    3OL    H13S 8426   2.226   3.882   4.456
    3OL    C114 8427   2.221   3.689   4.384
    3OL    H14R 8428   2.113   3.692   4.371
    3OL    H14S 8429   2.238   3.587   4.418
    3OL    C115 8430   2.288   3.719   4.249
    3OL    H15R 8431   2.396   3.702   4.253
    3OL    H15S 8432   2.272   3.824   4.223
    3OL    C116 8433   2.228   3.622   4.146
    3OL    H16R 8434   2.120   3.628   4.133
    3OL    H16S 8435   2.250   3.518   4.171
    3OL    C117 8436   2.287   3.645   4.006
    3OL    H17R 8437   2.395   3.628   4.008
    3OL    H17S 8438   2.255   3.745   3.975
    3OL    C118 8439   2.237   3.544   3.901
    3OL    H18R 8440   2.130   3.548   3.880
    3OL    H18S 8441   2.265   3.441   3.923
    3OL    H18T 8442   2.276   3.565   3.801
    1PA    C116 8443   2.924   2.786   4.175
    1PA    H16R 8444   2.935   2.684   4.139
    1PA    H16S 8445   2.960   2.858   4.101
    1PA    H16T 8446   2.818   2.812   4.181
    1PA    C115 8447   2.977   2.808   4.318
    1PA    H15R 8448   2.910   2.754   4.385
    1PA    H15S 8449   3.076   2.763   4.318
    1PA    C114 8450   2.972   2.956   4.358
    1PA    H14R 8451   3.041   3.023   4.306
    1PA    H14S 8452   2.868   2.977   4.331
    1PA    C113 8453   2.993   2.977   4.509
    1PA    H13R 8454   2.922   2.914   4.563
    1PA    H13S 8455   3.093   2.951   4.545
    1PA    C112 8456   2.967   3.120   4.555
    1PA    H12R 8457   3.038   3.185   4.504
    1PA    H12S 8458   2.863   3.142   4.531
    1PA    C111 8459   2.983   3.134   4.707
    1PA    H11R 8460   2.902   3.080   4.757
    1PA    H11S 8461   3.075   3.092   4.747
    1PA    C110 8462   2.982   3.282   4.747
    1PA    H10R 8463   3.060   3.330   4.686
    1PA    H10S 8464   2.886   3.327   4.722
    1PA     C19 8465   3.019   3.303   4.894
    1PA     H9R 8466   2.953   3.242   4.956
    1PA     H9S 8467   3.120   3.269   4.917
    1PA     C18 8468   3.000   3.450   4.935
    1PA     H8R 8469   3.068   3.515   4.879
    1PA     H8S 8470   2.898   3.480   4.913
    1PA     C17 8471   3.025   3.468   5.085
    1PA     H7R 8472   2.957   3.413   5.151
    1PA     H7S 8473   3.127   3.436   5.107
    1PA     C16 8474   3.020   3.617   5.121
    1PA     H6R 8475   3.077   3.672   5.046
    1PA     H6S 8476   2.917   3.655   5.129
    1PA     C15 8477   3.086   3.637   5.258
    1PA     H5R 8478   3.184   3.589   5.266
    1PA     H5S 8479   3.090   3.746   5.269
    1PA     C14 8480   3.000   3.586   5.373
    1PA     H4R 8481   2.892   3.604   5.374
    1PA     H4S 8482   3.022   3.480   5.390
    1PA     C13 8483   3.051   3.645   5.505
    1PA     H3R 8484   2.999   3.593   5.586
    1PA     H3S 8485   3.159   3.632   5.507
    1PA     C12 8486   3.025   3.796   5.513
    1PA     H2R 8487   3.098   3.849   5.452
    1PA     H2S 8488   2.926   3.832   5.481
    2PC     C11 8489   3.052   3.853   5.650
    2PC     O12 8490   3.134   3.807   5.726
    2PC     O11 8491   2.960   3.944   5.688
    2PC      C1 8492   2.946   3.993   5.823
    2PC      HR 8493   2.856   4.055   5.826
    2PC      HS 8494   2.936   3.909   5.892
    2PC      C2 8495   3.062   4.085   5.861
    2PC      HX 8496   3.159   4.047   5.826
    2PC      C3 8497   3.060   4.118   6.011
    2PC      HA 8498   2.995   4.201   6.039
    2PC      HB 8499   3.027   4.033   6.071
    2PC     O31 8500   3.195   4.158   6.040
    2PC     P31 8501   3.237   4.222   6.181
    2PC     O32 8502   3.277   4.371   6.137
    2PC     C31 8503   3.196   4.446   6.045
    2PC     H1A 8504   3.134   4.381   5.983
    2PC     H1B 8505   3.128   4.509   6.102
    2PC     C32 8506   3.283   4.525   5.946
    2PC     H2A 8507   3.376   4.472   5.925
    2PC     H2B 8508   3.223   4.538   5.856
    2PC     N31 8509   3.330   4.665   5.974
    2PC     C33 8510   3.425   4.693   5.862
    2PC     H3A 8511   3.474   4.603   5.822
    2PC     H3B 8512   3.379   4.760   5.789
    2PC     H3C 8513   3.511   4.744   5.905
    2PC     C34 8514   3.216   4.763   5.967
    2PC     H4A 8515   3.198   4.792   5.863
    2PC     H4B 8516   3.124   4.718   6.002
    2PC     H4C 8517   3.240   4.857   6.018
    2PC     C35 8518   3.412   4.655   6.098
    2PC     H5A 8519   3.453   4.755   6.114
    2PC     H5B 8520   3.490   4.579   6.096
    2PC     H5C 8521   3.338   4.627   6.173
    2PC     O33 8522   3.137   4.237   6.289
    2PC     O34 8523   3.343   4.138   6.242
    2PC     O21 8524   3.037   4.203   5.782
    2PC     C21 8525   3.131   4.288   5.738
    2PC     O22 8526   3.246   4.292   5.777
    3OL     C12 8527   3.084   4.401   5.650
    3OL     H2R 8528   3.161   4.478   5.656
    3OL     H2S 8529   2.990   4.449   5.680
    3OL     C13 8530   3.057   4.366   5.503
    3OL     H3R 8531   3.140   4.298   5.479
    3OL     H3S 8532   3.068   4.454   5.440
    3OL     C14 8533   2.926   4.290   5.480
    3OL     H4R 8534   2.846   4.355   5.516
    3OL     H4S 8535   2.928   4.194   5.532
    3OL     C15 8536   2.894   4.265   5.332
    3OL     H5R 8537   2.923   4.348   5.268
    3OL     H5S 8538   2.789   4.245   5.312
    3OL     C16 8539   2.974   4.146   5.276
    3OL     H6R 8540   2.933   4.054   5.319
    3OL     H6S 8541   3.082   4.137   5.294
    3OL     C17 8542   2.952   4.126   5.126
    3OL     H7R 8543   2.966   4.225   5.082
    3OL     H7S 8544   2.846   4.111   5.103
    3OL     C18 8545   3.028   4.013   5.056
    3OL     H8R 8546   2.995   3.921   5.105
    3OL     H8S 8547   3.136   4.023   5.065
    3OL     C19 8548   3.003   4.005   4.907
    3OL     H9R 8549   3.073   4.059   4.845
    3OL    C110 8550   2.896   3.955   4.846
    3OL    H10R 8551   2.891   3.968   4.738
    3OL    C111 8552   2.785   3.879   4.913
    3OL    H11R 8553   2.701   3.948   4.899
    3OL    H11S 8554   2.803   3.864   5.020
    3OL    C112 8555   2.750   3.747   4.844
    3OL    H12R 8556   2.839   3.684   4.840
    3OL    H12S 8557   2.712   3.767   4.744
    3OL    C113 8558   2.638   3.675   4.920
    3OL    H13R 8559   2.557   3.746   4.940
    3OL    H13S 8560   2.667   3.629   5.015
    3OL    C114 8561   2.583   3.556   4.839
    3OL    H14R 8562   2.673   3.495   4.827
    3OL    H14S 8563   2.549   3.585   4.740
    3OL    C115 8564   2.468   3.473   4.897
    3OL    H15R 8565   2.368   3.516   4.907
    3OL    H15S 8566   2.490   3.429   4.995
    3OL    C116 8567   2.444   3.347   4.813
    3OL    H16R 8568   2.416   3.266   4.880
    3OL    H16S 8569   2.540   3.325   4.767
    3OL    C117 8570   2.346   3.360   4.695
    3OL    H17R 8571   2.384   3.426   4.616
    3OL    H17S 8572   2.253   3.404   4.731
    3OL    C118 8573   2.323   3.218   4.643
    3OL    H18R 8574   2.263   3.211   4.552
    3OL    H18S 8575   2.285   3.153   4.722
    3OL    H18T 8576   2.427   3.189   4.623
    1PA    C116 8577   5.945   0.725   3.859
    1PA    H16R 8578   6.009   0.693   3.942
    1PA    H16S 8579   5.915   0.825   3.891
    1PA    H16T 8580   6.014   0.722   3.774
    1PA    C115 8581   5.828   0.628   3.839
    1PA    H15R 8582   5.872   0.529   3.843
    1PA    H15S 8583   5.759   0.631   3.923
    1PA    C114 8584   5.752   0.667   3.711
    1PA    H14R 8585   5.720   0.771   3.715
    1PA    H14S 8586   5.814   0.655   3.622
    1PA    C113 8587   5.632   0.572   3.691
    1PA    H13R 8588   5.678   0.477   3.667
    1PA    H13S 8589   5.569   0.567   3.780
    1PA    C112 8590   5.542   0.614   3.574
    1PA    H12R 8591   5.490   0.702   3.612
    1PA    H12S 8592   5.594   0.654   3.486
    1PA    C111 8593   5.429   0.517   3.540
    1PA    H11R 8594   5.481   0.436   3.489
    1PA    H11S 8595   5.371   0.478   3.623
    1PA    C110 8596   5.337   0.584   3.436
    1PA    H10R 8597   5.283   0.665   3.486
    1PA    H10S 8598   5.392   0.627   3.351
    1PA     C19 8599   5.241   0.478   3.381
    1PA     H9R 8600   5.277   0.421   3.295
    1PA     H9S 8601   5.228   0.403   3.459
    1PA     C18 8602   5.104   0.540   3.348
    1PA     H8R 8603   5.058   0.603   3.425
    1PA     H8S 8604   5.106   0.598   3.256
    1PA     C17 8605   4.996   0.434   3.321
    1PA     H7R 8606   5.038   0.385   3.232
    1PA     H7S 8607   5.005   0.357   3.398
    1PA     C16 8608   4.852   0.485   3.306
    1PA     H6R 8609   4.773   0.417   3.337
    1PA     H6S 8610   4.830   0.576   3.362
    1PA     C15 8611   4.839   0.530   3.160
    1PA     H5R 8612   4.910   0.602   3.119
    1PA     H5S 8613   4.840   0.438   3.101
    1PA     C14 8614   4.702   0.596   3.140
    1PA     H4R 8615   4.621   0.540   3.189
    1PA     H4S 8616   4.695   0.687   3.200
    1PA     C13 8617   4.658   0.625   2.996
    1PA     H3R 8618   4.739   0.661   2.932
    1PA     H3S 8619   4.614   0.533   2.956
    1PA     C12 8620   4.553   0.736   2.995
    1PA     H2R 8621   4.456   0.721   3.043
    1PA     H2S 8622   4.587   0.826   3.046
    2PC     C11 8623   4.493   0.754   2.858
    2PC     O12 8624   4.530   0.845   2.787
    2PC     O11 8625   4.403   0.662   2.818
    2PC      C1 8626   4.356   0.657   2.682
    2PC      HR 8627   4.255   0.617   2.688
    2PC      HS 8628   4.350   0.759   2.643
    2PC      C2 8629   4.441   0.562   2.596
    2PC      HX 8630   4.543   0.600   2.586
    2PC      C3 8631   4.381   0.543   2.457
    2PC      HA 8632   4.361   0.642   2.413
    2PC      HB 8633   4.286   0.488   2.457
    2PC     O31 8634   4.474   0.485   2.363
    2PC     P31 8635   4.468   0.496   2.204
    2PC     O32 8636   4.523   0.646   2.195
    2PC     C31 8637   4.434   0.744   2.139
    2PC     H1A 8638   4.376   0.704   2.056
    2PC     H1B 8639   4.370   0.783   2.218
    2PC     C32 8640   4.526   0.860   2.098
    2PC     H2A 8641   4.471   0.954   2.086
    2PC     H2B 8642   4.596   0.878   2.179
    2PC     N31 8643   4.608   0.847   1.974
    2PC     C33 8644   4.707   0.958   1.959
    2PC     H3A 8645   4.762   0.962   1.865
    2PC     H3B 8646   4.641   1.045   1.961
    2PC     H3C 8647   4.774   0.965   2.045
    2PC     C34 8648   4.696   0.726   1.983
    2PC     H4A 8649   4.627   0.642   1.984
    2PC     H4B 8650   4.774   0.710   1.907
    2PC     H4C 8651   4.748   0.725   2.079
    2PC     C35 8652   4.521   0.824   1.853
    2PC     H5A 8653   4.573   0.816   1.758
    2PC     H5B 8654   4.444   0.901   1.844
    2PC     H5C 8655   4.472   0.730   1.876
    2PC     O33 8656   4.559   0.401   2.135
    2PC     O34 8657   4.330   0.462   2.161
    2PC     O21 8658   4.431   0.431   2.655
    2PC     C21 8659   4.538   0.383   2.722
    2PC     O22 8660   4.648   0.434   2.729
    3OL     C12 8661   4.515   0.251   2.791
    3OL     H2R 8662   4.587   0.181   2.749
    3OL     H2S 8663   4.417   0.215   2.761
    3OL     C13 8664   4.520   0.271   2.944
    3OL     H3R 8665   4.455   0.357   2.961
    3OL     H3S 8666   4.624   0.297   2.964
    3OL     C14 8667   4.470   0.150   3.023
    3OL     H4R 8668   4.545   0.072   3.008
    3OL     H4S 8669   4.380   0.111   2.973
    3OL     C15 8670   4.464   0.177   3.173
    3OL     H5R 8671   4.383   0.245   3.201
    3OL     H5S 8672   4.556   0.221   3.212
    3OL     C16 8673   4.425   0.049   3.249
    3OL     H6R 8674   4.506  -0.023   3.236
    3OL     H6S 8675   4.338  -0.003   3.211
    3OL     C17 8676   4.408   0.082   3.398
    3OL     H7R 8677   4.331   0.159   3.404
    3OL     H7S 8678   4.498   0.133   3.432
    3OL     C18 8679   4.379  -0.042   3.484
    3OL     H8R 8680   4.445  -0.126   3.462
    3OL     H8S 8681   4.274  -0.073   3.476
    3OL     C19 8682   4.408  -0.011   3.628
    3OL     H9R 8683   4.319   0.004   3.688
    3OL    C110 8684   4.525  -0.022   3.689
    3OL    H10R 8685   4.519  -0.008   3.797
    3OL    C111 8686   4.667  -0.012   3.640
    3OL    H11R 8687   4.665  -0.030   3.532
    3OL    H11S 8688   4.735  -0.092   3.670
    3OL    C112 8689   4.724   0.130   3.660
    3OL    H12R 8690   4.715   0.148   3.767
    3OL    H12S 8691   4.664   0.203   3.606
    3OL    C113 8692   4.874   0.131   3.627
    3OL    H13R 8693   4.893   0.151   3.521
    3OL    H13S 8694   4.911   0.033   3.656
    3OL    C114 8695   4.942   0.248   3.700
    3OL    H14R 8696   5.036   0.259   3.646
    3OL    H14S 8697   4.967   0.240   3.806
    3OL    C115 8698   4.875   0.385   3.680
    3OL    H15R 8699   4.784   0.393   3.739
    3OL    H15S 8700   4.850   0.389   3.573
    3OL    C116 8701   4.974   0.494   3.723
    3OL    H16R 8702   5.071   0.485   3.672
    3OL    H16S 8703   4.990   0.484   3.830
    3OL    C117 8704   4.911   0.633   3.703
    3OL    H17R 8705   4.824   0.640   3.769
    3OL    H17S 8706   4.865   0.646   3.605
    3OL    C118 8707   5.003   0.753   3.724
    3OL    H18R 8708   5.091   0.751   3.658
    3OL    H18S 8709   5.051   0.758   3.822
    3OL    H18T 8710   4.952   0.847   3.701
    1PA    C116 8711   6.315   0.116   4.137
    1PA    H16R 8712   6.221   0.154   4.176
    1PA    H16S 8713   6.388   0.190   4.104
    1PA    H16T 8714   6.360   0.046   4.207
    1PA    C115 8715   6.275   0.033   4.014
    1PA    H15R 8716   6.364  -0.023   3.984
    1PA    H15S 8717   6.208  -0.049   4.038
    1PA    C114 8718   6.201   0.115   3.908
    1PA    H14R 8719   6.100   0.139   3.944
    1PA    H14S 8720   6.257   0.204   3.881
    1PA    C113 8721   6.186   0.034   3.778
    1PA    H13R 8722   6.284  -0.009   3.756
    1PA    H13S 8723   6.132  -0.061   3.778
    1PA    C112 8724   6.147   0.115   3.654
    1PA    H12R 8725   6.208   0.205   3.663
    1PA    H12S 8726   6.176   0.059   3.565
    1PA    C111 8727   5.998   0.151   3.645
    1PA    H11R 8728   5.938   0.061   3.658
    1PA    H11S 8729   5.975   0.225   3.722
    1PA    C110 8730   5.956   0.213   3.511
    1PA    H10R 8731   6.006   0.310   3.507
    1PA    H10S 8732   5.994   0.164   3.421
    1PA     C19 8733   5.802   0.217   3.505
    1PA     H9R 8734   5.782   0.110   3.501
    1PA     H9S 8735   5.755   0.265   3.591
    1PA     C18 8736   5.746   0.286   3.380
    1PA     H8R 8737   5.654   0.337   3.408
    1PA     H8S 8738   5.817   0.357   3.336
    1PA     C17 8739   5.716   0.183   3.270
    1PA     H7R 8740   5.816   0.156   3.234
    1PA     H7S 8741   5.670   0.090   3.303
    1PA     C16 8742   5.632   0.252   3.162
    1PA     H6R 8743   5.537   0.281   3.205
    1PA     H6S 8744   5.686   0.336   3.117
    1PA     C15 8745   5.603   0.151   3.050
    1PA     H5R 8746   5.694   0.101   3.016
    1PA     H5S 8747   5.531   0.072   3.070
    1PA     C14 8748   5.547   0.228   2.931
    1PA     H4R 8749   5.468   0.295   2.965
    1PA     H4S 8750   5.627   0.283   2.881
    1PA     C13 8751   5.485   0.133   2.827
    1PA     H3R 8752   5.410   0.075   2.881
    1PA     H3S 8753   5.427   0.188   2.753
    1PA     C12 8754   5.596   0.046   2.764
    1PA     H2R 8755   5.645   0.119   2.700
    1PA     H2S 8756   5.660   0.000   2.839
    2PC     C11 8757   5.548  -0.060   2.668
    2PC     O12 8758   5.433  -0.098   2.657
    2PC     O11 8759   5.652  -0.091   2.589
    2PC      C1 8760   5.633  -0.190   2.486
    2PC      HR 8761   5.724  -0.250   2.475
    2PC      HS 8762   5.558  -0.261   2.520
    2PC      C2 8763   5.607  -0.125   2.349
    2PC      HX 8764   5.530  -0.048   2.356
    2PC      C3 8765   5.576  -0.225   2.237
    2PC      HA 8766   5.657  -0.298   2.226
    2PC      HB 8767   5.485  -0.282   2.257
    2PC     O31 8768   5.558  -0.142   2.121
    2PC     P31 8769   5.591  -0.214   1.982
    2PC     O32 8770   5.473  -0.169   1.882
    2PC     C31 8771   5.495  -0.055   1.798
    2PC     H1A 8772   5.404   0.002   1.777
    2PC     H1B 8773   5.566   0.019   1.835
    2PC     C32 8774   5.530  -0.110   1.659
    2PC     H2A 8775   5.597  -0.196   1.663
    2PC     H2B 8776   5.444  -0.137   1.598
    2PC     N31 8777   5.607  -0.018   1.569
    2PC     C33 8778   5.727   0.048   1.631
    2PC     H3A 8779   5.814  -0.012   1.659
    2PC     H3B 8780   5.770   0.098   1.544
    2PC     H3C 8781   5.703   0.128   1.701
    2PC     C34 8782   5.641  -0.094   1.444
    2PC     H4A 8783   5.654  -0.021   1.364
    2PC     H4B 8784   5.727  -0.161   1.455
    2PC     H4C 8785   5.558  -0.158   1.414
    2PC     C35 8786   5.511   0.086   1.519
    2PC     H5A 8787   5.473   0.144   1.604
    2PC     H5B 8788   5.421   0.046   1.472
    2PC     H5C 8789   5.564   0.153   1.452
    2PC     O33 8790   5.734  -0.196   1.947
    2PC     O34 8791   5.573  -0.361   1.983
    2PC     O21 8792   5.732  -0.062   2.317
    2PC     C21 8793   5.767   0.058   2.368
    2PC     O22 8794   5.691   0.142   2.412
    3OL     C12 8795   5.916   0.083   2.366
    3OL     H2R 8796   5.930   0.191   2.377
    3OL     H2S 8797   5.955   0.050   2.270
    3OL     C13 8798   5.982  -0.014   2.465
    3OL     H3R 8799   6.089  -0.016   2.443
    3OL     H3S 8800   5.937  -0.113   2.461
    3OL     C14 8801   5.958   0.027   2.611
    3OL     H4R 8802   6.005  -0.043   2.680
    3OL     H4S 8803   5.852   0.035   2.635
    3OL     C15 8804   5.998   0.173   2.638
    3OL     H5R 8805   5.930   0.244   2.590
    3OL     H5S 8806   6.096   0.193   2.593
    3OL     C16 8807   5.991   0.190   2.790
    3OL     H6R 8808   6.027   0.103   2.846
    3OL     H6S 8809   5.883   0.199   2.808
    3OL     C17 8810   6.054   0.328   2.816
    3OL     H7R 8811   6.028   0.391   2.730
    3OL     H7S 8812   6.162   0.314   2.823
    3OL     C18 8813   5.992   0.407   2.931
    3OL     H8R 8814   5.897   0.449   2.897
    3OL     H8S 8815   6.049   0.498   2.953
    3OL     C19 8816   5.977   0.332   3.061
    3OL     H9R 8817   5.887   0.272   3.058
    3OL    C110 8818   6.044   0.345   3.174
    3OL    H10R 8819   6.023   0.295   3.268
    3OL    C111 8820   6.156   0.444   3.196
    3OL    H11R 8821   6.125   0.548   3.183
    3OL    H11S 8822   6.223   0.428   3.111
    3OL    C112 8823   6.224   0.432   3.333
    3OL    H12R 8824   6.268   0.332   3.338
    3OL    H12S 8825   6.146   0.439   3.409
    3OL    C113 8826   6.341   0.531   3.345
    3OL    H13R 8827   6.301   0.632   3.343
    3OL    H13S 8828   6.413   0.519   3.264
    3OL    C114 8829   6.422   0.503   3.473
    3OL    H14R 8830   6.509   0.568   3.475
    3OL    H14S 8831   6.453   0.398   3.471
    3OL    C115 8832   6.339   0.522   3.601
    3OL    H15R 8833   6.246   0.465   3.595
    3OL    H15S 8834   6.319   0.627   3.621
    3OL    C116 8835   6.422   0.484   3.724
    3OL    H16R 8836   6.509   0.549   3.733
    3OL    H16S 8837   6.456   0.380   3.714
    3OL    C117 8838   6.343   0.490   3.855
    3OL    H17R 8839   6.257   0.422   3.851
    3OL    H17S 8840   6.286   0.583   3.860
    3OL    C118 8841   6.428   0.459   3.979
    3OL    H18R 8842   6.512   0.526   3.999
    3OL    H18S 8843   6.466   0.357   3.979
    3OL    H18T 8844   6.359   0.468   4.063
    1PA    C116 8845  -0.254   2.018   3.922
    1PA    H16R 8846  -0.145   2.029   3.929
    1PA    H16S 8847  -0.285   1.997   3.820
    1PA    H16T 8848  -0.290   1.932   3.979
    1PA    C115 8849  -0.320   2.146   3.975
    1PA    H15R 8850  -0.426   2.121   3.979
    1PA    H15S 8851  -0.294   2.176   4.076
    1PA    C114 8852  -0.299   2.266   3.881
    1PA    H14R 8853  -0.350   2.240   3.788
    1PA    H14S 8854  -0.340   2.357   3.924
    1PA    C113 8855  -0.150   2.304   3.868
    1PA    H13R 8856  -0.111   2.336   3.965
    1PA    H13S 8857  -0.076   2.225   3.855
    1PA    C112 8858  -0.133   2.403   3.752
    1PA    H12R 8859  -0.196   2.490   3.768
    1PA    H12S 8860  -0.031   2.441   3.765
    1PA    C111 8861  -0.153   2.342   3.613
    1PA    H11R 8862  -0.257   2.312   3.599
    1PA    H11S 8863  -0.136   2.419   3.537
    1PA    C110 8864  -0.052   2.237   3.565
    1PA    H10R 8865   0.045   2.277   3.595
    1PA    H10S 8866  -0.075   2.147   3.622
    1PA     C19 8867  -0.051   2.206   3.414
    1PA     H9R 8868  -0.150   2.173   3.384
    1PA     H9S 8869  -0.037   2.296   3.354
    1PA     C18 8870   0.060   2.105   3.382
    1PA     H8R 8871   0.151   2.129   3.437
    1PA     H8S 8872   0.030   2.009   3.422
    1PA     C17 8873   0.085   2.097   3.230
    1PA     H7R 8874  -0.007   2.077   3.176
    1PA     H7S 8875   0.135   2.188   3.195
    1PA     C16 8876   0.186   1.988   3.192
    1PA     H6R 8877   0.266   1.980   3.266
    1PA     H6S 8878   0.130   1.895   3.202
    1PA     C15 8879   0.245   1.997   3.050
    1PA     H5R 8880   0.168   1.957   2.984
    1PA     H5S 8881   0.278   2.098   3.027
    1PA     C14 8882   0.365   1.901   3.051
    1PA     H4R 8883   0.431   1.953   3.121
    1PA     H4S 8884   0.343   1.800   3.086
    1PA     C13 8885   0.423   1.895   2.909
    1PA     H3R 8886   0.339   1.865   2.846
    1PA     H3S 8887   0.463   1.992   2.879
    1PA     C12 8888   0.540   1.800   2.883
    1PA     H2R 8889   0.625   1.851   2.929
    1PA     H2S 8890   0.524   1.703   2.932
    2PC     C11 8891   0.553   1.770   2.736
    2PC     O12 8892   0.486   1.817   2.646
    2PC     O11 8893   0.664   1.703   2.703
    2PC      C1 8894   0.676   1.654   2.568
    2PC      HR 8895   0.597   1.581   2.548
    2PC      HS 8896   0.686   1.738   2.499
    2PC      C2 8897   0.799   1.565   2.548
    2PC      HX 8898   0.894   1.618   2.559
    2PC      C3 8899   0.785   1.510   2.405
    2PC      HA 8900   0.697   1.447   2.392
    2PC      HB 8901   0.771   1.593   2.336
    2PC     O31 8902   0.913   1.451   2.372
    2PC     P31 8903   0.946   1.407   2.222
    2PC     O32 8904   1.036   1.523   2.159
    2PC     C31 8905   0.978   1.651   2.128
    2PC     H1A 8906   0.906   1.654   2.046
    2PC     H1B 8907   0.930   1.684   2.220
    2PC     C32 8908   1.094   1.746   2.096
    2PC     H2A 8909   1.138   1.705   2.005
    2PC     H2B 8910   1.058   1.847   2.076
    2PC     N31 8911   1.209   1.763   2.191
    2PC     C33 8912   1.166   1.777   2.334
    2PC     H3A 8913   1.083   1.847   2.329
    2PC     H3B 8914   1.140   1.680   2.376
    2PC     H3C 8915   1.249   1.816   2.393
    2PC     C34 8916   1.301   1.645   2.196
    2PC     H4A 8917   1.347   1.617   2.102
    2PC     H4B 8918   1.376   1.669   2.272
    2PC     H4C 8919   1.246   1.559   2.234
    2PC     C35 8920   1.281   1.885   2.140
    2PC     H5A 8921   1.222   1.976   2.151
    2PC     H5B 8922   1.307   1.875   2.034
    2PC     H5C 8923   1.373   1.885   2.200
    2PC     O33 8924   1.024   1.281   2.225
    2PC     O34 8925   0.818   1.385   2.152
    2PC     O21 8926   0.787   1.453   2.638
    2PC     C21 8927   0.902   1.415   2.696
    2PC     O22 8928   1.010   1.465   2.675
    3OL     C12 8929   0.890   1.300   2.792
    3OL     H2R 8930   0.966   1.227   2.764
    3OL     H2S 8931   0.784   1.273   2.788
    3OL     C13 8932   0.917   1.361   2.930
    3OL     H3R 8933   1.010   1.418   2.931
    3OL     H3S 8934   0.931   1.284   3.006
    3OL     C14 8935   0.801   1.452   2.976
    3OL     H4R 8936   0.709   1.393   2.972
    3OL     H4S 8937   0.792   1.535   2.907
    3OL     C15 8938   0.823   1.502   3.120
    3OL     H5R 8939   0.909   1.568   3.124
    3OL     H5S 8940   0.840   1.417   3.186
    3OL     C16 8941   0.698   1.579   3.166
    3OL     H6R 8942   0.614   1.509   3.170
    3OL     H6S 8943   0.682   1.648   3.084
    3OL     C17 8944   0.716   1.649   3.302
    3OL     H7R 8945   0.632   1.719   3.309
    3OL     H7S 8946   0.810   1.703   3.309
    3OL     C18 8947   0.703   1.547   3.416
    3OL     H8R 8948   0.766   1.461   3.397
    3OL     H8S 8949   0.598   1.515   3.415
    3OL     C19 8950   0.739   1.607   3.550
    3OL     H9R 8951   0.834   1.659   3.547
    3OL    C110 8952   0.674   1.598   3.665
    3OL    H10R 8953   0.707   1.649   3.755
    3OL    C111 8954   0.554   1.510   3.688
    3OL    H11R 8955   0.526   1.442   3.607
    3OL    H11S 8956   0.466   1.573   3.704
    3OL    C112 8957   0.582   1.421   3.810
    3OL    H12R 8958   0.596   1.487   3.896
    3OL    H12S 8959   0.676   1.371   3.792
    3OL    C113 8960   0.475   1.311   3.821
    3OL    H13R 8961   0.474   1.247   3.732
    3OL    H13S 8962   0.381   1.364   3.837
    3OL    C114 8963   0.490   1.231   3.951
    3OL    H14R 8964   0.583   1.174   3.961
    3OL    H14S 8965   0.422   1.145   3.954
    3OL    C115 8966   0.472   1.324   4.072
    3OL    H15R 8967   0.385   1.386   4.052
    3OL    H15S 8968   0.561   1.387   4.072
    3OL    C116 8969   0.447   1.250   4.204
    3OL    H16R 8970   0.369   1.173   4.194
    3OL    H16S 8971   0.415   1.326   4.275
    3OL    C117 8972   0.575   1.181   4.251
    3OL    H17R 8973   0.660   1.245   4.274
    3OL    H17S 8974   0.609   1.119   4.167
    3OL    C118 8975   0.559   1.092   4.375
    3OL    H18R 8976   0.530   1.160   4.455
    3OL    H18S 8977   0.658   1.059   4.408
    3OL    H18T 8978   0.496   1.004   4.360
    1PA    C116 8979   5.865   1.383   4.014
    1PA    H16R 8980   5.792   1.426   4.083
    1PA    H16S 8981   5.931   1.325   4.078
    1PA    H16T 8982   5.822   1.316   3.939
    1PA    C115 8983   5.957   1.487   3.948
    1PA    H15R 8984   6.003   1.532   4.036
    1PA    H15S 8985   6.039   1.441   3.895
    1PA    C114 8986   5.880   1.593   3.867
    1PA    H14R 8987   5.799   1.638   3.925
    1PA    H14S 8988   5.954   1.668   3.841
    1PA    C113 8989   5.832   1.532   3.735
    1PA    H13R 8990   5.777   1.440   3.756
    1PA    H13S 8991   5.760   1.606   3.698
    1PA    C112 8992   5.945   1.513   3.632
    1PA    H12R 8993   6.014   1.597   3.629
    1PA    H12S 8994   6.007   1.428   3.662
    1PA    C111 8995   5.897   1.484   3.489
    1PA    H11R 8996   5.827   1.399   3.487
    1PA    H11S 8997   5.829   1.564   3.460
    1PA    C110 8998   6.015   1.468   3.393
    1PA    H10R 8999   5.987   1.476   3.287
    1PA    H10S 9000   6.086   1.550   3.405
    1PA     C19 9001   6.091   1.335   3.404
    1PA     H9R 9002   6.182   1.337   3.345
    1PA     H9S 9003   6.129   1.326   3.506
    1PA     C18 9004   6.019   1.208   3.355
    1PA     H8R 9005   6.091   1.128   3.373
    1PA     H8S 9006   5.926   1.198   3.413
    1PA     C17 9007   5.986   1.222   3.206
    1PA     H7R 9008   5.935   1.317   3.186
    1PA     H7S 9009   6.088   1.229   3.165
    1PA     C16 9010   5.908   1.105   3.146
    1PA     H6R 9011   5.961   1.010   3.160
    1PA     H6S 9012   5.815   1.102   3.202
    1PA     C15 9013   5.885   1.127   2.995
    1PA     H5R 9014   5.847   1.226   2.970
    1PA     H5S 9015   5.978   1.119   2.938
    1PA     C14 9016   5.800   1.027   2.916
    1PA     H4R 9017   5.835   0.924   2.916
    1PA     H4S 9018   5.701   1.021   2.961
    1PA     C13 9019   5.784   1.073   2.770
    1PA     H3R 9020   5.766   1.181   2.764
    1PA     H3S 9021   5.879   1.064   2.717
    1PA     C12 9022   5.668   0.988   2.716
    1PA     H2R 9023   5.689   0.881   2.722
    1PA     H2S 9024   5.580   0.994   2.781
    2PC     C11 9025   5.617   1.033   2.582
    2PC     O12 9026   5.682   1.110   2.514
    2PC     O11 9027   5.497   0.982   2.550
    2PC      C1 9028   5.428   1.038   2.437
    2PC      HR 9029   5.419   1.146   2.454
    2PC      HS 9030   5.476   1.004   2.345
    2PC      C2 9031   5.287   0.978   2.443
    2PC      HX 9032   5.300   0.870   2.448
    2PC      C3 9033   5.201   1.008   2.318
    2PC      HA 9034   5.158   1.108   2.318
    2PC      HB 9035   5.275   1.015   2.237
    2PC     O31 9036   5.101   0.905   2.307
    2PC     P31 9037   4.987   0.928   2.197
    2PC     O32 9038   4.898   0.798   2.225
    2PC     C31 9039   4.814   0.801   2.341
    2PC     H1A 9040   4.851   0.876   2.412
    2PC     H1B 9041   4.718   0.842   2.309
    2PC     C32 9042   4.793   0.664   2.407
    2PC     H2A 9043   4.707   0.664   2.475
    2PC     H2B 9044   4.764   0.596   2.327
    2PC     N31 9045   4.901   0.595   2.485
    2PC     C33 9046   4.858   0.453   2.508
    2PC     H3A 9047   4.762   0.449   2.560
    2PC     H3B 9048   4.848   0.407   2.409
    2PC     H3C 9049   4.939   0.398   2.555
    2PC     C34 9050   5.021   0.589   2.396
    2PC     H4A 9051   5.096   0.525   2.443
    2PC     H4B 9052   4.985   0.540   2.305
    2PC     H4C 9053   5.071   0.684   2.383
    2PC     C35 9054   4.934   0.657   2.617
    2PC     H5A 9055   5.024   0.616   2.664
    2PC     H5B 9056   4.855   0.631   2.687
    2PC     H5C 9057   4.955   0.763   2.601
    2PC     O33 9058   4.898   1.045   2.189
    2PC     O34 9059   5.060   0.907   2.069
    2PC     O21 9060   5.218   1.039   2.554
    2PC     C21 9061   5.166   0.966   2.654
    2PC     O22 9062   5.186   0.846   2.658
    3OL     C12 9063   5.090   1.060   2.744
    3OL     H2R 9064   4.982   1.055   2.731
    3OL     H2S 9065   5.127   1.159   2.715
    3OL     C13 9066   5.116   1.031   2.893
    3OL     H3R 9067   5.097   1.119   2.954
    3OL     H3S 9068   5.219   0.998   2.912
    3OL     C14 9069   5.027   0.917   2.944
    3OL     H4R 9070   5.049   0.831   2.880
    3OL     H4S 9071   4.926   0.952   2.922
    3OL     C15 9072   5.050   0.880   3.091
    3OL     H5R 9073   5.157   0.876   3.111
    3OL     H5S 9074   4.998   0.787   3.115
    3OL     C16 9075   5.001   0.991   3.185
    3OL     H6R 9076   4.901   1.021   3.151
    3OL     H6S 9077   5.066   1.077   3.168
    3OL     C17 9078   5.008   0.966   3.337
    3OL     H7R 9079   5.109   0.931   3.360
    3OL     H7S 9080   4.938   0.885   3.356
    3OL     C18 9081   4.973   1.079   3.434
    3OL     H8R 9082   4.935   1.026   3.522
    3OL     H8S 9083   4.892   1.147   3.408
    3OL     C19 9084   5.095   1.158   3.475
    3OL     H9R 9085   5.164   1.200   3.402
    3OL    C110 9086   5.136   1.184   3.599
    3OL    H10R 9087   5.231   1.232   3.621
    3OL    C111 9088   5.081   1.119   3.723
    3OL    H11R 9089   5.164   1.086   3.786
    3OL    H11S 9090   5.018   1.034   3.696
    3OL    C112 9091   5.015   1.227   3.810
    3OL    H12R 9092   4.965   1.291   3.736
    3OL    H12S 9093   5.082   1.292   3.867
    3OL    C113 9094   4.898   1.177   3.895
    3OL    H13R 9095   4.928   1.093   3.960
    3OL    H13S 9096   4.821   1.146   3.825
    3OL    C114 9097   4.833   1.287   3.980
    3OL    H14R 9098   4.807   1.375   3.921
    3OL    H14S 9099   4.906   1.314   4.056
    3OL    C115 9100   4.704   1.233   4.044
    3OL    H15R 9101   4.723   1.138   4.094
    3OL    H15S 9102   4.637   1.215   3.960
    3OL    C116 9103   4.637   1.344   4.127
    3OL    H16R 9104   4.705   1.393   4.198
    3OL    H16S 9105   4.567   1.298   4.197
    3OL    C117 9106   4.575   1.448   4.033
    3OL    H17R 9107   4.510   1.397   3.961
    3OL    H17S 9108   4.658   1.492   3.979
    3OL    C118 9109   4.498   1.563   4.100
    3OL    H18R 9110   4.564   1.627   4.159
    3OL    H18S 9111   4.424   1.513   4.164
    3OL    H18T 9112   4.446   1.617   4.021
    1PA    C116 9113   6.338  -0.413   3.290
    1PA    H16R 9114   6.435  -0.395   3.336
    1PA    H16S 9115   6.309  -0.334   3.220
    1PA    H16T 9116   6.351  -0.508   3.237
    1PA    C115 9117   6.227  -0.421   3.396
    1PA    H15R 9118   6.131  -0.435   3.345
    1PA    H15S 9119   6.246  -0.501   3.467
    1PA    C114 9120   6.221  -0.290   3.476
    1PA    H14R 9121   6.316  -0.270   3.526
    1PA    H14S 9122   6.197  -0.203   3.414
    1PA    C113 9123   6.099  -0.287   3.568
    1PA    H13R 9124   6.084  -0.382   3.619
    1PA    H13S 9125   6.105  -0.211   3.646
    1PA    C112 9126   5.972  -0.249   3.490
    1PA    H12R 9127   5.979  -0.155   3.436
    1PA    H12S 9128   5.967  -0.329   3.416
    1PA    C111 9129   5.844  -0.245   3.574
    1PA    H11R 9130   5.801  -0.344   3.593
    1PA    H11S 9131   5.864  -0.181   3.660
    1PA    C110 9132   5.735  -0.182   3.486
    1PA    H10R 9133   5.773  -0.094   3.434
    1PA    H10S 9134   5.703  -0.245   3.402
    1PA     C19 9135   5.609  -0.143   3.565
    1PA     H9R 9136   5.574  -0.241   3.597
    1PA     H9S 9137   5.639  -0.072   3.642
    1PA     C18 9138   5.501  -0.070   3.483
    1PA     H8R 9139   5.540   0.024   3.441
    1PA     H8S 9140   5.483  -0.128   3.393
    1PA     C17 9141   5.362  -0.061   3.548
    1PA     H7R 9142   5.318  -0.161   3.548
    1PA     H7S 9143   5.364  -0.023   3.651
    1PA     C16 9144   5.264   0.028   3.471
    1PA     H6R 9145   5.177   0.050   3.533
    1PA     H6S 9146   5.311   0.125   3.455
    1PA     C15 9147   5.220  -0.017   3.331
    1PA     H5R 9148   5.310  -0.025   3.269
    1PA     H5S 9149   5.174  -0.116   3.330
    1PA     C14 9150   5.135   0.088   3.258
    1PA     H4R 9151   5.035   0.078   3.300
    1PA     H4S 9152   5.177   0.188   3.268
    1PA     C13 9153   5.140   0.061   3.107
    1PA     H3R 9154   5.108   0.150   3.053
    1PA     H3S 9155   5.236   0.032   3.064
    1PA     C12 9156   5.045  -0.052   3.064
    1PA     H2R 9157   5.072  -0.145   3.115
    1PA     H2S 9158   4.951  -0.030   3.113
    2PC     C11 9159   5.025  -0.076   2.916
    2PC     O12 9160   4.948  -0.162   2.879
    2PC     O11 9161   5.104  -0.003   2.835
    2PC      C1 9162   5.066   0.010   2.697
    2PC      HR 9163   5.128   0.084   2.647
    2PC      HS 9164   5.058  -0.090   2.654
    2PC      C2 9165   4.924   0.067   2.686
    2PC      HX 9166   4.843   0.027   2.748
    2PC      C3 9167   4.875   0.064   2.540
    2PC      HA 9168   4.887  -0.041   2.513
    2PC      HB 9169   4.774   0.104   2.527
    2PC     O31 9170   4.969   0.145   2.467
    2PC     P31 9171   4.951   0.163   2.309
    2PC     O32 9172   5.095   0.227   2.278
    2PC     C31 9173   5.139   0.238   2.141
    2PC     H1A 9174   5.164   0.138   2.107
    2PC     H1B 9175   5.064   0.286   2.078
    2PC     C32 9176   5.266   0.325   2.149
    2PC     H2A 9177   5.268   0.361   2.046
    2PC     H2B 9178   5.240   0.402   2.222
    2PC     N31 9179   5.396   0.266   2.193
    2PC     C33 9180   5.507   0.365   2.178
    2PC     H3A 9181   5.497   0.396   2.074
    2PC     H3B 9182   5.489   0.453   2.239
    2PC     H3C 9183   5.604   0.322   2.206
    2PC     C34 9184   5.395   0.209   2.332
    2PC     H4A 9185   5.310   0.140   2.333
    2PC     H4B 9186   5.485   0.156   2.361
    2PC     H4C 9187   5.365   0.291   2.397
    2PC     C35 9188   5.437   0.156   2.100
    2PC     H5A 9189   5.428   0.198   2.000
    2PC     H5B 9190   5.372   0.069   2.101
    2PC     H5C 9191   5.537   0.120   2.126
    2PC     O33 9192   4.951   0.041   2.225
    2PC     O34 9193   4.850   0.261   2.263
    2PC     O21 9194   4.944   0.206   2.717
    2PC     C21 9195   4.950   0.241   2.846
    2PC     O22 9196   4.904   0.181   2.941
    3OL     C12 9197   5.020   0.373   2.865
    3OL     H2R 9198   5.015   0.400   2.971
    3OL     H2S 9199   4.969   0.451   2.807
    3OL     C13 9200   5.170   0.362   2.833
    3OL     H3R 9201   5.212   0.280   2.891
    3OL     H3S 9202   5.187   0.339   2.728
    3OL     C14 9203   5.256   0.486   2.863
    3OL     H4R 9204   5.225   0.567   2.797
    3OL     H4S 9205   5.358   0.463   2.833
    3OL     C15 9206   5.263   0.536   3.008
    3OL     H5R 9207   5.286   0.453   3.075
    3OL     H5S 9208   5.163   0.576   3.025
    3OL     C16 9209   5.361   0.654   3.016
    3OL     H6R 9210   5.333   0.708   3.106
    3OL     H6S 9211   5.357   0.722   2.930
    3OL     C17 9212   5.503   0.608   3.049
    3OL     H7R 9213   5.537   0.539   2.971
    3OL     H7S 9214   5.505   0.544   3.138
    3OL     C18 9215   5.598   0.725   3.075
    3OL     H8R 9216   5.584   0.760   3.177
    3OL     H8S 9217   5.579   0.805   3.002
    3OL     C19 9218   5.737   0.676   3.039
    3OL     H9R 9219   5.739   0.619   2.947
    3OL    C110 9220   5.835   0.686   3.127
    3OL    H10R 9221   5.931   0.641   3.105
    3OL    C111 9222   5.821   0.739   3.268
    3OL    H11R 9223   5.737   0.694   3.322
    3OL    H11S 9224   5.811   0.847   3.259
    3OL    C112 9225   5.953   0.725   3.346
    3OL    H12R 9226   6.041   0.746   3.284
    3OL    H12S 9227   5.954   0.625   3.389
    3OL    C113 9228   5.958   0.834   3.453
    3OL    H13R 9229   5.880   0.817   3.528
    3OL    H13S 9230   5.935   0.932   3.409
    3OL    C114 9231   6.093   0.839   3.527
    3OL    H14R 9232   6.173   0.877   3.463
    3OL    H14S 9233   6.113   0.745   3.579
    3OL    C115 9234   6.097   0.950   3.633
    3OL    H15R 9235   6.023   0.936   3.712
    3OL    H15S 9236   6.072   1.049   3.594
    3OL    C116 9237   6.227   0.948   3.715
    3OL    H16R 9238   6.311   0.963   3.648
    3OL    H16S 9239   6.234   0.852   3.767
    3OL    C117 9240   6.233   1.054   3.827
    3OL    H17R 9241   6.206   1.152   3.787
    3OL    H17S 9242   6.337   1.056   3.861
    3OL    C118 9243   6.150   1.010   3.948
    3OL    H18R 9244   6.162   0.907   3.981
    3OL    H18S 9245   6.045   1.013   3.919
    3OL    H18T 9246   6.183   1.072   4.032
    1PA    C116 9247   5.330   5.433   4.629
    1PA    H16R 9248   5.276   5.505   4.690
    1PA    H16S 9249   5.419   5.479   4.587
    1PA    H16T 9250   5.350   5.351   4.698
    1PA    C115 9251   5.254   5.381   4.506
    1PA    H15R 9252   5.160   5.348   4.551
    1PA    H15S 9253   5.234   5.468   4.443
    1PA    C114 9254   5.334   5.270   4.436
    1PA    H14R 9255   5.427   5.318   4.404
    1PA    H14S 9256   5.366   5.192   4.506
    1PA    C113 9257   5.271   5.203   4.313
    1PA    H13R 9258   5.254   5.287   4.246
    1PA    H13S 9259   5.355   5.140   4.282
    1PA    C112 9260   5.145   5.121   4.346
    1PA    H12R 9261   5.162   5.027   4.399
    1PA    H12S 9262   5.080   5.185   4.405
    1PA    C111 9263   5.087   5.074   4.212
    1PA    H11R 9264   4.985   5.038   4.226
    1PA    H11S 9265   5.063   5.162   4.151
    1PA    C110 9266   5.176   4.982   4.127
    1PA    H10R 9267   5.272   5.028   4.101
    1PA    H10S 9268   5.201   4.891   4.181
    1PA     C19 9269   5.103   4.947   3.998
    1PA     H9R 9270   4.998   4.935   4.025
    1PA     H9S 9271   5.092   5.031   3.929
    1PA     C18 9272   5.154   4.821   3.926
    1PA     H8R 9273   5.260   4.842   3.914
    1PA     H8S 9274   5.127   4.735   3.988
    1PA     C17 9275   5.091   4.809   3.786
    1PA     H7R 9276   4.983   4.811   3.803
    1PA     H7S 9277   5.125   4.890   3.721
    1PA     C16 9278   5.125   4.673   3.725
    1PA     H6R 9279   5.231   4.650   3.733
    1PA     H6S 9280   5.071   4.593   3.778
    1PA     C15 9281   5.082   4.671   3.578
    1PA     H5R 9282   5.079   4.566   3.547
    1PA     H5S 9283   4.982   4.712   3.562
    1PA     C14 9284   5.177   4.757   3.493
    1PA     H4R 9285   5.189   4.853   3.543
    1PA     H4S 9286   5.275   4.710   3.493
    1PA     C13 9287   5.124   4.778   3.350
    1PA     H3R 9288   5.063   4.696   3.313
    1PA     H3S 9289   5.055   4.859   3.374
    1PA     C12 9290   5.229   4.825   3.248
    1PA     H2R 9291   5.248   4.930   3.271
    1PA     H2S 9292   5.316   4.761   3.263
    2PC     C11 9293   5.174   4.815   3.108
    2PC     O12 9294   5.071   4.762   3.074
    2PC     O11 9295   5.260   4.886   3.033
    2PC      C1 9296   5.206   4.920   2.903
    2PC      HR 9297   5.285   4.971   2.849
    2PC      HS 9298   5.195   4.822   2.855
    2PC      C2 9299   5.082   5.010   2.906
    2PC      HX 9300   5.015   4.986   2.989
    2PC      C3 9301   5.016   5.003   2.767
    2PC      HA 9302   4.950   4.918   2.748
    2PC      HB 9303   4.952   5.089   2.749
    2PC     O31 9304   5.117   4.992   2.665
    2PC     P31 9305   5.060   4.976   2.516
    2PC     O32 9306   5.089   4.822   2.484
    2PC     C31 9307   5.225   4.786   2.453
    2PC     H1A 9308   5.244   4.802   2.346
    2PC     H1B 9309   5.288   4.851   2.514
    2PC     C32 9310   5.253   4.639   2.487
    2PC     H2A 9311   5.356   4.615   2.460
    2PC     H2B 9312   5.245   4.617   2.594
    2PC     N31 9313   5.176   4.519   2.443
    2PC     C33 9314   5.257   4.394   2.456
    2PC     H3A 9315   5.293   4.380   2.558
    2PC     H3B 9316   5.194   4.310   2.424
    2PC     H3C 9317   5.350   4.407   2.399
    2PC     C34 9318   5.051   4.499   2.524
    2PC     H4A 9319   4.997   4.593   2.526
    2PC     H4B 9320   4.985   4.429   2.473
    2PC     H4C 9321   5.083   4.473   2.626
    2PC     C35 9322   5.124   4.541   2.304
    2PC     H5A 9323   5.070   4.452   2.271
    2PC     H5B 9324   5.209   4.560   2.239
    2PC     H5C 9325   5.060   4.629   2.292
    2PC     O33 9326   4.916   4.995   2.486
    2PC     O34 9327   5.137   5.066   2.427
    2PC     O21 9328   5.124   5.143   2.942
    2PC     C21 9329   5.126   5.184   3.070
    2PC     O22 9330   5.096   5.126   3.172
    3OL     C12 9331   5.177   5.326   3.066
    3OL     H2R 9332   5.141   5.365   3.162
    3OL     H2S 9333   5.133   5.385   2.986
    3OL     C13 9334   5.330   5.330   3.067
    3OL     H3R 9335   5.355   5.430   3.030
    3OL     H3S 9336   5.360   5.258   2.991
    3OL     C14 9337   5.402   5.292   3.197
    3OL     H4R 9338   5.342   5.226   3.259
    3OL     H4S 9339   5.426   5.380   3.257
    3OL     C15 9340   5.527   5.209   3.165
    3OL     H5R 9341   5.494   5.122   3.108
    3OL     H5S 9342   5.560   5.182   3.265
    3OL     C16 9343   5.629   5.287   3.080
    3OL     H6R 9344   5.645   5.379   3.136
    3OL     H6S 9345   5.576   5.301   2.985
    3OL     C17 9346   5.762   5.218   3.050
    3OL     H7R 9347   5.814   5.274   2.973
    3OL     H7S 9348   5.741   5.118   3.010
    3OL     C18 9349   5.845   5.207   3.179
    3OL     H8R 9350   5.774   5.210   3.262
    3OL     H8S 9351   5.915   5.291   3.176
    3OL     C19 9352   5.932   5.084   3.186
    3OL     H9R 9353   5.967   5.033   3.096
    3OL    C110 9354   5.972   5.026   3.298
    3OL    H10R 9355   6.046   4.947   3.301
    3OL    C111 9356   5.947   5.079   3.437
    3OL    H11R 9357   5.842   5.106   3.454
    3OL    H11S 9358   5.995   5.177   3.437
    3OL    C112 9359   6.008   4.990   3.547
    3OL    H12R 9360   6.110   4.963   3.519
    3OL    H12S 9361   5.958   4.893   3.550
    3OL    C113 9362   6.002   5.048   3.689
    3OL    H13R 9363   5.903   5.088   3.713
    3OL    H13S 9364   6.071   5.130   3.706
    3OL    C114 9365   6.017   4.939   3.796
    3OL    H14R 9366   5.951   4.856   3.766
    3OL    H14S 9367   5.982   4.969   3.895
    3OL    C115 9368   6.155   4.873   3.808
    3OL    H15R 9369   6.222   4.957   3.828
    3OL    H15S 9370   6.191   4.828   3.716
    3OL    C116 9371   6.171   4.779   3.928
    3OL    H16R 9372   6.148   4.834   4.020
    3OL    H16S 9373   6.275   4.748   3.934
    3OL    C117 9374   6.075   4.660   3.918
    3OL    H17R 9375   6.100   4.607   3.825
    3OL    H17S 9376   5.969   4.682   3.912
    3OL    C118 9377   6.092   4.571   4.042
    3OL    H18R 9378   6.193   4.534   4.058
    3OL    H18S 9379   6.032   4.483   4.018
    3OL    H18T 9380   6.065   4.619   4.137
    1PA    C116 9381   0.467   0.573   4.510
    1PA    H16R 9382   0.366   0.542   4.535
    1PA    H16S 9383   0.483   0.670   4.557
    1PA    H16T 9384   0.540   0.500   4.546
    1PA    C115 9385   0.481   0.581   4.357
    1PA    H15R 9386   0.413   0.663   4.331
    1PA    H15S 9387   0.585   0.611   4.345
    1PA    C114 9388   0.448   0.451   4.283
    1PA    H14R 9389   0.507   0.372   4.329
    1PA    H14S 9390   0.341   0.431   4.292
    1PA    C113 9391   0.498   0.478   4.140
    1PA    H13R 9392   0.478   0.582   4.114
    1PA    H13S 9393   0.607   0.481   4.150
    1PA    C112 9394   0.456   0.382   4.027
    1PA    H12R 9395   0.507   0.286   4.031
    1PA    H12S 9396   0.349   0.365   4.036
    1PA    C111 9397   0.494   0.445   3.892
    1PA    H11R 9398   0.462   0.549   3.890
    1PA    H11S 9399   0.602   0.462   3.891
    1PA    C110 9400   0.451   0.375   3.763
    1PA    H10R 9401   0.505   0.280   3.755
    1PA    H10S 9402   0.348   0.339   3.768
    1PA     C19 9403   0.472   0.463   3.640
    1PA     H9R 9404   0.426   0.562   3.653
    1PA     H9S 9405   0.577   0.490   3.629
    1PA     C18 9406   0.425   0.400   3.508
    1PA     H8R 9407   0.471   0.302   3.497
    1PA     H8S 9408   0.319   0.380   3.527
    1PA     C17 9409   0.433   0.501   3.393
    1PA     H7R 9410   0.351   0.572   3.409
    1PA     H7S 9411   0.529   0.553   3.401
    1PA     C16 9412   0.414   0.433   3.257
    1PA     H6R 9413   0.506   0.382   3.227
    1PA     H6S 9414   0.334   0.358   3.262
    1PA     C15 9415   0.381   0.531   3.143
    1PA     H5R 9416   0.350   0.476   3.055
    1PA     H5S 9417   0.294   0.589   3.174
    1PA     C14 9418   0.502   0.617   3.102
    1PA     H4R 9419   0.523   0.686   3.184
    1PA     H4S 9420   0.589   0.553   3.089
    1PA     C13 9421   0.480   0.714   2.986
    1PA     H3R 9422   0.439   0.664   2.898
    1PA     H3S 9423   0.409   0.793   3.011
    1PA     C12 9424   0.609   0.783   2.938
    1PA     H2R 9425   0.651   0.839   3.021
    1PA     H2S 9426   0.682   0.704   2.916
    2PC     C11 9427   0.603   0.886   2.829
    2PC     O12 9428   0.695   0.965   2.817
    2PC     O11 9429   0.494   0.882   2.751
    2PC      C1 9430   0.481   0.960   2.631
    2PC      HR 9431   0.499   1.066   2.653
    2PC      HS 9432   0.545   0.921   2.552
    2PC      C2 9433   0.335   0.934   2.593
    2PC      HX 9434   0.317   0.827   2.605
    2PC      C3 9435   0.313   0.981   2.448
    2PC      HA 9436   0.333   1.089   2.446
    2PC      HB 9437   0.381   0.928   2.382
    2PC     O31 9438   0.178   0.949   2.409
    2PC     P31 9439   0.129   0.989   2.262
    2PC     O32 9440   0.015   0.883   2.226
    2PC     C31 9441  -0.096   0.862   2.315
    2PC     H1A 9442  -0.053   0.826   2.409
    2PC     H1B 9443  -0.146   0.956   2.338
    2PC     C32 9444  -0.190   0.765   2.242
    2PC     H2A 9445  -0.132   0.681   2.204
    2PC     H2B 9446  -0.263   0.728   2.315
    2PC     N31 9447  -0.271   0.809   2.124
    2PC     C33 9448  -0.191   0.796   1.998
    2PC     H3A 9449  -0.095   0.841   2.025
    2PC     H3B 9450  -0.179   0.690   1.973
    2PC     H3C 9451  -0.249   0.830   1.913
    2PC     C34 9452  -0.385   0.712   2.116
    2PC     H4A 9453  -0.422   0.686   2.216
    2PC     H4B 9454  -0.464   0.751   2.053
    2PC     H4C 9455  -0.341   0.625   2.066
    2PC     C35 9456  -0.322   0.949   2.142
    2PC     H5A 9457  -0.253   1.026   2.108
    2PC     H5B 9458  -0.311   0.959   2.250
    2PC     H5C 9459  -0.428   0.944   2.120
    2PC     O33 9460   0.070   1.125   2.265
    2PC     O34 9461   0.243   1.000   2.168
    2PC     O21 9462   0.250   1.006   2.683
    2PC     C21 9463   0.250   1.141   2.688
    2PC     O22 9464   0.305   1.216   2.610
    3OL     C12 9465   0.173   1.191   2.807
    3OL     H2R 9466   0.135   1.102   2.859
    3OL     H2S 9467   0.087   1.241   2.762
    3OL     C13 9468   0.258   1.280   2.899
    3OL     H3R 9469   0.190   1.303   2.982
    3OL     H3S 9470   0.282   1.373   2.846
    3OL     C14 9471   0.378   1.200   2.948
    3OL     H4R 9472   0.454   1.167   2.876
    3OL     H4S 9473   0.347   1.099   2.979
    3OL     C15 9474   0.457   1.272   3.058
    3OL     H5R 9475   0.380   1.332   3.106
    3OL     H5S 9476   0.532   1.340   3.017
    3OL     C16 9477   0.520   1.166   3.150
    3OL     H6R 9478   0.591   1.105   3.094
    3OL     H6S 9479   0.435   1.109   3.190
    3OL     C17 9480   0.569   1.231   3.280
    3OL     H7R 9481   0.486   1.286   3.325
    3OL     H7S 9482   0.639   1.314   3.262
    3OL     C18 9483   0.628   1.130   3.379
    3OL     H8R 9484   0.716   1.082   3.336
    3OL     H8S 9485   0.554   1.050   3.388
    3OL     C19 9486   0.662   1.194   3.511
    3OL     H9R 9487   0.576   1.231   3.568
    3OL    C110 9488   0.783   1.223   3.556
    3OL    H10R 9489   0.795   1.289   3.641
    3OL    C111 9490   0.917   1.206   3.490
    3OL    H11R 9491   0.916   1.185   3.383
    3OL    H11S 9492   0.959   1.114   3.533
    3OL    C112 9493   1.009   1.325   3.518
    3OL    H12R 9494   0.995   1.366   3.619
    3OL    H12S 9495   0.984   1.404   3.447
    3OL    C113 9496   1.156   1.292   3.487
    3OL    H13R 9497   1.186   1.197   3.532
    3OL    H13S 9498   1.209   1.374   3.536
    3OL    C114 9499   1.186   1.286   3.337
    3OL    H14R 9500   1.109   1.232   3.281
    3OL    H14S 9501   1.279   1.231   3.324
    3OL    C115 9502   1.205   1.423   3.270
    3OL    H15R 9503   1.273   1.481   3.334
    3OL    H15S 9504   1.111   1.476   3.254
    3OL    C116 9505   1.255   1.399   3.127
    3OL    H16R 9506   1.188   1.330   3.076
    3OL    H16S 9507   1.352   1.348   3.128
    3OL    C117 9508   1.267   1.527   3.044
    3OL    H17R 9509   1.330   1.602   3.093
    3OL    H17S 9510   1.167   1.570   3.036
    3OL    C118 9511   1.317   1.505   2.900
    3OL    H18R 9512   1.424   1.486   2.892
    3OL    H18S 9513   1.309   1.599   2.845
    3OL    H18T 9514   1.255   1.432   2.848
    1PA    C116 9515   0.436  -0.660   4.047
    1PA    H16R 9516   0.417  -0.559   4.011
    1PA    H16S 9517   0.528  -0.664   4.106
    1PA    H16T 9518   0.350  -0.703   4.098
    1PA    C115 9519   0.457  -0.729   3.911
    1PA    H15R 9520   0.452  -0.838   3.921
    1PA    H15S 9521   0.382  -0.714   3.834
    1PA    C114 9522   0.594  -0.693   3.852
    1PA    H14R 9523   0.668  -0.688   3.931
    1PA    H14S 9524   0.629  -0.779   3.793
    1PA    C113 9525   0.587  -0.574   3.755
    1PA    H13R 9526   0.537  -0.595   3.661
    1PA    H13S 9527   0.526  -0.496   3.801
    1PA    C112 9528   0.728  -0.525   3.717
    1PA    H12R 9529   0.758  -0.472   3.807
    1PA    H12S 9530   0.799  -0.603   3.692
    1PA    C111 9531   0.719  -0.420   3.605
    1PA    H11R 9532   0.650  -0.462   3.532
    1PA    H11S 9533   0.672  -0.326   3.633
    1PA    C110 9534   0.854  -0.382   3.543
    1PA    H10R 9535   0.917  -0.322   3.608
    1PA    H10S 9536   0.904  -0.477   3.521
    1PA     C19 9537   0.836  -0.317   3.405
    1PA     H9R 9538   0.781  -0.380   3.335
    1PA     H9S 9539   0.774  -0.227   3.411
    1PA     C18 9540   0.975  -0.283   3.350
    1PA     H8R 9541   1.020  -0.203   3.410
    1PA     H8S 9542   1.048  -0.363   3.358
    1PA     C17 9543   0.976  -0.231   3.205
    1PA     H7R 9544   0.945  -0.126   3.201
    1PA     H7S 9545   1.079  -0.241   3.173
    1PA     C16 9546   0.894  -0.317   3.108
    1PA     H6R 9547   0.920  -0.420   3.134
    1PA     H6S 9548   0.788  -0.306   3.135
    1PA     C15 9549   0.916  -0.293   2.959
    1PA     H5R 9550   0.835  -0.338   2.901
    1PA     H5S 9551   0.918  -0.186   2.936
    1PA     C14 9552   1.043  -0.356   2.900
    1PA     H4R 9553   1.132  -0.341   2.961
    1PA     H4S 9554   1.042  -0.465   2.914
    1PA     C13 9555   1.072  -0.325   2.753
    1PA     H3R 9556   1.049  -0.218   2.741
    1PA     H3S 9557   1.178  -0.343   2.733
    1PA     C12 9558   0.987  -0.400   2.650
    1PA     H2R 9559   1.023  -0.503   2.653
    1PA     H2S 9560   0.881  -0.390   2.676
    2PC     C11 9561   1.019  -0.339   2.516
    2PC     O12 9562   1.090  -0.396   2.437
    2PC     O11 9563   0.968  -0.216   2.496
    2PC      C1 9564   1.001  -0.144   2.375
    2PC      HR 9565   1.108  -0.123   2.380
    2PC      HS 9566   0.976  -0.199   2.284
    2PC      C2 9567   0.900  -0.029   2.370
    2PC      HX 9568   0.804  -0.057   2.413
    2PC      C3 9569   0.882   0.029   2.230
    2PC      HA 9570   0.880  -0.045   2.150
    2PC      HB 9571   0.784   0.078   2.230
    2PC     O31 9572   0.978   0.132   2.200
    2PC     P31 9573   0.978   0.195   2.053
    2PC     O32 9574   1.127   0.247   2.028
    2PC     C31 9575   1.131   0.391   2.029
    2PC     H1A 9576   1.059   0.436   1.959
    2PC     H1B 9577   1.114   0.428   2.130
    2PC     C32 9578   1.278   0.411   1.987
    2PC     H2A 9579   1.283   0.519   1.972
    2PC     H2B 9580   1.340   0.383   2.072
    2PC     N31 9581   1.332   0.351   1.861
    2PC     C33 9582   1.452   0.433   1.827
    2PC     H3A 9583   1.524   0.443   1.909
    2PC     H3B 9584   1.500   0.380   1.744
    2PC     H3C 9585   1.424   0.533   1.793
    2PC     C34 9586   1.377   0.209   1.875
    2PC     H4A 9587   1.298   0.140   1.907
    2PC     H4B 9588   1.427   0.184   1.781
    2PC     H4C 9589   1.456   0.205   1.949
    2PC     C35 9590   1.234   0.351   1.748
    2PC     H5A 9591   1.148   0.295   1.785
    2PC     H5B 9592   1.285   0.302   1.665
    2PC     H5C 9593   1.209   0.452   1.716
    2PC     O33 9594   0.946   0.097   1.947
    2PC     O34 9595   0.880   0.306   2.047
    2PC     O21 9596   0.968   0.065   2.457
    2PC     C21 9597   0.909   0.174   2.508
    2PC     O22 9598   0.799   0.211   2.472
    3OL     C12 9599   1.002   0.245   2.602
    3OL     H2R 9600   1.106   0.227   2.573
    3OL     H2S 9601   0.999   0.206   2.704
    3OL     C13 9602   0.973   0.394   2.578
    3OL     H3R 9603   0.878   0.410   2.628
    3OL     H3S 9604   0.967   0.418   2.472
    3OL     C14 9605   1.081   0.485   2.639
    3OL     H4R 9606   1.086   0.577   2.580
    3OL     H4S 9607   1.174   0.429   2.627
    3OL     C15 9608   1.048   0.515   2.786
    3OL     H5R 9609   0.939   0.518   2.793
    3OL     H5S 9610   1.076   0.620   2.800
    3OL     C16 9611   1.111   0.440   2.904
    3OL     H6R 9612   1.099   0.333   2.884
    3OL     H6S 9613   1.052   0.462   2.993
    3OL     C17 9614   1.258   0.476   2.929
    3OL     H7R 9615   1.267   0.584   2.929
    3OL     H7S 9616   1.312   0.447   2.838
    3OL     C18 9617   1.318   0.425   3.061
    3OL     H8R 9618   1.423   0.455   3.064
    3OL     H8S 9619   1.308   0.316   3.057
    3OL     C19 9620   1.250   0.490   3.179
    3OL     H9R 9621   1.247   0.598   3.170
    3OL    C110 9622   1.185   0.438   3.283
    3OL    H10R 9623   1.145   0.499   3.364
    3OL    C111 9624   1.151   0.292   3.298
    3OL    H11R 9625   1.220   0.233   3.238
    3OL    H11S 9626   1.051   0.277   3.255
    3OL    C112 9627   1.155   0.243   3.443
    3OL    H12R 9628   1.263   0.231   3.457
    3OL    H12S 9629   1.120   0.140   3.442
    3OL    C113 9630   1.082   0.333   3.544
    3OL    H13R 9631   0.976   0.334   3.519
    3OL    H13S 9632   1.125   0.433   3.547
    3OL    C114 9633   1.084   0.282   3.689
    3OL    H14R 9634   1.185   0.259   3.724
    3OL    H14S 9635   1.029   0.187   3.686
    3OL    C115 9636   1.004   0.375   3.780
    3OL    H15R 9637   0.902   0.374   3.741
    3OL    H15S 9638   1.052   0.472   3.765
    3OL    C116 9639   0.989   0.325   3.925
    3OL    H16R 9640   1.032   0.225   3.936
    3OL    H16S 9641   0.885   0.317   3.956
    3OL    C117 9642   1.057   0.411   4.032
    3OL    H17R 9643   1.165   0.407   4.012
    3OL    H17S 9644   1.040   0.364   4.129
    3OL    C118 9645   1.008   0.556   4.029
    3OL    H18R 9646   1.057   0.620   4.103
    3OL    H18S 9647   0.900   0.564   4.044
    3OL    H18T 9648   1.027   0.596   3.929
    1PA    C116 9649   6.023   1.871   3.474
    1PA    H16R 9650   5.979   1.775   3.445
    1PA    H16S 9651   6.085   1.860   3.563
    1PA    H16T 9652   6.083   1.911   3.392
    1PA    C115 9653   5.896   1.953   3.498
    1PA    H15R 9654   5.915   2.060   3.506
    1PA    H15S 9655   5.824   1.944   3.417
    1PA    C114 9656   5.823   1.900   3.622
    1PA    H14R 9657   5.803   1.793   3.618
    1PA    H14S 9658   5.878   1.922   3.714
    1PA    C113 9659   5.689   1.970   3.647
    1PA    H13R 9660   5.664   1.948   3.751
    1PA    H13S 9661   5.715   2.076   3.649
    1PA    C112 9662   5.578   1.948   3.543
    1PA    H12R 9663   5.599   1.963   3.437
    1PA    H12S 9664   5.547   1.844   3.556
    1PA    C111 9665   5.461   2.042   3.576
    1PA    H11R 9666   5.448   2.045   3.684
    1PA    H11S 9667   5.488   2.146   3.553
    1PA    C110 9668   5.329   2.009   3.505
    1PA    H10R 9669   5.308   1.908   3.543
    1PA    H10S 9670   5.252   2.082   3.530
    1PA     C19 9671   5.351   2.002   3.354
    1PA     H9R 9672   5.404   2.095   3.332
    1PA     H9S 9673   5.416   1.916   3.335
    1PA     C18 9674   5.218   1.989   3.278
    1PA     H8R 9675   5.148   1.920   3.326
    1PA     H8S 9676   5.179   2.090   3.261
    1PA     C17 9677   5.234   1.937   3.134
    1PA     H7R 9678   5.323   1.875   3.121
    1PA     H7S 9679   5.146   1.878   3.109
    1PA     C16 9680   5.245   2.043   3.024
    1PA     H6R 9681   5.147   2.090   3.013
    1PA     H6S 9682   5.311   2.124   3.057
    1PA     C15 9683   5.280   1.983   2.887
    1PA     H5R 9684   5.376   1.932   2.891
    1PA     H5S 9685   5.210   1.902   2.863
    1PA     C14 9686   5.289   2.086   2.773
    1PA     H4R 9687   5.190   2.132   2.765
    1PA     H4S 9688   5.363   2.163   2.795
    1PA     C13 9689   5.314   2.008   2.643
    1PA     H3R 9690   5.407   1.950   2.641
    1PA     H3S 9691   5.226   1.945   2.628
    1PA     C12 9692   5.327   2.106   2.526
    1PA     H2R 9693   5.229   2.146   2.499
    1PA     H2S 9694   5.392   2.188   2.556
    2PC     C11 9695   5.373   2.040   2.398
    2PC     O12 9696   5.440   2.096   2.313
    2PC     O11 9697   5.317   1.921   2.374
    2PC      C1 9698   5.368   1.862   2.253
    2PC      HR 9699   5.353   1.922   2.163
    2PC      HS 9700   5.475   1.842   2.266
    2PC      C2 9701   5.312   1.722   2.226
    2PC      HX 9702   5.347   1.688   2.128
    2PC      C3 9703   5.159   1.735   2.224
    2PC      HA 9704   5.118   1.729   2.325
    2PC      HB 9705   5.117   1.826   2.180
    2PC     O31 9706   5.115   1.619   2.150
    2PC     P31 9707   5.087   1.634   1.993
    2PC     O32 9708   4.931   1.669   1.995
    2PC     C31 9709   4.845   1.587   1.913
    2PC     H1A 9710   4.871   1.481   1.915
    2PC     H1B 9711   4.744   1.608   1.950
    2PC     C32 9712   4.861   1.641   1.770
    2PC     H2A 9713   4.822   1.742   1.756
    2PC     H2B 9714   4.964   1.647   1.734
    2PC     N31 9715   4.793   1.566   1.660
    2PC     C33 9716   4.816   1.648   1.536
    2PC     H3A 9717   4.806   1.586   1.447
    2PC     H3B 9718   4.752   1.737   1.542
    2PC     H3C 9719   4.916   1.688   1.547
    2PC     C34 9720   4.848   1.428   1.643
    2PC     H4A 9721   4.792   1.369   1.571
    2PC     H4B 9722   4.942   1.448   1.593
    2PC     H4C 9723   4.845   1.373   1.738
    2PC     C35 9724   4.646   1.551   1.685
    2PC     H5A 9725   4.598   1.510   1.596
    2PC     H5B 9726   4.611   1.650   1.715
    2PC     H5C 9727   4.622   1.488   1.771
    2PC     O33 9728   5.165   1.725   1.906
    2PC     O34 9729   5.116   1.497   1.944
    2PC     O21 9730   5.342   1.637   2.339
    2PC     C21 9731   5.464   1.582   2.336
    2PC     O22 9732   5.545   1.600   2.247
    3OL     C12 9733   5.493   1.504   2.462
    3OL     H2R 9734   5.584   1.446   2.450
    3OL     H2S 9735   5.417   1.427   2.478
    3OL     C13 9736   5.503   1.599   2.582
    3OL     H3R 9737   5.457   1.694   2.556
    3OL     H3S 9738   5.610   1.620   2.594
    3OL     C14 9739   5.441   1.552   2.714
    3OL     H4R 9740   5.333   1.545   2.701
    3OL     H4S 9741   5.471   1.611   2.801
    3OL     C15 9742   5.494   1.416   2.761
    3OL     H5R 9743   5.602   1.409   2.746
    3OL     H5S 9744   5.444   1.338   2.702
    3OL     C16 9745   5.451   1.380   2.903
    3OL     H6R 9746   5.344   1.399   2.908
    3OL     H6S 9747   5.500   1.455   2.965
    3OL     C17 9748   5.485   1.233   2.934
    3OL     H7R 9749   5.590   1.206   2.923
    3OL     H7S 9750   5.437   1.162   2.867
    3OL     C18 9751   5.449   1.199   3.079
    3OL     H8R 9752   5.356   1.252   3.101
    3OL     H8S 9753   5.518   1.250   3.147
    3OL     C19 9754   5.435   1.051   3.106
    3OL     H9R 9755   5.424   0.994   3.014
    3OL    C110 9756   5.439   0.995   3.225
    3OL    H10R 9757   5.441   0.886   3.230
    3OL    C111 9758   5.429   1.059   3.362
    3OL    H11R 9759   5.346   1.009   3.413
    3OL    H11S 9760   5.405   1.164   3.345
    3OL    C112 9761   5.563   1.044   3.434
    3OL    H12R 9762   5.634   1.099   3.372
    3OL    H12S 9763   5.588   0.939   3.456
    3OL    C113 9764   5.550   1.109   3.573
    3OL    H13R 9765   5.459   1.072   3.622
    3OL    H13S 9766   5.547   1.217   3.557
    3OL    C114 9767   5.672   1.080   3.660
    3OL    H14R 9768   5.765   1.113   3.613
    3OL    H14S 9769   5.686   0.973   3.680
    3OL    C115 9770   5.675   1.149   3.797
    3OL    H15R 9771   5.670   1.257   3.779
    3OL    H15S 9772   5.761   1.113   3.853
    3OL    C116 9773   5.559   1.096   3.882
    3OL    H16R 9774   5.559   0.988   3.899
    3OL    H16S 9775   5.471   1.117   3.820
    3OL    C117 9776   5.542   1.174   4.014
    3OL    H17R 9777   5.522   1.279   3.991
    3OL    H17S 9778   5.632   1.162   4.074
    3OL    C118 9779   5.426   1.115   4.096
    3OL    H18R 9780   5.447   1.009   4.111
    3OL    H18S 9781   5.334   1.147   4.048
    3OL    H18T 9782   5.422   1.163   4.194
    1PA    C116 9783   5.008   2.024   3.755
    1PA    H16R 9784   5.062   2.114   3.786
    1PA    H16S 9785   5.080   1.964   3.701
    1PA    H16T 9786   4.962   1.980   3.844
    1PA    C115 9787   4.897   2.064   3.657
    1PA    H15R 9788   4.850   1.972   3.622
    1PA    H15S 9789   4.823   2.126   3.709
    1PA    C114 9790   4.951   2.151   3.543
    1PA    H14R 9791   5.046   2.110   3.509
    1PA    H14S 9792   4.872   2.134   3.470
    1PA    C113 9793   4.965   2.300   3.579
    1PA    H13R 9794   4.871   2.341   3.618
    1PA    H13S 9795   5.038   2.321   3.657
    1PA    C112 9796   5.007   2.377   3.453
    1PA    H12R 9797   4.949   2.346   3.366
    1PA    H12S 9798   4.973   2.480   3.464
    1PA    C111 9799   5.158   2.379   3.428
    1PA    H11R 9800   5.215   2.417   3.514
    1PA    H11S 9801   5.201   2.279   3.419
    1PA    C110 9802   5.178   2.464   3.302
    1PA    H10R 9803   5.093   2.533   3.302
    1PA    H10S 9804   5.262   2.533   3.303
    1PA     C19 9805   5.169   2.393   3.166
    1PA     H9R 9806   5.260   2.335   3.151
    1PA     H9S 9807   5.080   2.330   3.173
    1PA     C18 9808   5.150   2.487   3.046
    1PA     H8R 9809   5.048   2.523   3.055
    1PA     H8S 9810   5.220   2.570   3.033
    1PA     C17 9811   5.151   2.405   2.916
    1PA     H7R 9812   5.245   2.350   2.909
    1PA     H7S 9813   5.063   2.340   2.911
    1PA     C16 9814   5.142   2.488   2.788
    1PA     H6R 9815   5.045   2.537   2.772
    1PA     H6S 9816   5.220   2.564   2.787
    1PA     C15 9817   5.159   2.409   2.657
    1PA     H5R 9818   5.253   2.353   2.662
    1PA     H5S 9819   5.082   2.332   2.653
    1PA     C14 9820   5.158   2.498   2.532
    1PA     H4R 9821   5.073   2.566   2.536
    1PA     H4S 9822   5.250   2.557   2.533
    1PA     C13 9823   5.147   2.405   2.410
    1PA     H3R 9824   5.242   2.360   2.382
    1PA     H3S 9825   5.074   2.325   2.425
    1PA     C12 9826   5.096   2.489   2.292
    1PA     H2R 9827   4.993   2.518   2.311
    1PA     H2S 9828   5.169   2.571   2.283
    2PC     C11 9829   5.104   2.405   2.168
    2PC     O12 9830   5.209   2.381   2.112
    2PC     O11 9831   4.984   2.360   2.129
    2PC      C1 9832   4.967   2.290   2.005
    2PC      HR 9833   4.868   2.310   1.963
    2PC      HS 9834   5.034   2.332   1.930
    2PC      C2 9835   4.995   2.143   2.037
    2PC      HX 9836   5.095   2.121   2.074
    2PC      C3 9837   4.967   2.060   1.911
    2PC      HA 9838   5.030   2.092   1.828
    2PC      HB 9839   4.978   1.953   1.930
    2PC     O31 9840   4.832   2.085   1.866
    2PC     P31 9841   4.791   2.025   1.724
    2PC     O32 9842   4.680   1.917   1.767
    2PC     C31 9843   4.543   1.959   1.756
    2PC     H1A 9844   4.515   2.015   1.667
    2PC     H1B 9845   4.480   1.870   1.746
    2PC     C32 9846   4.513   2.044   1.881
    2PC     H2A 9847   4.592   2.119   1.883
    2PC     H2B 9848   4.425   2.102   1.856
    2PC     N31 9849   4.500   1.983   2.018
    2PC     C33 9850   4.625   1.907   2.054
    2PC     H3A 9851   4.709   1.975   2.036
    2PC     H3B 9852   4.621   1.871   2.156
    2PC     H3C 9853   4.630   1.822   1.985
    2PC     C34 9854   4.473   2.097   2.111
    2PC     H4A 9855   4.568   2.143   2.138
    2PC     H4B 9856   4.415   2.177   2.066
    2PC     H4C 9857   4.433   2.058   2.205
    2PC     C35 9858   4.389   1.884   2.034
    2PC     H5A 9859   4.294   1.935   2.018
    2PC     H5B 9860   4.398   1.840   2.133
    2PC     H5C 9861   4.406   1.809   1.956
    2PC     O33 9862   4.735   2.121   1.625
    2PC     O34 9863   4.899   1.956   1.649
    2PC     O21 9864   4.909   2.081   2.135
    2PC     C21 9865   4.954   2.063   2.261
    2PC     O22 9866   5.062   2.100   2.302
    3OL     C12 9867   4.861   1.965   2.327
    3OL     H2R 9868   4.839   1.885   2.256
    3OL     H2S 9869   4.764   2.014   2.337
    3OL     C13 9870   4.909   1.912   2.464
    3OL     H3R 9871   5.015   1.887   2.462
    3OL     H3S 9872   4.856   1.823   2.497
    3OL     C14 9873   4.892   2.014   2.577
    3OL     H4R 9874   4.791   2.057   2.578
    3OL     H4S 9875   4.964   2.094   2.561
    3OL     C15 9876   4.901   1.943   2.712
    3OL     H5R 9877   4.993   1.886   2.732
    3OL     H5S 9878   4.827   1.862   2.716
    3OL     C16 9879   4.885   2.043   2.828
    3OL     H6R 9880   4.801   2.106   2.800
    3OL     H6S 9881   4.974   2.106   2.823
    3OL     C17 9882   4.868   1.980   2.967
    3OL     H7R 9883   4.964   1.933   2.992
    3OL     H7S 9884   4.794   1.901   2.972
    3OL     C18 9885   4.832   2.096   3.061
    3OL     H8R 9886   4.726   2.123   3.049
    3OL     H8S 9887   4.888   2.188   3.043
    3OL     C19 9888   4.858   2.058   3.205
    3OL     H9R 9889   4.958   2.087   3.237
    3OL    C110 9890   4.776   1.986   3.280
    3OL    H10R 9891   4.805   1.951   3.378
    3OL    C111 9892   4.639   1.936   3.241
    3OL    H11R 9893   4.605   1.974   3.145
    3OL    H11S 9894   4.572   1.978   3.316
    3OL    C112 9895   4.628   1.784   3.260
    3OL    H12R 9896   4.522   1.766   3.280
    3OL    H12S 9897   4.691   1.755   3.344
    3OL    C113 9898   4.672   1.702   3.139
    3OL    H13R 9899   4.777   1.716   3.112
    3OL    H13S 9900   4.619   1.741   3.051
    3OL    C114 9901   4.650   1.553   3.170
    3OL    H14R 9902   4.552   1.529   3.212
    3OL    H14S 9903   4.727   1.527   3.243
    3OL    C115 9904   4.671   1.457   3.053
    3OL    H15R 9905   4.767   1.474   3.003
    3OL    H15S 9906   4.594   1.475   2.978
    3OL    C116 9907   4.671   1.311   3.101
    3OL    H16R 9908   4.577   1.297   3.155
    3OL    H16S 9909   4.759   1.289   3.162
    3OL    C117 9910   4.676   1.205   2.991
    3OL    H17R 9911   4.668   1.113   3.049
    3OL    H17S 9912   4.772   1.202   2.937
    3OL    C118 9913   4.556   1.209   2.895
    3OL    H18R 9914   4.463   1.206   2.952
    3OL    H18S 9915   4.552   1.119   2.833
    3OL    H18T 9916   4.562   1.298   2.832
    1PA    C116 9917   5.781   2.923   4.047
    1PA    H16R 9918   5.702   2.968   3.987
    1PA    H16S 9919   5.813   2.985   4.131
    1PA    H16T 9920   5.731   2.837   4.091
    1PA    C115 9921   5.899   2.891   3.953
    1PA    H15R 9922   5.963   2.979   3.954
    1PA    H15S 9923   5.964   2.808   3.981
    1PA    C114 9924   5.845   2.851   3.815
    1PA    H14R 9925   5.752   2.795   3.816
    1PA    H14S 9926   5.826   2.945   3.763
    1PA    C113 9927   5.950   2.767   3.740
    1PA    H13R 9928   6.038   2.821   3.706
    1PA    H13S 9929   5.982   2.684   3.804
    1PA    C112 9930   5.885   2.705   3.615
    1PA    H12R 9931   5.812   2.629   3.644
    1PA    H12S 9932   5.838   2.790   3.564
    1PA    C111 9933   5.987   2.630   3.529
    1PA    H11R 9934   6.081   2.625   3.583
    1PA    H11S 9935   5.951   2.527   3.518
    1PA    C110 9936   6.005   2.695   3.391
    1PA    H10R 9937   5.907   2.694   3.343
    1PA    H10S 9938   6.025   2.801   3.404
    1PA     C19 9939   6.114   2.630   3.305
    1PA     H9R 9940   6.158   2.705   3.239
    1PA     H9S 9941   6.192   2.591   3.371
    1PA     C18 9942   6.052   2.530   3.206
    1PA     H8R 9943   5.997   2.453   3.262
    1PA     H8S 9944   5.976   2.583   3.148
    1PA     C17 9945   6.160   2.463   3.121
    1PA     H7R 9946   6.230   2.544   3.097
    1PA     H7S 9947   6.211   2.391   3.185
    1PA     C16 9948   6.106   2.383   3.002
    1PA     H6R 9949   6.178   2.310   2.965
    1PA     H6S 9950   6.027   2.317   3.038
    1PA     C15 9951   6.055   2.482   2.895
    1PA     H5R 9952   5.975   2.548   2.928
    1PA     H5S 9953   6.131   2.555   2.866
    1PA     C14 9954   6.009   2.407   2.770
    1PA     H4R 9955   5.947   2.322   2.800
    1PA     H4S 9956   5.944   2.467   2.704
    1PA     C13 9957   6.129   2.362   2.685
    1PA     H3R 9958   6.178   2.450   2.642
    1PA     H3S 9959   6.201   2.305   2.744
    1PA     C12 9960   6.090   2.281   2.561
    1PA     H2R 9961   6.060   2.180   2.589
    1PA     H2S 9962   6.004   2.323   2.509
    2PC     C11 9963   6.197   2.259   2.457
    2PC     O12 9964   6.206   2.149   2.407
    2PC     O11 9965   6.272   2.365   2.425
    2PC      C1 9966   6.376   2.365   2.325
    2PC      HR 9967   6.352   2.296   2.244
    2PC      HS 9968   6.374   2.463   2.277
    2PC      C2 9969   6.516   2.321   2.372
    2PC      HX 9970   6.541   2.391   2.452
    2PC      C3 9971   6.621   2.323   2.260
    2PC      HA 9972   6.660   2.421   2.229
    2PC      HB 9973   6.702   2.258   2.293
    2PC     O31 9974   6.570   2.268   2.137
    2PC     P31 9975   6.674   2.221   2.024
    2PC     O32 9976   6.757   2.356   1.999
    2PC     C31 9977   6.874   2.325   1.921
    2PC     H1A 9978   6.936   2.257   1.980
    2PC     H1B 9979   6.847   2.264   1.835
    2PC     C32 9980   6.944   2.454   1.876
    2PC     H2A 9981   6.863   2.498   1.817
    2PC     H2B 9982   6.967   2.529   1.952
    2PC     N31 9983   7.060   2.434   1.783
    2PC     C33 9984   7.086   2.564   1.715
    2PC     H3A 9985   7.082   2.635   1.798
    2PC     H3B 9986   7.186   2.556   1.671
    2PC     H3C 9987   7.016   2.575   1.632
    2PC     C34 9988   7.175   2.379   1.862
    2PC     H4A 9989   7.264   2.371   1.799
    2PC     H4B 9990   7.193   2.446   1.946
    2PC     H4C 9991   7.149   2.284   1.910
    2PC     C35 9992   7.033   2.340   1.669
    2PC     H5A 9993   6.953   2.386   1.611
    2PC     H5B 9994   7.009   2.247   1.721
    2PC     H5C 9995   7.113   2.330   1.595
    2PC     O33 9996   6.757   2.104   2.058
    2PC     O34 9997   6.594   2.191   1.903
    2PC     O21 9998   6.500   2.189   2.426
    2PC     C21 9999   6.595   2.138   2.506
    2PC     O2210000   6.701   2.189   2.535
    3OL     C1210001   6.557   2.009   2.573
    3OL     H2R10002   6.621   1.998   2.661
    3OL     H2S10003   6.583   1.937   2.496
    3OL     C1310004   6.411   1.985   2.614
    3OL     H3R10005   6.349   1.981   2.524
    3OL     H3S10006   6.371   2.056   2.686
    3OL     C1410007   6.399   1.848   2.684
    3OL     H4R10008   6.467   1.831   2.768
    3OL     H4S10009   6.415   1.771   2.609
    3OL     C1510010   6.257   1.830   2.737
    3OL     H5R10011   6.243   1.726   2.766
    3OL     H5S10012   6.191   1.845   2.652
    3OL     C1610013   6.226   1.919   2.859
    3OL     H6R10014   6.230   2.025   2.834
    3OL     H6S10015   6.296   1.906   2.941
    3OL     C1710016   6.082   1.887   2.904
    3OL     H7R10017   6.075   1.779   2.917
    3OL     H7S10018   6.008   1.912   2.828
    3OL     C1810019   6.057   1.953   3.041
    3OL     H8R10020   6.075   2.061   3.041
    3OL     H8S10021   6.135   1.919   3.110
    3OL     C1910022   5.925   1.906   3.096
    3OL     H9R10023   5.939   1.805   3.133
    3OL    C11010024   5.818   1.978   3.124
    3OL    H10R10025   5.732   1.921   3.161
    3OL    C11110026   5.784   2.120   3.090
    3OL    H11R10027   5.864   2.155   3.024
    3OL    H11S10028   5.780   2.177   3.183
    3OL    C11210029   5.649   2.125   3.015
    3OL    H12R10030   5.618   2.228   2.994
    3OL    H12S10031   5.570   2.080   3.075
    3OL    C11310032   5.654   2.064   2.874
    3OL    H13R10033   5.556   2.076   2.827
    3OL    H13S10034   5.674   1.957   2.882
    3OL    C11410035   5.752   2.138   2.783
    3OL    H14R10036   5.857   2.136   2.812
    3OL    H14S10037   5.721   2.243   2.782
    3OL    C11510038   5.746   2.102   2.633
    3OL    H15R10039   5.806   2.170   2.573
    3OL    H15S10040   5.641   2.101   2.604
    3OL    C11610041   5.791   1.958   2.608
    3OL    H16R10042   5.727   1.886   2.659
    3OL    H16S10043   5.896   1.954   2.637
    3OL    C11710044   5.781   1.935   2.457
    3OL    H17R10045   5.810   2.023   2.399
    3OL    H17S10046   5.674   1.917   2.441
    3OL    C11810047   5.850   1.807   2.407
    3OL    H18R10048   5.952   1.811   2.447
    3OL    H18S10049   5.791   1.719   2.433
    3OL    H18T10050   5.854   1.809   2.298
    1PA    C11610051   0.115   0.784   4.144
    1PA    H16R10052   0.141   0.771   4.250
    1PA    H16S10053   0.039   0.860   4.126
    1PA    H16T10054   0.075   0.686   4.118
    1PA    C11510055   0.243   0.805   4.062
    1PA    H15R10056   0.296   0.896   4.090
    1PA    H15S10057   0.299   0.713   4.077
    1PA    C11410058   0.218   0.817   3.911
    1PA    H14R10059   0.171   0.726   3.874
    1PA    H14S10060   0.152   0.902   3.892
    1PA    C11310061   0.345   0.838   3.827
    1PA    H13R10062   0.378   0.940   3.850
    1PA    H13S10063   0.427   0.771   3.852
    1PA    C11210064   0.316   0.832   3.676
    1PA    H12R10065   0.407   0.802   3.624
    1PA    H12S10066   0.237   0.759   3.659
    1PA    C11110067   0.276   0.969   3.621
    1PA    H11R10068   0.199   1.014   3.683
    1PA    H11S10069   0.362   1.034   3.634
    1PA    C11010070   0.234   0.965   3.473
    1PA    H10R10071   0.318   0.945   3.405
    1PA    H10S10072   0.158   0.889   3.454
    1PA     C1910073   0.183   1.100   3.422
    1PA     H9R10074   0.109   1.141   3.491
    1PA     H9S10075   0.276   1.157   3.432
    1PA     C1810076   0.139   1.093   3.275
    1PA     H8R10077   0.145   1.191   3.228
    1PA     H8S10078   0.212   1.032   3.222
    1PA     C1710079   0.006   1.017   3.274
    1PA     H7R10080   0.022   0.916   3.314
    1PA     H7S10081  -0.062   1.060   3.348
    1PA     C1610082  -0.062   1.022   3.137
    1PA     H6R10083  -0.170   1.030   3.151
    1PA     H6S10084  -0.030   1.116   3.092
    1PA     C1510085  -0.041   0.897   3.050
    1PA     H5R10086   0.064   0.894   3.020
    1PA     H5S10087  -0.067   0.808   3.107
    1PA     C1410088  -0.122   0.899   2.919
    1PA     H4R10089  -0.225   0.880   2.947
    1PA     H4S10090  -0.127   0.991   2.861
    1PA     C1310091  -0.105   0.774   2.831
    1PA     H3R10092  -0.108   0.685   2.894
    1PA     H3S10093  -0.196   0.771   2.771
    1PA     C1210094   0.021   0.781   2.743
    1PA     H2R10095   0.028   0.872   2.684
    1PA     H2S10096   0.109   0.774   2.807
    2PC     C1110097   0.029   0.662   2.651
    2PC     O1210098  -0.059   0.579   2.643
    2PC     O1110099   0.144   0.662   2.581
    2PC      C110100   0.148   0.601   2.451
    2PC      HR10101   0.121   0.497   2.470
    2PC      HS10102   0.072   0.644   2.384
    2PC      C210103   0.281   0.610   2.374
    2PC      HX10104   0.307   0.713   2.350
    2PC      C310105   0.276   0.526   2.245
    2PC      HA10106   0.372   0.488   2.210
    2PC      HB10107   0.202   0.446   2.246
    2PC     O3110108   0.240   0.613   2.136
    2PC     P3110109   0.161   0.556   2.009
    2PC     O3210110   0.094   0.694   1.960
    2PC     C3110111   0.165   0.786   1.876
    2PC     H1A10112   0.257   0.810   1.930
    2PC     H1B10113   0.187   0.740   1.779
    2PC     C3210114   0.089   0.919   1.863
    2PC     H2A10115   0.000   0.896   1.804
    2PC     H2B10116   0.066   0.950   1.965
    2PC     N3110117   0.163   1.030   1.794
    2PC     C3310118   0.270   1.091   1.878
    2PC     H3A10119   0.331   1.010   1.918
    2PC     H3B10120   0.336   1.157   1.821
    2PC     H3C10121   0.231   1.145   1.965
    2PC     C3410122   0.249   0.978   1.683
    2PC     H4A10123   0.327   0.909   1.715
    2PC     H4B10124   0.192   0.918   1.612
    2PC     H4C10125   0.286   1.067   1.631
    2PC     C3510126   0.076   1.138   1.737
    2PC     H5A10127   0.022   1.079   1.662
    2PC     H5B10128   0.133   1.223   1.697
    2PC     H5C10129   0.003   1.159   1.815
    2PC     O3310130   0.248   0.498   1.903
    2PC     O3410131   0.058   0.456   2.045
    2PC     O2110132   0.377   0.552   2.463
    2PC     C2110133   0.504   0.596   2.474
    2PC     O2210134   0.548   0.687   2.407
    3OL     C1210135   0.555   0.540   2.604
    3OL     H2R10136   0.488   0.578   2.681
    3OL     H2S10137   0.653   0.584   2.627
    3OL     C1310138   0.558   0.387   2.615
    3OL     H3R10139   0.617   0.344   2.534
    3OL     H3S10140   0.452   0.365   2.615
    3OL     C1410141   0.614   0.339   2.750
    3OL     H4R10142   0.571   0.400   2.829
    3OL     H4S10143   0.721   0.359   2.755
    3OL     C1510144   0.582   0.190   2.774
    3OL     H5R10145   0.641   0.134   2.701
    3OL     H5S10146   0.476   0.170   2.757
    3OL     C1610147   0.630   0.153   2.915
    3OL     H6R10148   0.579   0.059   2.936
    3OL     H6S10149   0.574   0.217   2.984
    3OL     C1710150   0.782   0.152   2.937
    3OL     H7R10151   0.831   0.238   2.892
    3OL     H7S10152   0.829   0.071   2.881
    3OL     C1810153   0.816   0.122   3.084
    3OL     H8R10154   0.925   0.119   3.092
    3OL     H8S10155   0.787   0.021   3.112
    3OL     C1910156   0.755   0.226   3.174
    3OL     H9R10157   0.737   0.320   3.121
    3OL    C11010158   0.726   0.214   3.303
    3OL    H10R10159   0.675   0.296   3.353
    3OL    C11110160   0.755   0.094   3.389
    3OL    H11R10161   0.860   0.071   3.370
    3OL    H11S10162   0.693   0.006   3.371
    3OL    C11210163   0.735   0.145   3.533
    3OL    H12R10164   0.636   0.190   3.540
    3OL    H12S10165   0.800   0.225   3.570
    3OL    C11310166   0.712   0.029   3.631
    3OL    H13R10167   0.764  -0.064   3.608
    3OL    H13S10168   0.607   0.002   3.628
    3OL    C11410169   0.748   0.085   3.769
    3OL    H14R10170   0.685   0.170   3.796
    3OL    H14S10171   0.854   0.114   3.768
    3OL    C11510172   0.720  -0.017   3.880
    3OL    H15R10173   0.772  -0.110   3.858
    3OL    H15S10174   0.615  -0.044   3.895
    3OL    C11610175   0.769   0.033   4.017
    3OL    H16R10176   0.719   0.124   4.050
    3OL    H16S10177   0.876   0.055   4.018
    3OL    C11710178   0.752  -0.074   4.126
    3OL    H17R10179   0.788  -0.173   4.098
    3OL    H17S10180   0.648  -0.097   4.145
    3OL    C11810181   0.827  -0.024   4.250
    3OL    H18R10182   0.802  -0.076   4.343
    3OL    H18S10183   0.803   0.082   4.261
    3OL    H18T10184   0.933  -0.040   4.228
    1PA    C11610185   4.832   5.908   4.283
    1PA    H16R10186   4.768   5.909   4.371
    1PA    H16S10187   4.787   5.976   4.210
    1PA    H16T10188   4.929   5.951   4.307
    1PA    C11510189   4.849   5.766   4.226
    1PA    H15R10190   4.908   5.714   4.302
    1PA    H15S10191   4.753   5.715   4.220
    1PA    C11410192   4.940   5.769   4.103
    1PA    H14R10193   4.886   5.831   4.031
    1PA    H14S10194   5.035   5.818   4.122
    1PA    C11310195   4.968   5.634   4.035
    1PA    H13R10196   4.983   5.554   4.109
    1PA    H13S10197   4.873   5.610   3.986
    1PA    C11210198   5.074   5.641   3.924
    1PA    H12R10199   5.032   5.705   3.846
    1PA    H12S10200   5.158   5.695   3.968
    1PA    C11110201   5.108   5.504   3.862
    1PA    H11R10202   5.195   5.527   3.800
    1PA    H11S10203   5.150   5.446   3.944
    1PA    C11010204   4.988   5.433   3.797
    1PA    H10R10205   4.904   5.419   3.865
    1PA    H10S10206   4.949   5.505   3.724
    1PA     C1910207   5.029   5.296   3.743
    1PA     H9R10208   5.094   5.309   3.656
    1PA     H9S10209   5.083   5.240   3.819
    1PA     C1810210   4.897   5.219   3.720
    1PA     H8R10211   4.858   5.196   3.819
    1PA     H8S10212   4.822   5.273   3.662
    1PA     C1710213   4.928   5.083   3.655
    1PA     H7R10214   5.007   5.105   3.583
    1PA     H7S10215   4.966   5.021   3.736
    1PA     C1610216   4.799   5.023   3.596
    1PA     H6R10217   4.819   4.917   3.613
    1PA     H6S10218   4.706   5.053   3.646
    1PA     C1510219   4.796   5.056   3.447
    1PA     H5R10220   4.775   5.161   3.426
    1PA     H5S10221   4.891   5.033   3.398
    1PA     C1410222   4.680   4.976   3.384
    1PA     H4R10223   4.698   4.869   3.384
    1PA     H4S10224   4.592   5.000   3.444
    1PA     C1310225   4.651   5.020   3.240
    1PA     H3R10226   4.572   4.963   3.190
    1PA     H3S10227   4.602   5.116   3.252
    1PA     C1210228   4.775   5.037   3.151
    1PA     H2R10229   4.856   5.100   3.190
    1PA     H2S10230   4.819   4.939   3.131
    2PC     C1110231   4.740   5.087   3.013
    2PC     O1210232   4.810   5.166   2.952
    2PC     O1110233   4.628   5.035   2.961
    2PC      C110234   4.580   5.101   2.842
    2PC      HR10235   4.533   5.199   2.859
    2PC      HS10236   4.666   5.116   2.777
    2PC      C210237   4.469   5.014   2.782
    2PC      HX10238   4.508   4.914   2.760
    2PC      C310239   4.420   5.073   2.649
    2PC      HA10240   4.465   5.031   2.558
    2PC      HB10241   4.315   5.047   2.634
    2PC     O3110242   4.430   5.216   2.638
    2PC     P3110243   4.357   5.292   2.517
    2PC     O3210244   4.418   5.440   2.510
    2PC     C3110245   4.545   5.453   2.444
    2PC     H1A10246   4.616   5.382   2.487
    2PC     H1B10247   4.520   5.422   2.342
    2PC     C3210248   4.600   5.597   2.450
    2PC     H2A10249   4.535   5.652   2.381
    2PC     H2B10250   4.591   5.634   2.552
    2PC     N3110251   4.745   5.620   2.421
    2PC     C3310252   4.757   5.770   2.413
    2PC     H3A10253   4.679   5.805   2.346
    2PC     H3B10254   4.738   5.813   2.512
    2PC     H3C10255   4.855   5.787   2.368
    2PC     C3410256   4.831   5.553   2.524
    2PC     H4A10257   4.929   5.592   2.499
    2PC     H4B10258   4.789   5.574   2.623
    2PC     H4C10259   4.831   5.445   2.507
    2PC     C3510260   4.779   5.557   2.290
    2PC     H5A10261   4.756   5.451   2.303
    2PC     H5B10262   4.884   5.572   2.266
    2PC     H5C10263   4.716   5.603   2.213
    2PC     O3310264   4.381   5.230   2.385
    2PC     O3410265   4.212   5.293   2.544
    2PC     O2110266   4.362   5.011   2.877
    2PC     C2110267   4.274   4.910   2.871
    2PC     O2210268   4.276   4.825   2.785
    3OL     C1210269   4.180   4.909   2.990
    3OL     H2R10270   4.195   4.993   3.058
    3OL     H2S10271   4.209   4.824   3.053
    3OL     C1310272   4.036   4.892   2.941
    3OL     H3R10273   4.032   4.810   2.869
    3OL     H3S10274   4.000   4.988   2.905
    3OL     C1410275   3.939   4.846   3.052
    3OL     H4R10276   3.929   4.919   3.133
    3OL     H4S10277   3.971   4.756   3.105
    3OL     C1510278   3.800   4.811   2.999
    3OL     H5R10279   3.758   4.724   3.051
    3OL     H5S10280   3.802   4.788   2.892
    3OL     C1610281   3.685   4.909   3.026
    3OL     H6R10282   3.715   4.977   3.107
    3OL     H6S10283   3.592   4.856   3.048
    3OL     C1710284   3.669   4.993   2.898
    3OL     H7R10285   3.652   4.925   2.814
    3OL     H7S10286   3.766   5.038   2.873
    3OL     C1810287   3.558   5.098   2.899
    3OL     H8R10288   3.457   5.061   2.916
    3OL     H8S10289   3.567   5.162   2.810
    3OL     C1910290   3.585   5.188   3.017
    3OL     H9R10291   3.662   5.263   3.004
    3OL    C11010292   3.517   5.192   3.131
    3OL    H10R10293   3.543   5.266   3.206
    3OL    C11110294   3.393   5.109   3.152
    3OL    H11R10295   3.388   5.023   3.086
    3OL    H11S10296   3.301   5.165   3.134
    3OL    C11210297   3.378   5.050   3.293
    3OL    H12R10298   3.391   5.133   3.364
    3OL    H12S10299   3.459   4.980   3.314
    3OL    C11310300   3.243   4.980   3.313
    3OL    H13R10301   3.241   4.897   3.242
    3OL    H13S10302   3.167   5.057   3.298
    3OL    C11410303   3.220   4.935   3.458
    3OL    H14R10304   3.230   5.028   3.514
    3OL    H14S10305   3.291   4.864   3.501
    3OL    C11510306   3.075   4.896   3.488
    3OL    H15R10307   3.009   4.953   3.422
    3OL    H15S10308   3.054   4.919   3.593
    3OL    C11610309   3.045   4.748   3.459
    3OL    H16R10310   3.126   4.687   3.499
    3OL    H16S10311   3.054   4.745   3.350
    3OL    C11710312   2.904   4.704   3.503
    3OL    H17R10313   2.825   4.769   3.465
    3OL    H17S10314   2.897   4.701   3.612
    3OL    C11810315   2.870   4.565   3.447
    3OL    H18R10316   2.782   4.524   3.498
    3OL    H18S10317   2.951   4.494   3.465
    3OL    H18T10318   2.855   4.576   3.339
    1PA    C11610319   5.769   4.862   4.202
    1PA    H16R10320   5.847   4.938   4.210
    1PA    H16S10321   5.805   4.766   4.164
    1PA    H16T10322   5.723   4.840   4.298
    1PA    C11510323   5.663   4.917   4.105
    1PA    H15R10324   5.608   4.993   4.159
    1PA    H15S10325   5.721   4.963   4.025
    1PA    C11410326   5.565   4.817   4.043
    1PA    H14R10327   5.497   4.779   4.120
    1PA    H14S10328   5.496   4.865   3.973
    1PA    C11310329   5.631   4.702   3.965
    1PA    H13R10330   5.694   4.743   3.886
    1PA    H13S10331   5.699   4.647   4.030
    1PA    C11210332   5.538   4.601   3.895
    1PA    H12R10333   5.470   4.559   3.969
    1PA    H12S10334   5.477   4.647   3.817
    1PA    C11110335   5.619   4.486   3.832
    1PA    H11R10336   5.696   4.453   3.902
    1PA    H11S10337   5.552   4.402   3.811
    1PA    C11010338   5.678   4.528   3.697
    1PA    H10R10339   5.593   4.536   3.629
    1PA    H10S10340   5.732   4.623   3.696
    1PA     C1910341   5.780   4.419   3.659
    1PA     H9R10342   5.854   4.410   3.738
    1PA     H9S10343   5.720   4.327   3.658
    1PA     C1810344   5.849   4.456   3.527
    1PA     H8R10345   5.837   4.563   3.509
    1PA     H8S10346   5.956   4.432   3.534
    1PA     C1710347   5.794   4.377   3.408
    1PA     H7R10348   5.810   4.270   3.427
    1PA     H7S10349   5.686   4.394   3.401
    1PA     C1610350   5.855   4.418   3.274
    1PA     H6R10351   5.820   4.519   3.256
    1PA     H6S10352   5.964   4.409   3.282
    1PA     C1510353   5.792   4.334   3.161
    1PA     H5R10354   5.795   4.225   3.173
    1PA     H5S10355   5.685   4.353   3.153
    1PA     C1410356   5.848   4.385   3.028
    1PA     H4R10357   5.869   4.491   3.039
    1PA     H4S10358   5.945   4.339   3.010
    1PA     C1310359   5.756   4.376   2.905
    1PA     H3R10360   5.717   4.274   2.897
    1PA     H3S10361   5.676   4.446   2.931
    1PA     C1210362   5.820   4.425   2.775
    1PA     H2R10363   5.858   4.526   2.795
    1PA     H2S10364   5.911   4.374   2.743
    2PC     C1110365   5.729   4.415   2.656
    2PC     O1210366   5.609   4.394   2.665
    2PC     O1110367   5.794   4.425   2.539
    2PC      C110368   5.722   4.410   2.416
    2PC      HR10369   5.632   4.351   2.434
    2PC      HS10370   5.695   4.514   2.393
    2PC      C210371   5.815   4.360   2.304
    2PC      HX10372   5.889   4.440   2.293
    2PC      C310373   5.725   4.325   2.185
    2PC      HA10374   5.676   4.419   2.159
    2PC      HB10375   5.781   4.277   2.104
    2PC     O3110376   5.624   4.237   2.238
    2PC     P3110377   5.478   4.222   2.174
    2PC     O3210378   5.529   4.151   2.040
    2PC     C3110379   5.431   4.118   1.940
    2PC     H1A10380   5.360   4.052   1.990
    2PC     H1B10381   5.380   4.208   1.904
    2PC     C3210382   5.503   4.032   1.836
    2PC     H2A10383   5.579   4.102   1.802
    2PC     H2B10384   5.559   3.952   1.884
    2PC     N3110385   5.423   3.963   1.729
    2PC     C3310386   5.521   3.878   1.654
    2PC     H3A10387   5.476   3.810   1.582
    2PC     H3B10388   5.590   3.942   1.597
    2PC     H3C10389   5.581   3.818   1.723
    2PC     C3410390   5.324   3.873   1.796
    2PC     H4A10391   5.251   3.945   1.833
    2PC     H4B10392   5.292   3.806   1.716
    2PC     H4C10393   5.380   3.819   1.872
    2PC     C3510394   5.344   4.056   1.642
    2PC     H5A10395   5.299   4.001   1.559
    2PC     H5B10396   5.416   4.133   1.613
    2PC     H5C10397   5.261   4.084   1.707
    2PC     O3310398   5.382   4.143   2.256
    2PC     O3410399   5.410   4.349   2.139
    2PC     O2110400   5.871   4.233   2.344
    2PC     C2110401   5.962   4.171   2.268
    2PC     O2210402   6.013   4.217   2.167
    3OL     C1210403   5.983   4.029   2.311
    3OL     H2R10404   6.026   3.977   2.226
    3OL     H2S10405   5.890   3.976   2.334
    3OL     C1310406   6.085   4.019   2.426
    3OL     H3R10407   6.183   4.060   2.399
    3OL     H3S10408   6.098   3.915   2.454
    3OL     C1410409   6.043   4.100   2.550
    3OL     H4R10410   5.939   4.074   2.571
    3OL     H4S10411   6.059   4.206   2.531
    3OL     C1510412   6.128   4.068   2.674
    3OL     H5R10413   6.227   4.096   2.637
    3OL     H5S10414   6.119   3.963   2.701
    3OL     C1610415   6.099   4.151   2.800
    3OL     H6R10416   6.006   4.122   2.851
    3OL     H6S10417   6.092   4.260   2.789
    3OL     C1710418   6.220   4.126   2.890
    3OL     H7R10419   6.312   4.175   2.856
    3OL     H7S10420   6.239   4.020   2.906
    3OL     C1810421   6.192   4.177   3.032
    3OL     H8R10422   6.158   4.279   3.013
    3OL     H8S10423   6.286   4.181   3.088
    3OL     C1910424   6.085   4.099   3.105
    3OL     H9R10425   6.011   4.046   3.044
    3OL    C11010426   6.073   4.100   3.237
    3OL    H10R10427   5.984   4.052   3.277
    3OL    C11110428   6.158   4.174   3.337
    3OL    H11R10429   6.098   4.242   3.398
    3OL    H11S10430   6.233   4.240   3.294
    3OL    C11210431   6.220   4.071   3.433
    3OL    H12R10432   6.316   4.045   3.386
    3OL    H12S10433   6.168   3.976   3.437
    3OL    C11310434   6.253   4.125   3.573
    3OL    H13R10435   6.306   4.221   3.567
    3OL    H13S10436   6.321   4.057   3.624
    3OL    C11410437   6.129   4.137   3.662
    3OL    H14R10438   6.085   4.038   3.672
    3OL    H14S10439   6.049   4.197   3.618
    3OL    C11510440   6.160   4.190   3.803
    3OL    H15R10441   6.190   4.294   3.788
    3OL    H15S10442   6.238   4.123   3.839
    3OL    C11610443   6.038   4.180   3.895
    3OL    H16R10444   6.004   4.076   3.893
    3OL    H16S10445   5.956   4.247   3.867
    3OL    C11710446   6.091   4.195   4.039
    3OL    H17R10447   6.157   4.281   4.051
    3OL    H17S10448   6.152   4.107   4.064
    3OL    C11810449   5.971   4.220   4.131
    3OL    H18R10450   5.920   4.313   4.108
    3OL    H18S10451   5.995   4.226   4.237
    3OL    H18T10452   5.906   4.135   4.109
    1PA    C11610453   5.459   6.631   3.937
    1PA    H16R10454   5.531   6.644   4.018
    1PA    H16S10455   5.366   6.683   3.962
    1PA    H16T10456   5.487   6.673   3.841
    1PA    C11510457   5.428   6.483   3.909
    1PA    H15R10458   5.431   6.475   3.800
    1PA    H15S10459   5.507   6.423   3.955
    1PA    C11410460   5.293   6.440   3.967
    1PA    H14R10461   5.297   6.454   4.076
    1PA    H14S10462   5.214   6.499   3.920
    1PA    C11310463   5.246   6.296   3.942
    1PA    H13R10464   5.267   6.282   3.836
    1PA    H13S10465   5.305   6.226   4.001
    1PA    C11210466   5.096   6.272   3.966
    1PA    H12R10467   5.067   6.321   4.059
    1PA    H12S10468   5.040   6.316   3.883
    1PA    C11110469   5.070   6.121   3.980
    1PA    H11R10470   5.133   6.077   4.058
    1PA    H11S10471   4.963   6.124   4.002
    1PA    C11010472   5.085   6.044   3.848
    1PA    H10R10473   5.189   6.040   3.815
    1PA    H10S10474   5.067   5.938   3.867
    1PA     C1910475   4.990   6.091   3.738
    1PA     H9R10476   4.887   6.088   3.774
    1PA     H9S10477   5.009   6.194   3.707
    1PA     C1810478   4.996   6.013   3.606
    1PA     H8R10479   5.091   6.013   3.553
    1PA     H8S10480   4.976   5.907   3.617
    1PA     C1710481   4.886   6.077   3.519
    1PA     H7R10482   4.785   6.060   3.558
    1PA     H7S10483   4.911   6.181   3.500
    1PA     C1610484   4.897   6.014   3.380
    1PA     H6R10485   4.980   6.068   3.333
    1PA     H6S10486   4.918   5.907   3.382
    1PA     C1510487   4.768   6.050   3.305
    1PA     H5R10488   4.679   6.014   3.356
    1PA     H5S10489   4.771   6.158   3.294
    1PA     C1410490   4.781   5.981   3.168
    1PA     H4R10491   4.884   5.976   3.133
    1PA     H4S10492   4.753   5.876   3.177
    1PA     C1310493   4.696   6.053   3.061
    1PA     H3R10494   4.726   6.157   3.073
    1PA     H3S10495   4.722   6.017   2.961
    1PA     C1210496   4.545   6.032   3.078
    1PA     H2R10497   4.544   5.924   3.068
    1PA     H2S10498   4.509   6.073   3.173
    2PC     C1110499   4.471   6.098   2.963
    2PC     O1210500   4.508   6.193   2.897
    2PC     O1110501   4.347   6.049   2.948
    2PC      C110502   4.267   6.083   2.833
    2PC      HR10503   4.167   6.046   2.852
    2PC      HS10504   4.259   6.192   2.825
    2PC      C210505   4.329   6.039   2.700
    2PC      HX10506   4.436   6.058   2.689
    2PC      C310507   4.256   6.110   2.585
    2PC      HA10508   4.154   6.074   2.567
    2PC      HB10509   4.255   6.219   2.596
    2PC     O3110510   4.340   6.078   2.473
    2PC     P3110511   4.310   6.153   2.335
    2PC     O3210512   4.448   6.113   2.266
    2PC     C3110513   4.555   6.208   2.256
    2PC     H1A10514   4.569   6.269   2.345
    2PC     H1B10515   4.650   6.158   2.235
    2PC     C3210516   4.525   6.316   2.151
    2PC     H2A10517   4.440   6.379   2.177
    2PC     H2B10518   4.614   6.380   2.148
    2PC     N3110519   4.489   6.272   2.012
    2PC     C3310520   4.351   6.213   2.003
    2PC     H3A10521   4.294   6.280   2.067
    2PC     H3B10522   4.327   6.222   1.897
    2PC     H3C10523   4.352   6.107   2.028
    2PC     C3410524   4.494   6.395   1.927
    2PC     H4A10525   4.453   6.473   1.991
    2PC     H4B10526   4.598   6.415   1.901
    2PC     H4C10527   4.427   6.379   1.842
    2PC     C3510528   4.582   6.176   1.945
    2PC     H5A10529   4.575   6.076   1.989
    2PC     H5B10530   4.685   6.209   1.962
    2PC     H5C10531   4.556   6.176   1.840
    2PC     O3310532   4.184   6.094   2.283
    2PC     O3410533   4.286   6.299   2.337
    2PC     O2110534   4.313   5.896   2.688
    2PC     C2110535   4.388   5.810   2.759
    2PC     O2210536   4.495   5.836   2.811
    3OL     C1210537   4.335   5.669   2.761
    3OL     H2R10538   4.416   5.597   2.760
    3OL     H2S10539   4.280   5.650   2.669
    3OL     C1310540   4.244   5.623   2.876
    3OL     H3R10541   4.208   5.520   2.874
    3OL     H3S10542   4.157   5.688   2.867
    3OL     C1410543   4.307   5.646   3.014
    3OL     H4R10544   4.242   5.601   3.089
    3OL     H4S10545   4.318   5.754   3.028
    3OL     C1510546   4.441   5.573   3.036
    3OL     H5R10547   4.512   5.619   2.967
    3OL     H5S10548   4.425   5.466   3.025
    3OL     C1610549   4.497   5.607   3.175
    3OL     H6R10550   4.432   5.575   3.257
    3OL     H6S10551   4.507   5.715   3.181
    3OL     C1710552   4.628   5.531   3.203
    3OL     H7R10553   4.709   5.548   3.132
    3OL     H7S10554   4.609   5.424   3.200
    3OL     C1810555   4.685   5.561   3.342
    3OL     H8R10556   4.604   5.554   3.415
    3OL     H8S10557   4.724   5.660   3.364
    3OL     C1910558   4.806   5.474   3.368
    3OL     H9R10559   4.784   5.380   3.418
    3OL    C11010560   4.927   5.491   3.318
    3OL    H10R10561   5.004   5.420   3.350
    3OL    C11110562   4.982   5.614   3.252
    3OL    H11R10563   4.925   5.700   3.288
    3OL    H11S10564   4.968   5.610   3.144
    3OL    C11210565   5.134   5.634   3.269
    3OL    H12R10566   5.157   5.722   3.210
    3OL    H12S10567   5.184   5.545   3.232
    3OL    C11310568   5.176   5.665   3.414
    3OL    H13R10569   5.154   5.591   3.491
    3OL    H13S10570   5.132   5.758   3.449
    3OL    C11410571   5.328   5.686   3.407
    3OL    H14R10572   5.358   5.761   3.333
    3OL    H14S10573   5.375   5.593   3.374
    3OL    C11510574   5.399   5.718   3.539
    3OL    H15R10575   5.500   5.686   3.514
    3OL    H15S10576   5.371   5.638   3.607
    3OL    C11610577   5.405   5.860   3.599
    3OL    H16R10578   5.304   5.882   3.634
    3OL    H16S10579   5.436   5.928   3.519
    3OL    C11710580   5.496   5.856   3.722
    3OL    H17R10581   5.523   5.955   3.761
    3OL    H17S10582   5.584   5.804   3.685
    3OL    C11810583   5.442   5.768   3.835
    3OL    H18R10584   5.444   5.664   3.801
    3OL    H18S10585   5.336   5.792   3.843
    3OL    H18T10586   5.495   5.771   3.931
    1PA    C11610587   0.325   6.135   4.261
    1PA    H16R10588   0.242   6.183   4.313
    1PA    H16S10589   0.404   6.209   4.276
    1PA    H16T10590   0.343   6.041   4.312
    1PA    C11510591   0.302   6.109   4.111
    1PA    H15R10592   0.372   6.031   4.080
    1PA    H15S10593   0.200   6.073   4.097
    1PA    C11410594   0.322   6.235   4.025
    1PA    H14R10595   0.254   6.313   4.060
    1PA    H14S10596   0.427   6.262   4.029
    1PA    C11310597   0.294   6.198   3.879
    1PA    H13R10598   0.368   6.126   3.844
    1PA    H13S10599   0.196   6.148   3.872
    1PA    C11210600   0.299   6.321   3.788
    1PA    H12R10601   0.222   6.395   3.813
    1PA    H12S10602   0.394   6.374   3.779
    1PA    C11110603   0.255   6.291   3.644
    1PA    H11R10604   0.310   6.205   3.606
    1PA    H11S10605   0.150   6.261   3.654
    1PA    C11010606   0.273   6.407   3.545
    1PA    H10R10607   0.221   6.493   3.589
    1PA    H10S10608   0.380   6.427   3.545
    1PA     C1910609   0.223   6.372   3.405
    1PA     H9R10610   0.277   6.294   3.350
    1PA     H9S10611   0.121   6.333   3.416
    1PA     C1810612   0.240   6.497   3.318
    1PA     H8R10613   0.202   6.587   3.368
    1PA     H8S10614   0.348   6.507   3.304
    1PA     C1710615   0.178   6.484   3.178
    1PA     H7R10616   0.206   6.388   3.133
    1PA     H7S10617   0.069   6.490   3.178
    1PA     C1610618   0.214   6.588   3.071
    1PA     H6R10619   0.186   6.691   3.098
    1PA     H6S10620   0.322   6.592   3.059
    1PA     C1510621   0.146   6.557   2.937
    1PA     H5R10622   0.163   6.457   2.898
    1PA     H5S10623   0.038   6.570   2.949
    1PA     C1410624   0.209   6.651   2.833
    1PA     H4R10625   0.168   6.750   2.853
    1PA     H4S10626   0.316   6.662   2.853
    1PA     C1310627   0.185   6.597   2.691
    1PA     H3R10628   0.238   6.668   2.627
    1PA     H3S10629   0.243   6.505   2.679
    1PA     C1210630   0.042   6.565   2.646
    1PA     H2R10631   0.002   6.493   2.717
    1PA     H2S10632  -0.020   6.656   2.644
    2PC     C1110633   0.039   6.523   2.501
    2PC     O1210634   0.072   6.602   2.415
    2PC     O1110635   0.006   6.395   2.473
    2PC      C110636   0.006   6.352   2.336
    2PC      HR10637  -0.038   6.252   2.333
    2PC      HS10638  -0.059   6.412   2.272
    2PC      C210639   0.148   6.346   2.277
    2PC      HX10640   0.189   6.447   2.272
    2PC      C310641   0.155   6.301   2.130
    2PC      HA10642   0.109   6.377   2.067
    2PC      HB10643   0.259   6.286   2.098
    2PC     O3110644   0.080   6.180   2.108
    2PC     P3110645   0.091   6.122   1.960
    2PC     O3210646   0.023   5.979   1.987
    2PC     C3110647  -0.120   5.967   1.991
    2PC     H1A10648  -0.170   6.007   2.080
    2PC     H1B10649  -0.158   6.017   1.902
    2PC     C3210650  -0.156   5.817   1.997
    2PC     H2A10651  -0.096   5.761   2.067
    2PC     H2B10652  -0.261   5.808   2.028
    2PC     N3110653  -0.149   5.740   1.869
    2PC     C3310654  -0.262   5.765   1.773
    2PC     H3A10655  -0.243   5.737   1.670
    2PC     H3B10656  -0.353   5.709   1.794
    2PC     H3C10657  -0.278   5.873   1.776
    2PC     C3410658  -0.019   5.752   1.795
    2PC     H4A10659   0.062   5.714   1.857
    2PC     H4B10660  -0.026   5.698   1.700
    2PC     H4C10661  -0.006   5.859   1.778
    2PC     C3510662  -0.163   5.596   1.911
    2PC     H5A10663  -0.074   5.558   1.962
    2PC     H5B10664  -0.169   5.541   1.817
    2PC     H5C10665  -0.259   5.588   1.961
    2PC     O3310666  -0.004   6.197   1.874
    2PC     O3410667   0.231   6.110   1.912
    2PC     O2110668   0.228   6.260   2.359
    2PC     C2110669   0.353   6.299   2.388
    2PC     O2210670   0.407   6.400   2.348
    3OL     C1210671   0.431   6.193   2.462
    3OL     H2R10672   0.538   6.207   2.446
    3OL     H2S10673   0.407   6.098   2.415
    3OL     C1310674   0.394   6.198   2.611
    3OL     H3R10675   0.287   6.180   2.607
    3OL     H3S10676   0.408   6.293   2.664
    3OL     C1410677   0.468   6.081   2.678
    3OL     H4R10678   0.570   6.078   2.637
    3OL     H4S10679   0.425   5.982   2.661
    3OL     C1510680   0.479   6.092   2.831
    3OL     H5R10681   0.503   6.193   2.864
    3OL     H5S10682   0.554   6.021   2.868
    3OL     C1610683   0.345   6.062   2.898
    3OL     H6R10684   0.312   5.959   2.882
    3OL     H6S10685   0.267   6.127   2.858
    3OL     C1710686   0.353   6.086   3.050
    3OL     H7R10687   0.254   6.093   3.094
    3OL     H7S10688   0.409   6.180   3.055
    3OL     C1810689   0.438   5.979   3.121
    3OL     H8R10690   0.525   5.963   3.056
    3OL     H8S10691   0.383   5.885   3.128
    3OL     C1910692   0.492   6.051   3.242
    3OL     H9R10693   0.566   6.124   3.211
    3OL    C11010694   0.473   6.020   3.369
    3OL    H10R10695   0.514   6.085   3.446
    3OL    C11110696   0.376   5.912   3.410
    3OL    H11R10697   0.435   5.821   3.425
    3OL    H11S10698   0.297   5.897   3.336
    3OL    C11210699   0.302   5.948   3.539
    3OL    H12R10700   0.238   6.035   3.529
    3OL    H12S10701   0.375   5.978   3.615
    3OL    C11310702   0.240   5.824   3.606
    3OL    H13R10703   0.317   5.750   3.626
    3OL    H13S10704   0.171   5.769   3.541
    3OL    C11410705   0.170   5.868   3.736
    3OL    H14R10706   0.104   5.953   3.720
    3OL    H14S10707   0.251   5.907   3.798
    3OL    C11510708   0.096   5.748   3.797
    3OL    H15R10709   0.176   5.675   3.782
    3OL    H15S10710   0.009   5.728   3.734
    3OL    C11610711   0.067   5.771   3.946
    3OL    H16R10712  -0.009   5.846   3.967
    3OL    H16S10713   0.162   5.800   3.992
    3OL    C11710714   0.025   5.645   4.024
    3OL    H17R10715  -0.078   5.620   3.999
    3OL    H17S10716   0.028   5.665   4.132
    3OL    C11810717   0.094   5.517   3.976
    3OL    H18R10718   0.073   5.489   3.872
    3OL    H18S10719   0.069   5.422   4.022
    3OL    H18T10720   0.203   5.518   3.979
    1PA    C11610721   5.022   3.623   3.616
    1PA    H16R10722   5.040   3.729   3.599
    1PA    H16S10723   4.990   3.605   3.719
    1PA    H16T10724   4.938   3.590   3.554
    1PA    C11510725   5.154   3.553   3.581
    1PA    H15R10726   5.233   3.600   3.640
    1PA    H15S10727   5.153   3.445   3.597
    1PA    C11410728   5.186   3.565   3.431
    1PA    H14R10729   5.107   3.507   3.382
    1PA    H14S10730   5.172   3.668   3.398
    1PA    C11310731   5.321   3.502   3.393
    1PA    H13R10732   5.401   3.569   3.425
    1PA    H13S10733   5.341   3.410   3.447
    1PA    C11210734   5.337   3.478   3.242
    1PA    H12R10735   5.272   3.536   3.176
    1PA    H12S10736   5.442   3.485   3.213
    1PA    C11110737   5.294   3.331   3.226
    1PA    H11R10738   5.354   3.269   3.293
    1PA    H11S10739   5.189   3.326   3.256
    1PA    C11010740   5.306   3.280   3.082
    1PA    H10R10741   5.231   3.323   3.016
    1PA    H10S10742   5.397   3.330   3.047
    1PA     C1910743   5.322   3.129   3.064
    1PA     H9R10744   5.408   3.091   3.121
    1PA     H9S10745   5.236   3.087   3.116
    1PA     C1810746   5.331   3.088   2.917
    1PA     H8R10747   5.291   2.988   2.897
    1PA     H8S10748   5.269   3.159   2.861
    1PA     C1710749   5.474   3.093   2.861
    1PA     H7R10750   5.500   3.198   2.852
    1PA     H7S10751   5.544   3.036   2.923
    1PA     C1610752   5.470   3.046   2.715
    1PA     H6R10753   5.379   3.081   2.666
    1PA     H6S10754   5.555   3.087   2.660
    1PA     C1510755   5.465   2.893   2.712
    1PA     H5R10756   5.554   2.850   2.758
    1PA     H5S10757   5.379   2.842   2.756
    1PA     C1410758   5.462   2.858   2.562
    1PA     H4R10759   5.407   2.765   2.544
    1PA     H4S10760   5.397   2.932   2.514
    1PA     C1310761   5.592   2.847   2.481
    1PA     H3R10762   5.658   2.933   2.498
    1PA     H3S10763   5.639   2.752   2.507
    1PA     C1210764   5.565   2.827   2.331
    1PA     H2R10765   5.506   2.738   2.310
    1PA     H2S10766   5.508   2.916   2.305
    2PC     C1110767   5.685   2.820   2.240
    2PC     O1210768   5.794   2.866   2.267
    2PC     O1110769   5.651   2.756   2.126
    2PC      C110770   5.747   2.730   2.022
    2PC      HR10771   5.685   2.683   1.945
    2PC      HS10772   5.793   2.826   1.995
    2PC      C210773   5.854   2.628   2.063
    2PC      HX10774   5.926   2.677   2.129
    2PC      C310775   5.929   2.589   1.934
    2PC      HA10776   5.981   2.674   1.889
    2PC      HB10777   5.998   2.510   1.963
    2PC     O3110778   5.838   2.529   1.840
    2PC     P3110779   5.897   2.491   1.696
    2PC     O3210780   5.976   2.359   1.738
    2PC     C3110781   5.897   2.258   1.805
    2PC     H1A10782   5.878   2.282   1.910
    2PC     H1B10783   5.804   2.236   1.752
    2PC     C3210784   5.981   2.130   1.810
    2PC     H2A10785   6.084   2.165   1.821
    2PC     H2B10786   5.955   2.068   1.896
    2PC     N3110787   5.981   2.046   1.686
    2PC     C3310788   6.027   2.117   1.562
    2PC     H3A10789   6.135   2.129   1.567
    2PC     H3B10790   6.000   2.057   1.475
    2PC     H3C10791   5.980   2.216   1.559
    2PC     C3410792   6.072   1.928   1.709
    2PC     H4A10793   6.172   1.971   1.710
    2PC     H4B10794   6.044   1.875   1.800
    2PC     H4C10795   6.059   1.853   1.631
    2PC     C3510796   5.842   1.997   1.661
    2PC     H5A10797   5.789   1.941   1.738
    2PC     H5B10798   5.854   1.940   1.569
    2PC     H5C10799   5.788   2.087   1.632
    2PC     O3310800   5.788   2.454   1.603
    2PC     O3410801   5.975   2.601   1.634
    2PC     O2110802   5.795   2.514   2.126
    2PC     C2110803   5.869   2.452   2.220
    2PC     O2210804   5.973   2.493   2.265
    3OL     C1210805   5.806   2.325   2.273
    3OL     H2R10806   5.880   2.263   2.322
    3OL     H2S10807   5.774   2.256   2.194
    3OL     C1310808   5.688   2.353   2.367
    3OL     H3R10809   5.647   2.255   2.391
    3OL     H3S10810   5.610   2.405   2.312
    3OL     C1410811   5.719   2.433   2.494
    3OL     H4R10812   5.765   2.528   2.466
    3OL     H4S10813   5.791   2.373   2.551
    3OL     C1510814   5.595   2.442   2.584
    3OL     H5R10815   5.553   2.342   2.595
    3OL     H5S10816   5.520   2.506   2.538
    3OL     C1610817   5.627   2.515   2.716
    3OL     H6R10818   5.636   2.621   2.692
    3OL     H6S10819   5.721   2.485   2.761
    3OL     C1710820   5.519   2.492   2.822
    3OL     H7R10821   5.529   2.388   2.856
    3OL     H7S10822   5.421   2.509   2.776
    3OL     C1810823   5.538   2.578   2.947
    3OL     H8R10824   5.470   2.546   3.026
    3OL     H8S10825   5.507   2.682   2.932
    3OL     C1910826   5.675   2.568   3.010
    3OL     H9R10827   5.758   2.580   2.941
    3OL    C11010828   5.695   2.529   3.135
    3OL    H10R10829   5.800   2.514   3.159
    3OL    C11110830   5.583   2.517   3.235
    3OL    H11R10831   5.520   2.431   3.211
    3OL    H11S10832   5.512   2.600   3.237
    3OL    C11210833   5.630   2.485   3.377
    3OL    H12R10834   5.671   2.573   3.427
    3OL    H12S10835   5.718   2.421   3.366
    3OL    C11310836   5.534   2.425   3.481
    3OL    H13R10837   5.521   2.318   3.459
    3OL    H13S10838   5.442   2.483   3.483
    3OL    C11410839   5.598   2.414   3.620
    3OL    H14R10840   5.648   2.510   3.637
    3OL    H14S10841   5.671   2.333   3.623
    3OL    C11510842   5.489   2.387   3.725
    3OL    H15R10843   5.448   2.287   3.709
    3OL    H15S10844   5.411   2.461   3.709
    3OL    C11610845   5.544   2.399   3.868
    3OL    H16R10846   5.470   2.398   3.949
    3OL    H16S10847   5.583   2.500   3.879
    3OL    C11710848   5.651   2.299   3.914
    3OL    H17R10849   5.743   2.318   3.858
    3OL    H17S10850   5.602   2.204   3.892
    3OL    C11810851   5.673   2.306   4.066
    3OL    H18R10852   5.634   2.400   4.105
    3OL    H18S10853   5.775   2.293   4.101
    3OL    H18T10854   5.611   2.229   4.113
    1PA    C11610855   5.686   5.306   4.213
    1PA    H16R10856   5.792   5.329   4.220
    1PA    H16S10857   5.679   5.197   4.216
    1PA    H16T10858   5.637   5.346   4.302
    1PA    C11510859   5.625   5.365   4.085
    1PA    H15R10860   5.518   5.348   4.087
    1PA    H15S10861   5.638   5.473   4.099
    1PA    C11410862   5.705   5.326   3.959
    1PA    H14R10863   5.806   5.365   3.973
    1PA    H14S10864   5.713   5.218   3.946
    1PA    C11310865   5.660   5.389   3.827
    1PA    H13R10866   5.681   5.496   3.839
    1PA    H13S10867   5.722   5.348   3.748
    1PA    C11210868   5.511   5.373   3.792
    1PA    H12R10869   5.464   5.426   3.876
    1PA    H12S10870   5.483   5.419   3.697
    1PA    C11110871   5.463   5.228   3.793
    1PA    H11R10872   5.510   5.175   3.876
    1PA    H11S10873   5.355   5.220   3.808
    1PA    C11010874   5.503   5.149   3.667
    1PA    H10R10875   5.455   5.208   3.588
    1PA    H10S10876   5.610   5.155   3.648
    1PA     C1910877   5.445   5.007   3.667
    1PA     H9R10878   5.428   4.985   3.772
    1PA     H9S10879   5.347   4.987   3.622
    1PA     C1810880   5.532   4.897   3.604
    1PA     H8R10881   5.632   4.881   3.645
    1PA     H8S10882   5.474   4.806   3.617
    1PA     C1710883   5.541   4.927   3.453
    1PA     H7R10884   5.439   4.930   3.414
    1PA     H7S10885   5.594   5.023   3.447
    1PA     C1610886   5.612   4.813   3.379
    1PA     H6R10887   5.713   4.797   3.418
    1PA     H6S10888   5.550   4.723   3.392
    1PA     C1510889   5.620   4.845   3.229
    1PA     H5R10890   5.520   4.856   3.186
    1PA     H5S10891   5.663   4.943   3.211
    1PA     C1410892   5.700   4.737   3.155
    1PA     H4R10893   5.803   4.730   3.188
    1PA     H4S10894   5.654   4.639   3.175
    1PA     C1310895   5.701   4.764   3.004
    1PA     H3R10896   5.737   4.867   2.992
    1PA     H3S10897   5.768   4.691   2.956
    1PA     C1210898   5.567   4.751   2.932
    1PA     H2R10899   5.512   4.661   2.959
    1PA     H2S10900   5.516   4.841   2.967
    2PC     C1110901   5.571   4.753   2.781
    2PC     O1210902   5.472   4.778   2.715
    2PC     O1110903   5.696   4.731   2.738
    2PC      C110904   5.709   4.732   2.594
    2PC      HR10905   5.798   4.672   2.575
    2PC      HS10906   5.627   4.681   2.544
    2PC      C210907   5.713   4.872   2.531
    2PC      HX10908   5.627   4.928   2.569
    2PC      C310909   5.706   4.858   2.378
    2PC      HA10910   5.602   4.835   2.353
    2PC      HB10911   5.729   4.956   2.336
    2PC     O3110912   5.783   4.749   2.325
    2PC     P3110913   5.781   4.716   2.168
    2PC     O3210914   5.788   4.861   2.100
    2PC     C3110915   5.705   4.884   1.985
    2PC     H1A10916   5.725   4.812   1.905
    2PC     H1B10917   5.599   4.870   2.007
    2PC     C3210918   5.711   5.027   1.930
    2PC     H2A10919   5.652   5.031   1.839
    2PC     H2B10920   5.678   5.087   2.015
    2PC     N3110921   5.844   5.081   1.884
    2PC     C3310922   5.940   5.091   1.998
    2PC     H3A10923   5.969   4.992   2.032
    2PC     H3B10924   6.020   5.159   1.969
    2PC     H3C10925   5.891   5.142   2.081
    2PC     C3410926   5.902   5.001   1.771
    2PC     H4A10927   5.943   4.907   1.807
    2PC     H4B10928   5.830   4.992   1.690
    2PC     H4C10929   5.976   5.067   1.725
    2PC     C3510930   5.808   5.217   1.833
    2PC     H5A10931   5.771   5.274   1.918
    2PC     H5B10932   5.731   5.209   1.757
    2PC     H5C10933   5.897   5.272   1.801
    2PC     O3310934   5.902   4.646   2.119
    2PC     O3410935   5.653   4.653   2.125
    2PC     O2110936   5.841   4.931   2.560
    2PC     C2110937   5.852   4.995   2.678
    2PC     O2210938   5.771   5.007   2.768
    3OL     C1210939   5.989   5.053   2.704
    3OL     H2R10940   5.988   5.138   2.773
    3OL     H2S10941   6.020   5.094   2.608
    3OL     C1310942   6.091   4.942   2.731
    3OL     H3R10943   6.193   4.979   2.732
    3OL     H3S10944   6.079   4.871   2.649
    3OL     C1410945   6.056   4.863   2.858
    3OL     H4R10946   5.962   4.807   2.855
    3OL     H4S10947   6.066   4.935   2.939
    3OL     C1510948   6.169   4.761   2.877
    3OL     H5R10949   6.261   4.817   2.897
    3OL     H5S10950   6.168   4.700   2.787
    3OL     C1610951   6.136   4.682   3.005
    3OL     H6R10952   6.174   4.582   2.982
    3OL     H6S10953   6.030   4.661   3.020
    3OL     C1710954   6.193   4.752   3.129
    3OL     H7R10955   6.140   4.847   3.123
    3OL     H7S10956   6.301   4.765   3.118
    3OL     C1810957   6.163   4.677   3.260
    3OL     H8R10958   6.058   4.647   3.256
    3OL     H8S10959   6.182   4.749   3.339
    3OL     C1910960   6.261   4.564   3.282
    3OL     H9R10961   6.310   4.538   3.188
    3OL    C11010962   6.307   4.517   3.396
    3OL    H10R10963   6.386   4.443   3.407
    3OL    C11110964   6.248   4.539   3.533
    3OL    H11R10965   6.204   4.447   3.572
    3OL    H11S10966   6.171   4.616   3.524
    3OL    C11210967   6.348   4.586   3.641
    3OL    H12R10968   6.295   4.610   3.733
    3OL    H12S10969   6.384   4.679   3.597
    3OL    C11310970   6.465   4.489   3.665
    3OL    H13R10971   6.503   4.446   3.572
    3OL    H13S10972   6.423   4.403   3.717
    3OL    C11410973   6.586   4.538   3.746
    3OL    H14R10974   6.644   4.609   3.685
    3OL    H14S10975   6.653   4.453   3.761
    3OL    C11510976   6.547   4.609   3.876
    3OL    H15R10977   6.496   4.704   3.857
    3OL    H15S10978   6.639   4.635   3.930
    3OL    C11610979   6.454   4.524   3.964
    3OL    H16R10980   6.359   4.509   3.912
    3OL    H16S10981   6.423   4.586   4.049
    3OL    C11710982   6.524   4.396   4.010
    3OL    H17R10983   6.530   4.328   3.924
    3OL    H17S10984   6.456   4.348   4.081
    3OL    C11810985   6.666   4.399   4.067
    3OL    H18R10986   6.698   4.301   4.104
    3OL    H18S10987   6.675   4.473   4.147
    3OL    H18T10988   6.745   4.419   3.994
    1PA    C11610989   5.144   1.938   4.348
    1PA    H16R10990   5.173   2.036   4.385
    1PA    H16S10991   5.090   1.883   4.426
    1PA    H16T10992   5.080   1.954   4.261
    1PA    C11510993   5.260   1.863   4.283
    1PA    H15R10994   5.335   1.839   4.359
    1PA    H15S10995   5.223   1.767   4.245
    1PA    C11410996   5.315   1.952   4.171
    1PA    H14R10997   5.237   1.946   4.094
    1PA    H14S10998   5.334   2.055   4.201
    1PA    C11310999   5.433   1.878   4.108
    1PA    H13R11000   5.496   1.950   4.054
    1PA    H13S11001   5.495   1.838   4.189
    1PA    C11211002   5.389   1.752   4.031
    1PA    H12R11003   5.324   1.689   4.091
    1PA    H12S11004   5.325   1.796   3.954
    1PA    C11111005   5.516   1.685   3.978
    1PA    H11R11006   5.566   1.758   3.913
    1PA    H11S11007   5.576   1.651   4.063
    1PA    C11011008   5.485   1.557   3.898
    1PA    H10R11009   5.582   1.509   3.884
    1PA    H10S11010   5.418   1.499   3.961
    1PA     C1911011   5.429   1.590   3.759
    1PA     H9R11012   5.322   1.608   3.772
    1PA     H9S11013   5.467   1.683   3.716
    1PA     C1811014   5.448   1.474   3.661
    1PA     H8R11015   5.554   1.457   3.638
    1PA     H8S11016   5.411   1.387   3.716
    1PA     C1711017   5.366   1.499   3.534
    1PA     H7R11018   5.339   1.405   3.484
    1PA     H7S11019   5.269   1.536   3.566
    1PA     C1611020   5.430   1.599   3.437
    1PA     H6R11021   5.359   1.634   3.361
    1PA     H6S11022   5.459   1.691   3.488
    1PA     C1511023   5.559   1.547   3.372
    1PA     H5R11024   5.641   1.553   3.444
    1PA     H5S11025   5.533   1.447   3.338
    1PA     C1411026   5.589   1.623   3.243
    1PA     H4R11027   5.504   1.613   3.175
    1PA     H4S11028   5.608   1.729   3.263
    1PA     C1311029   5.710   1.561   3.170
    1PA     H3R11030   5.795   1.594   3.230
    1PA     H3S11031   5.707   1.453   3.178
    1PA     C1211032   5.730   1.612   3.027
    1PA     H2R11033   5.630   1.610   2.983
    1PA     H2S11034   5.766   1.715   3.018
    2PC     C1111035   5.827   1.536   2.941
    2PC     O1211036   5.903   1.456   2.991
    2PC     O1111037   5.806   1.557   2.810
    2PC      C111038   5.888   1.485   2.717
    2PC      HR11039   5.900   1.382   2.749
    2PC      HS11040   5.845   1.481   2.616
    2PC      C211041   6.026   1.551   2.701
    2PC      HX11042   6.012   1.659   2.708
    2PC      C311043   6.082   1.507   2.565
    2PC      HA11044   6.103   1.400   2.564
    2PC      HB11045   6.011   1.524   2.483
    2PC     O3111046   6.202   1.581   2.538
    2PC     P3111047   6.277   1.573   2.397
    2PC     O3211048   6.320   1.727   2.388
    2PC     C3111049   6.248   1.811   2.295
    2PC     H1A11050   6.144   1.782   2.309
    2PC     H1B11051   6.251   1.916   2.328
    2PC     C3211052   6.306   1.781   2.156
    2PC     H2A11053   6.290   1.678   2.125
    2PC     H2B11054   6.256   1.850   2.088
    2PC     N3111055   6.450   1.816   2.131
    2PC     C3311056   6.541   1.711   2.187
    2PC     H3A11057   6.521   1.690   2.293
    2PC     H3B11058   6.529   1.613   2.140
    2PC     H3C11059   6.642   1.751   2.182
    2PC     C3411060   6.467   1.828   1.983
    2PC     H4A11061   6.412   1.914   1.945
    2PC     H4B11062   6.575   1.838   1.966
    2PC     H4C11063   6.431   1.733   1.945
    2PC     C3511064   6.496   1.944   2.194
    2PC     H5A11065   6.453   2.028   2.138
    2PC     H5B11066   6.602   1.959   2.174
    2PC     H5C11067   6.463   1.937   2.298
    2PC     O3311068   6.388   1.477   2.408
    2PC     O3411069   6.199   1.527   2.279
    2PC     O2111070   6.117   1.512   2.805
    2PC     C2111071   6.145   1.386   2.842
    2PC     O2211072   6.115   1.288   2.777
    3OL     C1211073   6.219   1.389   2.973
    3OL     H2R11074   6.270   1.293   2.985
    3OL     H2S11075   6.147   1.399   3.054
    3OL     C1311076   6.320   1.504   2.989
    3OL     H3R11077   6.263   1.597   2.983
    3OL     H3S11078   6.392   1.500   2.906
    3OL     C1411079   6.388   1.500   3.126
    3OL     H4R11080   6.415   1.397   3.152
    3OL     H4S11081   6.316   1.532   3.201
    3OL     C1511082   6.513   1.589   3.132
    3OL     H5R11083   6.480   1.693   3.139
    3OL     H5S11084   6.581   1.586   3.046
    3OL     C1611085   6.589   1.555   3.261
    3OL     H6R11086   6.684   1.609   3.260
    3OL     H6S11087   6.619   1.451   3.270
    3OL     C1711088   6.502   1.596   3.381
    3OL     H7R11089   6.410   1.539   3.398
    3OL     H7S11090   6.478   1.702   3.373
    3OL     C1811091   6.582   1.579   3.511
    3OL     H8R11092   6.531   1.641   3.586
    3OL     H8S11093   6.681   1.624   3.501
    3OL     C1911094   6.586   1.435   3.558
    3OL     H9R11095   6.679   1.385   3.533
    3OL    C11011096   6.513   1.377   3.652
    3OL    H10R11097   6.544   1.277   3.680
    3OL    C11111098   6.377   1.427   3.695
    3OL    H11R11099   6.313   1.340   3.705
    3OL    H11S11100   6.349   1.493   3.612
    3OL    C11211101   6.374   1.509   3.824
    3OL    H12R11102   6.281   1.566   3.833
    3OL    H12S11103   6.450   1.585   3.807
    3OL    C11311104   6.410   1.424   3.946
    3OL    H13R11105   6.511   1.383   3.938
    3OL    H13S11106   6.340   1.341   3.958
    3OL    C11411107   6.416   1.507   4.075
    3OL    H14R11108   6.480   1.595   4.071
    3OL    H14S11109   6.467   1.437   4.141
    3OL    C11511110   6.274   1.536   4.127
    3OL    H15R11111   6.212   1.446   4.118
    3OL    H15S11112   6.246   1.604   4.047
    3OL    C11611113   6.285   1.592   4.269
    3OL    H16R11114   6.352   1.677   4.283
    3OL    H16S11115   6.309   1.516   4.343
    3OL    C11711116   6.155   1.657   4.318
    3OL    H17R11117   6.066   1.602   4.287
    3OL    H17S11118   6.157   1.747   4.257
    3OL    C11811119   6.170   1.686   4.468
    3OL    H18R11120   6.268   1.727   4.494
    3OL    H18S11121   6.149   1.587   4.511
    3OL    H18T11122   6.084   1.747   4.496
    1PA    C11611123  -0.993   6.053   3.140
    1PA    H16R11124  -0.998   5.946   3.120
    1PA    H16S11125  -1.090   6.097   3.162
    1PA    H16T11126  -0.929   6.058   3.228
    1PA    C11511127  -0.934   6.124   3.017
    1PA    H15R11128  -0.989   6.092   2.928
    1PA    H15S11129  -0.942   6.233   3.023
    1PA    C11411130  -0.788   6.086   2.989
    1PA    H14R11131  -0.788   5.977   2.981
    1PA    H14S11132  -0.762   6.119   2.888
    1PA    C11311133  -0.691   6.132   3.099
    1PA    H13R11134  -0.727   6.227   3.138
    1PA    H13S11135  -0.691   6.063   3.184
    1PA    C11211136  -0.549   6.143   3.040
    1PA    H12R11137  -0.513   6.041   3.026
    1PA    H12S11138  -0.556   6.196   2.946
    1PA    C11111139  -0.460   6.201   3.150
    1PA    H11R11140  -0.498   6.302   3.166
    1PA    H11S11141  -0.477   6.148   3.244
    1PA    C11011142  -0.313   6.180   3.109
    1PA    H10R11143  -0.262   6.177   3.205
    1PA    H10S11144  -0.312   6.081   3.063
    1PA     C1911145  -0.263   6.287   3.012
    1PA     H9R11146  -0.321   6.267   2.921
    1PA     H9S11147  -0.287   6.388   3.046
    1PA     C1811148  -0.109   6.291   3.010
    1PA     H8R11149  -0.079   6.382   2.959
    1PA     H8S11150  -0.083   6.304   3.116
    1PA     C1711151  -0.058   6.163   2.943
    1PA     H7R11152   0.051   6.155   2.949
    1PA     H7S11153  -0.097   6.078   2.999
    1PA     C1611154  -0.110   6.159   2.799
    1PA     H6R11155  -0.217   6.138   2.802
    1PA     H6S11156  -0.085   6.257   2.758
    1PA     C1511157  -0.055   6.049   2.707
    1PA     H5R11158   0.054   6.060   2.704
    1PA     H5S11159  -0.081   5.950   2.746
    1PA     C1411160  -0.112   6.066   2.565
    1PA     H4R11161  -0.215   6.029   2.570
    1PA     H4S11162  -0.122   6.171   2.537
    1PA     C1311163  -0.039   5.994   2.451
    1PA     H3R11164  -0.094   6.031   2.364
    1PA     H3S11165   0.060   6.041   2.452
    1PA     C1211166  -0.041   5.842   2.465
    1PA     H2R11167   0.004   5.802   2.556
    1PA     H2S11168  -0.145   5.811   2.457
    2PC     C1111169   0.017   5.790   2.336
    2PC     O1211170  -0.038   5.705   2.269
    2PC     O1111171   0.141   5.835   2.309
    2PC      C111172   0.212   5.794   2.191
    2PC      HR11173   0.223   5.687   2.207
    2PC      HS11174   0.153   5.825   2.104
    2PC      C211175   0.354   5.854   2.196
    2PC      HX11176   0.350   5.954   2.241
    2PC      C311177   0.413   5.857   2.055
    2PC      HA11178   0.380   5.936   1.987
    2PC      HB11179   0.522   5.864   2.065
    2PC     O3111180   0.391   5.729   1.992
    2PC     P3111181   0.449   5.699   1.846
    2PC     O3211182   0.605   5.695   1.882
    2PC     C3111183   0.685   5.579   1.850
    2PC     H1A11184   0.650   5.504   1.921
    2PC     H1B11185   0.655   5.560   1.747
    2PC     C3211186   0.837   5.595   1.864
    2PC     H2A11187   0.873   5.627   1.962
    2PC     H2B11188   0.873   5.492   1.861
    2PC     N3111189   0.903   5.673   1.755
    2PC     C3311190   0.895   5.602   1.623
    2PC     H3A11191   0.911   5.495   1.634
    2PC     H3B11192   0.792   5.619   1.590
    2PC     H3C11193   0.959   5.647   1.546
    2PC     C3411194   0.836   5.807   1.741
    2PC     H4A11195   0.733   5.788   1.711
    2PC     H4B11196   0.848   5.858   1.837
    2PC     H4C11197   0.882   5.865   1.661
    2PC     C3511198   1.047   5.689   1.793
    2PC     H5A11199   1.100   5.756   1.725
    2PC     H5B11200   1.097   5.592   1.782
    2PC     H5C11201   1.041   5.726   1.895
    2PC     O3311202   0.389   5.583   1.777
    2PC     O3411203   0.414   5.806   1.750
    2PC     O2111204   0.438   5.775   2.282
    2PC     C2111205   0.555   5.826   2.325
    2PC     O2211206   0.601   5.936   2.306
    3OL     C1211207   0.629   5.716   2.397
    3OL     H2R11208   0.728   5.689   2.359
    3OL     H2S11209   0.567   5.627   2.407
    3OL     C1311210   0.646   5.759   2.544
    3OL     H3R11211   0.551   5.793   2.586
    3OL     H3S11212   0.711   5.847   2.538
    3OL     C1411213   0.710   5.643   2.621
    3OL     H4R11214   0.803   5.606   2.577
    3OL     H4S11215   0.651   5.552   2.626
    3OL     C1511216   0.735   5.682   2.768
    3OL     H5R11217   0.779   5.781   2.774
    3OL     H5S11218   0.807   5.605   2.798
    3OL     C1611219   0.613   5.681   2.860
    3OL     H6R11220   0.564   5.583   2.861
    3OL     H6S11221   0.540   5.758   2.831
    3OL     C1711222   0.658   5.721   3.001
    3OL     H7R11223   0.570   5.751   3.059
    3OL     H7S11224   0.713   5.815   2.993
    3OL     C1811225   0.732   5.617   3.085
    3OL     H8R11226   0.814   5.575   3.027
    3OL     H8S11227   0.664   5.534   3.109
    3OL     C1911228   0.777   5.678   3.215
    3OL     H9R11229   0.699   5.720   3.279
    3OL    C11011230   0.900   5.697   3.261
    3OL    H10R11231   0.910   5.719   3.366
    3OL    C11111232   1.025   5.659   3.185
    3OL    H11R11233   0.994   5.676   3.082
    3OL    H11S11234   1.056   5.556   3.201
    3OL    C11211235   1.151   5.742   3.217
    3OL    H12R11236   1.131   5.847   3.195
    3OL    H12S11237   1.230   5.711   3.148
    3OL    C11311238   1.199   5.737   3.362
    3OL    H13R11239   1.248   5.640   3.371
    3OL    H13S11240   1.114   5.737   3.431
    3OL    C11411241   1.307   5.843   3.389
    3OL    H14R11242   1.289   5.932   3.328
    3OL    H14S11243   1.407   5.812   3.359
    3OL    C11511244   1.315   5.875   3.539
    3OL    H15R11245   1.219   5.882   3.590
    3OL    H15S11246   1.370   5.969   3.544
    3OL    C11611247   1.401   5.771   3.612
    3OL    H16R11248   1.501   5.769   3.567
    3OL    H16S11249   1.346   5.679   3.589
    3OL    C11711250   1.415   5.797   3.762
    3OL    H17R11251   1.316   5.794   3.808
    3OL    H17S11252   1.445   5.900   3.783
    3OL    C11811253   1.500   5.685   3.824
    3OL    H18R11254   1.599   5.698   3.781
    3OL    H18S11255   1.450   5.595   3.789
    3OL    H18T11256   1.510   5.703   3.931
    1PA    C11611257   1.744   4.084   3.567
    1PA    H16R11258   1.659   4.153   3.568
    1PA    H16S11259   1.825   4.144   3.523
    1PA    H16T11260   1.765   4.055   3.670
    1PA    C11511261   1.720   3.958   3.483
    1PA    H15R11262   1.808   3.900   3.507
    1PA    H15S11263   1.637   3.899   3.523
    1PA    C11411264   1.711   3.990   3.333
    1PA    H14R11265   1.811   4.013   3.297
    1PA    H14S11266   1.669   3.908   3.274
    1PA    C11311267   1.618   4.106   3.295
    1PA    H13R11268   1.514   4.087   3.323
    1PA    H13S11269   1.640   4.199   3.348
    1PA    C11211270   1.624   4.138   3.145
    1PA    H12R11271   1.724   4.168   3.113
    1PA    H12S11272   1.595   4.049   3.090
    1PA    C11111273   1.535   4.260   3.115
    1PA    H11R11274   1.431   4.228   3.127
    1PA    H11S11275   1.549   4.345   3.182
    1PA    C11011276   1.552   4.314   2.973
    1PA    H10R11277   1.658   4.332   2.956
    1PA    H10S11278   1.512   4.239   2.904
    1PA     C1911279   1.481   4.450   2.958
    1PA     H9R11280   1.495   4.512   3.046
    1PA     H9S11281   1.534   4.505   2.880
    1PA     C1811282   1.333   4.444   2.919
    1PA     H8R11283   1.327   4.416   2.813
    1PA     H8S11284   1.287   4.361   2.973
    1PA     C1711285   1.240   4.565   2.929
    1PA     H7R11286   1.148   4.525   2.971
    1PA     H7S11287   1.285   4.637   2.999
    1PA     C1611288   1.208   4.629   2.793
    1PA     H6R11289   1.166   4.556   2.724
    1PA     H6S11290   1.129   4.702   2.813
    1PA     C1511291   1.330   4.690   2.722
    1PA     H5R11292   1.414   4.622   2.735
    1PA     H5S11293   1.301   4.699   2.617
    1PA     C1411294   1.362   4.833   2.769
    1PA     H4R11295   1.262   4.876   2.763
    1PA     H4S11296   1.400   4.825   2.871
    1PA     C1311297   1.467   4.913   2.691
    1PA     H3R11298   1.564   4.882   2.730
    1PA     H3S11299   1.457   4.875   2.590
    1PA     C1211300   1.450   5.063   2.720
    1PA     H2R11301   1.346   5.086   2.746
    1PA     H2S11302   1.518   5.099   2.798
    2PC     C1111303   1.480   5.134   2.590
    2PC     O1211304   1.565   5.098   2.512
    2PC     O1111305   1.401   5.241   2.576
    2PC      C111306   1.419   5.314   2.453
    2PC      HR11307   1.521   5.339   2.423
    2PC      HS11308   1.374   5.251   2.376
    2PC      C211309   1.343   5.446   2.475
    2PC      HX11310   1.249   5.421   2.524
    2PC      C311311   1.308   5.515   2.342
    2PC      HA11312   1.257   5.446   2.274
    2PC      HB11313   1.250   5.604   2.366
    2PC     O3111314   1.433   5.560   2.286
    2PC     P3111315   1.442   5.586   2.128
    2PC     O3211316   1.392   5.738   2.134
    2PC     C3111317   1.472   5.838   2.199
    2PC     H1A11318   1.485   5.815   2.305
    2PC     H1B11319   1.571   5.850   2.154
    2PC     C3211320   1.410   5.975   2.168
    2PC     H2A11321   1.307   5.973   2.205
    2PC     H2B11322   1.466   6.052   2.222
    2PC     N3111323   1.390   6.017   2.026
    2PC     C3311324   1.526   6.017   1.963
    2PC     H3A11325   1.516   6.086   1.879
    2PC     H3B11326   1.595   6.072   2.028
    2PC     H3C11327   1.551   5.916   1.932
    2PC     C3411328   1.289   5.931   1.957
    2PC     H4A11329   1.249   5.981   1.869
    2PC     H4B11330   1.346   5.842   1.931
    2PC     H4C11331   1.212   5.895   2.026
    2PC     C3511332   1.342   6.159   2.031
    2PC     H5A11333   1.246   6.169   2.083
    2PC     H5B11334   1.328   6.194   1.929
    2PC     H5C11335   1.419   6.211   2.089
    2PC     O3311336   1.571   5.549   2.065
    2PC     O3411337   1.346   5.501   2.055
    2PC     O2111338   1.418   5.536   2.558
    2PC     C2111339   1.349   5.638   2.613
    2PC     O2211340   1.228   5.643   2.612
    3OL     C1211341   1.435   5.727   2.699
    3OL     H2R11342   1.485   5.794   2.629
    3OL     H2S11343   1.512   5.669   2.748
    3OL     C1311344   1.372   5.803   2.817
    3OL     H3R11345   1.346   5.734   2.898
    3OL     H3S11346   1.275   5.840   2.781
    3OL     C1411347   1.466   5.912   2.871
    3OL     H4R11348   1.402   5.987   2.919
    3OL     H4S11349   1.531   5.950   2.792
    3OL     C1511350   1.557   5.856   2.981
    3OL     H5R11351   1.600   5.758   2.958
    3OL     H5S11352   1.495   5.833   3.068
    3OL     C1611353   1.664   5.953   3.033
    3OL     H6R11354   1.624   6.041   3.084
    3OL     H6S11355   1.722   5.995   2.950
    3OL     C1711356   1.762   5.898   3.137
    3OL     H7R11357   1.839   5.975   3.144
    3OL     H7S11358   1.803   5.803   3.102
    3OL     C1811359   1.710   5.865   3.278
    3OL     H8R11360   1.787   5.806   3.328
    3OL     H8S11361   1.629   5.792   3.280
    3OL     C1911362   1.656   5.982   3.356
    3OL     H9R11363   1.568   6.028   3.312
    3OL    C11011364   1.698   6.033   3.471
    3OL    H10R11365   1.653   6.124   3.510
    3OL    C11111366   1.816   5.986   3.551
    3OL    H11R11367   1.910   6.028   3.514
    3OL    H11S11368   1.824   5.878   3.535
    3OL    C11211369   1.809   6.032   3.697
    3OL    H12R11370   1.876   5.968   3.754
    3OL    H12S11371   1.709   6.018   3.740
    3OL    C11311372   1.831   6.182   3.717
    3OL    H13R11373   1.738   6.234   3.695
    3OL    H13S11374   1.908   6.203   3.642
    3OL    C11411375   1.889   6.220   3.855
    3OL    H14R11376   1.983   6.166   3.871
    3OL    H14S11377   1.818   6.173   3.924
    3OL    C11511378   1.913   6.370   3.876
    3OL    H15R11379   1.821   6.428   3.873
    3OL    H15S11380   1.982   6.411   3.803
    3OL    C11611381   1.973   6.391   4.016
    3OL    H16R11382   2.069   6.338   4.017
    3OL    H16S11383   1.911   6.349   4.095
    3OL    C11711384   1.988   6.540   4.051
    3OL    H17R11385   2.030   6.546   4.152
    3OL    H17S11386   1.890   6.587   4.040
    3OL    C11811387   2.088   6.611   3.959
    3OL    H18R11388   2.079   6.588   3.852
    3OL    H18S11389   2.191   6.598   3.992
    3OL    H18T11390   2.063   6.716   3.977
    1PA    C11611391   3.431   0.926   4.544
    1PA    H16R11392   3.422   1.012   4.610
    1PA    H16S11393   3.508   0.854   4.572
    1PA    H16T11394   3.336   0.875   4.559
    1PA    C11511395   3.436   0.954   4.393
    1PA    H15R11396   3.526   1.012   4.371
    1PA    H15S11397   3.441   0.866   4.329
    1PA    C11411398   3.317   1.032   4.337
    1PA    H14R11399   3.223   0.989   4.370
    1PA    H14S11400   3.314   1.132   4.381
    1PA    C11311401   3.333   1.046   4.185
    1PA    H13R11402   3.429   1.090   4.157
    1PA    H13S11403   3.328   0.947   4.140
    1PA    C11211404   3.211   1.120   4.128
    1PA    H12R11405   3.121   1.073   4.168
    1PA    H12S11406   3.219   1.223   4.165
    1PA    C11111407   3.203   1.114   3.975
    1PA    H11R11408   3.255   1.026   3.937
    1PA    H11S11409   3.101   1.094   3.941
    1PA    C11011410   3.256   1.239   3.905
    1PA    H10R11411   3.194   1.323   3.937
    1PA    H10S11412   3.357   1.253   3.945
    1PA     C1911413   3.257   1.211   3.754
    1PA     H9R11414   3.301   1.116   3.726
    1PA     H9S11415   3.157   1.204   3.711
    1PA     C1811416   3.337   1.316   3.676
    1PA     H8R11417   3.278   1.403   3.706
    1PA     H8S11418   3.436   1.325   3.720
    1PA     C1711419   3.349   1.299   3.524
    1PA     H7R11420   3.421   1.218   3.512
    1PA     H7S11421   3.248   1.277   3.487
    1PA     C1611422   3.402   1.425   3.454
    1PA     H6R11423   3.388   1.402   3.348
    1PA     H6S11424   3.342   1.513   3.477
    1PA     C1511425   3.554   1.442   3.467
    1PA     H5R11426   3.582   1.436   3.572
    1PA     H5S11427   3.616   1.366   3.419
    1PA     C1411428   3.585   1.580   3.407
    1PA     H4R11429   3.534   1.659   3.463
    1PA     H4S11430   3.686   1.603   3.444
    1PA     C1311431   3.571   1.596   3.255
    1PA     H3R11432   3.630   1.515   3.213
    1PA     H3S11433   3.470   1.581   3.216
    1PA     C1211434   3.628   1.734   3.221
    1PA     H2R11435   3.570   1.822   3.250
    1PA     H2S11436   3.722   1.740   3.276
    2PC     C1111437   3.658   1.732   3.073
    2PC     O1211438   3.764   1.766   3.025
    2PC     O1111439   3.553   1.685   3.003
    2PC      C111440   3.554   1.653   2.863
    2PC      HR11441   3.461   1.606   2.829
    2PC      HS11442   3.550   1.746   2.806
    2PC      C211443   3.673   1.568   2.816
    2PC      HX11444   3.770   1.614   2.837
    2PC      C311445   3.668   1.550   2.664
    2PC      HA11446   3.673   1.649   2.618
    2PC      HB11447   3.756   1.494   2.632
    2PC     O3111448   3.546   1.486   2.621
    2PC     P3111449   3.547   1.443   2.466
    2PC     O3211450   3.415   1.352   2.466
    2PC     C3111451   3.408   1.232   2.545
    2PC     H1A11452   3.495   1.168   2.528
    2PC     H1B11453   3.404   1.263   2.650
    2PC     C3211454   3.282   1.149   2.514
    2PC     H2A11455   3.318   1.054   2.553
    2PC     H2B11456   3.194   1.179   2.571
    2PC     N3111457   3.233   1.123   2.375
    2PC     C3311458   3.176   1.245   2.309
    2PC     H3A11459   3.249   1.325   2.311
    2PC     H3B11460   3.147   1.220   2.207
    2PC     H3C11461   3.082   1.267   2.360
    2PC     C3411462   3.338   1.063   2.287
    2PC     H4A11463   3.405   1.144   2.257
    2PC     H4B11464   3.397   0.990   2.344
    2PC     H4C11465   3.296   1.013   2.200
    2PC     C3511466   3.123   1.022   2.388
    2PC     H5A11467   3.091   0.976   2.295
    2PC     H5B11468   3.036   1.074   2.429
    2PC     H5C11469   3.159   0.938   2.448
    2PC     O3311470   3.546   1.560   2.375
    2PC     O3411471   3.672   1.381   2.418
    2PC     O2111472   3.661   1.447   2.892
    2PC     C2111473   3.758   1.354   2.886
    2PC     O2211474   3.865   1.368   2.830
    3OL     C1211475   3.701   1.224   2.935
    3OL     H2R11476   3.703   1.147   2.858
    3OL     H2S11477   3.595   1.241   2.957
    3OL     C1311478   3.766   1.174   3.065
    3OL     H3R11479   3.764   1.248   3.145
    3OL     H3S11480   3.874   1.160   3.053
    3OL     C1411481   3.705   1.047   3.126
    3OL     H4R11482   3.705   0.964   3.054
    3OL     H4S11483   3.599   1.072   3.132
    3OL     C1511484   3.769   1.006   3.259
    3OL     H5R11485   3.756   1.064   3.351
    3OL     H5S11486   3.876   0.991   3.245
    3OL     C1611487   3.710   0.868   3.296
    3OL     H6R11488   3.781   0.831   3.369
    3OL     H6S11489   3.704   0.803   3.209
    3OL     C1711490   3.574   0.893   3.362
    3OL     H7R11491   3.506   0.934   3.288
    3OL     H7S11492   3.590   0.964   3.444
    3OL     C1811493   3.520   0.761   3.420
    3OL     H8R11494   3.598   0.705   3.471
    3OL     H8S11495   3.517   0.708   3.324
    3OL     C1911496   3.391   0.788   3.493
    3OL     H9R11497   3.308   0.804   3.424
    3OL    C11011498   3.368   0.769   3.622
    3OL    H10R11499   3.265   0.772   3.656
    3OL    C11111500   3.471   0.733   3.726
    3OL    H11R11501   3.490   0.823   3.785
    3OL    H11S11502   3.567   0.718   3.678
    3OL    C11211503   3.421   0.619   3.815
    3OL    H12R11504   3.510   0.560   3.839
    3OL    H12S11505   3.354   0.554   3.758
    3OL    C11311506   3.365   0.669   3.949
    3OL    H13R11507   3.311   0.764   3.946
    3OL    H13S11508   3.456   0.680   4.009
    3OL    C11411509   3.282   0.568   4.029
    3OL    H14R11510   3.334   0.472   4.029
    3OL    H14S11511   3.180   0.555   3.992
    3OL    C11511512   3.284   0.611   4.176
    3OL    H15R11513   3.231   0.706   4.187
    3OL    H15S11514   3.391   0.629   4.194
    3OL    C11611515   3.229   0.506   4.274
    3OL    H16R11516   3.133   0.462   4.249
    3OL    H16S11517   3.212   0.559   4.368
    3OL    C11711518   3.326   0.389   4.296
    3OL    H17R11519   3.430   0.418   4.311
    3OL    H17S11520   3.321   0.316   4.215
    3OL    C11811521   3.305   0.308   4.425
    3OL    H18R11522   3.297   0.383   4.504
    3OL    H18S11523   3.394   0.246   4.440
    3OL    H18T11524   3.214   0.248   4.429
    1PA    C11611525   1.137  -0.233   4.043
    1PA    H16R11526   1.127  -0.166   4.129
    1PA    H16S11527   1.232  -0.283   4.065
    1PA    H16T11528   1.061  -0.311   4.041
    1PA    C11511529   1.145  -0.141   3.920
    1PA    H15R11530   1.046  -0.096   3.909
    1PA    H15S11531   1.225  -0.067   3.925
    1PA    C11411532   1.179  -0.219   3.792
    1PA    H14R11533   1.254  -0.294   3.816
    1PA    H14S11534   1.085  -0.260   3.756
    1PA    C11311535   1.223  -0.128   3.677
    1PA    H13R11536   1.193  -0.173   3.582
    1PA    H13S11537   1.163  -0.037   3.676
    1PA    C11211538   1.372  -0.092   3.690
    1PA    H12R11539   1.392  -0.024   3.773
    1PA    H12S11540   1.431  -0.182   3.705
    1PA    C11111541   1.416  -0.011   3.567
    1PA    H11R11542   1.357   0.080   3.562
    1PA    H11S11543   1.520   0.011   3.590
    1PA    C11011544   1.405  -0.090   3.436
    1PA    H10R11545   1.459  -0.184   3.447
    1PA    H10S11546   1.303  -0.125   3.419
    1PA     C1911547   1.466  -0.008   3.322
    1PA     H9R11548   1.417   0.090   3.327
    1PA     H9S11549   1.574   0.002   3.329
    1PA     C1811550   1.444  -0.071   3.184
    1PA     H8R11551   1.509  -0.031   3.106
    1PA     H8S11552   1.467  -0.178   3.190
    1PA     C1711553   1.296  -0.069   3.143
    1PA     H7R11554   1.246  -0.153   3.192
    1PA     H7S11555   1.234   0.017   3.167
    1PA     C1611556   1.283  -0.101   2.993
    1PA     H6R11557   1.363  -0.166   2.958
    1PA     H6S11558   1.186  -0.152   2.983
    1PA     C1511559   1.277   0.033   2.919
    1PA     H5R11560   1.191   0.090   2.953
    1PA     H5S11561   1.373   0.084   2.933
    1PA     C1411562   1.259   0.020   2.767
    1PA     H4R11563   1.170  -0.042   2.754
    1PA     H4S11564   1.252   0.121   2.727
    1PA     C1311565   1.370  -0.062   2.699
    1PA     H3R11566   1.460  -0.001   2.705
    1PA     H3S11567   1.397  -0.155   2.749
    1PA     C1211568   1.342  -0.092   2.551
    1PA     H2R11569   1.269  -0.170   2.529
    1PA     H2S11570   1.300  -0.006   2.499
    2PC     C1111571   1.470  -0.141   2.488
    2PC     O1211572   1.504  -0.099   2.379
    2PC     O1111573   1.542  -0.224   2.566
    2PC      C111574   1.673  -0.269   2.530
    2PC      HR11575   1.711  -0.340   2.605
    2PC      HS11576   1.675  -0.318   2.433
    2PC      C211577   1.789  -0.168   2.531
    2PC      HX11578   1.756  -0.076   2.484
    2PC      C311579   1.917  -0.210   2.457
    2PC      HA11580   1.962  -0.277   2.531
    2PC      HB11581   1.902  -0.268   2.365
    2PC     O3111582   2.007  -0.100   2.435
    2PC     P3111583   2.139  -0.124   2.347
    2PC     O3211584   2.071  -0.166   2.209
    2PC     C3111585   2.155  -0.178   2.093
    2PC     H1A11586   2.208  -0.086   2.066
    2PC     H1B11587   2.234  -0.253   2.107
    2PC     C3211588   2.064  -0.227   1.980
    2PC     H2A11589   2.120  -0.249   1.889
    2PC     H2B11590   2.005  -0.313   2.012
    2PC     N3111591   1.959  -0.134   1.928
    2PC     C3311592   2.024  -0.002   1.897
    2PC     H3A11593   2.088   0.034   1.978
    2PC     H3B11594   2.095  -0.026   1.818
    2PC     H3C11595   1.950   0.069   1.860
    2PC     C3411596   1.916  -0.206   1.803
    2PC     H4A11597   2.009  -0.232   1.752
    2PC     H4B11598   1.852  -0.287   1.837
    2PC     H4C11599   1.852  -0.140   1.744
    2PC     C3511600   1.845  -0.115   2.022
    2PC     H5A11601   1.798  -0.212   2.041
    2PC     H5B11602   1.780  -0.043   1.971
    2PC     H5C11603   1.877  -0.069   2.116
    2PC     O3311604   2.214   0.001   2.320
    2PC     O3411605   2.240  -0.212   2.410
    2PC     O2111606   1.826  -0.147   2.669
    2PC     C2111607   1.798  -0.033   2.734
    2PC     O2211608   1.725   0.051   2.687
    3OL     C1211609   1.859  -0.029   2.872
    3OL     H2R11610   1.935   0.049   2.877
    3OL     H2S11611   1.920  -0.118   2.887
    3OL     C1311612   1.751  -0.030   2.982
    3OL     H3R11613   1.718  -0.134   2.994
    3OL     H3S11614   1.667   0.031   2.951
    3OL     C1411615   1.816   0.013   3.115
    3OL     H4R11616   1.737   0.039   3.186
    3OL     H4S11617   1.869   0.108   3.102
    3OL     C1511618   1.899  -0.098   3.180
    3OL     H5R11619   1.981  -0.137   3.119
    3OL     H5S11620   1.833  -0.183   3.197
    3OL     C1611621   1.944  -0.063   3.322
    3OL     H6R11622   1.963  -0.161   3.365
    3OL     H6S11623   1.868  -0.009   3.380
    3OL     C1711624   2.073   0.021   3.316
    3OL     H7R11625   2.049   0.108   3.255
    3OL     H7S11626   2.154  -0.039   3.274
    3OL     C1811627   2.108   0.064   3.459
    3OL     H8R11628   2.099  -0.022   3.526
    3OL     H8S11629   2.027   0.128   3.494
    3OL     C1911630   2.235   0.145   3.469
    3OL     H9R11631   2.321   0.079   3.470
    3OL    C11011632   2.246   0.276   3.488
    3OL    H10R11633   2.346   0.318   3.494
    3OL    C11111634   2.130   0.372   3.479
    3OL    H11R11635   2.041   0.335   3.426
    3OL    H11S11636   2.165   0.449   3.411
    3OL    C11211637   2.094   0.434   3.615
    3OL    H12R11638   2.186   0.466   3.665
    3OL    H12S11639   2.045   0.356   3.673
    3OL    C11311640   2.018   0.564   3.587
    3OL    H13R11641   1.944   0.540   3.510
    3OL    H13S11642   2.094   0.630   3.545
    3OL    C11411643   1.936   0.605   3.710
    3OL    H14R11644   2.006   0.622   3.793
    3OL    H14S11645   1.859   0.531   3.733
    3OL    C11511646   1.867   0.738   3.677
    3OL    H15R11647   1.802   0.711   3.593
    3OL    H15S11648   1.949   0.808   3.662
    3OL    C11611649   1.777   0.786   3.792
    3OL    H16R11650   1.741   0.888   3.779
    3OL    H16S11651   1.847   0.793   3.875
    3OL    C11711652   1.655   0.699   3.829
    3OL    H17R11653   1.693   0.602   3.861
    3OL    H17S11654   1.589   0.687   3.743
    3OL    C11811655   1.574   0.750   3.949
    3OL    H18R11656   1.504   0.674   3.985
    3OL    H18S11657   1.526   0.846   3.928
    3OL    H18T11658   1.650   0.767   4.025
    1PA    C11611659   5.055   1.533   4.243
    1PA    H16R11660   5.022   1.459   4.316
    1PA    H16S11661   5.127   1.601   4.290
    1PA    H16T11662   5.107   1.476   4.166
    1PA    C11511663   4.937   1.621   4.199
    1PA    H15R11664   4.852   1.553   4.188
    1PA    H15S11665   4.901   1.682   4.283
    1PA    C11411666   4.963   1.698   4.070
    1PA    H14R11667   4.897   1.785   4.065
    1PA    H14S11668   5.064   1.740   4.079
    1PA    C11311669   4.948   1.603   3.950
    1PA    H13R11670   5.014   1.518   3.967
    1PA    H13S11671   4.849   1.560   3.932
    1PA    C11211672   4.981   1.669   3.816
    1PA    H12R11673   4.896   1.732   3.788
    1PA    H12S11674   5.068   1.735   3.824
    1PA    C11111675   5.001   1.566   3.704
    1PA    H11R11676   5.090   1.508   3.730
    1PA    H11S11677   4.922   1.490   3.707
    1PA    C11011678   5.002   1.639   3.570
    1PA    H10R11679   4.906   1.690   3.556
    1PA    H10S11680   5.081   1.713   3.555
    1PA     C1911681   5.014   1.536   3.457
    1PA     H9R11682   5.107   1.478   3.452
    1PA     H9S11683   4.928   1.469   3.468
    1PA     C1811684   5.006   1.610   3.323
    1PA     H8R11685   4.904   1.645   3.307
    1PA     H8S11686   5.059   1.706   3.325
    1PA     C1711687   5.045   1.523   3.202
    1PA     H7R11688   5.136   1.467   3.224
    1PA     H7S11689   4.963   1.455   3.179
    1PA     C1611690   5.064   1.599   3.070
    1PA     H6R11691   4.971   1.653   3.054
    1PA     H6S11692   5.155   1.660   3.073
    1PA     C1511693   5.089   1.505   2.951
    1PA     H5R11694   5.187   1.463   2.972
    1PA     H5S11695   5.024   1.418   2.943
    1PA     C1411696   5.079   1.572   2.814
    1PA     H4R11697   4.994   1.640   2.815
    1PA     H4S11698   5.166   1.638   2.808
    1PA     C1311699   5.058   1.472   2.699
    1PA     H3R11700   5.144   1.404   2.699
    1PA     H3S11701   4.964   1.421   2.718
    1PA     C1211702   5.047   1.549   2.567
    1PA     H2R11703   5.008   1.649   2.583
    1PA     H2S11704   5.150   1.551   2.531
    2PC     C1111705   4.962   1.491   2.456
    2PC     O1211706   4.961   1.372   2.435
    2PC     O1111707   4.894   1.591   2.397
    2PC      C111708   4.795   1.554   2.300
    2PC      HR11709   4.786   1.639   2.232
    2PC      HS11710   4.832   1.473   2.236
    2PC      C211711   4.662   1.501   2.356
    2PC      HX11712   4.682   1.405   2.405
    2PC      C311713   4.574   1.471   2.234
    2PC      HA11714   4.600   1.381   2.178
    2PC      HB11715   4.470   1.463   2.269
    2PC     O3111716   4.572   1.571   2.130
    2PC     P3111717   4.470   1.541   2.010
    2PC     O3211718   4.327   1.544   2.082
    2PC     C3111719   4.233   1.439   2.054
    2PC     H1A11720   4.240   1.414   1.948
    2PC     H1B11721   4.268   1.352   2.112
    2PC     C3211722   4.095   1.478   2.107
    2PC     H2A11723   4.045   1.382   2.124
    2PC     H2B11724   4.095   1.536   2.199
    2PC     N3111725   4.013   1.554   2.007
    2PC     C3311726   3.877   1.577   2.067
    2PC     H3A11727   3.893   1.607   2.171
    2PC     H3B11728   3.815   1.650   2.015
    2PC     H3C11729   3.819   1.485   2.068
    2PC     C3411730   4.077   1.689   1.994
    2PC     H4A11731   4.001   1.740   1.934
    2PC     H4B11732   4.086   1.733   2.094
    2PC     H4C11733   4.175   1.690   1.946
    2PC     C3511734   4.002   1.472   1.882
    2PC     H5A11735   3.947   1.380   1.903
    2PC     H5B11736   4.103   1.461   1.844
    2PC     H5C11737   3.947   1.526   1.804
    2PC     O3311738   4.449   1.634   1.896
    2PC     O3411739   4.500   1.412   1.944
    2PC     O2111740   4.596   1.599   2.438
    2PC     C2111741   4.614   1.610   2.570
    2PC     O2211742   4.699   1.542   2.625
    3OL     C1211743   4.522   1.706   2.641
    3OL     H2R11744   4.540   1.698   2.748
    3OL     H2S11745   4.421   1.670   2.620
    3OL     C1311746   4.540   1.849   2.587
    3OL     H3R11747   4.528   1.857   2.479
    3OL     H3S11748   4.643   1.885   2.595
    3OL     C1411749   4.445   1.938   2.668
    3OL     H4R11750   4.453   1.922   2.776
    3OL     H4S11751   4.346   1.903   2.637
    3OL     C1511752   4.458   2.088   2.638
    3OL     H5R11753   4.457   2.107   2.530
    3OL     H5S11754   4.554   2.131   2.669
    3OL     C1611755   4.354   2.164   2.721
    3OL     H6R11756   4.254   2.124   2.700
    3OL     H6S11757   4.344   2.265   2.679
    3OL     C1711758   4.386   2.163   2.871
    3OL     H7R11759   4.491   2.187   2.883
    3OL     H7S11760   4.378   2.057   2.897
    3OL     C1811761   4.283   2.250   2.944
    3OL     H8R11762   4.183   2.223   2.910
    3OL     H8S11763   4.295   2.353   2.911
    3OL     C1911764   4.305   2.245   3.093
    3OL     H9R11765   4.404   2.283   3.118
    3OL    C11011766   4.228   2.185   3.183
    3OL    H10R11767   4.261   2.202   3.285
    3OL    C11111768   4.102   2.106   3.158
    3OL    H11R11769   4.101   2.073   3.054
    3OL    H11S11770   4.020   2.169   3.193
    3OL    C11211771   4.108   1.975   3.237
    3OL    H12R11772   4.209   1.933   3.235
    3OL    H12S11773   4.048   1.895   3.192
    3OL    C11311774   4.050   1.981   3.379
    3OL    H13R11775   3.942   1.993   3.370
    3OL    H13S11776   4.085   2.074   3.425
    3OL    C11411777   4.088   1.860   3.465
    3OL    H14R11778   4.197   1.849   3.473
    3OL    H14S11779   4.062   1.766   3.414
    3OL    C11511780   4.017   1.853   3.600
    3OL    H15R11781   4.057   1.773   3.662
    3OL    H15S11782   3.914   1.825   3.575
    3OL    C11611783   4.014   1.985   3.678
    3OL    H16R11784   3.949   2.054   3.622
    3OL    H16S11785   4.110   2.035   3.690
    3OL    C11711786   3.961   1.978   3.821
    3OL    H17R11787   3.954   2.081   3.856
    3OL    H17S11788   4.033   1.930   3.887
    3OL    C11811789   3.823   1.913   3.839
    3OL    H18R11790   3.823   1.809   3.805
    3OL    H18S11791   3.759   1.965   3.768
    3OL    H18T11792   3.781   1.926   3.939
    1PA    C11611793   3.885   0.572   3.682
    1PA    H16R11794   3.844   0.625   3.768
    1PA    H16S11795   3.977   0.526   3.720
    1PA    H16T11796   3.824   0.485   3.655
    1PA    C11511797   3.910   0.668   3.565
    1PA    H15R11798   3.959   0.609   3.487
    1PA    H15S11799   3.815   0.705   3.527
    1PA    C11411800   4.019   0.771   3.599
    1PA    H14R11801   4.011   0.800   3.704
    1PA    H14S11802   4.119   0.730   3.583
    1PA    C11311803   4.003   0.899   3.516
    1PA    H13R11804   3.992   0.869   3.411
    1PA    H13S11805   3.910   0.948   3.547
    1PA    C11211806   4.123   0.990   3.546
    1PA    H12R11807   4.129   1.012   3.653
    1PA    H12S11808   4.213   0.934   3.521
    1PA    C11111809   4.138   1.119   3.464
    1PA    H11R11810   4.243   1.147   3.472
    1PA    H11S11811   4.114   1.101   3.359
    1PA    C11011812   4.059   1.237   3.523
    1PA    H10R11813   3.956   1.203   3.532
    1PA    H10S11814   4.091   1.269   3.622
    1PA     C1911815   4.057   1.367   3.441
    1PA     H9R11816   3.994   1.443   3.489
    1PA     H9S11817   4.159   1.405   3.445
    1PA     C1811818   4.010   1.347   3.296
    1PA     H8R11819   4.079   1.288   3.235
    1PA     H8S11820   3.918   1.290   3.306
    1PA     C1711821   3.974   1.485   3.241
    1PA     H7R11822   3.895   1.479   3.166
    1PA     H7S11823   3.930   1.547   3.320
    1PA     C1611824   4.095   1.562   3.187
    1PA     H6R11825   4.051   1.655   3.150
    1PA     H6S11826   4.167   1.587   3.266
    1PA     C1511827   4.167   1.491   3.071
    1PA     H5R11828   4.228   1.409   3.109
    1PA     H5S11829   4.097   1.447   2.999
    1PA     C1411830   4.261   1.579   2.987
    1PA     H4R11831   4.349   1.616   3.040
    1PA     H4S11832   4.300   1.504   2.918
    1PA     C1311833   4.201   1.682   2.891
    1PA     H3R11834   4.159   1.766   2.947
    1PA     H3S11835   4.286   1.724   2.836
    1PA     C1211836   4.098   1.622   2.794
    1PA     H2R11837   4.146   1.545   2.734
    1PA     H2S11838   4.014   1.574   2.845
    2PC     C1111839   4.041   1.723   2.698
    2PC     O1211840   3.967   1.689   2.607
    2PC     O1111841   4.079   1.848   2.727
    2PC      C111842   4.028   1.949   2.638
    2PC      HR11843   4.052   2.050   2.672
    2PC      HS11844   4.069   1.941   2.537
    2PC      C211845   3.875   1.949   2.628
    2PC      HX11846   3.832   1.851   2.650
    2PC      C311847   3.830   2.011   2.495
    2PC      HA11848   3.860   1.944   2.414
    2PC      HB11849   3.722   2.021   2.494
    2PC     O3111850   3.898   2.138   2.483
    2PC     P3111851   3.874   2.214   2.344
    2PC     O3211852   3.819   2.349   2.410
    2PC     C3111853   3.695   2.343   2.483
    2PC     H1A11854   3.624   2.297   2.415
    2PC     H1B11855   3.697   2.295   2.581
    2PC     C3211856   3.656   2.490   2.507
    2PC     H2A11857   3.579   2.500   2.585
    2PC     H2B11858   3.748   2.539   2.539
    2PC     N3111859   3.612   2.576   2.393
    2PC     C3311860   3.495   2.512   2.325
    2PC     H3A11861   3.467   2.564   2.233
    2PC     H3B11862   3.495   2.406   2.299
    2PC     H3C11863   3.411   2.522   2.393
    2PC     C3411864   3.570   2.713   2.438
    2PC     H4A11865   3.513   2.756   2.356
    2PC     H4B11866   3.505   2.713   2.526
    2PC     H4C11867   3.656   2.768   2.476
    2PC     C3511868   3.730   2.595   2.302
    2PC     H5A11869   3.707   2.669   2.225
    2PC     H5B11870   3.763   2.498   2.264
    2PC     H5C11871   3.809   2.637   2.365
    2PC     O3311872   3.999   2.234   2.268
    2PC     O3411873   3.780   2.153   2.246
    2PC     O2111874   3.830   2.027   2.740
    2PC     C2111875   3.701   2.029   2.778
    2PC     O2211876   3.616   1.954   2.735
    3OL     C1211877   3.676   2.141   2.876
    3OL     H2R11878   3.612   2.193   2.805
    3OL     H2S11879   3.776   2.181   2.893
    3OL     C1311880   3.594   2.101   3.000
    3OL     H3R11881   3.648   2.032   3.064
    3OL     H3S11882   3.501   2.051   2.971
    3OL     C1411883   3.566   2.229   3.080
    3OL     H4R11884   3.517   2.312   3.029
    3OL     H4S11885   3.657   2.275   3.120
    3OL     C1511886   3.473   2.191   3.196
    3OL     H5R11887   3.514   2.108   3.254
    3OL     H5S11888   3.379   2.154   3.155
    3OL     C1611889   3.456   2.308   3.295
    3OL     H6R11890   3.412   2.391   3.239
    3OL     H6S11891   3.551   2.354   3.321
    3OL     C1711892   3.378   2.275   3.423
    3OL     H7R11893   3.309   2.191   3.422
    3OL     H7S11894   3.315   2.362   3.445
    3OL     C1811895   3.472   2.260   3.544
    3OL     H8R11896   3.423   2.296   3.635
    3OL     H8S11897   3.562   2.321   3.533
    3OL     C1911898   3.516   2.116   3.557
    3OL     H9R11899   3.571   2.084   3.469
    3OL    C11011900   3.507   2.044   3.668
    3OL    H10R11901   3.556   1.948   3.674
    3OL    C11111902   3.445   2.083   3.800
    3OL    H11R11903   3.416   1.997   3.859
    3OL    H11S11904   3.362   2.148   3.773
    3OL    C11211905   3.546   2.161   3.887
    3OL    H12R11906   3.597   2.234   3.824
    3OL    H12S11907   3.624   2.096   3.926
    3OL    C11311908   3.478   2.229   4.006
    3OL    H13R11909   3.440   2.145   4.065
    3OL    H13S11910   3.394   2.292   3.976
    3OL    C11411911   3.582   2.307   4.088
    3OL    H14R11912   3.614   2.399   4.039
    3OL    H14S11913   3.666   2.240   4.106
    3OL    C11511914   3.527   2.361   4.221
    3OL    H15R11915   3.606   2.360   4.297
    3OL    H15S11916   3.452   2.290   4.256
    3OL    C11611917   3.470   2.504   4.223
    3OL    H16R11918   3.397   2.507   4.142
    3OL    H16S11919   3.544   2.582   4.205
    3OL    C11711920   3.399   2.545   4.352
    3OL    H17R11921   3.391   2.654   4.348
    3OL    H17S11922   3.464   2.532   4.439
    3OL    C11811923   3.260   2.482   4.371
    3OL    H18R11924   3.267   2.374   4.382
    3OL    H18S11925   3.186   2.512   4.296
    3OL    H18T11926   3.209   2.517   4.461
    1PA    C11611927   0.075   1.930   4.227
    1PA    H16R11928   0.025   1.967   4.317
    1PA    H16S11929   0.173   1.888   4.251
    1PA    H16T11930   0.010   1.868   4.165
    1PA    C11511931   0.108   2.061   4.154
    1PA    H15R11932   0.018   2.122   4.167
    1PA    H15S11933   0.188   2.108   4.212
    1PA    C11411934   0.146   2.025   4.009
    1PA    H14R11935   0.072   1.956   3.969
    1PA    H14S11936   0.144   2.117   3.950
    1PA    C11311937   0.290   1.970   4.018
    1PA    H13R11938   0.361   2.044   4.057
    1PA    H13S11939   0.295   1.878   4.076
    1PA    C11211940   0.347   1.928   3.882
    1PA    H12R11941   0.432   1.861   3.890
    1PA    H12S11942   0.275   1.865   3.829
    1PA    C11111943   0.384   2.046   3.791
    1PA    H11R11944   0.307   2.122   3.781
    1PA    H11S11945   0.467   2.098   3.838
    1PA    C11011946   0.433   1.999   3.653
    1PA    H10R11947   0.503   1.920   3.679
    1PA    H10S11948   0.344   1.956   3.606
    1PA     C1911949   0.479   2.127   3.580
    1PA     H9R11950   0.389   2.187   3.564
    1PA     H9S11951   0.539   2.189   3.646
    1PA     C1811952   0.543   2.097   3.443
    1PA     H8R11953   0.620   2.023   3.465
    1PA     H8S11954   0.464   2.065   3.374
    1PA     C1711955   0.602   2.223   3.379
    1PA     H7R11956   0.520   2.281   3.335
    1PA     H7S11957   0.643   2.281   3.462
    1PA     C1611958   0.709   2.199   3.271
    1PA     H6R11959   0.789   2.140   3.316
    1PA     H6S11960   0.649   2.151   3.194
    1PA     C1511961   0.777   2.326   3.218
    1PA     H5R11962   0.794   2.394   3.301
    1PA     H5S11963   0.876   2.313   3.174
    1PA     C1411964   0.694   2.412   3.121
    1PA     H4R11965   0.591   2.383   3.143
    1PA     H4S11966   0.697   2.518   3.147
    1PA     C1311967   0.719   2.395   2.971
    1PA     H3R11968   0.643   2.453   2.917
    1PA     H3S11969   0.815   2.433   2.937
    1PA     C1211970   0.698   2.250   2.926
    1PA     H2R11971   0.772   2.185   2.971
    1PA     H2S11972   0.599   2.206   2.945
    2PC     C1111973   0.731   2.231   2.780
    2PC     O1211974   0.767   2.315   2.701
    2PC     O1111975   0.706   2.104   2.746
    2PC      C111976   0.693   2.079   2.604
    2PC      HR11977   0.622   2.000   2.581
    2PC      HS11978   0.652   2.172   2.563
    2PC      C211979   0.830   2.044   2.545
    2PC      HX11980   0.896   2.130   2.562
    2PC      C311981   0.818   2.021   2.393
    2PC      HA11982   0.769   1.925   2.375
    2PC      HB11983   0.741   2.088   2.353
    2PC     O3111984   0.941   2.024   2.318
    2PC     P3111985   1.014   2.164   2.291
    2PC     O3211986   1.110   2.167   2.419
    2PC     C3111987   1.130   2.289   2.493
    2PC     H1A11988   1.166   2.361   2.420
    2PC     H1B11989   1.034   2.328   2.529
    2PC     C3211990   1.220   2.262   2.614
    2PC     H2A11991   1.221   2.353   2.675
    2PC     H2B11992   1.179   2.187   2.683
    2PC     N3111993   1.365   2.223   2.607
    2PC     C3311994   1.461   2.336   2.587
    2PC     H3A11995   1.421   2.395   2.504
    2PC     H3B11996   1.469   2.406   2.670
    2PC     H3C11997   1.558   2.295   2.560
    2PC     C3411998   1.398   2.146   2.732
    2PC     H4A11999   1.334   2.059   2.726
    2PC     H4B12000   1.499   2.104   2.735
    2PC     H4C12001   1.385   2.199   2.827
    2PC     C3512002   1.376   2.128   2.492
    2PC     H5A12003   1.363   2.183   2.399
    2PC     H5B12004   1.317   2.036   2.504
    2PC     H5C12005   1.479   2.093   2.492
    2PC     O3312006   1.095   2.166   2.167
    2PC     O3412007   0.926   2.282   2.275
    2PC     O2112008   0.883   1.923   2.601
    2PC     C2112009   0.954   1.935   2.715
    2PC     O2212010   1.015   2.036   2.741
    3OL     C1212011   0.962   1.804   2.790
    3OL     H2R12012   1.020   1.732   2.732
    3OL     H2S12013   0.862   1.762   2.805
    3OL     C1312014   1.032   1.807   2.926
    3OL     H3R12015   1.134   1.843   2.917
    3OL     H3S12016   1.031   1.705   2.963
    3OL     C1412017   0.974   1.891   3.042
    3OL     H4R12018   0.882   1.846   3.080
    3OL     H4S12019   0.968   1.996   3.013
    3OL     C1512020   1.064   1.884   3.165
    3OL     H5R12021   1.162   1.920   3.133
    3OL     H5S12022   1.080   1.780   3.194
    3OL     C1612023   1.014   1.979   3.275
    3OL     H6R12024   0.912   1.948   3.301
    3OL     H6S12025   1.025   2.082   3.242
    3OL     C1712026   1.086   1.958   3.409
    3OL     H7R12027   1.103   2.054   3.459
    3OL     H7S12028   1.186   1.915   3.399
    3OL     C1812029   1.014   1.859   3.502
    3OL     H8R12030   0.990   1.768   3.447
    3OL     H8S12031   0.916   1.897   3.529
    3OL     C1912032   1.099   1.809   3.616
    3OL     H9R12033   1.205   1.806   3.592
    3OL    C11012034   1.080   1.783   3.744
    3OL    H10R12035   1.171   1.787   3.803
    3OL    C11112036   0.957   1.756   3.828
    3OL    H11R12037   0.861   1.773   3.779
    3OL    H11S12038   0.957   1.824   3.914
    3OL    C11212039   0.953   1.609   3.870
    3OL    H12R12040   0.918   1.548   3.787
    3OL    H12S12041   0.878   1.610   3.950
    3OL    C11312042   1.083   1.546   3.923
    3OL    H13R12043   1.102   1.588   4.022
    3OL    H13S12044   1.165   1.563   3.853
    3OL    C11412045   1.076   1.393   3.934
    3OL    H14R12046   1.050   1.361   3.833
    3OL    H14S12047   0.999   1.358   4.003
    3OL    C11512048   1.215   1.344   3.979
    3OL    H15R12049   1.225   1.374   4.084
    3OL    H15S12050   1.292   1.376   3.909
    3OL    C11612051   1.204   1.191   3.973
    3OL    H16R12052   1.195   1.159   3.869
    3OL    H16S12053   1.113   1.155   4.022
    3OL    C11712054   1.321   1.113   4.034
    3OL    H17R12055   1.286   1.017   4.072
    3OL    H17S12056   1.351   1.167   4.124
    3OL    C11812057   1.441   1.122   3.939
    3OL    H18R12058   1.429   1.070   3.843
    3OL    H18S12059   1.518   1.081   4.004
    3OL    H18T12060   1.461   1.222   3.900
    1PA    C11612061   2.685   0.662   4.482
    1PA    H16R12062   2.668   0.563   4.439
    1PA    H16S12063   2.603   0.682   4.552
    1PA    H16T12064   2.773   0.668   4.547
    1PA    C11512065   2.687   0.763   4.367
    1PA    H15R12066   2.590   0.804   4.340
    1PA    H15S12067   2.755   0.843   4.398
    1PA    C11412068   2.748   0.701   4.240
    1PA    H14R12069   2.834   0.639   4.267
    1PA    H14S12070   2.678   0.638   4.185
    1PA    C11312071   2.784   0.802   4.130
    1PA    H13R12072   2.692   0.855   4.106
    1PA    H13S12073   2.855   0.879   4.163
    1PA    C11212074   2.847   0.735   4.008
    1PA    H12R12075   2.933   0.674   4.038
    1PA    H12S12076   2.777   0.679   3.946
    1PA    C11112077   2.895   0.849   3.916
    1PA    H11R12078   2.808   0.906   3.882
    1PA    H11S12079   2.949   0.918   3.981
    1PA    C11012080   2.977   0.806   3.794
    1PA    H10R12081   3.073   0.765   3.826
    1PA    H10S12082   2.928   0.725   3.740
    1PA     C1912083   2.998   0.926   3.700
    1PA     H9R12084   2.920   1.000   3.722
    1PA     H9S12085   3.096   0.968   3.720
    1PA     C1812086   3.005   0.877   3.554
    1PA     H8R12087   3.067   0.790   3.532
    1PA     H8S12088   2.906   0.837   3.532
    1PA     C1712089   3.042   0.986   3.454
    1PA     H7R12090   2.966   1.064   3.457
    1PA     H7S12091   3.139   1.027   3.483
    1PA     C1612092   3.051   0.947   3.305
    1PA     H6R12093   3.126   1.007   3.254
    1PA     H6S12094   3.095   0.848   3.314
    1PA     C1512095   2.922   0.938   3.223
    1PA     H5R12096   2.953   0.875   3.139
    1PA     H5S12097   2.842   0.892   3.280
    1PA     C1412098   2.878   1.077   3.174
    1PA     H4R12099   2.811   1.114   3.251
    1PA     H4S12100   2.963   1.146   3.167
    1PA     C1312101   2.813   1.067   3.035
    1PA     H3R12102   2.825   1.163   2.984
    1PA     H3S12103   2.870   0.995   2.976
    1PA     C1212104   2.669   1.019   3.058
    1PA     H2R12105   2.665   0.913   3.082
    1PA     H2S12106   2.627   1.071   3.144
    2PC     C1112107   2.585   1.049   2.936
    2PC     O1212108   2.490   0.980   2.905
    2PC     O1112109   2.604   1.169   2.880
    2PC      C112110   2.525   1.211   2.767
    2PC      HR12111   2.578   1.293   2.717
    2PC      HS12112   2.522   1.129   2.695
    2PC      C212113   2.378   1.243   2.797
    2PC      HX12114   2.330   1.182   2.873
    2PC      C312115   2.292   1.243   2.669
    2PC      HA12116   2.255   1.140   2.667
    2PC      HB12117   2.203   1.307   2.678
    2PC     O3112118   2.375   1.282   2.558
    2PC     P3112119   2.338   1.224   2.413
    2PC     O3212120   2.389   1.072   2.420
    2PC     C3112121   2.528   1.034   2.431
    2PC     H1A12122   2.586   1.108   2.377
    2PC     H1B12123   2.568   1.017   2.531
    2PC     C3212124   2.528   0.897   2.361
    2PC     H2A12125   2.461   0.829   2.414
    2PC     H2B12126   2.492   0.899   2.259
    2PC     N3112127   2.662   0.828   2.358
    2PC     C3312128   2.728   0.815   2.492
    2PC     H3A12129   2.651   0.787   2.564
    2PC     H3B12130   2.803   0.736   2.495
    2PC     H3C12131   2.754   0.917   2.521
    2PC     C3412132   2.642   0.691   2.302
    2PC     H4A12133   2.573   0.628   2.360
    2PC     H4B12134   2.595   0.702   2.204
    2PC     H4C12135   2.737   0.640   2.289
    2PC     C3512136   2.756   0.906   2.272
    2PC     H5A12137   2.841   0.838   2.259
    2PC     H5B12138   2.787   1.000   2.317
    2PC     H5C12139   2.714   0.933   2.175
    2PC     O3312140   2.194   1.242   2.382
    2PC     O3412141   2.401   1.313   2.313
    2PC     O2112142   2.368   1.376   2.852
    2PC     C2112143   2.253   1.415   2.911
    2PC     O2212144   2.159   1.338   2.905
    3OL     C1212145   2.258   1.550   2.977
    3OL     H2R12146   2.175   1.554   3.048
    3OL     H2S12147   2.233   1.625   2.902
    3OL     C1312148   2.392   1.591   3.040
    3OL     H3R12149   2.391   1.698   3.065
    3OL     H3S12150   2.457   1.599   2.953
    3OL     C1412151   2.458   1.501   3.145
    3OL     H4R12152   2.557   1.540   3.171
    3OL     H4S12153   2.476   1.405   3.097
    3OL     C1512154   2.379   1.474   3.273
    3OL     H5R12155   2.296   1.544   3.278
    3OL     H5S12156   2.439   1.475   3.364
    3OL     C1612157   2.308   1.339   3.255
    3OL     H6R12158   2.378   1.255   3.244
    3OL     H6S12159   2.257   1.337   3.159
    3OL     C1712160   2.210   1.318   3.371
    3OL     H7R12161   2.124   1.386   3.365
    3OL     H7S12162   2.267   1.343   3.461
    3OL     C1812163   2.154   1.176   3.365
    3OL     H8R12164   2.094   1.157   3.454
    3OL     H8S12165   2.232   1.100   3.363
    3OL     C1912166   2.056   1.153   3.252
    3OL     H9R12167   2.097   1.192   3.159
    3OL    C11012168   1.938   1.093   3.256
    3OL    H10R12169   1.892   1.077   3.158
    3OL    C11112170   1.862   1.034   3.372
    3OL    H11R12171   1.864   1.103   3.456
    3OL    H11S12172   1.902   0.937   3.401
    3OL    C11212173   1.716   1.005   3.334
    3OL    H12R12174   1.713   0.935   3.250
    3OL    H12S12175   1.661   1.093   3.300
    3OL    C11312176   1.649   0.940   3.456
    3OL    H13R12177   1.642   1.011   3.539
    3OL    H13S12178   1.697   0.850   3.494
    3OL    C11412179   1.504   0.901   3.426
    3OL    H14R12180   1.498   0.816   3.357
    3OL    H14S12181   1.445   0.986   3.390
    3OL    C11512182   1.440   0.849   3.555
    3OL    H15R12183   1.453   0.917   3.639
    3OL    H15S12184   1.477   0.751   3.585
    3OL    C11612185   1.289   0.825   3.534
    3OL    H16R12186   1.280   0.760   3.447
    3OL    H16S12187   1.237   0.920   3.515
    3OL    C11712188   1.220   0.743   3.643
    3OL    H17R12189   1.283   0.662   3.681
    3OL    H17S12190   1.124   0.708   3.606
    3OL    C11812191   1.189   0.838   3.760
    3OL    H18R12192   1.281   0.875   3.805
    3OL    H18S12193   1.119   0.797   3.832
    3OL    H18T12194   1.143   0.930   3.724
    1PA    C11612195   2.663   4.844   3.980
    1PA    H16R12196   2.594   4.817   4.059
    1PA    H16S12197   2.698   4.945   3.999
    1PA    H16T12198   2.740   4.766   3.977
    1PA    C11512199   2.591   4.856   3.845
    1PA    H15R12200   2.581   4.750   3.819
    1PA    H15S12201   2.495   4.904   3.864
    1PA    C11412202   2.670   4.933   3.738
    1PA    H14R12203   2.681   5.032   3.782
    1PA    H14S12204   2.761   4.879   3.712
    1PA    C11312205   2.594   4.950   3.605
    1PA    H13R12206   2.560   4.852   3.570
    1PA    H13S12207   2.506   5.014   3.611
    1PA    C11212208   2.674   5.013   3.490
    1PA    H12R12209   2.697   5.118   3.508
    1PA    H12S12210   2.774   4.970   3.492
    1PA    C11112211   2.599   5.006   3.356
    1PA    H11R12212   2.555   4.909   3.335
    1PA    H11S12213   2.517   5.078   3.360
    1PA    C11012214   2.706   5.060   3.260
    1PA    H10R12215   2.646   5.118   3.190
    1PA    H10S12216   2.770   5.136   3.305
    1PA     C1912217   2.781   4.948   3.186
    1PA     H9R12218   2.828   4.869   3.245
    1PA     H9S12219   2.706   4.894   3.129
    1PA     C1812220   2.886   5.015   3.095
    1PA     H8R12221   2.832   5.079   3.026
    1PA     H8S12222   2.959   5.077   3.148
    1PA     C1712223   2.962   4.903   3.021
    1PA     H7R12224   3.018   4.838   3.089
    1PA     H7S12225   2.883   4.840   2.981
    1PA     C1612226   3.065   4.952   2.919
    1PA     H6R12227   3.019   5.025   2.851
    1PA     H6S12228   3.145   5.001   2.974
    1PA     C1512229   3.133   4.836   2.846
    1PA     H5R12230   3.241   4.833   2.862
    1PA     H5S12231   3.100   4.744   2.895
    1PA     C1412232   3.087   4.823   2.700
    1PA     H4R12233   2.979   4.813   2.687
    1PA     H4S12234   3.131   4.908   2.647
    1PA     C1312235   3.162   4.710   2.629
    1PA     H3R12236   3.160   4.617   2.686
    1PA     H3S12237   3.114   4.698   2.531
    1PA     C1212238   3.308   4.745   2.597
    1PA     H2R12239   3.343   4.780   2.694
    1PA     H2S12240   3.364   4.653   2.577
    2PC     C1112241   3.336   4.851   2.493
    2PC     O1212242   3.310   4.843   2.375
    2PC     O1112243   3.400   4.959   2.542
    2PC      C112244   3.435   5.069   2.457
    2PC      HR12245   3.509   5.117   2.522
    2PC      HS12246   3.473   5.031   2.362
    2PC      C212247   3.313   5.160   2.442
    2PC      HX12248   3.224   5.101   2.421
    2PC      C312249   3.325   5.258   2.324
    2PC      HA12250   3.297   5.219   2.226
    2PC      HB12251   3.263   5.344   2.350
    2PC     O3112252   3.461   5.302   2.308
    2PC     P3112253   3.493   5.370   2.167
    2PC     O3212254   3.652   5.370   2.189
    2PC     C3112255   3.726   5.476   2.125
    2PC     H1A12256   3.688   5.476   2.023
    2PC     H1B12257   3.709   5.569   2.180
    2PC     C3212258   3.874   5.435   2.113
    2PC     H2A12259   3.936   5.519   2.082
    2PC     H2B12260   3.900   5.404   2.214
    2PC     N3112261   3.909   5.313   2.033
    2PC     C3312262   3.860   5.189   2.102
    2PC     H3A12263   3.907   5.196   2.200
    2PC     H3B12264   3.752   5.196   2.113
    2PC     H3C12265   3.897   5.104   2.044
    2PC     C3412266   3.843   5.322   1.899
    2PC     H4A12267   3.882   5.245   1.832
    2PC     H4B12268   3.736   5.311   1.912
    2PC     H4C12269   3.859   5.421   1.856
    2PC     C3512270   4.057   5.303   2.015
    2PC     H5A12271   4.105   5.399   1.996
    2PC     H5B12272   4.073   5.243   1.925
    2PC     H5C12273   4.091   5.261   2.110
    2PC     O3312274   3.475   5.279   2.051
    2PC     O3412275   3.422   5.498   2.145
    2PC     O2112276   3.295   5.233   2.565
    2PC     C2112277   3.169   5.231   2.611
    2PC     O2212278   3.070   5.198   2.549
    3OL     C1212279   3.171   5.278   2.754
    3OL     H2R12280   3.230   5.370   2.764
    3OL     H2S12281   3.235   5.206   2.806
    3OL     C1312282   3.031   5.300   2.812
    3OL     H3R12283   2.964   5.216   2.794
    3OL     H3S12284   2.990   5.377   2.746
    3OL     C1412285   3.031   5.340   2.960
    3OL     H4R12286   3.124   5.394   2.977
    3OL     H4S12287   3.046   5.249   3.019
    3OL     C1512288   2.902   5.397   3.022
    3OL     H5R12289   2.833   5.316   3.049
    3OL     H5S12290   2.863   5.461   2.943
    3OL     C1612291   2.938   5.488   3.140
    3OL     H6R12292   2.992   5.576   3.108
    3OL     H6S12293   2.995   5.425   3.209
    3OL     C1712294   2.809   5.536   3.209
    3OL     H7R12295   2.763   5.447   3.252
    3OL     H7S12296   2.739   5.570   3.132
    3OL     C1812297   2.835   5.638   3.321
    3OL     H8R12298   2.747   5.670   3.377
    3OL     H8S12299   2.870   5.728   3.270
    3OL     C1912300   2.940   5.600   3.422
    3OL     H9R12301   3.039   5.616   3.382
    3OL    C11012302   2.921   5.574   3.551
    3OL    H10R12303   3.015   5.553   3.601
    3OL    C11112304   2.790   5.551   3.622
    3OL    H11R12305   2.704   5.585   3.564
    3OL    H11S12306   2.796   5.620   3.707
    3OL    C11212307   2.752   5.405   3.651
    3OL    H12R12308   2.737   5.363   3.552
    3OL    H12S12309   2.654   5.383   3.695
    3OL    C11312310   2.865   5.333   3.726
    3OL    H13R12311   2.953   5.325   3.662
    3OL    H13S12312   2.844   5.229   3.755
    3OL    C11412313   2.894   5.390   3.865
    3OL    H14R12314   2.806   5.368   3.926
    3OL    H14S12315   2.909   5.497   3.853
    3OL    C11512316   3.021   5.328   3.927
    3OL    H15R12317   3.075   5.390   3.999
    3OL    H15S12318   3.093   5.319   3.846
    3OL    C11612319   2.993   5.189   3.985
    3OL    H16R12320   2.942   5.131   3.908
    3OL    H16S12321   2.922   5.191   4.068
    3OL    C11712322   3.128   5.128   4.025
    3OL    H17R12323   3.205   5.150   3.951
    3OL    H17S12324   3.133   5.019   4.028
    3OL    C11812325   3.177   5.182   4.160
    3OL    H18R12326   3.098   5.241   4.207
    3OL    H18S12327   3.258   5.253   4.138
    3OL    H18T12328   3.222   5.109   4.227
    1PA    C11612329   3.834   3.704   3.335
    1PA    H16R12330   3.882   3.719   3.238
    1PA    H16S12331   3.747   3.768   3.344
    1PA    H16T12332   3.788   3.605   3.335
    1PA    C11512333   3.919   3.741   3.458
    1PA    H15R12334   3.871   3.701   3.548
    1PA    H15S12335   4.013   3.686   3.451
    1PA    C11412336   3.948   3.891   3.457
    1PA    H14R12337   4.025   3.912   3.381
    1PA    H14S12338   3.857   3.948   3.436
    1PA    C11312339   4.022   3.933   3.585
    1PA    H13R12340   3.978   3.877   3.667
    1PA    H13S12341   4.124   3.892   3.582
    1PA    C11212342   4.021   4.084   3.607
    1PA    H12R12343   3.919   4.123   3.611
    1PA    H12S12344   4.078   4.100   3.699
    1PA    C11112345   4.094   4.150   3.489
    1PA    H11R12346   4.200   4.125   3.495
    1PA    H11S12347   4.055   4.127   3.390
    1PA    C11012348   4.097   4.303   3.504
    1PA    H10R12349   3.999   4.341   3.531
    1PA    H10S12350   4.163   4.327   3.588
    1PA     C1912351   4.150   4.373   3.378
    1PA     H9R12352   4.245   4.330   3.346
    1PA     H9S12353   4.089   4.352   3.289
    1PA     C1812354   4.152   4.525   3.402
    1PA     H8R12355   4.048   4.555   3.416
    1PA     H8S12356   4.215   4.548   3.488
    1PA     C1712357   4.205   4.607   3.284
    1PA     H7R12358   4.146   4.580   3.196
    1PA     H7S12359   4.190   4.712   3.310
    1PA     C1612360   4.353   4.578   3.255
    1PA     H6R12361   4.411   4.607   3.343
    1PA     H6S12362   4.359   4.469   3.251
    1PA     C1512363   4.405   4.653   3.131
    1PA     H5R12364   4.335   4.640   3.048
    1PA     H5S12365   4.400   4.762   3.145
    1PA     C1412366   4.550   4.622   3.092
    1PA     H4R12367   4.607   4.635   3.184
    1PA     H4S12368   4.566   4.522   3.050
    1PA     C1312369   4.595   4.722   2.985
    1PA     H3R12370   4.531   4.698   2.899
    1PA     H3S12371   4.565   4.824   3.007
    1PA     C1212372   4.741   4.707   2.940
    1PA     H2R12373   4.775   4.799   2.892
    1PA     H2S12374   4.807   4.693   3.026
    2PC     C1112375   4.758   4.588   2.848
    2PC     O1212376   4.859   4.521   2.843
    2PC     O1112377   4.654   4.570   2.765
    2PC      C112378   4.655   4.457   2.676
    2PC      HR12379   4.736   4.470   2.605
    2PC      HS12380   4.668   4.364   2.733
    2PC      C212381   4.524   4.452   2.597
    2PC      HX12382   4.523   4.354   2.548
    2PC      C312383   4.503   4.556   2.486
    2PC      HA12384   4.467   4.650   2.529
    2PC      HB12385   4.593   4.577   2.427
    2PC     O3112386   4.403   4.510   2.394
    2PC     P3112387   4.358   4.603   2.271
    2PC     O3212388   4.287   4.730   2.339
    2PC     C3112389   4.162   4.711   2.408
    2PC     H1A12390   4.087   4.688   2.332
    2PC     H1B12391   4.164   4.633   2.484
    2PC     C3212392   4.130   4.843   2.480
    2PC     H2A12393   4.187   4.844   2.573
    2PC     H2B12394   4.167   4.928   2.422
    2PC     N3112395   3.987   4.869   2.518
    2PC     C3312396   3.919   4.892   2.386
    2PC     H3A12397   3.826   4.946   2.397
    2PC     H3B12398   3.990   4.959   2.336
    2PC     H3C12399   3.907   4.794   2.338
    2PC     C3412400   3.921   4.762   2.600
    2PC     H4A12401   3.977   4.751   2.693
    2PC     H4B12402   3.824   4.804   2.629
    2PC     H4C12403   3.904   4.670   2.544
    2PC     C3512404   3.973   4.997   2.594
    2PC     H5A12405   4.033   5.071   2.541
    2PC     H5B12406   4.010   4.982   2.695
    2PC     H5C12407   3.866   5.020   2.594
    2PC     O3312408   4.473   4.646   2.188
    2PC     O3412409   4.253   4.546   2.183
    2PC     O2112410   4.415   4.458   2.691
    2PC     C2112411   4.296   4.407   2.654
    2PC     O2212412   4.282   4.316   2.575
    3OL     C1212413   4.184   4.470   2.733
    3OL     H2R12414   4.171   4.575   2.706
    3OL     H2S12415   4.203   4.456   2.840
    3OL     C1312416   4.044   4.412   2.712
    3OL     H3R12417   4.044   4.303   2.712
    3OL     H3S12418   3.995   4.446   2.621
    3OL     C1412419   3.945   4.450   2.823
    3OL     H4R12420   3.848   4.420   2.783
    3OL     H4S12421   3.945   4.557   2.846
    3OL     C1512422   3.965   4.392   2.964
    3OL     H5R12423   4.055   4.409   3.022
    3OL     H5S12424   3.963   4.284   2.948
    3OL     C1612425   3.839   4.425   3.046
    3OL     H6R12426   3.775   4.498   2.996
    3OL     H6S12427   3.879   4.465   3.139
    3OL     C1712428   3.749   4.301   3.058
    3OL     H7R12429   3.716   4.259   2.963
    3OL     H7S12430   3.662   4.335   3.115
    3OL     C1812431   3.820   4.188   3.135
    3OL     H8R12432   3.861   4.230   3.227
    3OL     H8S12433   3.902   4.147   3.078
    3OL     C1912434   3.743   4.062   3.165
    3OL     H9R12435   3.773   3.972   3.112
    3OL    C11012436   3.642   4.058   3.251
    3OL    H10R12437   3.592   3.963   3.272
    3OL    C11112438   3.595   4.175   3.333
    3OL    H11R12439   3.515   4.227   3.279
    3OL    H11S12440   3.684   4.237   3.349
    3OL    C11212441   3.546   4.137   3.473
    3OL    H12R12442   3.621   4.083   3.530
    3OL    H12S12443   3.459   4.070   3.469
    3OL    C11312444   3.507   4.258   3.558
    3OL    H13R12445   3.417   4.308   3.522
    3OL    H13S12446   3.588   4.329   3.543
    3OL    C11412447   3.485   4.204   3.700
    3OL    H14R12448   3.421   4.116   3.705
    3OL    H14S12449   3.437   4.290   3.746
    3OL    C11512450   3.620   4.173   3.768
    3OL    H15R12451   3.685   4.259   3.756
    3OL    H15S12452   3.679   4.085   3.741
    3OL    C11612453   3.590   4.143   3.916
    3OL    H16R12454   3.668   4.072   3.943
    3OL    H16S12455   3.492   4.096   3.916
    3OL    C11712456   3.588   4.270   4.001
    3OL    H17R12457   3.505   4.338   3.981
    3OL    H17S12458   3.680   4.330   3.997
    3OL    C11812459   3.575   4.232   4.149
    3OL    H18R12460   3.474   4.222   4.188
    3OL    H18S12461   3.628   4.308   4.207
    3OL    H18T12462   3.620   4.134   4.169
    1PA    C11612463   1.166   3.946   4.547
    1PA    H16R12464   1.240   3.871   4.574
    1PA    H16S12465   1.066   3.915   4.579
    1PA    H16T12466   1.199   4.040   4.592
    1PA    C11512467   1.165   3.991   4.401
    1PA    H15R12468   1.120   3.919   4.332
    1PA    H15S12469   1.108   4.084   4.392
    1PA    C11412470   1.304   4.029   4.347
    1PA    H14R12471   1.345   4.117   4.397
    1PA    H14S12472   1.372   3.945   4.362
    1PA    C11312473   1.294   4.066   4.199
    1PA    H13R12474   1.277   3.970   4.151
    1PA    H13S12475   1.209   4.134   4.188
    1PA    C11212476   1.416   4.140   4.140
    1PA    H12R12477   1.419   4.246   4.167
    1PA    H12S12478   1.504   4.090   4.179
    1PA    C11112479   1.401   4.124   3.988
    1PA    H11R12480   1.436   4.025   3.958
    1PA    H11S12481   1.301   4.144   3.948
    1PA    C11012482   1.496   4.220   3.916
    1PA    H10R12483   1.489   4.324   3.950
    1PA    H10S12484   1.602   4.202   3.934
    1PA     C1912485   1.479   4.213   3.763
    1PA     H9R12486   1.538   4.290   3.714
    1PA     H9S12487   1.510   4.118   3.719
    1PA     C1812488   1.339   4.254   3.716
    1PA     H8R12489   1.256   4.191   3.749
    1PA     H8S12490   1.315   4.354   3.755
    1PA     C1712491   1.341   4.244   3.563
    1PA     H7R12492   1.400   4.317   3.508
    1PA     H7S12493   1.392   4.151   3.536
    1PA     C1612494   1.197   4.249   3.510
    1PA     H6R12495   1.130   4.172   3.548
    1PA     H6S12496   1.154   4.345   3.537
    1PA     C1512497   1.189   4.255   3.357
    1PA     H5R12498   1.243   4.337   3.309
    1PA     H5S12499   1.242   4.164   3.328
    1PA     C1412500   1.047   4.253   3.297
    1PA     H4R12501   0.982   4.180   3.346
    1PA     H4S12502   1.007   4.354   3.307
    1PA     C1312503   1.065   4.223   3.148
    1PA     H3R12504   1.129   4.303   3.113
    1PA     H3S12505   1.130   4.136   3.136
    1PA     C1212506   0.937   4.216   3.063
    1PA     H2R12507   0.874   4.134   3.097
    1PA     H2S12508   0.884   4.310   3.079
    2PC     C1112509   0.958   4.196   2.915
    2PC     O1212510   0.970   4.084   2.870
    2PC     O1112511   0.962   4.313   2.849
    2PC      C112512   0.984   4.303   2.707
    2PC      HR12513   1.025   4.400   2.680
    2PC      HS12514   1.062   4.230   2.683
    2PC      C212515   0.851   4.273   2.636
    2PC      HX12516   0.811   4.175   2.663
    2PC      C312517   0.878   4.281   2.486
    2PC      HA12518   0.886   4.387   2.462
    2PC      HB12519   0.966   4.221   2.461
    2PC     O3112520   0.770   4.214   2.417
    2PC     P3112521   0.759   4.231   2.258
    2PC     O3212522   0.633   4.136   2.231
    2PC     C3112523   0.538   4.161   2.126
    2PC     H1A12524   0.460   4.084   2.127
    2PC     H1B12525   0.498   4.261   2.141
    2PC     C3212526   0.610   4.140   1.992
    2PC     H2A12527   0.695   4.208   1.995
    2PC     H2B12528   0.639   4.036   1.984
    2PC     N3112529   0.538   4.157   1.861
    2PC     C3312530   0.621   4.102   1.749
    2PC     H3A12531   0.625   3.993   1.747
    2PC     H3B12532   0.569   4.133   1.658
    2PC     H3C12533   0.719   4.149   1.736
    2PC     C3412534   0.405   4.089   1.865
    2PC     H4A12535   0.431   3.989   1.899
    2PC     H4B12536   0.342   4.143   1.935
    2PC     H4C12537   0.364   4.074   1.765
    2PC     C3512538   0.512   4.303   1.837
    2PC     H5A12539   0.482   4.320   1.733
    2PC     H5B12540   0.601   4.362   1.857
    2PC     H5C12541   0.436   4.341   1.905
    2PC     O3312542   0.747   4.371   2.212
    2PC     O3412543   0.880   4.169   2.200
    2PC     O2112544   0.759   4.381   2.659
    2PC     C2112545   0.628   4.364   2.636
    2PC     O2212546   0.576   4.254   2.627
    3OL     C1212547   0.552   4.490   2.604
    3OL     H2R12548   0.542   4.506   2.497
    3OL     H2S12549   0.610   4.570   2.652
    3OL     C1312550   0.410   4.501   2.662
    3OL     H3R12551   0.347   4.436   2.602
    3OL     H3S12552   0.373   4.601   2.640
    3OL     C1412553   0.395   4.460   2.809
    3OL     H4R12554   0.474   4.505   2.869
    3OL     H4S12555   0.417   4.353   2.811
    3OL     C1512556   0.258   4.489   2.871
    3OL     H5R12557   0.185   4.423   2.825
    3OL     H5S12558   0.227   4.588   2.837
    3OL     C1612559   0.252   4.473   3.024
    3OL     H6R12560   0.285   4.374   3.054
    3OL     H6S12561   0.145   4.485   3.043
    3OL     C1712562   0.334   4.574   3.105
    3OL     H7R12563   0.291   4.672   3.085
    3OL     H7S12564   0.439   4.576   3.075
    3OL     C1812565   0.329   4.550   3.257
    3OL     H8R12566   0.312   4.447   3.289
    3OL     H8S12567   0.243   4.606   3.294
    3OL     C1912568   0.443   4.618   3.328
    3OL     H9R12569   0.542   4.577   3.309
    3OL    C11012570   0.439   4.725   3.405
    3OL    H10R12571   0.534   4.766   3.440
    3OL    C11112572   0.316   4.792   3.461
    3OL    H11R12573   0.349   4.834   3.556
    3OL    H11S12574   0.230   4.725   3.468
    3OL    C11212575   0.274   4.922   3.392
    3OL    H12R12576   0.348   4.998   3.420
    3OL    H12S12577   0.191   4.969   3.444
    3OL    C11312578   0.258   4.915   3.239
    3OL    H13R12579   0.164   4.860   3.227
    3OL    H13S12580   0.342   4.876   3.182
    3OL    C11412581   0.225   5.060   3.199
    3OL    H14R12582   0.313   5.124   3.211
    3OL    H14S12583   0.147   5.104   3.261
    3OL    C11512584   0.190   5.051   3.050
    3OL    H15R12585   0.104   4.985   3.047
    3OL    H15S12586   0.271   5.012   2.988
    3OL    C11612587   0.163   5.190   2.990
    3OL    H16R12588   0.188   5.189   2.883
    3OL    H16S12589   0.224   5.262   3.045
    3OL    C11712590   0.016   5.232   2.997
    3OL    H17R12591   0.005   5.333   2.957
    3OL    H17S12592  -0.010   5.239   3.103
    3OL    C11812593  -0.083   5.142   2.922
    3OL    H18R12594  -0.050   5.151   2.818
    3OL    H18S12595  -0.186   5.178   2.918
    3OL    H18T12596  -0.076   5.040   2.962
    1PA    C11612597   6.192   3.795   3.895
    1PA    H16R12598   6.142   3.872   3.836
    1PA    H16S12599   6.290   3.834   3.920
    1PA    H16T12600   6.133   3.787   3.987
    1PA    C11512601   6.195   3.662   3.818
    1PA    H15R12602   6.251   3.596   3.885
    1PA    H15S12603   6.095   3.619   3.817
    1PA    C11412604   6.261   3.659   3.679
    1PA    H14R12605   6.343   3.730   3.672
    1PA    H14S12606   6.308   3.560   3.675
    1PA    C11312607   6.156   3.674   3.568
    1PA    H13R12608   6.069   3.610   3.587
    1PA    H13S12609   6.111   3.773   3.575
    1PA    C11212610   6.216   3.652   3.428
    1PA    H12R12611   6.297   3.723   3.408
    1PA    H12S12612   6.260   3.554   3.413
    1PA    C11112613   6.105   3.672   3.324
    1PA    H11R12614   6.036   3.594   3.355
    1PA    H11S12615   6.064   3.772   3.337
    1PA    C11012616   6.147   3.650   3.178
    1PA    H10R12617   6.193   3.551   3.177
    1PA    H10S12618   6.064   3.658   3.107
    1PA     C1912619   6.264   3.737   3.131
    1PA     H9R12620   6.233   3.841   3.139
    1PA     H9S12621   6.345   3.724   3.204
    1PA     C1812622   6.315   3.710   2.989
    1PA     H8R12623   6.379   3.790   2.952
    1PA     H8S12624   6.366   3.614   2.997
    1PA     C1712625   6.198   3.699   2.890
    1PA     H7R12626   6.129   3.617   2.910
    1PA     H7S12627   6.135   3.789   2.890
    1PA     C1612628   6.254   3.671   2.750
    1PA     H6R12629   6.314   3.755   2.714
    1PA     H6S12630   6.314   3.580   2.751
    1PA     C1512631   6.138   3.659   2.650
    1PA     H5R12632   6.091   3.565   2.679
    1PA     H5S12633   6.065   3.740   2.657
    1PA     C1412634   6.180   3.642   2.503
    1PA     H4R12635   6.235   3.729   2.469
    1PA     H4S12636   6.248   3.556   2.502
    1PA     C1312637   6.062   3.602   2.413
    1PA     H3R12638   6.016   3.517   2.463
    1PA     H3S12639   5.988   3.680   2.393
    1PA     C1212640   6.100   3.555   2.273
    1PA     H2R12641   6.146   3.639   2.221
    1PA     H2S12642   6.170   3.471   2.277
    2PC     C1112643   5.985   3.517   2.184
    2PC     O1212644   5.956   3.403   2.153
    2PC     O1112645   5.914   3.625   2.147
    2PC      C112646   5.792   3.620   2.071
    2PC      HR12647   5.808   3.561   1.981
    2PC      HS12648   5.719   3.564   2.131
    2PC      C212649   5.752   3.763   2.032
    2PC      HX12650   5.667   3.759   1.963
    2PC      C312651   5.864   3.836   1.956
    2PC      HA12652   5.956   3.848   2.014
    2PC      HB12653   5.890   3.765   1.877
    2PC     O3112654   5.811   3.963   1.912
    2PC     P3112655   5.887   4.036   1.791
    2PC     O3212656   5.908   4.182   1.854
    2PC     C3112657   6.001   4.263   1.781
    2PC     H1A12658   6.107   4.244   1.802
    2PC     H1B12659   5.988   4.245   1.674
    2PC     C3212660   5.979   4.412   1.813
    2PC     H2A12661   5.987   4.437   1.919
    2PC     H2B12662   6.060   4.464   1.762
    2PC     N3112663   5.856   4.474   1.754
    2PC     C3312664   5.746   4.441   1.850
    2PC     H3A12665   5.652   4.454   1.796
    2PC     H3B12666   5.744   4.336   1.878
    2PC     H3C12667   5.763   4.504   1.938
    2PC     C3412668   5.873   4.623   1.764
    2PC     H4A12669   5.896   4.649   1.867
    2PC     H4B12670   5.944   4.656   1.688
    2PC     H4C12671   5.773   4.658   1.741
    2PC     C3512672   5.834   4.429   1.613
    2PC     H5A12673   5.813   4.322   1.624
    2PC     H5B12674   5.920   4.438   1.546
    2PC     H5C12675   5.743   4.473   1.573
    2PC     O3312676   6.018   3.975   1.755
    2PC     O3412677   5.812   4.040   1.664
    2PC     O2112678   5.718   3.839   2.149
    2PC     C2112679   5.588   3.834   2.184
    2PC     O2212680   5.499   3.777   2.124
    3OL     C1212681   5.569   3.886   2.324
    3OL     H2R12682   5.467   3.917   2.349
    3OL     H2S12683   5.635   3.970   2.347
    3OL     C1312684   5.616   3.781   2.426
    3OL     H3R12685   5.706   3.730   2.392
    3OL     H3S12686   5.545   3.699   2.441
    3OL     C1412687   5.658   3.843   2.559
    3OL     H4R12688   5.581   3.904   2.608
    3OL     H4S12689   5.739   3.906   2.521
    3OL     C1512690   5.733   3.757   2.662
    3OL     H5R12691   5.819   3.715   2.609
    3OL     H5S12692   5.664   3.674   2.675
    3OL     C1612693   5.781   3.844   2.779
    3OL     H6R12694   5.822   3.939   2.747
    3OL     H6S12695   5.860   3.795   2.838
    3OL     C1712696   5.664   3.870   2.875
    3OL     H7R12697   5.608   3.780   2.902
    3OL     H7S12698   5.604   3.945   2.823
    3OL     C1812699   5.709   3.942   3.003
    3OL     H8R12700   5.768   4.030   2.980
    3OL     H8S12701   5.762   3.872   3.067
    3OL     C1912702   5.588   4.000   3.072
    3OL     H9R12703   5.522   4.055   3.005
    3OL    C11012704   5.560   3.989   3.201
    3OL    H10R12705   5.468   4.032   3.241
    3OL    C11112706   5.648   3.920   3.302
    3OL    H11R12707   5.750   3.923   3.263
    3OL    H11S12708   5.616   3.817   3.322
    3OL    C11212709   5.638   3.997   3.434
    3OL    H12R12710   5.531   4.011   3.448
    3OL    H12S12711   5.679   4.097   3.424
    3OL    C11312712   5.710   3.927   3.551
    3OL    H13R12713   5.816   3.908   3.536
    3OL    H13S12714   5.655   3.833   3.560
    3OL    C11412715   5.714   4.009   3.681
    3OL    H14R12716   5.615   4.050   3.703
    3OL    H14S12717   5.786   4.088   3.661
    3OL    C11512718   5.754   3.918   3.798
    3OL    H15R12719   5.773   3.971   3.891
    3OL    H15S12720   5.838   3.850   3.782
    3OL    C11612721   5.644   3.823   3.847
    3OL    H16R12722   5.685   3.751   3.918
    3OL    H16S12723   5.608   3.770   3.758
    3OL    C11712724   5.528   3.891   3.921
    3OL    H17R12725   5.483   3.972   3.863
    3OL    H17S12726   5.555   3.934   4.017
    3OL    C11812727   5.421   3.785   3.949
    3OL    H18R12728   5.388   3.744   3.853
    3OL    H18S12729   5.330   3.815   4.000
    3OL    H18T12730   5.461   3.704   4.011
    1PA    C11612731   4.920   3.283   3.785
    1PA    H16R12732   5.002   3.323   3.725
    1PA    H16S12733   4.952   3.285   3.889
    1PA    H16T12734   4.830   3.343   3.770
    1PA    C11512735   4.894   3.139   3.739
    1PA    H15R12736   4.988   3.084   3.744
    1PA    H15S12737   4.816   3.091   3.800
    1PA    C11412738   4.841   3.134   3.595
    1PA    H14R12739   4.745   3.185   3.585
    1PA    H14S12740   4.915   3.187   3.534
    1PA    C11312741   4.833   2.990   3.542
    1PA    H13R12742   4.925   2.942   3.575
    1PA    H13S12743   4.749   2.936   3.588
    1PA    C11212744   4.830   2.977   3.389
    1PA    H12R12745   4.751   3.041   3.350
    1PA    H12S12746   4.924   3.021   3.354
    1PA    C11112747   4.827   2.834   3.335
    1PA    H11R12748   4.792   2.766   3.412
    1PA    H11S12749   4.757   2.845   3.252
    1PA    C11012750   4.960   2.784   3.276
    1PA    H10R12751   5.038   2.784   3.354
    1PA    H10S12752   4.947   2.678   3.250
    1PA     C1912753   5.003   2.861   3.151
    1PA     H9R12754   4.997   2.970   3.163
    1PA     H9S12755   5.109   2.837   3.149
    1PA     C1812756   4.931   2.814   3.024
    1PA     H8R12757   4.903   2.708   3.021
    1PA     H8S12758   4.839   2.871   3.010
    1PA     C1712759   5.031   2.838   2.910
    1PA     H7R12760   5.068   2.940   2.923
    1PA     H7S12761   5.117   2.771   2.918
    1PA     C1612762   4.965   2.833   2.772
    1PA     H6R12763   4.937   2.729   2.753
    1PA     H6S12764   4.873   2.892   2.768
    1PA     C1512765   5.068   2.897   2.678
    1PA     H5R12766   5.069   3.005   2.696
    1PA     H5S12767   5.162   2.842   2.673
    1PA     C1412768   5.010   2.872   2.538
    1PA     H4R12769   4.974   2.769   2.525
    1PA     H4S12770   4.914   2.920   2.519
    1PA     C1312771   5.110   2.898   2.425
    1PA     H3R12772   5.173   2.984   2.446
    1PA     H3S12773   5.177   2.813   2.407
    1PA     C1212774   5.034   2.931   2.295
    1PA     H2R12775   4.939   2.883   2.275
    1PA     H2S12776   5.011   3.037   2.309
    2PC     C1112777   5.128   2.915   2.178
    2PC     O1212778   5.133   2.806   2.124
    2PC     O1112779   5.219   3.012   2.160
    2PC      C112780   5.311   3.003   2.050
    2PC      HR12781   5.382   2.921   2.062
    2PC      HS12782   5.258   3.012   1.954
    2PC      C212783   5.398   3.130   2.057
    2PC      HX12784   5.338   3.219   2.077
    2PC      C312785   5.467   3.140   1.920
    2PC      HA12786   5.394   3.107   1.845
    2PC      HB12787   5.502   3.240   1.892
    2PC     O3112788   5.573   3.043   1.919
    2PC     P3112789   5.612   2.965   1.785
    2PC     O3212790   5.517   2.836   1.773
    2PC     C3112791   5.552   2.724   1.690
    2PC     H1A12792   5.571   2.753   1.586
    2PC     H1B12793   5.647   2.688   1.728
    2PC     C3212794   5.445   2.613   1.691
    2PC     H2A12795   5.360   2.653   1.635
    2PC     H2B12796   5.492   2.540   1.625
    2PC     N3112797   5.424   2.523   1.809
    2PC     C3312798   5.554   2.456   1.844
    2PC     H3A12799   5.601   2.418   1.753
    2PC     H3B12800   5.628   2.526   1.882
    2PC     H3C12801   5.530   2.371   1.908
    2PC     C3412802   5.377   2.604   1.926
    2PC     H4A12803   5.452   2.675   1.960
    2PC     H4B12804   5.289   2.663   1.902
    2PC     H4C12805   5.352   2.543   2.014
    2PC     C3512806   5.314   2.427   1.773
    2PC     H5A12807   5.333   2.364   1.687
    2PC     H5B12808   5.227   2.491   1.757
    2PC     H5C12809   5.303   2.371   1.866
    2PC     O3312810   5.594   3.043   1.661
    2PC     O3412811   5.754   2.926   1.788
    2PC     O2112812   5.492   3.128   2.166
    2PC     C2112813   5.569   3.236   2.190
    2PC     O2212814   5.562   3.339   2.127
    3OL     C1212815   5.677   3.218   2.293
    3OL     H2R12816   5.769   3.260   2.252
    3OL     H2S12817   5.689   3.112   2.315
    3OL     C1312818   5.647   3.293   2.424
    3OL     H3R12819   5.547   3.277   2.464
    3OL     H3S12820   5.662   3.398   2.398
    3OL     C1412821   5.749   3.262   2.534
    3OL     H4R12822   5.851   3.270   2.496
    3OL     H4S12823   5.738   3.163   2.578
    3OL     C1512824   5.743   3.376   2.637
    3OL     H5R12825   5.642   3.378   2.680
    3OL     H5S12826   5.759   3.475   2.595
    3OL     C1612827   5.837   3.367   2.758
    3OL     H6R12828   5.938   3.366   2.717
    3OL     H6S12829   5.833   3.269   2.806
    3OL     C1712830   5.808   3.473   2.865
    3OL     H7R12831   5.771   3.569   2.828
    3OL     H7S12832   5.900   3.496   2.921
    3OL     C1812833   5.713   3.422   2.974
    3OL     H8R12834   5.756   3.336   3.026
    3OL     H8S12835   5.620   3.385   2.929
    3OL     C1912836   5.682   3.526   3.078
    3OL     H9R12837   5.640   3.620   3.045
    3OL    C11012838   5.702   3.526   3.209
    3OL    H10R12839   5.686   3.615   3.269
    3OL    C11112840   5.769   3.412   3.283
    3OL    H11R12841   5.872   3.436   3.309
    3OL    H11S12842   5.778   3.317   3.231
    3OL    C11212843   5.699   3.378   3.415
    3OL    H12R12844   5.730   3.287   3.467
    3OL    H12S12845   5.592   3.375   3.394
    3OL    C11312846   5.731   3.491   3.514
    3OL    H13R12847   5.682   3.584   3.485
    3OL    H13S12848   5.839   3.503   3.508
    3OL    C11412849   5.685   3.462   3.658
    3OL    H14R12850   5.752   3.527   3.715
    3OL    H14S12851   5.712   3.360   3.684
    3OL    C11512852   5.534   3.475   3.687
    3OL    H15R12853   5.471   3.405   3.632
    3OL    H15S12854   5.506   3.577   3.659
    3OL    C11612855   5.499   3.448   3.834
    3OL    H16R12856   5.417   3.509   3.872
    3OL    H16S12857   5.581   3.481   3.898
    3OL    C11712858   5.482   3.301   3.876
    3OL    H17R12859   5.486   3.290   3.985
    3OL    H17S12860   5.553   3.235   3.827
    3OL    C11812861   5.351   3.240   3.825
    3OL    H18R12862   5.273   3.313   3.848
    3OL    H18S12863   5.325   3.148   3.877
    3OL    H18T12864   5.353   3.224   3.717
    1PA    C11612865   6.537   4.854   4.266
    1PA    H16R12866   6.536   4.936   4.338
    1PA    H16S12867   6.628   4.794   4.273
    1PA    H16T12868   6.457   4.786   4.296
    1PA    C11512869   6.512   4.908   4.124
    1PA    H15R12870   6.504   4.820   4.061
    1PA    H15S12871   6.419   4.965   4.119
    1PA    C11412872   6.632   4.989   4.073
    1PA    H14R12873   6.638   5.079   4.133
    1PA    H14S12874   6.727   4.936   4.082
    1PA    C11312875   6.622   5.022   3.923
    1PA    H13R12876   6.709   5.076   3.885
    1PA    H13S12877   6.613   4.925   3.874
    1PA    C11212878   6.505   5.110   3.878
    1PA    H12R12879   6.415   5.068   3.922
    1PA    H12S12880   6.513   5.215   3.906
    1PA    C11112881   6.486   5.106   3.725
    1PA    H11R12882   6.572   5.150   3.675
    1PA    H11S12883   6.468   5.005   3.688
    1PA    C11012884   6.378   5.209   3.690
    1PA    H10R12885   6.284   5.180   3.739
    1PA    H10S12886   6.407   5.305   3.731
    1PA     C1912887   6.365   5.232   3.539
    1PA     H9R12888   6.462   5.261   3.498
    1PA     H9S12889   6.335   5.139   3.491
    1PA     C1812890   6.265   5.344   3.509
    1PA     H8R12891   6.164   5.303   3.514
    1PA     H8S12892   6.275   5.429   3.578
    1PA     C1712893   6.270   5.393   3.364
    1PA     H7R12894   6.371   5.424   3.337
    1PA     H7S12895   6.244   5.301   3.311
    1PA     C1612896   6.169   5.503   3.325
    1PA     H6R12897   6.073   5.453   3.335
    1PA     H6S12898   6.177   5.581   3.401
    1PA     C1512899   6.202   5.557   3.185
    1PA     H5R12900   6.308   5.573   3.168
    1PA     H5S12901   6.186   5.474   3.118
    1PA     C1412902   6.116   5.680   3.148
    1PA     H4R12903   6.017   5.660   3.190
    1PA     H4S12904   6.148   5.766   3.206
    1PA     C1312905   6.127   5.698   2.996
    1PA     H3R12906   6.231   5.696   2.962
    1PA     H3S12907   6.069   5.614   2.959
    1PA     C1212908   6.053   5.824   2.950
    1PA     H2R12909   5.969   5.857   3.012
    1PA     H2S12910   6.130   5.901   2.953
    2PC     C1112911   5.996   5.821   2.810
    2PC     O1212912   6.021   5.735   2.728
    2PC     O1112913   5.894   5.907   2.793
    2PC      C112914   5.812   5.898   2.675
    2PC      HR12915   5.743   5.982   2.689
    2PC      HS12916   5.872   5.910   2.585
    2PC      C212917   5.733   5.767   2.666
    2PC      HX12918   5.793   5.677   2.649
    2PC      C312919   5.634   5.770   2.548
    2PC      HA12920   5.695   5.787   2.460
    2PC      HB12921   5.603   5.665   2.542
    2PC     O3112922   5.520   5.856   2.566
    2PC     P3112923   5.406   5.836   2.456
    2PC     O3212924   5.337   5.698   2.498
    2PC     C3112925   5.261   5.698   2.620
    2PC     H1A12926   5.314   5.727   2.711
    2PC     H1B12927   5.181   5.770   2.604
    2PC     C3212928   5.203   5.556   2.630
    2PC     H2A12929   5.134   5.548   2.715
    2PC     H2B12930   5.136   5.544   2.544
    2PC     N3112931   5.295   5.439   2.644
    2PC     C3312932   5.375   5.453   2.770
    2PC     H3A12933   5.446   5.371   2.769
    2PC     H3B12934   5.435   5.544   2.767
    2PC     H3C12935   5.312   5.449   2.859
    2PC     C3412936   5.208   5.319   2.664
    2PC     H4A12937   5.144   5.348   2.748
    2PC     H4B12938   5.161   5.293   2.569
    2PC     H4C12939   5.269   5.232   2.691
    2PC     C3512940   5.376   5.421   2.519
    2PC     H5A12941   5.310   5.417   2.432
    2PC     H5B12942   5.414   5.320   2.536
    2PC     H5C12943   5.451   5.498   2.503
    2PC     O3312944   5.307   5.946   2.448
    2PC     O3412945   5.454   5.827   2.316
    2PC     O2112946   5.653   5.772   2.786
    2PC     C2112947   5.634   5.654   2.846
    2PC     O2212948   5.644   5.548   2.786
    3OL     C1212949   5.575   5.669   2.984
    3OL     H2R12950   5.520   5.578   3.008
    3OL     H2S12951   5.505   5.753   2.979
    3OL     C1312952   5.692   5.699   3.078
    3OL     H3R12953   5.759   5.773   3.033
    3OL     H3S12954   5.748   5.609   3.107
    3OL     C1412955   5.627   5.761   3.202
    3OL     H4R12956   5.548   5.699   3.245
    3OL     H4S12957   5.585   5.855   3.165
    3OL     C1512958   5.736   5.794   3.304
    3OL     H5R12959   5.683   5.858   3.375
    3OL     H5S12960   5.816   5.852   3.259
    3OL     C1612961   5.783   5.665   3.373
    3OL     H6R12962   5.836   5.605   3.298
    3OL     H6S12963   5.697   5.604   3.401
    3OL     C1712964   5.879   5.699   3.487
    3OL     H7R12965   5.839   5.792   3.529
    3OL     H7S12966   5.978   5.725   3.447
    3OL     C1812967   5.887   5.589   3.594
    3OL     H8R12968   5.895   5.492   3.545
    3OL     H8S12969   5.794   5.599   3.650
    3OL     C1912970   6.012   5.599   3.677
    3OL     H9R12971   6.093   5.550   3.624
    3OL    C11012972   6.030   5.666   3.791
    3OL    H10R12973   6.125   5.671   3.842
    3OL    C11112974   5.921   5.746   3.857
    3OL    H11R12975   5.874   5.701   3.945
    3OL    H11S12976   5.843   5.769   3.784
    3OL    C11212977   5.969   5.884   3.905
    3OL    H12R12978   6.022   5.936   3.825
    3OL    H12S12979   6.041   5.876   3.987
    3OL    C11312980   5.859   5.987   3.936
    3OL    H13R12981   5.791   5.947   4.012
    3OL    H13S12982   5.804   6.005   3.843
    3OL    C11412983   5.918   6.122   3.976
    3OL    H14R12984   5.996   6.153   3.906
    3OL    H14S12985   5.958   6.108   4.077
    3OL    C11512986   5.805   6.224   4.000
    3OL    H15R12987   5.735   6.191   4.076
    3OL    H15S12988   5.735   6.213   3.917
    3OL    C11612989   5.852   6.370   4.012
    3OL    H16R12990   5.774   6.446   4.007
    3OL    H16S12991   5.929   6.384   3.937
    3OL    C11712992   5.925   6.388   4.146
    3OL    H17R12993   5.950   6.495   4.148
    3OL    H17S12994   6.014   6.325   4.143
    3OL    C11812995   5.835   6.356   4.266
    3OL    H18R12996   5.828   6.250   4.289
    3OL    H18S12997   5.734   6.392   4.247
    3OL    H18T12998   5.879   6.409   4.351
    1PA    C11612999   4.350   2.595   3.895
    1PA    H16R13000   4.422   2.661   3.943
    1PA    H16S13001   4.249   2.597   3.938
    1PA    H16T13002   4.338   2.625   3.791
    1PA    C11513003   4.410   2.454   3.902
    1PA    H15R13004   4.460   2.438   3.998
    1PA    H15S13005   4.329   2.382   3.893
    1PA    C11413006   4.522   2.435   3.798
    1PA    H14R13007   4.595   2.516   3.806
    1PA    H14S13008   4.573   2.340   3.817
    1PA    C11313009   4.462   2.434   3.657
    1PA    H13R13010   4.378   2.364   3.651
    1PA    H13S13011   4.416   2.529   3.630
    1PA    C11213012   4.571   2.406   3.552
    1PA    H12R13013   4.641   2.488   3.536
    1PA    H12S13014   4.628   2.322   3.592
    1PA    C11113015   4.510   2.355   3.421
    1PA    H11R13016   4.467   2.259   3.450
    1PA    H11S13017   4.434   2.421   3.380
    1PA    C11013018   4.620   2.333   3.315
    1PA    H10R13019   4.713   2.294   3.356
    1PA    H10S13020   4.579   2.281   3.229
    1PA     C1913021   4.640   2.473   3.256
    1PA     H9R13022   4.551   2.535   3.248
    1PA     H9S13023   4.690   2.529   3.336
    1PA     C1813024   4.737   2.471   3.137
    1PA     H8R13025   4.794   2.564   3.132
    1PA     H8S13026   4.810   2.391   3.146
    1PA     C1713027   4.661   2.457   3.004
    1PA     H7R13028   4.605   2.364   3.008
    1PA     H7S13029   4.595   2.543   2.988
    1PA     C1613030   4.760   2.450   2.887
    1PA     H6R13031   4.834   2.530   2.880
    1PA     H6S13032   4.811   2.355   2.899
    1PA     C1513033   4.683   2.439   2.754
    1PA     H5R13034   4.592   2.381   2.769
    1PA     H5S13035   4.667   2.546   2.737
    1PA     C1413036   4.764   2.393   2.632
    1PA     H4R13037   4.856   2.450   2.612
    1PA     H4S13038   4.798   2.291   2.652
    1PA     C1313039   4.683   2.405   2.502
    1PA     H3R13040   4.581   2.370   2.518
    1PA     H3S13041   4.670   2.513   2.489
    1PA     C1213042   4.754   2.340   2.383
    1PA     H2R13043   4.860   2.351   2.406
    1PA     H2S13044   4.739   2.232   2.383
    2PC     C1113045   4.718   2.403   2.251
    2PC     O1213046   4.702   2.338   2.149
    2PC     O1113047   4.738   2.536   2.246
    2PC      C113048   4.721   2.601   2.119
    2PC      HR13049   4.795   2.682   2.113
    2PC      HS13050   4.735   2.535   2.033
    2PC      C213051   4.578   2.654   2.110
    2PC      HX13052   4.498   2.582   2.132
    2PC      C313053   4.556   2.722   1.974
    2PC      HA13054   4.538   2.650   1.894
    2PC      HB13055   4.466   2.783   1.981
    2PC     O3113056   4.669   2.800   1.931
    2PC     P3113057   4.669   2.845   1.778
    2PC     O3213058   4.728   2.723   1.693
    2PC     C3113059   4.707   2.732   1.551
    2PC     H1A13060   4.603   2.753   1.525
    2PC     H1B13061   4.780   2.800   1.507
    2PC     C3213062   4.742   2.588   1.511
    2PC     H2A13063   4.845   2.571   1.543
    2PC     H2B13064   4.668   2.520   1.554
    2PC     N3113065   4.739   2.571   1.362
    2PC     C3313066   4.793   2.437   1.322
    2PC     H3A13067   4.864   2.395   1.393
    2PC     H3B13068   4.704   2.375   1.318
    2PC     H3C13069   4.840   2.457   1.225
    2PC     C3413070   4.601   2.581   1.304
    2PC     H4A13071   4.564   2.681   1.282
    2PC     H4B13072   4.615   2.522   1.213
    2PC     H4C13073   4.530   2.537   1.373
    2PC     C3513074   4.825   2.672   1.292
    2PC     H5A13075   4.771   2.766   1.281
    2PC     H5B13076   4.840   2.638   1.190
    2PC     H5C13077   4.918   2.681   1.349
    2PC     O3313078   4.527   2.875   1.747
    2PC     O3413079   4.742   2.974   1.771
    2PC     O2113080   4.575   2.753   2.213
    2PC     C2113081   4.531   2.722   2.336
    2PC     O2213082   4.476   2.617   2.363
    3OL     C1213083   4.572   2.818   2.444
    3OL     H2R13084   4.494   2.895   2.445
    3OL     H2S13085   4.662   2.876   2.424
    3OL     C1313086   4.592   2.746   2.578
    3OL     H3R13087   4.692   2.704   2.582
    3OL     H3S13088   4.511   2.676   2.600
    3OL     C1413089   4.580   2.853   2.687
    3OL     H4R13090   4.484   2.905   2.677
    3OL     H4S13091   4.658   2.928   2.676
    3OL     C1513092   4.582   2.802   2.832
    3OL     H5R13093   4.669   2.743   2.863
    3OL     H5S13094   4.498   2.733   2.841
    3OL     C1613095   4.562   2.912   2.938
    3OL     H6R13096   4.498   2.992   2.899
    3OL     H6S13097   4.646   2.967   2.981
    3OL     C1713098   4.504   2.847   3.064
    3OL     H7R13099   4.570   2.762   3.082
    3OL     H7S13100   4.413   2.792   3.036
    3OL     C1813101   4.500   2.941   3.185
    3OL     H8R13102   4.451   3.036   3.164
    3OL     H8S13103   4.605   2.968   3.196
    3OL     C1913104   4.446   2.856   3.298
    3OL     H9R13105   4.413   2.758   3.266
    3OL    C11013106   4.436   2.881   3.428
    3OL    H10R13107   4.399   2.805   3.497
    3OL    C11113108   4.461   3.012   3.497
    3OL    H11R13109   4.519   3.078   3.432
    3OL    H11S13110   4.513   2.997   3.592
    3OL    C11213111   4.328   3.080   3.532
    3OL    H12R13112   4.269   3.113   3.446
    3OL    H12S13113   4.347   3.175   3.583
    3OL    C11313114   4.229   3.003   3.621
    3OL    H13R13115   4.236   2.896   3.601
    3OL    H13S13116   4.126   3.034   3.602
    3OL    C11413117   4.265   3.030   3.768
    3OL    H14R13118   4.280   3.137   3.781
    3OL    H14S13119   4.361   2.980   3.781
    3OL    C11513120   4.159   2.978   3.866
    3OL    H15R13121   4.149   2.871   3.852
    3OL    H15S13122   4.066   3.029   3.840
    3OL    C11613123   4.198   3.007   4.012
    3OL    H16R13124   4.211   3.115   4.022
    3OL    H16S13125   4.295   2.964   4.039
    3OL    C11713126   4.091   2.958   4.110
    3OL    H17R13127   4.125   2.937   4.211
    3OL    H17S13128   4.051   2.865   4.069
    3OL    C11813129   3.975   3.056   4.132
    3OL    H18R13130   4.004   3.161   4.139
    3OL    H18S13131   3.926   3.028   4.225
    3OL    H18T13132   3.895   3.049   4.058
    1PA    C11613133   3.899   3.261   3.787
    1PA    H16R13134   3.821   3.186   3.803
    1PA    H16S13135   3.884   3.339   3.862
    1PA    H16T13136   3.996   3.217   3.814
    1PA    C11513137   3.907   3.309   3.642
    1PA    H15R13138   3.941   3.230   3.575
    1PA    H15S13139   3.804   3.339   3.625
    1PA    C11413140   3.992   3.437   3.641
    1PA    H14R13141   3.952   3.493   3.556
    1PA    H14S13142   3.952   3.486   3.730
    1PA    C11313143   4.144   3.415   3.641
    1PA    H13R13144   4.178   3.356   3.726
    1PA    H13S13145   4.170   3.348   3.559
    1PA    C11213146   4.221   3.547   3.626
    1PA    H12R13147   4.199   3.606   3.537
    1PA    H12S13148   4.201   3.616   3.708
    1PA    C11113149   4.373   3.523   3.628
    1PA    H11R13150   4.429   3.612   3.656
    1PA    H11S13151   4.407   3.441   3.692
    1PA    C11013152   4.417   3.478   3.488
    1PA    H10R13153   4.376   3.379   3.466
    1PA    H10S13154   4.391   3.541   3.404
    1PA     C1913155   4.571   3.485   3.483
    1PA     H9R13156   4.603   3.584   3.516
    1PA     H9S13157   4.608   3.413   3.556
    1PA     C1813158   4.617   3.451   3.340
    1PA     H8R13159   4.580   3.350   3.320
    1PA     H8S13160   4.580   3.516   3.261
    1PA     C1713161   4.767   3.474   3.322
    1PA     H7R13162   4.792   3.579   3.341
    1PA     H7S13163   4.821   3.420   3.400
    1PA     C1613164   4.819   3.427   3.185
    1PA     H6R13165   4.749   3.474   3.115
    1PA     H6S13166   4.915   3.477   3.167
    1PA     C1513167   4.815   3.275   3.169
    1PA     H5R13168   4.870   3.217   3.243
    1PA     H5S13169   4.715   3.231   3.170
    1PA     C1413170   4.871   3.236   3.031
    1PA     H4R13171   4.967   3.284   3.014
    1PA     H4S13172   4.883   3.127   3.032
    1PA     C1313173   4.773   3.260   2.915
    1PA     H3R13174   4.684   3.199   2.927
    1PA     H3S13175   4.735   3.362   2.917
    1PA     C1213176   4.834   3.207   2.784
    1PA     H2R13177   4.924   3.264   2.760
    1PA     H2S13178   4.866   3.105   2.805
    2PC     C1113179   4.739   3.227   2.668
    2PC     O1213180   4.644   3.302   2.665
    2PC     O1113181   4.796   3.166   2.563
    2PC      C113182   4.750   3.175   2.427
    2PC      HR13183   4.803   3.100   2.368
    2PC      HS13184   4.644   3.151   2.419
    2PC      C213185   4.785   3.316   2.378
    2PC      HX13186   4.720   3.390   2.425
    2PC      C313187   4.778   3.336   2.226
    2PC      HA13188   4.837   3.260   2.176
    2PC      HB13189   4.675   3.322   2.192
    2PC     O3113190   4.824   3.462   2.174
    2PC     P3113191   4.832   3.481   2.016
    2PC     O3213192   4.708   3.576   1.980
    2PC     C3113193   4.734   3.718   1.972
    2PC     H1A13194   4.773   3.737   2.072
    2PC     H1B13195   4.800   3.731   1.887
    2PC     C3213196   4.607   3.804   1.966
    2PC     H2A13197   4.541   3.778   2.049
    2PC     H2B13198   4.645   3.905   1.987
    2PC     N3113199   4.519   3.804   1.845
    2PC     C3313200   4.446   3.673   1.845
    2PC     H3A13201   4.378   3.663   1.760
    2PC     H3B13202   4.524   3.598   1.858
    2PC     H3C13203   4.382   3.668   1.933
    2PC     C3413204   4.425   3.920   1.850
    2PC     H4A13205   4.369   3.916   1.756
    2PC     H4B13206   4.368   3.902   1.941
    2PC     H4C13207   4.487   4.010   1.853
    2PC     C3513208   4.599   3.804   1.718
    2PC     H5A13209   4.526   3.801   1.636
    2PC     H5B13210   4.648   3.707   1.713
    2PC     H5C13211   4.673   3.884   1.716
    2PC     O3313212   4.955   3.553   1.974
    2PC     O3413213   4.829   3.369   1.920
    2PC     O2113214   4.927   3.333   2.396
    2PC     C2113215   4.971   3.447   2.452
    2PC     O2213216   4.899   3.535   2.495
    3OL     C1213217   5.120   3.462   2.463
    3OL     H2R13218   5.157   3.556   2.422
    3OL     H2S13219   5.177   3.386   2.408
    3OL     C1313220   5.162   3.451   2.610
    3OL     H3R13221   5.138   3.358   2.661
    3OL     H3S13222   5.111   3.531   2.664
    3OL     C1413223   5.314   3.474   2.616
    3OL     H4R13224   5.348   3.563   2.561
    3OL     H4S13225   5.359   3.389   2.566
    3OL     C1513226   5.365   3.487   2.760
    3OL     H5R13227   5.471   3.516   2.760
    3OL     H5S13228   5.349   3.392   2.810
    3OL     C1613229   5.297   3.585   2.856
    3OL     H6R13230   5.340   3.594   2.957
    3OL     H6S13231   5.196   3.563   2.891
    3OL     C1713232   5.286   3.724   2.791
    3OL     H7R13233   5.227   3.716   2.700
    3OL     H7S13234   5.386   3.758   2.764
    3OL     C1813235   5.218   3.832   2.877
    3OL     H8R13236   5.110   3.822   2.883
    3OL     H8S13237   5.220   3.924   2.818
    3OL     C1913238   5.277   3.856   3.014
    3OL     H9R13239   5.378   3.895   3.004
    3OL    C11013240   5.221   3.834   3.132
    3OL    H10R13241   5.269   3.865   3.224
    3OL    C11113242   5.082   3.781   3.158
    3OL    H11R13243   5.092   3.691   3.219
    3OL    H11S13244   5.035   3.753   3.064
    3OL    C11213245   5.000   3.878   3.244
    3OL    H12R13246   5.048   3.877   3.342
    3OL    H12S13247   4.899   3.841   3.262
    3OL    C11313248   4.992   4.020   3.187
    3OL    H13R13249   4.953   4.011   3.085
    3OL    H13S13250   5.092   4.061   3.170
    3OL    C11413251   4.896   4.098   3.277
    3OL    H14R13252   4.899   4.070   3.382
    3OL    H14S13253   4.795   4.086   3.235
    3OL    C11513254   4.926   4.248   3.269
    3OL    H15R13255   4.925   4.279   3.164
    3OL    H15S13256   5.032   4.265   3.292
    3OL    C11613257   4.833   4.323   3.365
    3OL    H16R13258   4.836   4.294   3.470
    3OL    H16S13259   4.735   4.294   3.328
    3OL    C11713260   4.833   4.477   3.360
    3OL    H17R13261   4.829   4.500   3.253
    3OL    H17S13262   4.925   4.521   3.398
    3OL    C11813263   4.717   4.544   3.435
    3OL    H18R13264   4.624   4.515   3.386
    3OL    H18S13265   4.729   4.652   3.430
    3OL    H18T13266   4.720   4.513   3.540
    1PA    C11613267   4.328   6.343   4.050
    1PA    H16R13268   4.234   6.289   4.035
    1PA    H16S13269   4.356   6.377   3.950
    1PA    H16T13270   4.312   6.434   4.109
    1PA    C11513271   4.431   6.242   4.102
    1PA    H15R13272   4.522   6.297   4.124
    1PA    H15S13273   4.396   6.196   4.195
    1PA    C11413274   4.446   6.123   4.006
    1PA    H14R13275   4.355   6.064   3.999
    1PA    H14S13276   4.459   6.164   3.906
    1PA    C11313277   4.570   6.040   4.043
    1PA    H13R13278   4.653   6.079   3.984
    1PA    H13S13279   4.598   6.042   4.148
    1PA    C11213280   4.545   5.894   4.003
    1PA    H12R13281   4.630   5.830   4.028
    1PA    H12S13282   4.469   5.840   4.061
    1PA    C11113283   4.509   5.864   3.857
    1PA    H11R13284   4.497   5.758   3.834
    1PA    H11S13285   4.413   5.911   3.834
    1PA    C11013286   4.613   5.910   3.754
    1PA    H10R13287   4.620   6.019   3.744
    1PA    H10S13288   4.706   5.859   3.778
    1PA     C1913289   4.575   5.855   3.616
    1PA     H9R13290   4.649   5.870   3.537
    1PA     H9S13291   4.567   5.746   3.625
    1PA     C1813292   4.441   5.912   3.569
    1PA     H8R13293   4.367   5.891   3.647
    1PA     H8S13294   4.445   6.021   3.562
    1PA     C1713295   4.396   5.849   3.437
    1PA     H7R13296   4.470   5.874   3.362
    1PA     H7S13297   4.406   5.740   3.444
    1PA     C1613298   4.249   5.867   3.397
    1PA     H6R13299   4.214   5.798   3.320
    1PA     H6S13300   4.173   5.848   3.473
    1PA     C1513301   4.231   6.014   3.355
    1PA     H5R13302   4.238   6.067   3.450
    1PA     H5S13303   4.306   6.033   3.278
    1PA     C1413304   4.089   6.044   3.306
    1PA     H4R13305   4.015   6.010   3.378
    1PA     H4S13306   4.084   6.153   3.301
    1PA     C1313307   4.067   5.991   3.163
    1PA     H3R13308   4.145   6.032   3.100
    1PA     H3S13309   4.096   5.886   3.155
    1PA     C1213310   3.920   6.020   3.128
    1PA     H2R13311   3.856   5.961   3.194
    1PA     H2S13312   3.895   6.125   3.145
    2PC     C1113313   3.882   5.982   2.987
    2PC     O1213314   3.785   6.028   2.930
    2PC     O1113315   3.969   5.902   2.923
    2PC      C113316   3.918   5.834   2.807
    2PC      HR13317   3.858   5.897   2.740
    2PC      HS13318   4.009   5.808   2.754
    2PC      C213319   3.856   5.701   2.852
    2PC      HX13320   3.913   5.660   2.935
    2PC      C313321   3.854   5.603   2.733
    2PC      HA13322   3.952   5.555   2.729
    2PC      HB13323   3.775   5.530   2.747
    2PC     O3113324   3.848   5.671   2.606
    2PC     P3113325   3.829   5.583   2.473
    2PC     O3213326   3.671   5.591   2.453
    2PC     C3113327   3.620   5.713   2.398
    2PC     H1A13328   3.660   5.799   2.453
    2PC     H1B13329   3.660   5.725   2.297
    2PC     C3213330   3.467   5.706   2.409
    2PC     H2A13331   3.427   5.795   2.361
    2PC     H2B13332   3.430   5.616   2.361
    2PC     N3113333   3.413   5.700   2.549
    2PC     C3313334   3.441   5.567   2.612
    2PC     H3A13335   3.405   5.498   2.536
    2PC     H3B13336   3.548   5.557   2.629
    2PC     H3C13337   3.380   5.579   2.702
    2PC     C3413338   3.480   5.802   2.636
    2PC     H4A13339   3.437   5.782   2.734
    2PC     H4B13340   3.589   5.801   2.640
    2PC     H4C13341   3.445   5.901   2.604
    2PC     C3513342   3.266   5.731   2.544
    2PC     H5A13343   3.243   5.734   2.651
    2PC     H5B13344   3.214   5.650   2.493
    2PC     H5C13345   3.252   5.826   2.493
    2PC     O3313346   3.900   5.651   2.362
    2PC     O3413347   3.882   5.448   2.504
    2PC     O2113348   3.723   5.728   2.899
    2PC     C2113349   3.653   5.625   2.950
    2PC     O2213350   3.696   5.511   2.955
    3OL     C1213351   3.515   5.664   2.996
    3OL     H2R13352   3.455   5.710   2.917
    3OL     H2S13353   3.528   5.742   3.071
    3OL     C1313354   3.444   5.544   3.059
    3OL     H3R13355   3.510   5.484   3.122
    3OL     H3S13356   3.400   5.484   2.979
    3OL     C1413357   3.332   5.596   3.150
    3OL     H4R13358   3.261   5.513   3.160
    3OL     H4S13359   3.291   5.679   3.093
    3OL     C1513360   3.391   5.642   3.284
    3OL     H5R13361   3.324   5.711   3.338
    3OL     H5S13362   3.483   5.697   3.265
    3OL     C1613363   3.424   5.533   3.387
    3OL     H6R13364   3.486   5.579   3.464
    3OL     H6S13365   3.480   5.453   3.338
    3OL     C1713366   3.299   5.475   3.455
    3OL     H7R13367   3.236   5.427   3.380
    3OL     H7S13368   3.239   5.552   3.504
    3OL     C1813369   3.349   5.382   3.566
    3OL     H8R13370   3.405   5.308   3.509
    3OL     H8S13371   3.261   5.337   3.613
    3OL     C1913372   3.435   5.453   3.668
    3OL     H9R13373   3.409   5.558   3.677
    3OL    C11013374   3.532   5.398   3.738
    3OL    H10R13375   3.601   5.467   3.787
    3OL    C11113376   3.576   5.254   3.733
    3OL    H11R13377   3.500   5.202   3.675
    3OL    H11S13378   3.574   5.204   3.830
    3OL    C11213379   3.713   5.247   3.664
    3OL    H12R13380   3.756   5.150   3.690
    3OL    H12S13381   3.775   5.327   3.705
    3OL    C11313382   3.694   5.257   3.512
    3OL    H13R13383   3.619   5.331   3.486
    3OL    H13S13384   3.652   5.160   3.484
    3OL    C11413385   3.820   5.271   3.425
    3OL    H14R13386   3.804   5.217   3.331
    3OL    H14S13387   3.918   5.247   3.467
    3OL    C11513388   3.842   5.417   3.383
    3OL    H15R13389   3.757   5.450   3.323
    3OL    H15S13390   3.930   5.423   3.318
    3OL    C11613391   3.854   5.513   3.502
    3OL    H16R13392   3.939   5.482   3.563
    3OL    H16S13393   3.754   5.518   3.546
    3OL    C11713394   3.892   5.654   3.453
    3OL    H17R13395   3.811   5.689   3.389
    3OL    H17S13396   3.979   5.658   3.388
    3OL    C11813397   3.905   5.756   3.567
    3OL    H18R13398   3.898   5.858   3.528
    3OL    H18S13399   3.997   5.749   3.624
    3OL    H18T13400   3.820   5.751   3.636
    1PA    C11613401   5.001   2.597   3.846
    1PA    H16R13402   5.017   2.672   3.923
    1PA    H16S13403   5.060   2.508   3.867
    1PA    H16T13404   4.897   2.566   3.861
    1PA    C11513405   5.032   2.668   3.713
    1PA    H15R13406   4.999   2.602   3.632
    1PA    H15S13407   4.975   2.761   3.713
    1PA    C11413408   5.181   2.704   3.702
    1PA    H14R13409   5.213   2.766   3.786
    1PA    H14S13410   5.229   2.607   3.691
    1PA    C11313411   5.212   2.782   3.574
    1PA    H13R13412   5.167   2.727   3.492
    1PA    H13S13413   5.174   2.884   3.581
    1PA    C11213414   5.363   2.790   3.546
    1PA    H12R13415   5.422   2.721   3.607
    1PA    H12S13416   5.388   2.766   3.442
    1PA    C11113417   5.408   2.931   3.588
    1PA    H11R13418   5.354   3.016   3.545
    1PA    H11S13419   5.403   2.937   3.697
    1PA    C11013420   5.555   2.951   3.550
    1PA    H10R13421   5.583   3.039   3.608
    1PA    H10S13422   5.615   2.867   3.587
    1PA     C1913423   5.585   2.955   3.400
    1PA     H9R13424   5.583   2.851   3.366
    1PA     H9S13425   5.516   3.027   3.354
    1PA     C1813426   5.730   3.000   3.376
    1PA     H8R13427   5.747   3.083   3.445
    1PA     H8S13428   5.804   2.926   3.406
    1PA     C1713429   5.761   3.035   3.230
    1PA     H7R13430   5.681   3.099   3.193
    1PA     H7S13431   5.842   3.107   3.234
    1PA     C1613432   5.795   2.908   3.150
    1PA     H6R13433   5.879   2.855   3.195
    1PA     H6S13434   5.705   2.847   3.140
    1PA     C1513435   5.841   2.957   3.012
    1PA     H5R13436   5.786   3.044   2.975
    1PA     H5S13437   5.946   2.985   3.023
    1PA     C1413438   5.865   2.843   2.912
    1PA     H4R13439   5.922   2.767   2.965
    1PA     H4S13440   5.765   2.813   2.881
    1PA     C1313441   5.934   2.898   2.787
    1PA     H3R13442   5.889   2.990   2.749
    1PA     H3S13443   6.037   2.927   2.810
    1PA     C1213444   5.934   2.787   2.681
    1PA     H2R13445   5.982   2.697   2.720
    1PA     H2S13446   5.835   2.765   2.639
    2PC     C1113447   6.026   2.827   2.568
    2PC     O1213448   6.057   2.941   2.540
    2PC     O1113449   6.083   2.718   2.515
    2PC      C113450   6.189   2.713   2.418
    2PC      HR13451   6.214   2.609   2.395
    2PC      HS13452   6.149   2.755   2.325
    2PC      C213453   6.316   2.788   2.461
    2PC      HX13454   6.296   2.875   2.524
    2PC      C313455   6.390   2.843   2.338
    2PC      HA13456   6.332   2.924   2.293
    2PC      HB13457   6.493   2.868   2.363
    2PC     O3113458   6.407   2.748   2.231
    2PC     P3113459   6.415   2.796   2.079
    2PC     O3213460   6.385   2.652   2.014
    2PC     C3113461   6.492   2.579   1.952
    2PC     H1A13462   6.537   2.651   1.884
    2PC     H1B13463   6.552   2.544   2.036
    2PC     C3213464   6.443   2.463   1.863
    2PC     H2A13465   6.524   2.396   1.837
    2PC     H2B13466   6.381   2.401   1.928
    2PC     N3113467   6.367   2.490   1.736
    2PC     C3313468   6.321   2.358   1.681
    2PC     H3A13469   6.408   2.299   1.651
    2PC     H3B13470   6.277   2.303   1.765
    2PC     H3C13471   6.258   2.378   1.595
    2PC     C3413472   6.251   2.578   1.768
    2PC     H4A13473   6.176   2.524   1.827
    2PC     H4B13474   6.288   2.667   1.818
    2PC     H4C13475   6.210   2.624   1.678
    2PC     C3513476   6.449   2.570   1.640
    2PC     H5A13477   6.382   2.571   1.553
    2PC     H5B13478   6.543   2.518   1.621
    2PC     H5C13479   6.478   2.673   1.662
    2PC     O3313480   6.304   2.873   2.018
    2PC     O3413481   6.542   2.850   2.025
    2PC     O2113482   6.411   2.712   2.537
    2PC     C2113483   6.384   2.680   2.665
    2PC     O2213484   6.288   2.724   2.725
    3OL     C1213485   6.488   2.592   2.731
    3OL     H2R13486   6.516   2.651   2.819
    3OL     H2S13487   6.579   2.575   2.674
    3OL     C1313488   6.432   2.462   2.790
    3OL     H3R13489   6.392   2.402   2.709
    3OL     H3S13490   6.347   2.486   2.855
    3OL     C1413491   6.525   2.368   2.867
    3OL     H4R13492   6.572   2.296   2.800
    3OL     H4S13493   6.456   2.311   2.930
    3OL     C1513494   6.636   2.438   2.946
    3OL     H5R13495   6.702   2.493   2.878
    3OL     H5S13496   6.695   2.354   2.984
    3OL     C1613497   6.592   2.513   3.073
    3OL     H6R13498   6.550   2.444   3.146
    3OL     H6S13499   6.519   2.587   3.040
    3OL     C1713500   6.704   2.597   3.136
    3OL     H7R13501   6.755   2.662   3.064
    3OL     H7S13502   6.779   2.525   3.169
    3OL     C1813503   6.653   2.685   3.251
    3OL     H8R13504   6.733   2.734   3.307
    3OL     H8S13505   6.612   2.613   3.322
    3OL     C1913506   6.540   2.775   3.209
    3OL     H9R13507   6.509   2.781   3.105
    3OL    C11013508   6.477   2.852   3.296
    3OL    H10R13509   6.414   2.934   3.260
    3OL    C11113510   6.492   2.849   3.446
    3OL    H11R13511   6.511   2.947   3.490
    3OL    H11S13512   6.577   2.788   3.480
    3OL    C11213513   6.364   2.802   3.518
    3OL    H12R13514   6.332   2.699   3.499
    3OL    H12S13515   6.280   2.858   3.477
    3OL    C11313516   6.374   2.824   3.669
    3OL    H13R13517   6.475   2.801   3.705
    3OL    H13S13518   6.305   2.760   3.725
    3OL    C11413519   6.333   2.967   3.705
    3OL    H14R13520   6.236   2.980   3.658
    3OL    H14S13521   6.402   3.043   3.668
    3OL    C11513522   6.318   2.981   3.858
    3OL    H15R13523   6.262   2.899   3.903
    3OL    H15S13524   6.249   3.061   3.883
    3OL    C11613525   6.440   3.021   3.942
    3OL    H16R13526   6.398   3.092   4.014
    3OL    H16S13527   6.506   3.075   3.873
    3OL    C11713528   6.514   2.908   4.014
    3OL    H17R13529   6.610   2.945   4.049
    3OL    H17S13530   6.539   2.832   3.939
    3OL    C11813531   6.439   2.824   4.118
    3OL    H18R13532   6.439   2.878   4.212
    3OL    H18S13533   6.491   2.728   4.120
    3OL    H18T13534   6.338   2.792   4.092
    1PA    C11613535   2.344   6.922   4.140
    1PA    H16R13536   2.247   6.895   4.182
    1PA    H16S13537   2.374   7.023   4.166
    1PA    H16T13538   2.426   6.861   4.178
    1PA    C11513539   2.330   6.902   3.989
    1PA    H15R13540   2.309   6.797   3.969
    1PA    H15S13541   2.245   6.964   3.959
    1PA    C11413542   2.462   6.928   3.915
    1PA    H14R13543   2.470   7.036   3.899
    1PA    H14S13544   2.541   6.902   3.985
    1PA    C11313545   2.461   6.854   3.780
    1PA    H13R13546   2.420   6.753   3.782
    1PA    H13S13547   2.406   6.911   3.705
    1PA    C11213548   2.605   6.843   3.727
    1PA    H12R13549   2.647   6.943   3.709
    1PA    H12S13550   2.665   6.786   3.798
    1PA    C11113551   2.600   6.765   3.595
    1PA    H11R13552   2.501   6.786   3.552
    1PA    H11S13553   2.681   6.801   3.532
    1PA    C11013554   2.632   6.618   3.623
    1PA    H10R13555   2.725   6.605   3.679
    1PA    H10S13556   2.548   6.573   3.676
    1PA     C1913557   2.650   6.544   3.489
    1PA     H9R13558   2.571   6.564   3.417
    1PA     H9S13559   2.741   6.583   3.444
    1PA     C1813560   2.638   6.392   3.507
    1PA     H8R13561   2.734   6.367   3.553
    1PA     H8S13562   2.557   6.363   3.574
    1PA     C1713563   2.629   6.329   3.368
    1PA     H7R13564   2.536   6.349   3.313
    1PA     H7S13565   2.714   6.369   3.314
    1PA     C1613566   2.642   6.176   3.375
    1PA     H6R13567   2.737   6.139   3.413
    1PA     H6S13568   2.562   6.134   3.437
    1PA     C1513569   2.627   6.122   3.232
    1PA     H5R13570   2.537   6.170   3.193
    1PA     H5S13571   2.704   6.165   3.168
    1PA     C1413572   2.614   5.970   3.216
    1PA     H4R13573   2.709   5.917   3.228
    1PA     H4S13574   2.545   5.929   3.291
    1PA     C1313575   2.568   5.936   3.073
    1PA     H3R13576   2.469   5.976   3.052
    1PA     H3S13577   2.630   5.986   2.999
    1PA     C1213578   2.556   5.786   3.045
    1PA     H2R13579   2.653   5.738   3.060
    1PA     H2S13580   2.481   5.734   3.104
    2PC     C1113581   2.537   5.765   2.896
    2PC     O1213582   2.605   5.834   2.823
    2PC     O1113583   2.440   5.680   2.862
    2PC      C113584   2.420   5.661   2.720
    2PC      HR13585   2.321   5.616   2.713
    2PC      HS13586   2.408   5.756   2.668
    2PC      C213587   2.528   5.571   2.658
    2PC      HX13588   2.626   5.618   2.673
    2PC      C313589   2.510   5.573   2.506
    2PC      HA13590   2.540   5.669   2.463
    2PC      HB13591   2.575   5.490   2.476
    2PC     O3113592   2.374   5.547   2.468
    2PC     P3113593   2.324   5.533   2.316
    2PC     O3213594   2.366   5.385   2.272
    2PC     C3113595   2.445   5.380   2.152
    2PC     H1A13596   2.392   5.430   2.071
    2PC     H1B13597   2.541   5.431   2.161
    2PC     C3213598   2.463   5.232   2.114
    2PC     H2A13599   2.550   5.206   2.054
    2PC     H2B13600   2.484   5.170   2.201
    2PC     N3113601   2.348   5.163   2.048
    2PC     C3313602   2.238   5.141   2.147
    2PC     H3A13603   2.277   5.094   2.238
    2PC     H3B13604   2.202   5.243   2.162
    2PC     H3C13605   2.160   5.074   2.108
    2PC     C3413606   2.282   5.237   1.935
    2PC     H4A13607   2.252   5.333   1.978
    2PC     H4B13608   2.349   5.246   1.850
    2PC     H4C13609   2.196   5.178   1.902
    2PC     C3513610   2.399   5.035   1.989
    2PC     H5A13611   2.437   4.971   2.069
    2PC     H5B13612   2.486   5.062   1.929
    2PC     H5C13613   2.330   4.983   1.924
    2PC     O3313614   2.183   5.565   2.288
    2PC     O3413615   2.384   5.641   2.233
    2PC     O2113616   2.511   5.436   2.705
    2PC     C2113617   2.555   5.409   2.829
    2PC     O2213618   2.634   5.478   2.889
    3OL     C1213619   2.493   5.284   2.886
    3OL     H2R13620   2.575   5.240   2.943
    3OL     H2S13621   2.460   5.210   2.813
    3OL     C1313622   2.375   5.311   2.981
    3OL     H3R13623   2.335   5.216   3.017
    3OL     H3S13624   2.295   5.369   2.935
    3OL     C1413625   2.428   5.382   3.106
    3OL     H4R13626   2.426   5.489   3.084
    3OL     H4S13627   2.529   5.342   3.115
    3OL     C1513628   2.344   5.359   3.233
    3OL     H5R13629   2.335   5.255   3.265
    3OL     H5S13630   2.249   5.411   3.220
    3OL     C1613631   2.406   5.438   3.350
    3OL     H6R13632   2.404   5.545   3.329
    3OL     H6S13633   2.512   5.415   3.367
    3OL     C1713634   2.336   5.418   3.484
    3OL     H7R13635   2.411   5.433   3.562
    3OL     H7S13636   2.309   5.313   3.496
    3OL     C1813637   2.213   5.509   3.500
    3OL     H8R13638   2.125   5.463   3.454
    3OL     H8S13639   2.236   5.601   3.446
    3OL     C1913640   2.193   5.547   3.644
    3OL     H9R13641   2.278   5.541   3.711
    3OL    C11013642   2.077   5.560   3.709
    3OL    H10R13643   2.081   5.573   3.817
    3OL    C11113644   1.946   5.579   3.638
    3OL    H11R13645   1.973   5.625   3.543
    3OL    H11S13646   1.884   5.651   3.691
    3OL    C11213647   1.868   5.448   3.618
    3OL    H12R13648   1.936   5.368   3.589
    3OL    H12S13649   1.795   5.472   3.540
    3OL    C11313650   1.801   5.404   3.749
    3OL    H13R13651   1.723   5.479   3.766
    3OL    H13S13652   1.865   5.405   3.837
    3OL    C11413653   1.751   5.260   3.734
    3OL    H14R13654   1.702   5.233   3.827
    3OL    H14S13655   1.835   5.192   3.719
    3OL    C11513656   1.645   5.236   3.625
    3OL    H15R13657   1.632   5.128   3.618
    3OL    H15S13658   1.683   5.277   3.531
    3OL    C11613659   1.513   5.306   3.658
    3OL    H16R13660   1.530   5.412   3.674
    3OL    H16S13661   1.475   5.261   3.751
    3OL    C11713662   1.405   5.290   3.550
    3OL    H17R13663   1.321   5.348   3.588
    3OL    H17S13664   1.370   5.187   3.556
    3OL    C11813665   1.438   5.308   3.401
    3OL    H18R13666   1.353   5.289   3.335
    3OL    H18S13667   1.507   5.226   3.377
    3OL    H18T13668   1.485   5.404   3.382
    1PA    C11613669   3.905   6.267   4.369
    1PA    H16R13670   3.866   6.196   4.441
    1PA    H16S13671   3.824   6.272   4.296
    1PA    H16T13672   3.910   6.367   4.413
    1PA    C11513673   4.042   6.235   4.308
    1PA    H15R13674   4.055   6.318   4.238
    1PA    H15S13675   4.118   6.241   4.386
    1PA    C11413676   4.052   6.101   4.233
    1PA    H14R13677   4.158   6.082   4.215
    1PA    H14S13678   4.008   6.024   4.296
    1PA    C11313679   4.006   6.105   4.086
    1PA    H13R13680   3.987   6.210   4.063
    1PA    H13S13681   4.093   6.064   4.035
    1PA    C11213682   3.871   6.036   4.066
    1PA    H12R13683   3.884   5.930   4.091
    1PA    H12S13684   3.792   6.078   4.129
    1PA    C11113685   3.837   6.057   3.918
    1PA    H11R13686   3.818   6.162   3.895
    1PA    H11S13687   3.927   6.033   3.861
    1PA    C11013688   3.708   5.981   3.882
    1PA    H10R13689   3.716   5.873   3.898
    1PA    H10S13690   3.625   6.026   3.937
    1PA     C1913691   3.673   6.022   3.738
    1PA     H9R13692   3.627   6.121   3.741
    1PA     H9S13693   3.763   6.032   3.677
    1PA     C1813694   3.575   5.924   3.672
    1PA     H8R13695   3.614   5.822   3.675
    1PA     H8S13696   3.491   5.930   3.741
    1PA     C1713697   3.530   5.967   3.532
    1PA     H7R13698   3.444   5.907   3.504
    1PA     H7S13699   3.492   6.069   3.537
    1PA     C1613700   3.632   5.951   3.418
    1PA     H6R13701   3.718   6.017   3.434
    1PA     H6S13702   3.667   5.848   3.408
    1PA     C1513703   3.572   5.981   3.280
    1PA     H5R13704   3.627   5.923   3.206
    1PA     H5S13705   3.470   5.941   3.277
    1PA     C1413706   3.571   6.130   3.243
    1PA     H4R13707   3.509   6.183   3.316
    1PA     H4S13708   3.674   6.165   3.235
    1PA     C1313709   3.513   6.148   3.102
    1PA     H3R13710   3.554   6.081   3.026
    1PA     H3S13711   3.406   6.131   3.115
    1PA     C1213712   3.521   6.290   3.044
    1PA     H2R13713   3.473   6.353   3.119
    1PA     H2S13714   3.625   6.320   3.033
    2PC     C1113715   3.435   6.295   2.920
    2PC     O1213716   3.473   6.267   2.808
    2PC     O1113717   3.307   6.316   2.955
    2PC      C113718   3.204   6.309   2.855
    2PC      HR13719   3.116   6.359   2.895
    2PC      HS13720   3.230   6.369   2.768
    2PC      C213721   3.182   6.159   2.827
    2PC      HX13722   3.278   6.108   2.818
    2PC      C313723   3.104   6.131   2.698
    2PC      HA13724   3.138   6.197   2.617
    2PC      HB13725   3.115   6.030   2.658
    2PC     O3113726   2.965   6.157   2.725
    2PC     P3113727   2.870   6.112   2.604
    2PC     O3213728   2.727   6.128   2.674
    2PC     C3113729   2.624   6.060   2.601
    2PC     H1A13730   2.613   6.100   2.500
    2PC     H1B13731   2.642   5.952   2.600
    2PC     C3213732   2.494   6.069   2.682
    2PC     H2A13733   2.410   6.031   2.623
    2PC     H2B13734   2.506   6.013   2.775
    2PC     N3113735   2.452   6.207   2.722
    2PC     C3313736   2.535   6.255   2.837
    2PC     H3A13737   2.639   6.261   2.806
    2PC     H3B13738   2.493   6.348   2.876
    2PC     H3C13739   2.522   6.176   2.912
    2PC     C3413740   2.477   6.304   2.610
    2PC     H4A13741   2.456   6.409   2.631
    2PC     H4B13742   2.582   6.291   2.581
    2PC     H4C13743   2.411   6.262   2.534
    2PC     C3513744   2.307   6.198   2.757
    2PC     H5A13745   2.298   6.137   2.847
    2PC     H5B13746   2.257   6.149   2.674
    2PC     H5C13747   2.278   6.302   2.773
    2PC     O3313748   2.877   6.184   2.474
    2PC     O3413749   2.892   5.972   2.562
    2PC     O2113750   3.117   6.098   2.939
    2PC     C2113751   3.099   5.966   2.950
    2PC     O2213752   3.143   5.886   2.870
    3OL     C1213753   3.034   5.921   3.079
    3OL     H2R13754   3.032   5.812   3.085
    3OL     H2S13755   2.932   5.961   3.085
    3OL     C1313756   3.109   5.980   3.200
    3OL     H3R13757   3.097   6.088   3.200
    3OL     H3S13758   3.214   5.950   3.194
    3OL     C1413759   3.051   5.923   3.331
    3OL     H4R13760   3.060   5.815   3.332
    3OL     H4S13761   2.944   5.947   3.330
    3OL     C1513762   3.115   5.980   3.458
    3OL     H5R13763   3.087   6.085   3.471
    3OL     H5S13764   3.223   5.973   3.451
    3OL     C1613765   3.072   5.892   3.577
    3OL     H6R13766   3.113   5.792   3.566
    3OL     H6S13767   2.964   5.885   3.570
    3OL     C1713768   3.107   5.956   3.712
    3OL     H7R13769   3.085   6.062   3.702
    3OL     H7S13770   3.215   5.937   3.711
    3OL     C1813771   3.044   5.891   3.836
    3OL     H8R13772   2.941   5.926   3.847
    3OL     H8S13773   3.096   5.930   3.924
    3OL     C1913774   3.054   5.741   3.828
    3OL     H9R13775   2.996   5.700   3.746
    3OL    C11013776   3.142   5.668   3.895
    3OL    H10R13777   3.151   5.561   3.878
    3OL    C11113778   3.237   5.719   4.000
    3OL    H11R13779   3.215   5.651   4.083
    3OL    H11S13780   3.225   5.823   4.032
    3OL    C11213781   3.382   5.696   3.955
    3OL    H12R13782   3.396   5.720   3.850
    3OL    H12S13783   3.408   5.590   3.950
    3OL    C11313784   3.474   5.779   4.045
    3OL    H13R13785   3.453   5.882   4.015
    3OL    H13S13786   3.577   5.755   4.020
    3OL    C11413787   3.453   5.771   4.197
    3OL    H14R13788   3.445   5.674   4.245
    3OL    H14S13789   3.373   5.838   4.231
    3OL    C11513790   3.575   5.839   4.260
    3OL    H15R13791   3.595   5.934   4.208
    3OL    H15S13792   3.664   5.780   4.236
    3OL    C11613793   3.562   5.869   4.410
    3OL    H16R13794   3.541   5.780   4.468
    3OL    H16S13795   3.478   5.938   4.421
    3OL    C11713796   3.690   5.938   4.460
    3OL    H17R13797   3.694   6.045   4.437
    3OL    H17S13798   3.775   5.890   4.412
    3OL    C11813799   3.687   5.923   4.613
    3OL    H18R13800   3.675   5.815   4.621
    3OL    H18S13801   3.610   5.982   4.665
    3OL    H18T13802   3.790   5.941   4.642
    1PA    C11613803   2.812   1.152   4.172
    1PA    H16R13804   2.738   1.078   4.140
    1PA    H16S13805   2.780   1.196   4.266
    1PA    H16T13806   2.905   1.096   4.184
    1PA    C11513807   2.822   1.260   4.064
    1PA    H15R13808   2.847   1.204   3.974
    1PA    H15S13809   2.725   1.308   4.047
    1PA    C11413810   2.921   1.369   4.108
    1PA    H14R13811   2.880   1.427   4.190
    1PA    H14S13812   3.011   1.313   4.135
    1PA    C11313813   2.948   1.467   3.993
    1PA    H13R13814   2.993   1.417   3.908
    1PA    H13S13815   2.853   1.510   3.961
    1PA    C11213816   3.046   1.575   4.043
    1PA    H12R13817   3.000   1.622   4.130
    1PA    H12S13818   3.146   1.550   4.077
    1PA    C11113819   3.059   1.691   3.943
    1PA    H11R13820   2.960   1.733   3.925
    1PA    H11S13821   3.110   1.781   3.977
    1PA    C11013822   3.111   1.643   3.807
    1PA    H10R13823   3.212   1.607   3.823
    1PA    H10S13824   3.055   1.560   3.763
    1PA     C1913825   3.124   1.764   3.713
    1PA     H9R13826   3.027   1.812   3.699
    1PA     H9S13827   3.182   1.840   3.766
    1PA     C1813828   3.203   1.734   3.584
    1PA     H8R13829   3.308   1.714   3.609
    1PA     H8S13830   3.160   1.647   3.535
    1PA     C1713831   3.192   1.843   3.477
    1PA     H7R13832   3.086   1.838   3.452
    1PA     H7S13833   3.231   1.938   3.514
    1PA     C1613834   3.271   1.809   3.350
    1PA     H6R13835   3.376   1.828   3.373
    1PA     H6S13836   3.261   1.703   3.325
    1PA     C1513837   3.218   1.903   3.241
    1PA     H5R13838   3.109   1.906   3.246
    1PA     H5S13839   3.247   2.006   3.263
    1PA     C1413840   3.260   1.868   3.097
    1PA     H4R13841   3.368   1.877   3.099
    1PA     H4S13842   3.232   1.765   3.075
    1PA     C1313843   3.206   1.960   2.987
    1PA     H3R13844   3.098   1.963   2.973
    1PA     H3S13845   3.237   2.064   3.005
    1PA     C1213846   3.268   1.919   2.853
    1PA     H2R13847   3.377   1.914   2.863
    1PA     H2S13848   3.240   1.815   2.832
    2PC     C1113849   3.228   1.998   2.731
    2PC     O1213850   3.284   2.097   2.689
    2PC     O1113851   3.117   1.947   2.675
    2PC      C113852   3.083   1.990   2.542
    2PC      HR13853   3.089   2.098   2.533
    2PC      HS13854   3.142   1.943   2.463
    2PC      C213855   2.936   1.943   2.548
    2PC      HX13856   2.921   1.850   2.603
    2PC      C313857   2.874   1.937   2.408
    2PC      HA13858   2.936   1.869   2.349
    2PC      HB13859   2.775   1.890   2.416
    2PC     O3113860   2.881   2.061   2.336
    2PC     P3113861   2.780   2.083   2.213
    2PC     O3213862   2.873   2.026   2.096
    2PC     C3113863   2.954   2.116   2.019
    2PC     H1A13864   2.904   2.213   2.020
    2PC     H1B13865   3.049   2.127   2.072
    2PC     C3213866   2.971   2.057   1.879
    2PC     H2A13867   3.050   2.113   1.827
    2PC     H2B13868   2.985   1.949   1.888
    2PC     N3113869   2.852   2.067   1.789
    2PC     C3313870   2.889   2.036   1.647
    2PC     H3A13871   2.895   1.927   1.645
    2PC     H3B13872   2.812   2.068   1.576
    2PC     H3C13873   2.982   2.087   1.623
    2PC     C3413874   2.741   1.975   1.829
    2PC     H4A13875   2.654   1.980   1.763
    2PC     H4B13876   2.782   1.874   1.823
    2PC     H4C13877   2.705   2.009   1.927
    2PC     C3513878   2.796   2.206   1.793
    2PC     H5A13879   2.738   2.209   1.885
    2PC     H5B13880   2.736   2.212   1.702
    2PC     H5C13881   2.873   2.282   1.802
    2PC     O3313882   2.667   1.987   2.211
    2PC     O3413883   2.727   2.221   2.198
    2PC     O2113884   2.868   2.054   2.609
    2PC     C2113885   2.737   2.050   2.638
    2PC     O2213886   2.661   1.956   2.649
    3OL     C1213887   2.692   2.193   2.649
    3OL     H2R13888   2.598   2.207   2.594
    3OL     H2S13889   2.764   2.265   2.610
    3OL     C1313890   2.656   2.221   2.796
    3OL     H3R13891   2.749   2.242   2.850
    3OL     H3S13892   2.602   2.139   2.844
    3OL     C1413893   2.563   2.344   2.796
    3OL     H4R13894   2.474   2.322   2.736
    3OL     H4S13895   2.604   2.432   2.745
    3OL     C1513896   2.531   2.379   2.941
    3OL     H5R13897   2.555   2.295   3.006
    3OL     H5S13898   2.422   2.382   2.947
    3OL     C1613899   2.604   2.506   2.986
    3OL     H6R13900   2.594   2.577   2.904
    3OL     H6S13901   2.708   2.479   3.003
    3OL     C1713902   2.542   2.569   3.112
    3OL     H7R13903   2.434   2.569   3.096
    3OL     H7S13904   2.585   2.669   3.120
    3OL     C1813905   2.573   2.488   3.239
    3OL     H8R13906   2.670   2.523   3.273
    3OL     H8S13907   2.581   2.382   3.216
    3OL     C1913908   2.469   2.524   3.342
    3OL     H9R13909   2.425   2.623   3.342
    3OL    C11013910   2.410   2.440   3.426
    3OL    H10R13911   2.317   2.471   3.472
    3OL    C11113912   2.435   2.292   3.447
    3OL    H11R13913   2.456   2.290   3.554
    3OL    H11S13914   2.527   2.251   3.405
    3OL    C11213915   2.315   2.198   3.431
    3OL    H12R13916   2.228   2.221   3.493
    3OL    H12S13917   2.347   2.100   3.465
    3OL    C11313918   2.265   2.186   3.286
    3OL    H13R13919   2.232   2.283   3.247
    3OL    H13S13920   2.179   2.118   3.289
    3OL    C11413921   2.378   2.119   3.207
    3OL    H14R13922   2.405   2.028   3.261
    3OL    H14S13923   2.464   2.185   3.202
    3OL    C11513924   2.342   2.097   3.059
    3OL    H15R13925   2.436   2.071   3.011
    3OL    H15S13926   2.295   2.185   3.015
    3OL    C11613927   2.234   1.989   3.041
    3OL    H16R13928   2.139   2.023   3.081
    3OL    H16S13929   2.265   1.893   3.082
    3OL    C11713930   2.203   1.962   2.893
    3OL    H17R13931   2.149   1.867   2.893
    3OL    H17S13932   2.297   1.931   2.846
    3OL    C11813933   2.133   2.062   2.800
    3OL    H18R13934   2.030   2.080   2.832
    3OL    H18S13935   2.138   2.035   2.694
    3OL    H18T13936   2.189   2.155   2.808
    1PA    C11613937   3.075   0.376   4.668
    1PA    H16R13938   3.127   0.286   4.636
    1PA    H16S13939   3.027   0.350   4.762
    1PA    H16T13940   3.146   0.456   4.690
    1PA    C11513941   2.981   0.404   4.549
    1PA    H15R13942   2.910   0.481   4.579
    1PA    H15S13943   3.048   0.437   4.469
    1PA    C11413944   2.908   0.281   4.495
    1PA    H14R13945   2.983   0.204   4.472
    1PA    H14S13946   2.848   0.243   4.577
    1PA    C11313947   2.820   0.308   4.372
    1PA    H13R13948   2.736   0.238   4.378
    1PA    H13S13949   2.782   0.410   4.365
    1PA    C11213950   2.893   0.272   4.241
    1PA    H12R13951   2.995   0.309   4.230
    1PA    H12S13952   2.893   0.163   4.241
    1PA    C11113953   2.814   0.312   4.116
    1PA    H11R13954   2.714   0.270   4.112
    1PA    H11S13955   2.813   0.421   4.117
    1PA    C11013956   2.881   0.265   3.986
    1PA    H10R13957   2.950   0.182   4.004
    1PA    H10S13958   2.807   0.233   3.913
    1PA     C1913959   2.956   0.384   3.925
    1PA     H9R13960   2.890   0.471   3.917
    1PA     H9S13961   3.043   0.419   3.981
    1PA     C1813962   2.998   0.344   3.783
    1PA     H8R13963   3.055   0.251   3.778
    1PA     H8S13964   2.910   0.337   3.719
    1PA     C1713965   3.094   0.449   3.724
    1PA     H7R13966   3.070   0.552   3.750
    1PA     H7S13967   3.192   0.422   3.764
    1PA     C1613968   3.105   0.438   3.571
    1PA     H6R13969   3.182   0.504   3.531
    1PA     H6S13970   3.146   0.340   3.548
    1PA     C1513971   2.971   0.460   3.498
    1PA     H5R13972   2.908   0.371   3.509
    1PA     H5S13973   2.926   0.550   3.540
    1PA     C1413974   2.993   0.480   3.348
    1PA     H4R13975   3.073   0.553   3.338
    1PA     H4S13976   3.029   0.387   3.303
    1PA     C1313977   2.871   0.539   3.275
    1PA     H3R13978   2.783   0.484   3.308
    1PA     H3S13979   2.853   0.643   3.301
    1PA     C1213980   2.894   0.551   3.123
    1PA     H2R13981   2.983   0.613   3.111
    1PA     H2S13982   2.912   0.455   3.075
    2PC     C1113983   2.780   0.620   3.053
    2PC     O1213984   2.788   0.736   3.020
    2PC     O1113985   2.675   0.537   3.045
    2PC      C113986   2.562   0.585   2.969
    2PC      HR13987   2.540   0.683   3.013
    2PC      HS13988   2.589   0.616   2.868
    2PC      C213989   2.442   0.490   2.976
    2PC      HX13990   2.461   0.423   3.060
    2PC      C313991   2.423   0.414   2.844
    2PC      HA13992   2.508   0.346   2.834
    2PC      HB13993   2.333   0.354   2.863
    2PC     O3113994   2.396   0.509   2.739
    2PC     P3113995   2.428   0.469   2.587
    2PC     O3213996   2.317   0.571   2.535
    2PC     C3113997   2.195   0.517   2.480
    2PC     H1A13998   2.208   0.440   2.405
    2PC     H1B13999   2.141   0.468   2.562
    2PC     C3214000   2.105   0.627   2.421
    2PC     H2A14001   2.142   0.664   2.325
    2PC     H2B14002   2.011   0.574   2.402
    2PC     N3114003   2.053   0.734   2.512
    2PC     C3314004   2.156   0.823   2.574
    2PC     H3A14005   2.191   0.870   2.482
    2PC     H3B14006   2.104   0.888   2.645
    2PC     H3C14007   2.236   0.755   2.604
    2PC     C3414008   1.963   0.821   2.429
    2PC     H4A14009   1.961   0.913   2.486
    2PC     H4B14010   2.019   0.840   2.336
    2PC     H4C14011   1.862   0.779   2.430
    2PC     C3514012   1.970   0.657   2.610
    2PC     H5A14013   2.031   0.624   2.693
    2PC     H5B14014   1.922   0.575   2.556
    2PC     H5C14015   1.896   0.731   2.642
    2PC     O3314016   2.560   0.506   2.531
    2PC     O3414017   2.389   0.327   2.570
    2PC     O2114018   2.327   0.569   3.011
    2PC     C2114019   2.203   0.520   3.030
    2PC     O2214020   2.179   0.402   3.045
    3OL     C1214021   2.095   0.624   3.045
    3OL     H2R14022   2.004   0.569   3.019
    3OL     H2S14023   2.111   0.696   2.964
    3OL     C1314024   2.099   0.694   3.182
    3OL     H3R14025   2.082   0.623   3.263
    3OL     H3S14026   2.016   0.764   3.194
    3OL     C1414027   2.226   0.772   3.220
    3OL     H4R14028   2.184   0.865   3.258
    3OL     H4S14029   2.289   0.794   3.133
    3OL     C1514030   2.313   0.702   3.324
    3OL     H5R14031   2.335   0.600   3.289
    3OL     H5S14032   2.248   0.680   3.409
    3OL     C1614033   2.451   0.765   3.351
    3OL     H6R14034   2.523   0.741   3.272
    3OL     H6S14035   2.493   0.711   3.436
    3OL     C1714036   2.454   0.916   3.377
    3OL     H7R14037   2.372   0.950   3.442
    3OL     H7S14038   2.433   0.962   3.280
    3OL     C1814039   2.591   0.960   3.429
    3OL     H8R14040   2.584   1.068   3.439
    3OL     H8S14041   2.651   0.942   3.339
    3OL     C1914042   2.631   0.880   3.551
    3OL     H9R14043   2.688   0.789   3.541
    3OL    C11014044   2.612   0.927   3.673
    3OL    H10R14045   2.664   0.869   3.750
    3OL    C11114046   2.517   1.033   3.722
    3OL    H11R14047   2.505   1.095   3.633
    3OL    H11S14048   2.566   1.086   3.804
    3OL    C11214049   2.388   0.962   3.765
    3OL    H12R14050   2.411   0.896   3.849
    3OL    H12S14051   2.337   0.905   3.687
    3OL    C11314052   2.284   1.070   3.795
    3OL    H13R14053   2.266   1.132   3.707
    3OL    H13S14054   2.323   1.131   3.877
    3OL    C11414055   2.154   0.999   3.838
    3OL    H14R14056   2.174   0.947   3.931
    3OL    H14S14057   2.121   0.932   3.759
    3OL    C11514058   2.035   1.091   3.868
    3OL    H15R14059   1.940   1.037   3.881
    3OL    H15S14060   2.020   1.152   3.779
    3OL    C11614061   2.040   1.185   3.989
    3OL    H16R14062   2.122   1.256   3.973
    3OL    H16S14063   2.049   1.129   4.082
    3OL    C11714064   1.920   1.280   4.005
    3OL    H17R14065   1.826   1.231   4.030
    3OL    H17S14066   1.900   1.333   3.911
    3OL    C11814067   1.946   1.381   4.118
    3OL    H18R14068   1.865   1.454   4.113
    3OL    H18S14069   2.040   1.432   4.095
    3OL    H18T14070   1.951   1.333   4.216
    1PA    C11614071   0.848   0.917   4.090
    1PA    H16R14072   0.835   0.966   4.187
    1PA    H16S14073   0.874   0.996   4.019
    1PA    H16T14074   0.926   0.843   4.107
    1PA    C11514075   0.715   0.861   4.038
    1PA    H15R14076   0.676   0.790   4.112
    1PA    H15S14077   0.642   0.942   4.033
    1PA    C11414078   0.728   0.787   3.904
    1PA    H14R14079   0.813   0.719   3.897
    1PA    H14S14080   0.637   0.726   3.901
    1PA    C11314081   0.745   0.889   3.791
    1PA    H13R14082   0.664   0.963   3.797
    1PA    H13S14083   0.837   0.947   3.799
    1PA    C11214084   0.728   0.821   3.654
    1PA    H12R14085   0.646   0.751   3.669
    1PA    H12S14086   0.708   0.901   3.582
    1PA    C11114087   0.861   0.755   3.614
    1PA    H11R14088   0.939   0.831   3.608
    1PA    H11S14089   0.913   0.694   3.689
    1PA    C11014090   0.858   0.672   3.485
    1PA    H10R14091   0.963   0.645   3.481
    1PA    H10S14092   0.794   0.584   3.498
    1PA     C1914093   0.822   0.743   3.354
    1PA     H9R14094   0.817   0.671   3.272
    1PA     H9S14095   0.720   0.776   3.373
    1PA     C1814096   0.922   0.853   3.313
    1PA     H8R14097   0.871   0.918   3.242
    1PA     H8S14098   0.948   0.906   3.405
    1PA     C1714099   1.042   0.794   3.238
    1PA     H7R14100   1.095   0.714   3.289
    1PA     H7S14101   1.008   0.745   3.147
    1PA     C1614102   1.146   0.898   3.194
    1PA     H6R14103   1.104   0.985   3.144
    1PA     H6S14104   1.190   0.942   3.284
    1PA     C1514105   1.252   0.836   3.102
    1PA     H5R14106   1.307   0.761   3.159
    1PA     H5S14107   1.212   0.784   3.014
    1PA     C1414108   1.360   0.938   3.062
    1PA     H4R14109   1.392   0.993   3.150
    1PA     H4S14110   1.445   0.891   3.012
    1PA     C1314111   1.304   1.040   2.962
    1PA     H3R14112   1.271   0.988   2.871
    1PA     H3S14113   1.222   1.096   3.007
    1PA     C1214114   1.409   1.144   2.923
    1PA     H2R14115   1.360   1.216   2.857
    1PA     H2S14116   1.444   1.205   3.007
    2PC     C1114117   1.521   1.089   2.839
    2PC     O1214118   1.623   1.049   2.891
    2PC     O1114119   1.498   1.087   2.706
    2PC      C114120   1.603   1.028   2.627
    2PC      HR14121   1.600   1.083   2.533
    2PC      HS14122   1.703   1.042   2.670
    2PC      C214123   1.582   0.880   2.591
    2PC      HX14124   1.647   0.840   2.513
    2PC      C314125   1.437   0.855   2.547
    2PC      HA14126   1.375   0.841   2.637
    2PC      HB14127   1.397   0.933   2.481
    2PC     O3114128   1.427   0.731   2.476
    2PC     P3114129   1.416   0.718   2.317
    2PC     O3214130   1.263   0.690   2.278
    2PC     C3114131   1.168   0.794   2.304
    2PC     H1A14132   1.139   0.794   2.410
    2PC     H1B14133   1.206   0.894   2.279
    2PC     C3214134   1.042   0.760   2.223
    2PC     H2A14135   1.060   0.775   2.117
    2PC     H2B14136   0.993   0.666   2.249
    2PC     N3114137   0.916   0.840   2.236
    2PC     C3314138   0.806   0.777   2.155
    2PC     H3A14139   0.722   0.845   2.172
    2PC     H3B14140   0.825   0.781   2.048
    2PC     H3C14141   0.790   0.673   2.184
    2PC     C3414142   0.864   0.838   2.376
    2PC     H4A14143   0.769   0.889   2.386
    2PC     H4B14144   0.838   0.733   2.387
    2PC     H4C14145   0.942   0.877   2.442
    2PC     C3514146   0.933   0.983   2.194
    2PC     H5A14147   0.836   1.017   2.157
    2PC     H5B14148   1.013   0.979   2.120
    2PC     H5C14149   0.976   1.041   2.276
    2PC     O3314150   1.463   0.831   2.234
    2PC     O3414151   1.517   0.624   2.261
    2PC     O2114152   1.607   0.804   2.710
    2PC     C2114153   1.622   0.670   2.701
    2PC     O2214154   1.652   0.609   2.600
    3OL     C1214155   1.600   0.607   2.836
    3OL     H2R14156   1.553   0.509   2.838
    3OL     H2S14157   1.547   0.682   2.894
    3OL     C1314158   1.735   0.571   2.902
    3OL     H3R14159   1.802   0.656   2.915
    3OL     H3S14160   1.784   0.495   2.842
    3OL     C1414161   1.711   0.541   3.050
    3OL     H4R14162   1.610   0.567   3.081
    3OL     H4S14163   1.777   0.598   3.116
    3OL     C1514164   1.724   0.391   3.082
    3OL     H5R14165   1.824   0.363   3.046
    3OL     H5S14166   1.639   0.343   3.035
    3OL     C1614167   1.716   0.378   3.235
    3OL     H6R14168   1.779   0.458   3.277
    3OL     H6S14169   1.739   0.278   3.272
    3OL     C1714170   1.578   0.410   3.295
    3OL     H7R14171   1.507   0.331   3.270
    3OL     H7S14172   1.551   0.509   3.258
    3OL     C1814173   1.585   0.413   3.449
    3OL     H8R14174   1.647   0.501   3.468
    3OL     H8S14175   1.631   0.317   3.471
    3OL     C1914176   1.449   0.430   3.511
    3OL     H9R14177   1.376   0.472   3.442
    3OL    C11014178   1.418   0.393   3.634
    3OL    H10R14179   1.316   0.412   3.667
    3OL    C11114180   1.513   0.358   3.746
    3OL    H11R14181   1.597   0.429   3.744
    3OL    H11S14182   1.557   0.259   3.732
    3OL    C11214183   1.449   0.360   3.885
    3OL    H12R14184   1.366   0.289   3.878
    3OL    H12S14185   1.421   0.460   3.918
    3OL    C11314186   1.555   0.307   3.983
    3OL    H13R14187   1.645   0.369   3.991
    3OL    H13S14188   1.598   0.212   3.952
    3OL    C11414189   1.501   0.288   4.125
    3OL    H14R14190   1.393   0.272   4.125
    3OL    H14S14191   1.519   0.379   4.182
    3OL    C11514192   1.565   0.169   4.199
    3OL    H15R14193   1.545   0.185   4.305
    3OL    H15S14194   1.673   0.170   4.186
    3OL    C11614195   1.497   0.035   4.163
    3OL    H16R14196   1.392   0.048   4.137
    3OL    H16S14197   1.502  -0.022   4.256
    3OL    C11714198   1.571  -0.044   4.054
    3OL    H17R14199   1.676  -0.050   4.083
    3OL    H17S14200   1.567   0.006   3.957
    3OL    C11814201   1.511  -0.185   4.049
    3OL    H18R14202   1.496  -0.233   4.146
    3OL    H18S14203   1.574  -0.263   4.005
    3OL    H18T14204   1.414  -0.184   3.999
    1PA    C11614205   1.587   2.434   4.213
    1PA    H16R14206   1.664   2.430   4.290
    1PA    H16S14207   1.488   2.454   4.256
    1PA    H16T14208   1.615   2.516   4.147
    1PA    C11514209   1.600   2.302   4.136
    1PA    H15R14210   1.525   2.308   4.057
    1PA    H15S14211   1.698   2.304   4.088
    1PA    C11414212   1.583   2.179   4.226
    1PA    H14R14213   1.668   2.177   4.295
    1PA    H14S14214   1.493   2.196   4.285
    1PA    C11314215   1.593   2.045   4.152
    1PA    H13R14216   1.570   1.972   4.229
    1PA    H13S14217   1.517   2.049   4.074
    1PA    C11214218   1.730   2.022   4.087
    1PA    H12R14219   1.732   2.104   4.015
    1PA    H12S14220   1.807   2.025   4.165
    1PA    C11114221   1.746   1.881   4.029
    1PA    H11R14222   1.715   1.807   4.103
    1PA    H11S14223   1.673   1.876   3.947
    1PA    C11014224   1.880   1.837   3.969
    1PA    H10R14225   1.967   1.868   4.027
    1PA    H10S14226   1.872   1.729   3.961
    1PA     C1914227   1.907   1.893   3.829
    1PA     H9R14228   1.892   2.002   3.829
    1PA     H9S14229   2.012   1.877   3.802
    1PA     C1814230   1.822   1.831   3.717
    1PA     H8R14231   1.825   1.722   3.719
    1PA     H8S14232   1.714   1.852   3.723
    1PA     C1714233   1.880   1.884   3.586
    1PA     H7R14234   1.859   1.990   3.568
    1PA     H7S14235   1.989   1.885   3.591
    1PA     C1614236   1.835   1.805   3.462
    1PA     H6R14237   1.870   1.702   3.470
    1PA     H6S14238   1.727   1.791   3.453
    1PA     C1514239   1.893   1.864   3.333
    1PA     H5R14240   1.991   1.910   3.349
    1PA     H5S14241   1.921   1.786   3.262
    1PA     C1414242   1.810   1.977   3.272
    1PA     H4R14243   1.736   2.034   3.329
    1PA     H4S14244   1.882   2.051   3.238
    1PA     C1314245   1.740   1.928   3.145
    1PA     H3R14246   1.678   1.841   3.166
    1PA     H3S14247   1.666   2.006   3.125
    1PA     C1214248   1.840   1.897   3.033
    1PA     H2R14249   1.913   1.978   3.026
    1PA     H2S14250   1.894   1.806   3.058
    2PC     C1114251   1.777   1.889   2.896
    2PC     O1214252   1.658   1.899   2.872
    2PC     O1114253   1.867   1.858   2.802
    2PC      C114254   1.832   1.874   2.663
    2PC      HR14255   1.755   1.800   2.641
    2PC      HS14256   1.800   1.977   2.651
    2PC      C214257   1.961   1.834   2.588
    2PC      HX14258   2.047   1.861   2.649
    2PC      C314259   1.971   1.910   2.456
    2PC      HA14260   1.896   1.880   2.383
    2PC      HB14261   1.951   2.015   2.476
    2PC     O3114262   2.109   1.906   2.414
    2PC     P3114263   2.147   1.976   2.275
    2PC     O3214264   2.085   1.860   2.182
    2PC     C3114265   1.972   1.876   2.095
    2PC     H1A14266   1.881   1.901   2.152
    2PC     H1B14267   1.998   1.952   2.021
    2PC     C3214268   1.937   1.743   2.026
    2PC     H2A14269   1.898   1.769   1.928
    2PC     H2B14270   2.032   1.689   2.018
    2PC     N3114271   1.838   1.654   2.094
    2PC     C3314272   1.869   1.635   2.239
    2PC     H3A14273   1.819   1.714   2.295
    2PC     H3B14274   1.832   1.535   2.263
    2PC     H3C14275   1.978   1.636   2.249
    2PC     C3414276   1.700   1.709   2.076
    2PC     H4A14277   1.670   1.711   1.971
    2PC     H4B14278   1.632   1.656   2.143
    2PC     H4C14279   1.701   1.807   2.123
    2PC     C3514280   1.823   1.517   2.035
    2PC     H5A14281   1.769   1.522   1.940
    2PC     H5B14282   1.768   1.450   2.101
    2PC     H5C14283   1.922   1.472   2.026
    2PC     O3314284   2.073   2.103   2.262
    2PC     O3414285   2.288   2.012   2.248
    2PC     O2114286   1.947   1.698   2.543
    2PC     C2114287   2.004   1.607   2.624
    2PC     O2214288   2.078   1.641   2.713
    3OL     C1214289   1.958   1.466   2.595
    3OL     H2R14290   2.021   1.394   2.647
    3OL     H2S14291   1.976   1.454   2.488
    3OL     C1314292   1.808   1.446   2.622
    3OL     H3R14293   1.766   1.346   2.615
    3OL     H3S14294   1.755   1.502   2.544
    3OL     C1414295   1.757   1.502   2.756
    3OL     H4R14296   1.648   1.492   2.755
    3OL     H4S14297   1.774   1.609   2.763
    3OL     C1514298   1.830   1.427   2.868
    3OL     H5R14299   1.929   1.471   2.854
    3OL     H5S14300   1.832   1.319   2.850
    3OL     C1614301   1.766   1.457   3.004
    3OL     H6R14302   1.664   1.418   3.010
    3OL     H6S14303   1.760   1.566   3.011
    3OL     C1714304   1.861   1.400   3.110
    3OL     H7R14305   1.961   1.439   3.091
    3OL     H7S14306   1.865   1.291   3.098
    3OL     C1814307   1.807   1.427   3.251
    3OL     H8R14308   1.798   1.536   3.260
    3OL     H8S14309   1.890   1.401   3.316
    3OL     C1914310   1.678   1.360   3.292
    3OL     H9R14311   1.627   1.324   3.202
    3OL    C11014312   1.618   1.357   3.410
    3OL    H10R14313   1.522   1.309   3.425
    3OL    C11114314   1.680   1.412   3.535
    3OL    H11R14315   1.769   1.475   3.526
    3OL    H11S14316   1.712   1.334   3.605
    3OL    C11214317   1.577   1.502   3.606
    3OL    H12R14318   1.480   1.452   3.599
    3OL    H12S14319   1.560   1.600   3.561
    3OL    C11314320   1.611   1.502   3.756
    3OL    H13R14321   1.711   1.541   3.775
    3OL    H13S14322   1.609   1.399   3.791
    3OL    C11414323   1.505   1.576   3.839
    3OL    H14R14324   1.409   1.529   3.816
    3OL    H14S14325   1.509   1.679   3.802
    3OL    C11514326   1.537   1.576   3.989
    3OL    H15R14327   1.639   1.614   3.999
    3OL    H15S14328   1.527   1.476   4.031
    3OL    C11614329   1.439   1.674   4.056
    3OL    H16R14330   1.332   1.660   4.044
    3OL    H16S14331   1.450   1.779   4.026
    3OL    C11714332   1.454   1.684   4.209
    3OL    H17R14333   1.375   1.745   4.254
    3OL    H17S14334   1.549   1.717   4.251
    3OL    C11814335   1.444   1.548   4.280
    3OL    H18R14336   1.398   1.577   4.375
    3OL    H18S14337   1.538   1.497   4.298
    3OL    H18T14338   1.371   1.484   4.229
    1PA    C11614339   2.218   5.938   3.822
    1PA    H16R14340   2.240   6.002   3.908
    1PA    H16S14341   2.304   5.870   3.815
    1PA    H16T14342   2.126   5.882   3.843
    1PA    C11514343   2.209   6.024   3.695
    1PA    H15R14344   2.126   6.093   3.712
    1PA    H15S14345   2.293   6.093   3.692
    1PA    C11414346   2.208   5.936   3.569
    1PA    H14R14347   2.298   5.874   3.582
    1PA    H14S14348   2.120   5.872   3.566
    1PA    C11314349   2.232   6.006   3.435
    1PA    H13R14350   2.158   6.085   3.418
    1PA    H13S14351   2.327   6.060   3.436
    1PA    C11214352   2.231   5.901   3.324
    1PA    H12R14353   2.328   5.855   3.304
    1PA    H12S14354   2.163   5.817   3.343
    1PA    C11114355   2.189   5.972   3.194
    1PA    H11R14356   2.098   6.029   3.211
    1PA    H11S14357   2.271   6.036   3.159
    1PA    C11014358   2.166   5.865   3.087
    1PA    H10R14359   2.256   5.806   3.071
    1PA    H10S14360   2.080   5.802   3.110
    1PA     C1914361   2.130   5.937   2.955
    1PA     H9R14362   2.036   5.989   2.972
    1PA     H9S14363   2.196   6.021   2.935
    1PA     C1814364   2.124   5.850   2.829
    1PA     H8R14365   2.115   5.922   2.747
    1PA     H8S14366   2.213   5.788   2.820
    1PA     C1714367   2.005   5.753   2.821
    1PA     H7R14368   2.022   5.666   2.883
    1PA     H7S14369   1.911   5.801   2.850
    1PA     C1614370   1.994   5.711   2.674
    1PA     H6R14371   1.959   5.793   2.611
    1PA     H6S14372   2.095   5.700   2.632
    1PA     C1514373   1.901   5.591   2.656
    1PA     H5R14374   1.806   5.604   2.709
    1PA     H5S14375   1.873   5.594   2.551
    1PA     C1414376   1.945   5.448   2.691
    1PA     H4R14377   1.987   5.456   2.791
    1PA     H4S14378   1.863   5.376   2.695
    1PA     C1314379   2.045   5.389   2.590
    1PA     H3R14380   2.005   5.362   2.492
    1PA     H3S14381   2.133   5.450   2.568
    1PA     C1214382   2.116   5.271   2.656
    1PA     H2R14383   2.175   5.287   2.747
    1PA     H2S14384   2.034   5.201   2.671
    2PC     C1114385   2.202   5.201   2.553
    2PC     O1214386   2.160   5.145   2.455
    2PC     O1114387   2.332   5.199   2.588
    2PC      C114388   2.428   5.146   2.496
    2PC      HR14389   2.384   5.053   2.457
    2PC      HS14390   2.452   5.216   2.415
    2PC      C214391   2.562   5.118   2.567
    2PC      HX14392   2.584   5.209   2.623
    2PC      C314393   2.672   5.082   2.466
    2PC      HA14394   2.713   5.174   2.425
    2PC      HB14395   2.750   5.024   2.516
    2PC     O3114396   2.623   5.010   2.351
    2PC     P3114397   2.733   4.970   2.242
    2PC     O3214398   2.821   4.854   2.308
    2PC     C3114399   2.960   4.874   2.339
    2PC     H1A14400   2.980   4.973   2.381
    2PC     H1B14401   2.979   4.799   2.416
    2PC     C3214402   3.057   4.860   2.220
    2PC     H2A14403   3.036   4.931   2.140
    2PC     H2B14404   3.158   4.876   2.258
    2PC     N3114405   3.056   4.720   2.164
    2PC     C3314406   2.923   4.653   2.150
    2PC     H3A14407   2.865   4.658   2.242
    2PC     H3B14408   2.862   4.695   2.069
    2PC     H3C14409   2.948   4.549   2.128
    2PC     C3414410   3.118   4.725   2.028
    2PC     H4A14411   3.127   4.622   1.994
    2PC     H4B14412   3.050   4.789   1.971
    2PC     H4C14413   3.216   4.771   2.040
    2PC     C3514414   3.148   4.634   2.245
    2PC     H5A14415   3.160   4.535   2.201
    2PC     H5B14416   3.103   4.623   2.344
    2PC     H5C14417   3.242   4.687   2.252
    2PC     O3314418   2.655   4.909   2.131
    2PC     O3414419   2.809   5.084   2.186
    2PC     O2114420   2.544   5.010   2.660
    2PC     C2114421   2.635   5.000   2.758
    2PC     O2214422   2.728   5.077   2.776
    3OL     C1214423   2.592   4.886   2.846
    3OL     H2R14424   2.678   4.863   2.909
    3OL     H2S14425   2.578   4.796   2.786
    3OL     C1314426   2.469   4.915   2.933
    3OL     H3R14427   2.394   4.950   2.861
    3OL     H3S14428   2.490   5.006   2.989
    3OL     C1414429   2.406   4.806   3.022
    3OL     H4R14430   2.494   4.776   3.079
    3OL     H4S14431   2.352   4.730   2.966
    3OL     C1514432   2.310   4.871   3.123
    3OL     H5R14433   2.229   4.919   3.068
    3OL     H5S14434   2.371   4.947   3.172
    3OL     C1614435   2.247   4.775   3.225
    3OL     H6R14436   2.192   4.836   3.297
    3OL     H6S14437   2.323   4.717   3.276
    3OL     C1714438   2.152   4.672   3.163
    3OL     H7R14439   2.200   4.611   3.086
    3OL     H7S14440   2.075   4.731   3.113
    3OL     C1814441   2.093   4.572   3.264
    3OL     H8R14442   2.038   4.629   3.340
    3OL     H8S14443   2.181   4.531   3.314
    3OL     C1914444   2.021   4.463   3.190
    3OL     H9R14445   2.081   4.399   3.126
    3OL    C11014446   1.895   4.426   3.208
    3OL    H10R14447   1.859   4.344   3.148
    3OL    C11114448   1.804   4.475   3.318
    3OL    H11R14449   1.860   4.515   3.403
    3OL    H11S14450   1.763   4.381   3.354
    3OL    C11214451   1.693   4.568   3.266
    3OL    H12R14452   1.611   4.576   3.338
    3OL    H12S14453   1.651   4.530   3.173
    3OL    C11314454   1.742   4.710   3.237
    3OL    H13R14455   1.821   4.710   3.161
    3OL    H13S14456   1.778   4.765   3.324
    3OL    C11414457   1.642   4.809   3.175
    3OL    H14R14458   1.615   4.771   3.077
    3OL    H14S14459   1.688   4.908   3.164
    3OL    C11514460   1.516   4.830   3.260
    3OL    H15R14461   1.535   4.879   3.355
    3OL    H15S14462   1.467   4.736   3.288
    3OL    C11614463   1.419   4.919   3.180
    3OL    H16R14464   1.440   4.902   3.074
    3OL    H16S14465   1.464   5.019   3.184
    3OL    C11714466   1.273   4.904   3.222
    3OL    H17R14467   1.253   4.934   3.325
    3OL    H17S14468   1.254   4.796   3.219
    3OL    C11814469   1.179   4.972   3.121
    3OL    H18R14470   1.079   4.931   3.132
    3OL    H18S14471   1.207   4.946   3.019
    3OL    H18T14472   1.169   5.081   3.130
    1PA    C11614473   3.135   4.278   4.013
    1PA    H16R14474   3.220   4.330   3.968
    1PA    H16S14475   3.174   4.259   4.114
    1PA    H16T14476   3.065   4.362   4.014
    1PA    C11514477   3.072   4.162   3.936
    1PA    H15R14478   2.998   4.103   3.991
    1PA    H15S14479   3.027   4.205   3.845
    1PA    C11414480   3.191   4.073   3.898
    1PA    H14R14481   3.277   4.133   3.867
    1PA    H14S14482   3.227   4.029   3.991
    1PA    C11314483   3.156   3.957   3.803
    1PA    H13R14484   3.240   3.887   3.798
    1PA    H13S14485   3.062   3.908   3.828
    1PA    C11214486   3.134   4.017   3.663
    1PA    H12R14487   3.060   4.096   3.679
    1PA    H12S14488   3.214   4.077   3.620
    1PA    C11114489   3.073   3.924   3.557
    1PA    H11R14490   3.126   3.829   3.567
    1PA    H11S14491   2.970   3.897   3.581
    1PA    C11014492   3.098   3.972   3.413
    1PA    H10R14493   3.201   4.003   3.399
    1PA    H10S14494   3.072   3.895   3.340
    1PA     C1914495   3.018   4.097   3.374
    1PA     H9R14496   2.911   4.079   3.387
    1PA     H9S14497   3.047   4.181   3.436
    1PA     C1814498   3.041   4.136   3.228
    1PA     H8R14499   3.147   4.155   3.209
    1PA     H8S14500   3.016   4.054   3.160
    1PA     C1714501   2.967   4.264   3.187
    1PA     H7R14502   2.869   4.265   3.236
    1PA     H7S14503   3.034   4.344   3.220
    1PA     C1614504   2.944   4.266   3.035
    1PA     H6R14505   3.046   4.264   2.998
    1PA     H6S14506   2.894   4.180   2.992
    1PA     C1514507   2.886   4.403   2.997
    1PA     H5R14508   2.790   4.426   3.043
    1PA     H5S14509   2.958   4.477   3.032
    1PA     C1414510   2.869   4.410   2.844
    1PA     H4R14511   2.971   4.413   2.803
    1PA     H4S14512   2.806   4.329   2.807
    1PA     C1314513   2.804   4.544   2.810
    1PA     H3R14514   2.708   4.556   2.861
    1PA     H3S14515   2.862   4.634   2.831
    1PA     C1214516   2.776   4.537   2.659
    1PA     H2R14517   2.870   4.536   2.605
    1PA     H2S14518   2.726   4.443   2.634
    2PC     C1114519   2.706   4.658   2.601
    2PC     O1214520   2.747   4.772   2.598
    2PC     O1114521   2.589   4.625   2.544
    2PC      C114522   2.512   4.729   2.481
    2PC      HR14523   2.513   4.815   2.548
    2PC      HS14524   2.571   4.729   2.390
    2PC      C214525   2.372   4.673   2.454
    2PC      HX14526   2.376   4.585   2.389
    2PC      C314527   2.284   4.777   2.384
    2PC      HA14528   2.251   4.860   2.447
    2PC      HB14529   2.343   4.826   2.306
    2PC     O3114530   2.177   4.705   2.321
    2PC     P3114531   2.141   4.746   2.170
    2PC     O3214532   2.012   4.652   2.157
    2PC     C3114533   1.895   4.663   2.239
    2PC     H1A14534   1.862   4.568   2.281
    2PC     H1B14535   1.928   4.731   2.317
    2PC     C3214536   1.786   4.725   2.151
    2PC     H2A14537   1.699   4.757   2.209
    2PC     H2B14538   1.831   4.811   2.100
    2PC     N3114539   1.715   4.646   2.045
    2PC     C3314540   1.817   4.595   1.948
    2PC     H3A14541   1.857   4.671   1.881
    2PC     H3B14542   1.896   4.536   1.993
    2PC     H3C14543   1.770   4.531   1.872
    2PC     C3414544   1.641   4.530   2.105
    2PC     H4A14545   1.601   4.474   2.021
    2PC     H4B14546   1.724   4.484   2.159
    2PC     H4C14547   1.558   4.560   2.169
    2PC     C3514548   1.612   4.730   1.975
    2PC     H5A14549   1.574   4.661   1.899
    2PC     H5B14550   1.664   4.815   1.931
    2PC     H5C14551   1.532   4.764   2.040
    2PC     O3314552   2.096   4.886   2.151
    2PC     O3414553   2.249   4.718   2.073
    2PC     O2114554   2.315   4.644   2.584
    2PC     C2114555   2.273   4.520   2.611
    2PC     O2214556   2.270   4.425   2.534
    3OL     C1214557   2.218   4.511   2.751
    3OL     H2R14558   2.112   4.489   2.739
    3OL     H2S14559   2.227   4.611   2.795
    3OL     C1314560   2.287   4.404   2.836
    3OL     H3R14561   2.263   4.305   2.798
    3OL     H3S14562   2.248   4.409   2.938
    3OL     C1414563   2.440   4.422   2.839
    3OL     H4R14564   2.468   4.526   2.857
    3OL     H4S14565   2.465   4.384   2.740
    3OL     C1514566   2.498   4.321   2.939
    3OL     H5R14567   2.587   4.283   2.888
    3OL     H5S14568   2.433   4.234   2.936
    3OL     C1614569   2.520   4.387   3.076
    3OL     H6R14570   2.424   4.433   3.103
    3OL     H6S14571   2.590   4.471   3.078
    3OL     C1714572   2.548   4.280   3.183
    3OL     H7R14573   2.625   4.215   3.143
    3OL     H7S14574   2.457   4.219   3.187
    3OL     C1814575   2.582   4.343   3.318
    3OL     H8R14576   2.492   4.392   3.357
    3OL     H8S14577   2.665   4.413   3.307
    3OL     C1914578   2.619   4.231   3.413
    3OL     H9R14579   2.653   4.142   3.362
    3OL    C11014580   2.600   4.222   3.543
    3OL    H10R14581   2.615   4.124   3.590
    3OL    C11114582   2.536   4.327   3.630
    3OL    H11R14583   2.457   4.282   3.691
    3OL    H11S14584   2.495   4.407   3.568
    3OL    C11214585   2.628   4.380   3.741
    3OL    H12R14586   2.575   4.451   3.805
    3OL    H12S14587   2.697   4.446   3.689
    3OL    C11314588   2.701   4.275   3.826
    3OL    H13R14589   2.781   4.228   3.768
    3OL    H13S14590   2.639   4.192   3.860
    3OL    C11414591   2.770   4.344   3.945
    3OL    H14R14592   2.810   4.441   3.914
    3OL    H14S14593   2.849   4.279   3.983
    3OL    C11514594   2.672   4.370   4.060
    3OL    H15R14595   2.618   4.278   4.081
    3OL    H15S14596   2.600   4.443   4.022
    3OL    C11614597   2.733   4.432   4.187
    3OL    H16R14598   2.820   4.495   4.165
    3OL    H16S14599   2.774   4.342   4.235
    3OL    C11714600   2.625   4.493   4.277
    3OL    H17R14601   2.538   4.430   4.295
    3OL    H17S14602   2.589   4.585   4.231
    3OL    C11814603   2.673   4.522   4.420
    3OL    H18R14604   2.755   4.592   4.436
    3OL    H18S14605   2.693   4.427   4.470
    3OL    H18T14606   2.594   4.575   4.473
    1PA    C11614607   0.854   4.639   3.966
    1PA    H16R14608   0.931   4.680   4.032
    1PA    H16S14609   0.757   4.668   4.007
    1PA    H16T14610   0.859   4.694   3.871
    1PA    C11514611   0.873   4.488   3.948
    1PA    H15R14612   0.969   4.462   3.902
    1PA    H15S14613   0.861   4.439   4.045
    1PA    C11414614   0.764   4.421   3.864
    1PA    H14R14615   0.740   4.318   3.893
    1PA    H14S14616   0.672   4.478   3.874
    1PA    C11314617   0.798   4.414   3.714
    1PA    H13R14618   0.819   4.513   3.675
    1PA    H13S14619   0.888   4.354   3.698
    1PA    C11214620   0.684   4.345   3.636
    1PA    H12R14621   0.678   4.244   3.678
    1PA    H12S14622   0.589   4.395   3.654
    1PA    C11114623   0.707   4.338   3.485
    1PA    H11R14624   0.705   4.441   3.450
    1PA    H11S14625   0.808   4.300   3.467
    1PA    C11014626   0.593   4.263   3.413
    1PA    H10R14627   0.588   4.161   3.452
    1PA    H10S14628   0.497   4.308   3.440
    1PA     C1914629   0.610   4.271   3.261
    1PA     H9R14630   0.586   4.369   3.218
    1PA     H9S14631   0.717   4.253   3.250
    1PA     C1814632   0.512   4.170   3.199
    1PA     H8R14633   0.538   4.068   3.228
    1PA     H8S14634   0.415   4.203   3.238
    1PA     C1714635   0.506   4.163   3.046
    1PA     H7R14636   0.453   4.253   3.014
    1PA     H7S14637   0.608   4.160   3.007
    1PA     C1614638   0.433   4.037   2.998
    1PA     H6R14639   0.501   3.952   2.987
    1PA     H6S14640   0.357   4.008   3.072
    1PA     C1514641   0.370   4.048   2.858
    1PA     H5R14642   0.276   4.103   2.852
    1PA     H5S14643   0.452   4.082   2.795
    1PA     C1414644   0.335   3.906   2.813
    1PA     H4R14645   0.424   3.843   2.826
    1PA     H4S14646   0.261   3.860   2.878
    1PA     C1314647   0.270   3.917   2.674
    1PA     H3R14648   0.183   3.982   2.680
    1PA     H3S14649   0.337   3.966   2.602
    1PA     C1214650   0.227   3.779   2.623
    1PA     H2R14651   0.317   3.724   2.598
    1PA     H2S14652   0.153   3.738   2.693
    2PC     C1114653   0.159   3.789   2.488
    2PC     O1214654   0.075   3.870   2.453
    2PC     O1114655   0.184   3.683   2.410
    2PC      C114656   0.133   3.662   2.277
    2PC      HR14657   0.025   3.678   2.269
    2PC      HS14658   0.174   3.739   2.212
    2PC      C214659   0.164   3.521   2.225
    2PC      HX14660   0.272   3.504   2.228
    2PC      C314661   0.118   3.501   2.080
    2PC      HA14662   0.204   3.545   2.030
    2PC      HB14663   0.098   3.395   2.060
    2PC     O3114664   0.010   3.583   2.032
    2PC     P3114665  -0.026   3.587   1.876
    2PC     O3214666  -0.184   3.576   1.894
    2PC     C3114667  -0.268   3.500   1.805
    2PC     H1A14668  -0.364   3.551   1.800
    2PC     H1B14669  -0.222   3.503   1.706
    2PC     C3214670  -0.276   3.360   1.869
    2PC     H2A14671  -0.178   3.314   1.882
    2PC     H2B14672  -0.310   3.373   1.971
    2PC     N3114673  -0.359   3.253   1.804
    2PC     C3314674  -0.359   3.268   1.655
    2PC     H3A14675  -0.259   3.295   1.620
    2PC     H3B14676  -0.400   3.176   1.613
    2PC     H3C14677  -0.432   3.345   1.628
    2PC     C3414678  -0.288   3.124   1.834
    2PC     H4A14679  -0.198   3.128   1.773
    2PC     H4B14680  -0.263   3.117   1.940
    2PC     H4C14681  -0.344   3.034   1.807
    2PC     C3514682  -0.501   3.266   1.851
    2PC     H5A14683  -0.567   3.194   1.803
    2PC     H5B14684  -0.534   3.369   1.838
    2PC     H5C14685  -0.511   3.237   1.955
    2PC     O3314686   0.029   3.708   1.811
    2PC     O3414687   0.051   3.477   1.813
    2PC     O2114688   0.098   3.421   2.305
    2PC     C2114689   0.142   3.294   2.306
    2PC     O2214690   0.223   3.246   2.229
    3OL     C1214691   0.067   3.214   2.410
    3OL     H2R14692   0.124   3.121   2.416
    3OL     H2S14693  -0.020   3.180   2.352
    3OL     C1314694   0.027   3.279   2.543
    3OL     H3R14695  -0.047   3.358   2.523
    3OL     H3S14696   0.103   3.332   2.600
    3OL     C1414697  -0.045   3.193   2.647
    3OL     H4R14698   0.016   3.105   2.670
    3OL     H4S14699  -0.144   3.168   2.609
    3OL     C1514700  -0.061   3.276   2.775
    3OL     H5R14701  -0.079   3.383   2.764
    3OL     H5S14702   0.038   3.263   2.818
    3OL     C1614703  -0.167   3.219   2.870
    3OL     H6R14704  -0.134   3.123   2.910
    3OL     H6S14705  -0.262   3.201   2.819
    3OL     C1714706  -0.209   3.316   2.981
    3OL     H7R14707  -0.262   3.400   2.935
    3OL     H7S14708  -0.125   3.370   3.023
    3OL     C1814709  -0.284   3.254   3.100
    3OL     H8R14710  -0.386   3.229   3.073
    3OL     H8S14711  -0.299   3.332   3.174
    3OL     C1914712  -0.213   3.138   3.166
    3OL     H9R14713  -0.186   3.054   3.102
    3OL    C11014714  -0.175   3.128   3.292
    3OL    H10R14715  -0.117   3.042   3.326
    3OL    C11114716  -0.195   3.225   3.406
    3OL    H11R14717  -0.232   3.322   3.373
    3OL    H11S14718  -0.101   3.247   3.457
    3OL    C11214719  -0.299   3.178   3.508
    3OL    H12R14720  -0.263   3.084   3.550
    3OL    H12S14721  -0.383   3.161   3.440
    3OL    C11314722  -0.322   3.277   3.623
    3OL    H13R14723  -0.373   3.363   3.579
    3OL    H13S14724  -0.227   3.319   3.658
    3OL    C11414725  -0.408   3.226   3.739
    3OL    H14R14726  -0.375   3.125   3.766
    3OL    H14S14727  -0.510   3.209   3.703
    3OL    C11514728  -0.391   3.321   3.858
    3OL    H15R14729  -0.432   3.420   3.837
    3OL    H15S14730  -0.286   3.342   3.879
    3OL    C11614731  -0.462   3.271   3.985
    3OL    H16R14732  -0.424   3.176   4.023
    3OL    H16S14733  -0.568   3.249   3.967
    3OL    C11714734  -0.461   3.390   4.082
    3OL    H17R14735  -0.492   3.482   4.031
    3OL    H17S14736  -0.358   3.400   4.117
    3OL    C11814737  -0.547   3.365   4.206
    3OL    H18R14738  -0.491   3.294   4.268
    3OL    H18S14739  -0.649   3.335   4.182
    3OL    H18T14740  -0.553   3.456   4.266
    1PA    C11614741   1.719   3.778   3.924
    1PA    H16R14742   1.648   3.777   3.841
    1PA    H16S14743   1.674   3.838   4.003
    1PA    H16T14744   1.720   3.675   3.960
    1PA    C11514745   1.853   3.828   3.869
    1PA    H15R14746   1.839   3.921   3.814
    1PA    H15S14747   1.914   3.842   3.959
    1PA    C11414748   1.918   3.731   3.769
    1PA    H14R14749   1.926   3.632   3.813
    1PA    H14S14750   1.862   3.718   3.676
    1PA    C11314751   2.060   3.782   3.743
    1PA    H13R14752   2.059   3.886   3.710
    1PA    H13S14753   2.122   3.767   3.832
    1PA    C11214754   2.118   3.712   3.619
    1PA    H12R14755   2.128   3.604   3.632
    1PA    H12S14756   2.052   3.724   3.533
    1PA    C11114757   2.250   3.782   3.582
    1PA    H11R14758   2.248   3.885   3.619
    1PA    H11S14759   2.333   3.738   3.637
    1PA    C11014760   2.281   3.789   3.432
    1PA    H10R14761   2.297   3.687   3.397
    1PA    H10S14762   2.194   3.840   3.389
    1PA     C1914763   2.415   3.861   3.410
    1PA     H9R14764   2.407   3.966   3.439
    1PA     H9S14765   2.484   3.806   3.474
    1PA     C1814766   2.446   3.846   3.260
    1PA     H8R14767   2.436   3.740   3.237
    1PA     H8S14768   2.373   3.908   3.209
    1PA     C1714769   2.587   3.890   3.218
    1PA     H7R14770   2.599   3.996   3.241
    1PA     H7S14771   2.664   3.829   3.266
    1PA     C1614772   2.605   3.879   3.065
    1PA     H6R14773   2.576   3.778   3.034
    1PA     H6S14774   2.533   3.948   3.019
    1PA     C1514775   2.742   3.933   3.022
    1PA     H5R14776   2.755   4.037   3.049
    1PA     H5S14777   2.822   3.867   3.056
    1PA     C1414778   2.734   3.926   2.869
    1PA     H4R14779   2.707   3.825   2.837
    1PA     H4S14780   2.653   3.991   2.837
    1PA     C1314781   2.867   3.970   2.806
    1PA     H3R14782   2.897   4.073   2.824
    1PA     H3S14783   2.942   3.903   2.850
    1PA     C1214784   2.882   3.958   2.654
    1PA     H2R14785   2.985   3.942   2.621
    1PA     H2S14786   2.830   3.870   2.616
    2PC     C1114787   2.823   4.070   2.571
    2PC     O1214788   2.771   4.167   2.621
    2PC     O1114789   2.843   4.055   2.439
    2PC      C114790   2.819   4.164   2.348
    2PC      HR14791   2.743   4.123   2.281
    2PC      HS14792   2.763   4.239   2.405
    2PC      C214793   2.944   4.212   2.274
    2PC      HX14794   2.924   4.311   2.231
    2PC      C314795   2.978   4.107   2.168
    2PC      HA14796   3.025   4.021   2.216
    2PC      HB14797   2.894   4.084   2.102
    2PC     O3114798   3.071   4.176   2.082
    2PC     P3114799   3.113   4.098   1.948
    2PC     O3214800   3.097   4.225   1.852
    2PC     C3114801   2.976   4.238   1.776
    2PC     H1A14802   2.958   4.140   1.733
    2PC     H1B14803   2.899   4.267   1.848
    2PC     C3214804   2.995   4.340   1.662
    2PC     H2A14805   3.073   4.300   1.598
    2PC     H2B14806   2.905   4.341   1.600
    2PC     N3114807   3.031   4.483   1.687
    2PC     C3314808   3.066   4.540   1.552
    2PC     H3A14809   3.093   4.643   1.573
    2PC     H3B14810   3.154   4.492   1.509
    2PC     H3C14811   2.981   4.532   1.484
    2PC     C3414812   2.918   4.565   1.741
    2PC     H4A14813   2.961   4.665   1.753
    2PC     H4B14814   2.829   4.548   1.679
    2PC     H4C14815   2.898   4.529   1.842
    2PC     C3514816   3.152   4.494   1.774
    2PC     H5A14817   3.175   4.600   1.784
    2PC     H5B14818   3.239   4.450   1.725
    2PC     H5C14819   3.139   4.457   1.876
    2PC     O3314820   3.248   4.039   1.933
    2PC     O3414821   3.023   3.983   1.923
    2PC     O2114822   3.060   4.220   2.358
    2PC     C2114823   3.066   4.319   2.449
    2PC     O2214824   3.037   4.435   2.430
    3OL     C1214825   3.136   4.286   2.578
    3OL     H2R14826   3.062   4.289   2.659
    3OL     H2S14827   3.214   4.360   2.600
    3OL     C1314828   3.185   4.141   2.589
    3OL     H3R14829   3.260   4.125   2.512
    3OL     H3S14830   3.111   4.066   2.558
    3OL     C1414831   3.253   4.106   2.722
    3OL     H4R14832   3.289   4.004   2.715
    3OL     H4S14833   3.171   4.116   2.794
    3OL     C1514834   3.368   4.197   2.767
    3OL     H5R14835   3.396   4.244   2.673
    3OL     H5S14836   3.443   4.129   2.809
    3OL     C1614837   3.319   4.305   2.864
    3OL     H6R14838   3.268   4.253   2.946
    3OL     H6S14839   3.246   4.368   2.814
    3OL     C1714840   3.438   4.384   2.921
    3OL     H7R14841   3.527   4.381   2.858
    3OL     H7S14842   3.481   4.332   3.007
    3OL     C1814843   3.400   4.525   2.968
    3OL     H8R14844   3.333   4.564   2.892
    3OL     H8S14845   3.481   4.599   2.972
    3OL     C1914846   3.300   4.531   3.080
    3OL     H9R14847   3.204   4.490   3.049
    3OL    C11014848   3.311   4.597   3.195
    3OL    H10R14849   3.228   4.598   3.265
    3OL    C11114850   3.436   4.656   3.254
    3OL    H11R14851   3.405   4.717   3.339
    3OL    H11S14852   3.488   4.724   3.185
    3OL    C11214853   3.526   4.547   3.312
    3OL    H12R14854   3.537   4.465   3.241
    3OL    H12S14855   3.488   4.535   3.414
    3OL    C11314856   3.668   4.605   3.326
    3OL    H13R14857   3.691   4.632   3.223
    3OL    H13S14858   3.735   4.530   3.369
    3OL    C11414859   3.674   4.731   3.414
    3OL    H14R14860   3.648   4.706   3.517
    3OL    H14S14861   3.614   4.815   3.377
    3OL    C11514862   3.814   4.792   3.418
    3OL    H15R14863   3.809   4.901   3.417
    3OL    H15S14864   3.866   4.765   3.326
    3OL    C11614865   3.890   4.750   3.545
    3OL    H16R14866   3.916   4.644   3.548
    3OL    H16S14867   3.824   4.761   3.631
    3OL    C11714868   4.021   4.831   3.543
    3OL    H17R14869   3.997   4.936   3.528
    3OL    H17S14870   4.083   4.800   3.459
    3OL    C11814871   4.108   4.807   3.667
    3OL    H18R14872   4.067   4.853   3.757
    3OL    H18S14873   4.209   4.840   3.643
    3OL    H18T14874   4.105   4.699   3.685
    1PA    C11614875   1.999   2.241   4.027
    1PA    H16R14876   1.894   2.226   4.001
    1PA    H16S14877   2.002   2.311   4.111
    1PA    H16T14878   2.046   2.143   4.039
    1PA    C11514879   2.065   2.307   3.905
    1PA    H15R14880   2.173   2.299   3.918
    1PA    H15S14881   2.029   2.253   3.817
    1PA    C11414882   2.028   2.455   3.899
    1PA    H14R14883   2.073   2.522   3.973
    1PA    H14S14884   2.066   2.490   3.803
    1PA    C11314885   1.877   2.487   3.900
    1PA    H13R14886   1.829   2.421   3.827
    1PA    H13S14887   1.849   2.459   4.001
    1PA    C11214888   1.844   2.635   3.878
    1PA    H12R14889   1.884   2.691   3.963
    1PA    H12S14890   1.899   2.664   3.788
    1PA    C11114891   1.693   2.663   3.870
    1PA    H11R14892   1.642   2.593   3.805
    1PA    H11S14893   1.661   2.649   3.974
    1PA    C11014894   1.655   2.805   3.825
    1PA    H10R14895   1.552   2.828   3.854
    1PA    H10S14896   1.713   2.886   3.870
    1PA     C1914897   1.662   2.823   3.673
    1PA     H9R14898   1.581   2.769   3.624
    1PA     H9S14899   1.756   2.777   3.640
    1PA     C1814900   1.647   2.969   3.629
    1PA     H8R14901   1.575   3.033   3.680
    1PA     H8S14902   1.743   3.019   3.646
    1PA     C1714903   1.602   2.984   3.483
    1PA     H7R14904   1.497   2.957   3.475
    1PA     H7S14905   1.616   3.090   3.460
    1PA     C1614906   1.689   2.909   3.381
    1PA     H6R14907   1.791   2.949   3.386
    1PA     H6S14908   1.697   2.801   3.391
    1PA     C1514909   1.642   2.941   3.238
    1PA     H5R14910   1.535   2.955   3.221
    1PA     H5S14911   1.681   3.039   3.208
    1PA     C1414912   1.695   2.844   3.133
    1PA     H4R14913   1.800   2.818   3.152
    1PA     H4S14914   1.643   2.748   3.134
    1PA     C1314915   1.676   2.900   2.992
    1PA     H3R14916   1.575   2.941   2.994
    1PA     H3S14917   1.748   2.982   2.982
    1PA     C1214918   1.704   2.799   2.880
    1PA     H2R14919   1.800   2.753   2.900
    1PA     H2S14920   1.627   2.722   2.889
    2PC     C1114921   1.701   2.854   2.739
    2PC     O1214922   1.714   2.779   2.644
    2PC     O1114923   1.669   2.984   2.731
    2PC      C114924   1.619   3.035   2.606
    2PC      HR14925   1.627   3.144   2.613
    2PC      HS14926   1.672   2.991   2.522
    2PC      C214927   1.467   3.013   2.597
    2PC      HX14928   1.449   2.905   2.600
    2PC      C314929   1.410   3.069   2.466
    2PC      HA14930   1.431   2.991   2.393
    2PC      HB14931   1.303   3.077   2.484
    2PC     O3114932   1.469   3.195   2.429
    2PC     P3114933   1.433   3.268   2.291
    2PC     O3214934   1.467   3.154   2.184
    2PC     C3114935   1.604   3.116   2.162
    2PC     H1A14936   1.643   3.199   2.103
    2PC     H1B14937   1.636   3.109   2.267
    2PC     C3214938   1.604   2.977   2.096
    2PC     H2A14939   1.704   2.949   2.062
    2PC     H2B14940   1.564   2.901   2.163
    2PC     N3114941   1.535   2.961   1.964
    2PC     C3314942   1.568   2.828   1.904
    2PC     H3A14943   1.527   2.814   1.803
    2PC     H3B14944   1.676   2.818   1.906
    2PC     H3C14945   1.526   2.753   1.971
    2PC     C3414946   1.388   2.964   1.993
    2PC     H4A14947   1.369   2.898   2.077
    2PC     H4B14948   1.363   3.070   2.003
    2PC     H4C14949   1.346   2.926   1.900
    2PC     C3514950   1.580   3.069   1.870
    2PC     H5A14951   1.688   3.068   1.853
    2PC     H5B14952   1.542   3.166   1.903
    2PC     H5C14953   1.525   3.063   1.776
    2PC     O3314954   1.292   3.312   2.279
    2PC     O3414955   1.507   3.392   2.256
    2PC     O2114956   1.402   3.065   2.714
    2PC     C2114957   1.376   2.989   2.822
    2PC     O2214958   1.381   2.868   2.816
    3OL     C1214959   1.336   3.078   2.937
    3OL     H2R14960   1.241   3.123   2.908
    3OL     H2S14961   1.409   3.157   2.957
    3OL     C1314962   1.297   2.995   3.060
    3OL     H3R14963   1.373   2.921   3.085
    3OL     H3S14964   1.215   2.926   3.043
    3OL     C1414965   1.275   3.086   3.182
    3OL     H4R14966   1.198   3.161   3.163
    3OL     H4S14967   1.363   3.142   3.215
    3OL     C1514968   1.229   3.002   3.302
    3OL     H5R14969   1.315   2.942   3.332
    3OL     H5S14970   1.147   2.931   3.289
    3OL     C1614971   1.197   3.097   3.418
    3OL     H6R14972   1.136   3.182   3.384
    3OL     H6S14973   1.298   3.130   3.445
    3OL     C1714974   1.133   3.029   3.539
    3OL     H7R14975   1.055   2.961   3.505
    3OL     H7S14976   1.072   3.105   3.587
    3OL     C1814977   1.222   2.973   3.651
    3OL     H8R14978   1.158   2.953   3.737
    3OL     H8S14979   1.302   3.043   3.673
    3OL     C1914980   1.289   2.845   3.605
    3OL     H9R14981   1.329   2.840   3.504
    3OL    C11014982   1.291   2.730   3.669
    3OL    H10R14983   1.341   2.647   3.619
    3OL    C11114984   1.223   2.697   3.799
    3OL    H11R14985   1.142   2.629   3.770
    3OL    H11S14986   1.178   2.787   3.842
    3OL    C11214987   1.317   2.639   3.906
    3OL    H12R14988   1.392   2.714   3.933
    3OL    H12S14989   1.370   2.551   3.870
    3OL    C11314990   1.242   2.605   4.035
    3OL    H13R14991   1.164   2.680   4.052
    3OL    H13S14992   1.310   2.628   4.117
    3OL    C11414993   1.201   2.457   4.039
    3OL    H14R14994   1.297   2.407   4.046
    3OL    H14S14995   1.143   2.427   3.951
    3OL    C11514996   1.117   2.417   4.161
    3OL    H15R14997   1.016   2.458   4.151
    3OL    H15S14998   1.164   2.455   4.252
    3OL    C11614999   1.104   2.265   4.177
    3OL    H16R15000   1.076   2.212   4.086
    3OL    H16S15001   1.023   2.253   4.250
    3OL    C11715002   1.229   2.200   4.238
    3OL    H17R15003   1.256   2.253   4.329
    3OL    H17S15004   1.306   2.205   4.161
    3OL    C11815005   1.187   2.058   4.279
    3OL    H18R15006   1.264   2.004   4.335
    3OL    H18S15007   1.170   1.991   4.194
    3OL    H18T15008   1.097   2.059   4.340
    1PA    C11615009   0.205   3.589   3.974
    1PA    H16R15010   0.108   3.557   4.011
    1PA    H16S15011   0.210   3.698   3.964
    1PA    H16T15012   0.280   3.567   4.051
    1PA    C11515013   0.237   3.520   3.841
    1PA    H15R15014   0.171   3.557   3.763
    1PA    H15S15015   0.335   3.559   3.813
    1PA    C11415016   0.236   3.367   3.855
    1PA    H14R15017   0.290   3.342   3.946
    1PA    H14S15018   0.132   3.334   3.863
    1PA    C11315019   0.306   3.295   3.739
    1PA    H13R15020   0.405   3.336   3.722
    1PA    H13S15021   0.313   3.188   3.763
    1PA    C11215022   0.229   3.300   3.606
    1PA    H12R15023   0.130   3.254   3.612
    1PA    H12S15024   0.221   3.402   3.567
    1PA    C11115025   0.299   3.217   3.498
    1PA    H11R15026   0.405   3.241   3.488
    1PA    H11S15027   0.302   3.113   3.533
    1PA    C11015028   0.233   3.225   3.360
    1PA    H10R15029   0.136   3.174   3.360
    1PA    H10S15030   0.229   3.319   3.305
    1PA     C1915031   0.318   3.141   3.263
    1PA     H9R15032   0.419   3.182   3.265
    1PA     H9S15033   0.317   3.038   3.299
    1PA     C1815034   0.267   3.135   3.119
    1PA     H8R15035   0.159   3.120   3.106
    1PA     H8S15036   0.284   3.231   3.070
    1PA     C1715037   0.333   3.031   3.027
    1PA     H7R15038   0.441   3.048   3.024
    1PA     H7S15039   0.317   2.936   3.078
    1PA     C1615040   0.273   3.041   2.887
    1PA     H6R15041   0.164   3.053   2.883
    1PA     H6S15042   0.296   3.135   2.836
    1PA     C1515043   0.315   2.918   2.805
    1PA     H5R15044   0.269   2.837   2.863
    1PA     H5S15045   0.267   2.924   2.707
    1PA     C1415046   0.459   2.874   2.780
    1PA     H4R15047   0.509   2.954   2.725
    1PA     H4S15048   0.509   2.852   2.874
    1PA     C1315049   0.487   2.741   2.709
    1PA     H3R15050   0.595   2.726   2.703
    1PA     H3S15051   0.445   2.665   2.775
    1PA     C1215052   0.422   2.733   2.570
    1PA     H2R15053   0.471   2.649   2.521
    1PA     H2S15054   0.314   2.719   2.579
    2PC     C1115055   0.448   2.851   2.479
    2PC     O1215056   0.400   2.960   2.501
    2PC     O1115057   0.540   2.829   2.383
    2PC      C115058   0.586   2.937   2.301
    2PC      HR15059   0.653   2.904   2.222
    2PC      HS15060   0.502   2.991   2.257
    2PC      C215061   0.666   3.033   2.391
    2PC      HX15062   0.606   3.062   2.477
    2PC      C315063   0.691   3.156   2.302
    2PC      HA15064   0.608   3.192   2.241
    2PC      HB15065   0.726   3.234   2.370
    2PC     O3115066   0.799   3.120   2.214
    2PC     P3115067   0.850   3.226   2.106
    2PC     O3215068   0.846   3.354   2.203
    2PC     C3115069   0.965   3.380   2.280
    2PC     H1A15070   0.979   3.311   2.364
    2PC     H1B15071   1.056   3.385   2.221
    2PC     C3215072   0.940   3.519   2.342
    2PC     H2A15073   0.902   3.582   2.261
    2PC     H2B15074   0.870   3.514   2.426
    2PC     N3115075   1.056   3.588   2.407
    2PC     C3315076   1.142   3.634   2.294
    2PC     H3A15077   1.155   3.550   2.226
    2PC     H3B15078   1.098   3.715   2.236
    2PC     H3C15079   1.232   3.673   2.342
    2PC     C3415080   1.009   3.705   2.487
    2PC     H4A15081   0.974   3.786   2.422
    2PC     H4B15082   0.933   3.669   2.557
    2PC     H4C15083   1.096   3.745   2.539
    2PC     C3515084   1.131   3.502   2.504
    2PC     H5A15085   1.059   3.496   2.586
    2PC     H5B15086   1.222   3.555   2.532
    2PC     H5C15087   1.162   3.406   2.463
    2PC     O3315088   0.982   3.185   2.054
    2PC     O3415089   0.765   3.240   1.985
    2PC     O2115090   0.784   2.974   2.448
    2PC     C2115091   0.847   3.052   2.537
    2PC     O2215092   0.808   3.160   2.579
    3OL     C1215093   0.984   2.995   2.562
    3OL     H2R15094   1.059   3.021   2.487
    3OL     H2S15095   0.976   2.886   2.559
    3OL     C1315096   1.048   3.057   2.688
    3OL     H3R15097   1.060   3.164   2.672
    3OL     H3S15098   1.147   3.011   2.700
    3OL     C1415099   0.975   3.038   2.821
    3OL     H4R15100   0.870   3.065   2.808
    3OL     H4S15101   1.022   3.106   2.893
    3OL     C1515102   0.978   2.891   2.866
    3OL     H5R15103   1.081   2.856   2.877
    3OL     H5S15104   0.934   2.821   2.795
    3OL     C1615105   0.910   2.862   3.001
    3OL     H6R15106   0.806   2.896   2.995
    3OL     H6S15107   0.963   2.921   3.076
    3OL     C1715108   0.906   2.716   3.049
    3OL     H7R15109   1.004   2.675   3.020
    3OL     H7S15110   0.826   2.666   2.994
    3OL     C1815111   0.889   2.705   3.201
    3OL     H8R15112   0.986   2.735   3.241
    3OL     H8S15113   0.871   2.599   3.220
    3OL     C1915114   0.770   2.784   3.250
    3OL     H9R15115   0.758   2.878   3.196
    3OL    C11015116   0.710   2.753   3.364
    3OL    H10R15117   0.644   2.828   3.406
    3OL    C11115118   0.750   2.650   3.467
    3OL    H11R15119   0.852   2.615   3.447
    3OL    H11S15120   0.685   2.563   3.471
    3OL    C11215121   0.749   2.720   3.604
    3OL    H12R15122   0.647   2.748   3.632
    3OL    H12S15123   0.820   2.801   3.592
    3OL    C11315124   0.795   2.623   3.713
    3OL    H13R15125   0.896   2.593   3.682
    3OL    H13S15126   0.737   2.530   3.714
    3OL    C11415127   0.805   2.682   3.854
    3OL    H14R15128   0.711   2.730   3.882
    3OL    H14S15129   0.882   2.759   3.861
    3OL    C11515130   0.842   2.575   3.959
    3OL    H15R15131   0.863   2.625   4.053
    3OL    H15S15132   0.937   2.535   3.924
    3OL    C11615133   0.725   2.478   3.984
    3OL    H16R15134   0.717   2.414   3.895
    3OL    H16S15135   0.636   2.540   3.991
    3OL    C11715136   0.734   2.395   4.112
    3OL    H17R15137   0.825   2.336   4.095
    3OL    H17S15138   0.656   2.319   4.119
    3OL    C11815139   0.750   2.478   4.240
    3OL    H18R15140   0.654   2.517   4.276
    3OL    H18S15141   0.833   2.548   4.244
    3OL    H18T15142   0.768   2.396   4.310
    1PA    C11615143   3.648   0.159   4.120
    1PA    H16R15144   3.634   0.092   4.205
    1PA    H16S15145   3.564   0.229   4.125
    1PA    H16T15146   3.749   0.194   4.102
    1PA    C11515147   3.626   0.068   3.998
    1PA    H15R15148   3.707  -0.005   3.996
    1PA    H15S15149   3.530   0.015   4.001
    1PA    C11415150   3.645   0.147   3.868
    1PA    H14R15151   3.722   0.224   3.870
    1PA    H14S15152   3.679   0.081   3.788
    1PA    C11315153   3.513   0.212   3.823
    1PA    H13R15154   3.481   0.277   3.905
    1PA    H13S15155   3.535   0.278   3.738
    1PA    C11215156   3.398   0.114   3.798
    1PA    H12R15157   3.357   0.074   3.891
    1PA    H12S15158   3.320   0.184   3.768
    1PA    C11115159   3.423   0.017   3.681
    1PA    H11R15160   3.454   0.072   3.592
    1PA    H11S15161   3.503  -0.051   3.709
    1PA    C11015162   3.304  -0.079   3.664
    1PA    H10R15163   3.338  -0.168   3.610
    1PA    H10S15164   3.276  -0.107   3.765
    1PA     C1915165   3.185  -0.012   3.593
    1PA     H9R15166   3.092  -0.064   3.617
    1PA     H9S15167   3.165   0.088   3.631
    1PA     C1815168   3.208  -0.016   3.441
    1PA     H8R15169   3.277   0.061   3.408
    1PA     H8S15170   3.247  -0.115   3.417
    1PA     C1715171   3.072   0.009   3.375
    1PA     H7R15172   3.009  -0.077   3.397
    1PA     H7S15173   3.032   0.104   3.410
    1PA     C1615174   3.091   0.025   3.223
    1PA     H6R15175   3.146   0.118   3.210
    1PA     H6S15176   3.155  -0.054   3.183
    1PA     C1515177   2.958   0.018   3.145
    1PA     H5R15178   2.976  -0.024   3.046
    1PA     H5S15179   2.898  -0.058   3.195
    1PA     C1415180   2.888   0.154   3.141
    1PA     H4R15181   2.856   0.184   3.242
    1PA     H4S15182   2.959   0.233   3.118
    1PA     C1315183   2.762   0.149   3.053
    1PA     H3R15184   2.705   0.059   3.078
    1PA     H3S15185   2.693   0.224   3.090
    1PA     C1215186   2.779   0.155   2.901
    1PA     H2R15187   2.837   0.065   2.880
    1PA     H2S15188   2.680   0.144   2.855
    2PC     C1115189   2.839   0.282   2.846
    2PC     O1215190   2.789   0.392   2.853
    2PC     O1115191   2.963   0.263   2.799
    2PC      C115192   3.023   0.380   2.742
    2PC      HR15193   2.955   0.403   2.659
    2PC      HS15194   3.016   0.454   2.823
    2PC      C215195   3.167   0.360   2.693
    2PC      HX15196   3.200   0.457   2.653
    2PC      C315197   3.177   0.253   2.584
    2PC      HA15198   3.249   0.183   2.626
    2PC      HB15199   3.081   0.201   2.576
    2PC     O3115200   3.222   0.315   2.462
    2PC     P3115201   3.238   0.215   2.339
    2PC     O3215202   3.243   0.309   2.209
    2PC     C3115203   3.255   0.257   2.076
    2PC     H1A15204   3.350   0.202   2.077
    2PC     H1B15205   3.180   0.182   2.049
    2PC     C3215206   3.253   0.376   1.978
    2PC     H2A15207   3.207   0.353   1.882
    2PC     H2B15208   3.189   0.452   2.024
    2PC     N3115209   3.379   0.450   1.946
    2PC     C3315210   3.443   0.504   2.071
    2PC     H3A15211   3.416   0.609   2.077
    2PC     H3B15212   3.409   0.447   2.158
    2PC     H3C15213   3.551   0.498   2.054
    2PC     C3415214   3.490   0.370   1.886
    2PC     H4A15215   3.510   0.287   1.954
    2PC     H4B15216   3.450   0.329   1.793
    2PC     H4C15217   3.582   0.424   1.862
    2PC     C3515218   3.354   0.556   1.844
    2PC     H5A15219   3.451   0.604   1.827
    2PC     H5B15220   3.279   0.619   1.892
    2PC     H5C15221   3.324   0.512   1.749
    2PC     O3315222   3.351   0.122   2.364
    2PC     O3415223   3.121   0.127   2.312
    2PC     O2115224   3.260   0.333   2.799
    2PC     C2115225   3.278   0.415   2.904
    2PC     O2215226   3.233   0.528   2.908
    3OL     C1215227   3.341   0.342   3.020
    3OL     H2R15228   3.450   0.355   3.014
    3OL     H2S15229   3.321   0.236   3.005
    3OL     C1315230   3.279   0.388   3.153
    3OL     H3R15231   3.175   0.356   3.145
    3OL     H3S15232   3.294   0.496   3.163
    3OL     C1415233   3.341   0.310   3.269
    3OL     H4R15234   3.336   0.202   3.257
    3OL     H4S15235   3.286   0.344   3.357
    3OL     C1515236   3.488   0.344   3.301
    3OL     H5R15237   3.505   0.451   3.318
    3OL     H5S15238   3.540   0.318   3.209
    3OL     C1615239   3.545   0.261   3.416
    3OL     H6R15240   3.531   0.158   3.382
    3OL     H6S15241   3.493   0.266   3.513
    3OL     C1715242   3.687   0.297   3.460
    3OL     H7R15243   3.707   0.278   3.565
    3OL     H7S15244   3.693   0.405   3.447
    3OL     C1815245   3.793   0.227   3.373
    3OL     H8R15246   3.887   0.270   3.407
    3OL     H8S15247   3.790   0.256   3.268
    3OL     C1915248   3.770   0.078   3.376
    3OL     H9R15249   3.673   0.044   3.342
    3OL    C11015250   3.863  -0.008   3.417
    3OL    H10R15251   3.830  -0.111   3.419
    3OL    C11115252   4.000   0.027   3.469
    3OL    H11R15253   4.036   0.118   3.422
    3OL    H11S15254   4.059  -0.052   3.423
    3OL    C11215255   4.014   0.014   3.621
    3OL    H12R15256   4.119  -0.012   3.639
    3OL    H12S15257   3.948  -0.067   3.652
    3OL    C11315258   3.976   0.139   3.701
    3OL    H13R15259   3.869   0.151   3.686
    3OL    H13S15260   4.024   0.231   3.667
    3OL    C11415261   4.020   0.118   3.847
    3OL    H14R15262   4.123   0.083   3.846
    3OL    H14S15263   3.957   0.043   3.895
    3OL    C11515264   4.017   0.247   3.930
    3OL    H15R15265   4.036   0.208   4.031
    3OL    H15S15266   3.916   0.289   3.924
    3OL    C11615267   4.129   0.342   3.886
    3OL    H16R15268   4.117   0.369   3.781
    3OL    H16S15269   4.225   0.293   3.906
    3OL    C11715270   4.128   0.474   3.964
    3OL    H17R15271   4.042   0.537   3.938
    3OL    H17S15272   4.216   0.530   3.930
    3OL    C11815273   4.152   0.455   4.115
    3OL    H18R15274   4.071   0.415   4.177
    3OL    H18S15275   4.168   0.557   4.152
    3OL    H18T15276   4.244   0.400   4.131
    1PA    C11615277   3.160   2.575   3.985
    1PA    H16R15278   3.116   2.569   4.084
    1PA    H16S15279   3.216   2.486   3.956
    1PA    H16T15280   3.076   2.587   3.916
    1PA    C11515281   3.245   2.703   3.985
    1PA    H15R15282   3.186   2.784   4.028
    1PA    H15S15283   3.332   2.692   4.051
    1PA    C11415284   3.283   2.753   3.845
    1PA    H14R15285   3.196   2.772   3.781
    1PA    H14S15286   3.332   2.851   3.840
    1PA    C11315287   3.378   2.654   3.777
    1PA    H13R15288   3.458   2.633   3.848
    1PA    H13S15289   3.333   2.556   3.762
    1PA    C11215290   3.444   2.707   3.649
    1PA    H12R15291   3.481   2.809   3.665
    1PA    H12S15292   3.538   2.654   3.633
    1PA    C11115293   3.353   2.714   3.526
    1PA    H11R15294   3.301   2.618   3.514
    1PA    H11S15295   3.282   2.794   3.547
    1PA    C11015296   3.431   2.746   3.398
    1PA    H10R15297   3.479   2.844   3.400
    1PA    H10S15298   3.509   2.670   3.388
    1PA     C1915299   3.357   2.730   3.264
    1PA     H9R15300   3.306   2.633   3.257
    1PA     H9S15301   3.283   2.807   3.242
    1PA     C1815302   3.453   2.749   3.145
    1PA     H8R15303   3.506   2.844   3.150
    1PA     H8S15304   3.531   2.673   3.144
    1PA     C1715305   3.380   2.754   3.010
    1PA     H7R15306   3.312   2.668   3.004
    1PA     H7S15307   3.318   2.844   3.004
    1PA     C1615308   3.476   2.752   2.890
    1PA     H6R15309   3.512   2.651   2.871
    1PA     H6S15310   3.414   2.773   2.803
    1PA     C1515311   3.598   2.844   2.887
    1PA     H5R15312   3.671   2.815   2.963
    1PA     H5S15313   3.650   2.833   2.791
    1PA     C1415314   3.573   2.995   2.903
    1PA     H4R15315   3.513   3.006   2.993
    1PA     H4S15316   3.663   3.057   2.915
    1PA     C1315317   3.495   3.057   2.786
    1PA     H3R15318   3.562   3.055   2.700
    1PA     H3S15319   3.413   2.989   2.763
    1PA     C1215320   3.457   3.203   2.813
    1PA     H2R15321   3.401   3.201   2.907
    1PA     H2S15322   3.552   3.255   2.823
    2PC     C1115323   3.388   3.257   2.690
    2PC     O1215324   3.413   3.216   2.578
    2PC     O1115325   3.298   3.354   2.716
    2PC      C115326   3.213   3.395   2.607
    2PC      HR15327   3.175   3.493   2.638
    2PC      HS15328   3.281   3.408   2.522
    2PC      C215329   3.089   3.308   2.584
    2PC      HX15330   3.096   3.204   2.617
    2PC      C315331   3.032   3.315   2.441
    2PC      HA15332   2.974   3.408   2.434
    2PC      HB15333   3.112   3.318   2.366
    2PC     O3115334   2.963   3.191   2.423
    2PC     P3115335   2.934   3.154   2.270
    2PC     O3215336   2.877   3.005   2.273
    2PC     C3115337   2.842   2.957   2.142
    2PC     H1A15338   2.765   3.021   2.096
    2PC     H1B15339   2.925   2.953   2.072
    2PC     C3215340   2.761   2.826   2.145
    2PC     H2A15341   2.738   2.797   2.043
    2PC     H2B15342   2.824   2.752   2.195
    2PC     N3115343   2.637   2.818   2.229
    2PC     C3315344   2.574   2.685   2.202
    2PC     H3A15345   2.489   2.677   2.271
    2PC     H3B15346   2.522   2.670   2.108
    2PC     H3C15347   2.649   2.607   2.215
    2PC     C3415348   2.667   2.824   2.376
    2PC     H4A15349   2.752   2.761   2.402
    2PC     H4B15350   2.696   2.923   2.411
    2PC     H4C15351   2.574   2.807   2.430
    2PC     C3515352   2.541   2.928   2.194
    2PC     H5A15353   2.507   2.907   2.093
    2PC     H5B15354   2.591   3.023   2.217
    2PC     H5C15355   2.460   2.916   2.266
    2PC     O3315356   2.846   3.249   2.198
    2PC     O3415357   3.056   3.154   2.185
    2PC     O2115358   2.982   3.368   2.660
    2PC     C2115359   2.953   3.319   2.782
    2PC     O2215360   3.014   3.225   2.829
    3OL     C1215361   2.838   3.396   2.841
    3OL     H2R15362   2.749   3.378   2.779
    3OL     H2S15363   2.869   3.498   2.816
    3OL     C1315364   2.825   3.395   2.994
    3OL     H3R15365   2.921   3.408   3.043
    3OL     H3S15366   2.780   3.300   3.023
    3OL     C1415367   2.722   3.502   3.035
    3OL     H4R15368   2.637   3.477   2.972
    3OL     H4S15369   2.749   3.606   3.019
    3OL     C1515370   2.692   3.484   3.185
    3OL     H5R15371   2.670   3.379   3.206
    3OL     H5S15372   2.604   3.547   3.201
    3OL     C1615373   2.816   3.522   3.266
    3OL     H6R15374   2.839   3.626   3.242
    3OL     H6S15375   2.903   3.459   3.245
    3OL     C1715376   2.801   3.525   3.419
    3OL     H7R15377   2.798   3.422   3.457
    3OL     H7S15378   2.702   3.566   3.440
    3OL     C1815379   2.912   3.601   3.491
    3OL     H8R15380   2.878   3.619   3.594
    3OL     H8S15381   2.929   3.697   3.443
    3OL     C1915382   3.045   3.530   3.491
    3OL     H9R15383   3.074   3.473   3.403
    3OL    C11015384   3.119   3.517   3.600
    3OL    H10R15385   3.208   3.456   3.612
    3OL    C11115386   3.095   3.600   3.724
    3OL    H11R15387   3.022   3.681   3.720
    3OL    H11S15388   3.194   3.633   3.757
    3OL    C11215389   3.061   3.500   3.835
    3OL    H12R15390   3.124   3.413   3.818
    3OL    H12S15391   2.957   3.465   3.825
    3OL    C11315392   3.069   3.565   3.974
    3OL    H13R15393   3.002   3.652   3.976
    3OL    H13S15394   3.172   3.599   3.976
    3OL    C11415395   3.031   3.475   4.092
    3OL    H14R15396   3.119   3.411   4.100
    3OL    H14S15397   2.949   3.406   4.070
    3OL    C11515398   3.019   3.559   4.220
    3OL    H15R15399   2.932   3.620   4.196
    3OL    H15S15400   3.109   3.619   4.232
    3OL    C11615401   2.984   3.477   4.345
    3OL    H16R15402   3.064   3.406   4.368
    3OL    H16S15403   2.891   3.425   4.322
    3OL    C11715404   2.967   3.562   4.471
    3OL    H17R15405   3.062   3.616   4.481
    3OL    H17S15406   2.957   3.501   4.561
    3OL    C11815407   2.851   3.663   4.471
    3OL    H18R15408   2.754   3.617   4.454
    3OL    H18S15409   2.871   3.738   4.395
    3OL    H18T15410   2.850   3.701   4.573
    1PA    C11615411   4.836   4.724   4.264
    1PA    H16R15412   4.730   4.751   4.253
    1PA    H16S15413   4.886   4.819   4.242
    1PA    H16T15414   4.864   4.712   4.369
    1PA    C11515415   4.886   4.623   4.161
    1PA    H15R15416   4.858   4.651   4.059
    1PA    H15S15417   4.994   4.606   4.171
    1PA    C11415418   4.832   4.480   4.180
    1PA    H14R15419   4.891   4.438   4.261
    1PA    H14S15420   4.725   4.493   4.201
    1PA    C11315421   4.852   4.398   4.052
    1PA    H13R15422   4.799   4.305   4.074
    1PA    H13S15423   4.789   4.441   3.974
    1PA    C11215424   4.998   4.372   4.012
    1PA    H12R15425   5.055   4.462   4.034
    1PA    H12S15426   5.044   4.293   4.072
    1PA    C11115427   5.020   4.325   3.867
    1PA    H11R15428   4.977   4.226   3.851
    1PA    H11S15429   4.961   4.390   3.803
    1PA    C11015430   5.171   4.323   3.837
    1PA    H10R15431   5.210   4.418   3.873
    1PA    H10S15432   5.222   4.253   3.904
    1PA     C1915433   5.198   4.295   3.688
    1PA     H9R15434   5.150   4.202   3.656
    1PA     H9S15435   5.154   4.369   3.621
    1PA     C1815436   5.348   4.275   3.661
    1PA     H8R15437   5.398   4.370   3.680
    1PA     H8S15438   5.394   4.209   3.735
    1PA     C1715439   5.381   4.226   3.519
    1PA     H7R15440   5.488   4.205   3.511
    1PA     H7S15441   5.322   4.135   3.507
    1PA     C1615442   5.354   4.337   3.417
    1PA     H6R15443   5.251   4.371   3.428
    1PA     H6S15444   5.417   4.420   3.449
    1PA     C1515445   5.384   4.305   3.270
    1PA     H5R15446   5.490   4.282   3.263
    1PA     H5S15447   5.323   4.218   3.242
    1PA     C1415448   5.348   4.427   3.185
    1PA     H4R15449   5.253   4.463   3.224
    1PA     H4S15450   5.423   4.506   3.196
    1PA     C1315451   5.328   4.390   3.038
    1PA     H3R15452   5.285   4.475   2.985
    1PA     H3S15453   5.427   4.367   2.997
    1PA     C1215454   5.244   4.266   3.008
    1PA     H2R15455   5.305   4.176   3.019
    1PA     H2S15456   5.161   4.271   3.079
    2PC     C1115457   5.178   4.267   2.872
    2PC     O1215458   5.222   4.323   2.773
    2PC     O1115459   5.062   4.201   2.856
    2PC      C115460   4.988   4.208   2.733
    2PC      HR15461   4.881   4.203   2.754
    2PC      HS15462   5.011   4.298   2.676
    2PC      C215463   5.007   4.081   2.650
    2PC      HX15464   5.115   4.063   2.649
    2PC      C315465   4.964   4.117   2.507
    2PC      HA15466   5.024   4.195   2.459
    2PC      HB15467   4.981   4.031   2.440
    2PC     O3115468   4.830   4.168   2.503
    2PC     P3115469   4.761   4.203   2.363
    2PC     O3215470   4.812   4.353   2.343
    2PC     C3115471   4.748   4.436   2.244
    2PC     H1A15472   4.640   4.417   2.248
    2PC     H1B15473   4.767   4.539   2.274
    2PC     C3215474   4.811   4.416   2.106
    2PC     H2A15475   4.918   4.433   2.111
    2PC     H2B15476   4.794   4.313   2.073
    2PC     N3115477   4.755   4.502   1.996
    2PC     C3315478   4.832   4.495   1.868
    2PC     H3A15479   4.933   4.534   1.886
    2PC     H3B15480   4.835   4.391   1.835
    2PC     H3C15481   4.789   4.558   1.790
    2PC     C3415482   4.620   4.449   1.958
    2PC     H4A15483   4.623   4.341   1.943
    2PC     H4B15484   4.552   4.475   2.038
    2PC     H4C15485   4.584   4.496   1.867
    2PC     C3515486   4.744   4.646   2.036
    2PC     H5A15487   4.679   4.698   1.965
    2PC     H5B15488   4.846   4.686   2.046
    2PC     H5C15489   4.708   4.660   2.138
    2PC     O3315490   4.787   4.123   2.241
    2PC     O3415491   4.616   4.205   2.395
    2PC     O2115492   4.922   3.983   2.712
    2PC     C2115493   4.944   3.852   2.690
    2PC     O2215494   5.032   3.819   2.613
    3OL     C1215495   4.852   3.754   2.758
    3OL     H2R15496   4.907   3.677   2.812
    3OL     H2S15497   4.800   3.693   2.684
    3OL     C1315498   4.740   3.816   2.843
    3OL     H3R15499   4.678   3.885   2.786
    3OL     H3S15500   4.779   3.874   2.928
    3OL     C1415501   4.668   3.695   2.903
    3OL     H4R15502   4.741   3.634   2.956
    3OL     H4S15503   4.628   3.639   2.818
    3OL     C1515504   4.554   3.734   2.999
    3OL     H5R15505   4.483   3.651   3.008
    3OL     H5S15506   4.502   3.819   2.955
    3OL     C1615507   4.611   3.792   3.129
    3OL     H6R15508   4.664   3.885   3.107
    3OL     H6S15509   4.690   3.728   3.168
    3OL     C1715510   4.501   3.811   3.234
    3OL     H7R15511   4.458   3.713   3.252
    3OL     H7S15512   4.423   3.866   3.181
    3OL     C1815513   4.554   3.881   3.360
    3OL     H8R15514   4.603   3.976   3.335
    3OL     H8S15515   4.625   3.813   3.408
    3OL     C1915516   4.442   3.910   3.456
    3OL     H9R15517   4.346   3.861   3.440
    3OL    C11015518   4.457   3.984   3.565
    3OL    H10R15519   4.366   4.004   3.621
    3OL    C11115520   4.579   4.057   3.616
    3OL    H11R15521   4.669   4.021   3.566
    3OL    H11S15522   4.584   4.034   3.723
    3OL    C11215523   4.561   4.208   3.598
    3OL    H12R15524   4.520   4.231   3.499
    3OL    H12S15525   4.658   4.256   3.609
    3OL    C11315526   4.455   4.266   3.693
    3OL    H13R15527   4.462   4.226   3.795
    3OL    H13S15528   4.358   4.227   3.663
    3OL    C11415529   4.440   4.418   3.687
    3OL    H14R15530   4.334   4.440   3.694
    3OL    H14S15531   4.453   4.450   3.583
    3OL    C11515532   4.516   4.493   3.797
    3OL    H15R15533   4.624   4.479   3.790
    3OL    H15S15534   4.499   4.452   3.897
    3OL    C11615535   4.495   4.645   3.785
    3OL    H16R15536   4.394   4.676   3.812
    3OL    H16S15537   4.512   4.676   3.682
    3OL    C11715538   4.604   4.718   3.865
    3OL    H17R15539   4.698   4.703   3.810
    3OL    H17S15540   4.621   4.683   3.967
    3OL    C11815541   4.578   4.869   3.872
    3OL    H18R15542   4.597   4.898   3.768
    3OL    H18S15543   4.637   4.930   3.941
    3OL    H18T15544   4.474   4.883   3.899
    1PA    C11615545   4.547   0.199   4.453
    1PA    H16R15546   4.457   0.195   4.514
    1PA    H16S15547   4.631   0.242   4.508
    1PA    H16T15548   4.567   0.097   4.419
    1PA    C11515549   4.513   0.282   4.328
    1PA    H15R15550   4.413   0.255   4.293
    1PA    H15S15551   4.505   0.386   4.359
    1PA    C11415552   4.618   0.261   4.218
    1PA    H14R15553   4.719   0.295   4.243
    1PA    H14S15554   4.636   0.154   4.203
    1PA    C11315555   4.560   0.310   4.084
    1PA    H13R15556   4.631   0.272   4.010
    1PA    H13S15557   4.462   0.264   4.067
    1PA    C11215558   4.559   0.461   4.062
    1PA    H12R15559   4.496   0.523   4.126
    1PA    H12S15560   4.661   0.501   4.065
    1PA    C11115561   4.515   0.478   3.916
    1PA    H11R15562   4.589   0.432   3.851
    1PA    H11S15563   4.417   0.432   3.900
    1PA    C11015564   4.509   0.627   3.879
    1PA    H10R15565   4.448   0.678   3.953
    1PA    H10S15566   4.610   0.668   3.885
    1PA     C1915567   4.441   0.644   3.742
    1PA     H9R15568   4.345   0.592   3.739
    1PA     H9S15569   4.413   0.748   3.722
    1PA     C1815570   4.530   0.604   3.624
    1PA     H8R15571   4.621   0.662   3.637
    1PA     H8S15572   4.559   0.499   3.636
    1PA     C1715573   4.467   0.620   3.485
    1PA     H7R15574   4.436   0.724   3.475
    1PA     H7S15575   4.548   0.617   3.411
    1PA     C1615576   4.345   0.528   3.467
    1PA     H6R15577   4.379   0.427   3.488
    1PA     H6S15578   4.258   0.548   3.530
    1PA     C1515579   4.304   0.541   3.320
    1PA     H5R15580   4.292   0.648   3.300
    1PA     H5S15581   4.381   0.502   3.253
    1PA     C1415582   4.177   0.464   3.282
    1PA     H4R15583   4.181   0.357   3.301
    1PA     H4S15584   4.083   0.491   3.331
    1PA     C1315585   4.151   0.466   3.131
    1PA     H3R15586   4.148   0.567   3.089
    1PA     H3S15587   4.230   0.410   3.082
    1PA     C1215588   4.019   0.393   3.102
    1PA     H2R15589   4.035   0.287   3.122
    1PA     H2S15590   3.931   0.431   3.154
    2PC     C1115591   3.995   0.393   2.953
    2PC     O1215592   4.049   0.312   2.881
    2PC     O1115593   3.909   0.491   2.922
    2PC      C115594   3.897   0.508   2.779
    2PC      HR15595   3.998   0.513   2.737
    2PC      HS15596   3.835   0.430   2.735
    2PC      C215597   3.841   0.648   2.748
    2PC      HX15598   3.746   0.660   2.802
    2PC      C315599   3.806   0.665   2.600
    2PC      HA15600   3.735   0.589   2.566
    2PC      HB15601   3.766   0.764   2.577
    2PC     O3115602   3.932   0.646   2.532
    2PC     P3115603   3.932   0.649   2.372
    2PC     O3215604   3.930   0.490   2.353
    2PC     C3115605   4.039   0.401   2.379
    2PC     H1A15606   4.114   0.431   2.305
    2PC     H1B15607   4.091   0.421   2.473
    2PC     C3215608   4.012   0.250   2.367
    2PC     H2A15609   3.970   0.231   2.268
    2PC     H2B15610   4.104   0.200   2.397
    2PC     N3115611   3.915   0.187   2.463
    2PC     C3315612   3.774   0.228   2.431
    2PC     H3A15613   3.709   0.171   2.498
    2PC     H3B15614   3.766   0.336   2.441
    2PC     H3C15615   3.749   0.195   2.330
    2PC     C3415616   3.922   0.040   2.434
    2PC     H4A15617   3.894   0.034   2.329
    2PC     H4B15618   4.023   0.006   2.455
    2PC     H4C15619   3.849  -0.009   2.498
    2PC     C3515620   3.950   0.205   2.608
    2PC     H5A15621   3.873   0.146   2.658
    2PC     H5B15622   3.942   0.310   2.636
    2PC     H5C15623   4.048   0.166   2.632
    2PC     O3315624   3.814   0.707   2.304
    2PC     O3415625   4.052   0.711   2.312
    2PC     O2115626   3.939   0.745   2.789
    2PC     C2115627   3.902   0.874   2.794
    2PC     O2215628   3.790   0.917   2.773
    3OL     C1215629   4.023   0.955   2.833
    3OL     H2R15630   3.988   1.058   2.844
    3OL     H2S15631   4.109   0.943   2.767
    3OL     C1315632   4.064   0.918   2.977
    3OL     H3R15633   4.109   0.820   2.960
    3OL     H3S15634   3.979   0.919   3.045
    3OL     C1415635   4.168   1.017   3.031
    3OL     H4R15636   4.116   1.105   3.071
    3OL     H4S15637   4.237   1.050   2.953
    3OL     C1515638   4.234   0.950   3.152
    3OL     H5R15639   4.269   0.850   3.125
    3OL     H5S15640   4.167   0.942   3.238
    3OL     C1615641   4.355   1.036   3.191
    3OL     H6R15642   4.323   1.137   3.217
    3OL     H6S15643   4.417   1.051   3.102
    3OL     C1715644   4.443   0.971   3.299
    3OL     H7R15645   4.487   0.876   3.269
    3OL     H7S15646   4.380   0.942   3.384
    3OL     C1815647   4.557   1.060   3.352
    3OL     H8R15648   4.516   1.155   3.385
    3OL     H8S15649   4.633   1.073   3.274
    3OL     C1915650   4.612   0.986   3.471
    3OL     H9R15651   4.642   0.886   3.442
    3OL    C11015652   4.609   1.025   3.598
    3OL    H10R15653   4.649   0.953   3.670
    3OL    C11115654   4.548   1.153   3.649
    3OL    H11R15655   4.538   1.144   3.757
    3OL    H11S15656   4.453   1.161   3.595
    3OL    C11215657   4.622   1.280   3.605
    3OL    H12R15658   4.609   1.295   3.498
    3OL    H12S15659   4.730   1.269   3.616
    3OL    C11315660   4.563   1.411   3.659
    3OL    H13R15661   4.577   1.410   3.767
    3OL    H13S15662   4.455   1.405   3.641
    3OL    C11415663   4.620   1.543   3.605
    3OL    H14R15664   4.578   1.554   3.504
    3OL    H14S15665   4.728   1.535   3.614
    3OL    C11515666   4.562   1.654   3.693
    3OL    H15R15667   4.602   1.638   3.794
    3OL    H15S15668   4.455   1.635   3.693
    3OL    C11615669   4.602   1.789   3.631
    3OL    H16R15670   4.553   1.809   3.536
    3OL    H16S15671   4.711   1.801   3.627
    3OL    C11715672   4.574   1.911   3.720
    3OL    H17R15673   4.616   2.002   3.678
    3OL    H17S15674   4.631   1.886   3.810
    3OL    C11815675   4.423   1.934   3.741
    3OL    H18R15676   4.371   1.921   3.646
    3OL    H18S15677   4.412   2.033   3.784
    3OL    H18T15678   4.384   1.866   3.817
    1PA    C11615679   0.450   4.010   3.974
    1PA    H16R15680   0.543   4.061   3.948
    1PA    H16S15681   0.475   3.904   3.978
    1PA    H16T15682   0.421   4.041   4.074
    1PA    C11515683   0.345   4.040   3.866
    1PA    H15R15684   0.251   3.994   3.898
    1PA    H15S15685   0.320   4.147   3.871
    1PA    C11415686   0.390   3.988   3.729
    1PA    H14R15687   0.491   4.024   3.707
    1PA    H14S15688   0.391   3.879   3.723
    1PA    C11315689   0.275   4.031   3.637
    1PA    H13R15690   0.189   3.970   3.667
    1PA    H13S15691   0.252   4.136   3.651
    1PA    C11215692   0.296   4.011   3.487
    1PA    H12R15693   0.231   4.080   3.432
    1PA    H12S15694   0.397   4.045   3.460
    1PA    C11115695   0.268   3.865   3.449
    1PA    H11R15696   0.295   3.802   3.534
    1PA    H11S15697   0.159   3.862   3.447
    1PA    C11015698   0.319   3.807   3.316
    1PA    H10R15699   0.281   3.861   3.228
    1PA    H10S15700   0.427   3.796   3.306
    1PA     C1915701   0.265   3.665   3.299
    1PA     H9R15702   0.319   3.598   3.366
    1PA     H9S15703   0.160   3.663   3.329
    1PA     C1815704   0.290   3.617   3.155
    1PA     H8R15705   0.240   3.520   3.145
    1PA     H8S15706   0.244   3.690   3.089
    1PA     C1715707   0.437   3.608   3.112
    1PA     H7R15708   0.485   3.705   3.123
    1PA     H7S15709   0.492   3.540   3.177
    1PA     C1615710   0.455   3.575   2.963
    1PA     H6R15711   0.397   3.650   2.910
    1PA     H6S15712   0.559   3.583   2.930
    1PA     C1515713   0.411   3.432   2.929
    1PA     H5R15714   0.446   3.356   2.998
    1PA     H5S15715   0.303   3.424   2.943
    1PA     C1415716   0.459   3.384   2.791
    1PA     H4R15717   0.561   3.421   2.779
    1PA     H4S15718   0.469   3.275   2.792
    1PA     C1315719   0.352   3.429   2.691
    1PA     H3R15720   0.261   3.378   2.724
    1PA     H3S15721   0.341   3.538   2.691
    1PA     C1215722   0.389   3.381   2.550
    1PA     H2R15723   0.420   3.276   2.558
    1PA     H2S15724   0.310   3.378   2.475
    2PC     C1115725   0.501   3.460   2.489
    2PC     O1215726   0.599   3.510   2.541
    2PC     O1115727   0.487   3.457   2.355
    2PC      C115728   0.584   3.513   2.264
    2PC      HR15729   0.682   3.491   2.306
    2PC      HS15730   0.579   3.462   2.168
    2PC      C215731   0.563   3.664   2.245
    2PC      HX15732   0.456   3.686   2.249
    2PC      C315733   0.621   3.736   2.123
    2PC      HA15734   0.551   3.708   2.043
    2PC      HB15735   0.614   3.845   2.130
    2PC     O3115736   0.756   3.693   2.102
    2PC     P3115737   0.849   3.753   1.986
    2PC     O3215738   0.920   3.624   1.922
    2PC     C3115739   0.842   3.532   1.844
    2PC     H1A15740   0.779   3.471   1.909
    2PC     H1B15741   0.784   3.575   1.762
    2PC     C3215742   0.937   3.428   1.783
    2PC     H2A15743   0.995   3.375   1.859
    2PC     H2B15744   0.880   3.349   1.734
    2PC     N3115745   1.037   3.472   1.681
    2PC     C3315746   0.962   3.533   1.566
    2PC     H3A15747   1.044   3.574   1.507
    2PC     H3B15748   0.908   3.466   1.499
    2PC     H3C15749   0.895   3.602   1.617
    2PC     C3415750   1.137   3.574   1.726
    2PC     H4A15751   1.088   3.670   1.741
    2PC     H4B15752   1.192   3.536   1.812
    2PC     H4C15753   1.211   3.587   1.646
    2PC     C3515754   1.116   3.354   1.633
    2PC     H5A15755   1.158   3.309   1.723
    2PC     H5B15756   1.202   3.390   1.577
    2PC     H5C15757   1.051   3.283   1.580
    2PC     O3315758   0.777   3.830   1.882
    2PC     O3415759   0.945   3.854   2.034
    2PC     O2115760   0.622   3.737   2.355
    2PC     C2115761   0.561   3.839   2.416
    2PC     O2215762   0.454   3.891   2.390
    3OL     C1215763   0.647   3.899   2.524
    3OL     H2R15764   0.606   3.998   2.544
    3OL     H2S15765   0.747   3.915   2.482
    3OL     C1315766   0.651   3.810   2.649
    3OL     H3R15767   0.715   3.723   2.635
    3OL     H3S15768   0.560   3.769   2.693
    3OL     C1415769   0.724   3.888   2.760
    3OL     H4R15770   0.678   3.985   2.782
    3OL     H4S15771   0.819   3.911   2.711
    3OL     C1515772   0.767   3.813   2.886
    3OL     H5R15773   0.676   3.791   2.942
    3OL     H5S15774   0.828   3.882   2.946
    3OL     C1615775   0.844   3.683   2.860
    3OL     H6R15776   0.934   3.702   2.801
    3OL     H6S15777   0.782   3.620   2.795
    3OL     C1715778   0.875   3.609   2.991
    3OL     H7R15779   0.776   3.597   3.036
    3OL     H7S15780   0.927   3.672   3.064
    3OL     C1815781   0.941   3.471   2.994
    3OL     H8R15782   0.987   3.469   3.093
    3OL     H8S15783   1.021   3.462   2.921
    3OL     C1915784   0.840   3.360   2.971
    3OL     H9R15785   0.798   3.368   2.872
    3OL    C11015786   0.814   3.262   3.056
    3OL    H10R15787   0.747   3.180   3.030
    3OL    C11115788   0.867   3.236   3.194
    3OL    H11R15789   0.916   3.325   3.235
    3OL    H11S15790   0.947   3.161   3.196
    3OL    C11215791   0.753   3.189   3.286
    3OL    H12R15792   0.712   3.103   3.235
    3OL    H12S15793   0.683   3.272   3.285
    3OL    C11315794   0.805   3.145   3.424
    3OL    H13R15795   0.846   3.238   3.464
    3OL    H13S15796   0.880   3.067   3.409
    3OL    C11415797   0.689   3.108   3.518
    3OL    H14R15798   0.651   3.013   3.480
    3OL    H14S15799   0.621   3.190   3.494
    3OL    C11515800   0.749   3.099   3.658
    3OL    H15R15801   0.784   3.196   3.693
    3OL    H15S15802   0.834   3.030   3.658
    3OL    C11615803   0.637   3.054   3.753
    3OL    H16R15804   0.614   2.951   3.722
    3OL    H16S15805   0.554   3.122   3.734
    3OL    C11715806   0.681   3.049   3.900
    3OL    H17R15807   0.723   3.148   3.918
    3OL    H17S15808   0.767   2.982   3.908
    3OL    C11815809   0.567   2.999   3.991
    3OL    H18R15810   0.474   3.051   3.966
    3OL    H18S15811   0.592   3.020   4.095
    3OL    H18T15812   0.558   2.891   3.983
    1PA    C11615813   2.024   1.502   3.708
    1PA    H16R15814   1.968   1.500   3.801
    1PA    H16S15815   2.037   1.396   3.683
    1PA    H16T15816   1.963   1.546   3.629
    1PA    C11515817   2.157   1.576   3.728
    1PA    H15R15818   2.204   1.576   3.629
    1PA    H15S15819   2.139   1.680   3.754
    1PA    C11415820   2.247   1.511   3.834
    1PA    H14R15821   2.188   1.509   3.926
    1PA    H14S15822   2.266   1.409   3.799
    1PA    C11315823   2.369   1.597   3.867
    1PA    H13R15824   2.328   1.698   3.882
    1PA    H13S15825   2.407   1.553   3.960
    1PA    C11215826   2.483   1.598   3.764
    1PA    H12R15827   2.438   1.618   3.666
    1PA    H12S15828   2.549   1.673   3.807
    1PA    C11115829   2.549   1.459   3.754
    1PA    H11R15830   2.581   1.432   3.854
    1PA    H11S15831   2.489   1.377   3.714
    1PA    C11015832   2.674   1.481   3.668
    1PA    H10R15833   2.639   1.539   3.582
    1PA    H10S15834   2.748   1.533   3.729
    1PA     C1915835   2.731   1.348   3.617
    1PA     H9R15836   2.745   1.302   3.715
    1PA     H9S15837   2.662   1.286   3.558
    1PA     C1815838   2.868   1.364   3.549
    1PA     H8R15839   2.930   1.425   3.614
    1PA     H8S15840   2.901   1.260   3.540
    1PA     C1715841   2.847   1.419   3.407
    1PA     H7R15842   2.779   1.355   3.351
    1PA     H7S15843   2.810   1.522   3.411
    1PA     C1615844   2.983   1.433   3.337
    1PA     H6R15845   3.038   1.514   3.385
    1PA     H6S15846   3.038   1.340   3.333
    1PA     C1515847   2.952   1.466   3.190
    1PA     H5R15848   2.914   1.381   3.132
    1PA     H5S15849   2.878   1.546   3.197
    1PA     C1415850   3.081   1.512   3.122
    1PA     H4R15851   3.055   1.565   3.030
    1PA     H4S15852   3.124   1.584   3.193
    1PA     C1315853   3.173   1.392   3.093
    1PA     H3R15854   3.225   1.361   3.184
    1PA     H3S15855   3.112   1.302   3.081
    1PA     C1215856   3.283   1.411   2.988
    1PA     H2R15857   3.328   1.509   3.005
    1PA     H2S15858   3.359   1.333   2.997
    2PC     C1115859   3.226   1.409   2.848
    2PC     O1215860   3.215   1.311   2.778
    2PC     O1115861   3.194   1.533   2.808
    2PC      C115862   3.171   1.552   2.667
    2PC      HR15863   3.202   1.656   2.652
    2PC      HS15864   3.247   1.499   2.608
    2PC      C215865   3.029   1.522   2.618
    2PC      HX15866   3.009   1.414   2.621
    2PC      C315867   3.011   1.560   2.470
    2PC      HA15868   2.995   1.667   2.456
    2PC      HB15869   3.104   1.528   2.423
    2PC     O3115870   2.905   1.476   2.421
    2PC     P3115871   2.832   1.540   2.294
    2PC     O3215872   2.724   1.641   2.357
    2PC     C3115873   2.582   1.614   2.366
    2PC     H1A15874   2.532   1.598   2.270
    2PC     H1B15875   2.571   1.517   2.415
    2PC     C3215876   2.526   1.721   2.461
    2PC     H2A15877   2.601   1.732   2.539
    2PC     H2B15878   2.529   1.821   2.417
    2PC     N3115879   2.385   1.696   2.506
    2PC     C3315880   2.400   1.586   2.607
    2PC     H3A15881   2.316   1.593   2.676
    2PC     H3B15882   2.398   1.488   2.560
    2PC     H3C15883   2.493   1.602   2.663
    2PC     C3415884   2.341   1.823   2.571
    2PC     H4A15885   2.344   1.913   2.509
    2PC     H4B15886   2.241   1.793   2.603
    2PC     H4C15887   2.404   1.848   2.656
    2PC     C3515888   2.293   1.659   2.394
    2PC     H5A15889   2.308   1.724   2.308
    2PC     H5B15890   2.190   1.659   2.431
    2PC     H5C15891   2.310   1.558   2.358
    2PC     O3315892   2.922   1.616   2.205
    2PC     O3415893   2.761   1.436   2.216
    2PC     O2115894   2.938   1.588   2.706
    2PC     C2115895   2.821   1.533   2.744
    2PC     O2215896   2.789   1.425   2.699
    3OL     C1215897   2.743   1.620   2.839
    3OL     H2R15898   2.710   1.567   2.928
    3OL     H2S15899   2.641   1.635   2.801
    3OL     C1315900   2.812   1.751   2.879
    3OL     H3R15901   2.830   1.804   2.785
    3OL     H3S15902   2.905   1.722   2.929
    3OL     C1415903   2.734   1.838   2.978
    3OL     H4R15904   2.628   1.818   2.961
    3OL     H4S15905   2.757   1.943   2.958
    3OL     C1515906   2.770   1.796   3.121
    3OL     H5R15907   2.869   1.828   3.152
    3OL     H5S15908   2.756   1.687   3.119
    3OL     C1615909   2.669   1.850   3.223
    3OL     H6R15910   2.568   1.818   3.195
    3OL     H6S15911   2.678   1.959   3.231
    3OL     C1715912   2.695   1.794   3.363
    3OL     H7R15913   2.804   1.800   3.375
    3OL     H7S15914   2.662   1.690   3.370
    3OL     C1815915   2.615   1.862   3.475
    3OL     H8R15916   2.518   1.811   3.477
    3OL     H8S15917   2.599   1.969   3.460
    3OL     C1915918   2.688   1.843   3.605
    3OL     H9R15919   2.764   1.765   3.598
    3OL    C11015920   2.667   1.913   3.715
    3OL    H10R15921   2.737   1.892   3.795
    3OL    C11115922   2.578   2.035   3.722
    3OL    H11R15923   2.487   2.019   3.664
    3OL    H11S15924   2.641   2.117   3.685
    3OL    C11215925   2.544   2.072   3.867
    3OL    H12R15926   2.472   2.154   3.872
    3OL    H12S15927   2.632   2.113   3.917
    3OL    C11315928   2.484   1.947   3.933
    3OL    H13R15929   2.544   1.856   3.923
    3OL    H13S15930   2.390   1.926   3.881
    3OL    C11415931   2.456   1.970   4.082
    3OL    H14R15932   2.551   1.987   4.132
    3OL    H14S15933   2.424   1.878   4.132
    3OL    C11515934   2.355   2.079   4.118
    3OL    H15R15935   2.262   2.063   4.063
    3OL    H15S15936   2.384   2.177   4.078
    3OL    C11615937   2.340   2.103   4.269
    3OL    H16R15938   2.437   2.136   4.307
    3OL    H16S15939   2.326   2.013   4.330
    3OL    C11715940   2.232   2.208   4.300
    3OL    H17R15941   2.217   2.257   4.204
    3OL    H17S15942   2.276   2.277   4.372
    3OL    C11815943   2.102   2.146   4.354
    3OL    H18R15944   2.034   2.220   4.397
    3OL    H18S15945   2.127   2.082   4.439
    3OL    H18T15946   2.054   2.081   4.281
    1PA    C11615947   2.773   2.950   3.874
    1PA    H16R15948   2.705   2.928   3.792
    1PA    H16S15949   2.718   2.964   3.968
    1PA    H16T15950   2.840   2.864   3.881
    1PA    C11515951   2.853   3.069   3.819
    1PA    H15R15952   2.782   3.151   3.811
    1PA    H15S15953   2.921   3.115   3.892
    1PA    C11415954   2.927   3.030   3.690
    1PA    H14R15955   2.991   2.944   3.708
    1PA    H14S15956   2.840   2.993   3.635
    1PA    C11315957   2.994   3.143   3.610
    1PA    H13R15958   2.915   3.202   3.564
    1PA    H13S15959   3.054   3.212   3.669
    1PA    C11215960   3.076   3.079   3.497
    1PA    H12R15961   3.159   3.028   3.545
    1PA    H12S15962   3.016   3.004   3.444
    1PA    C11115963   3.136   3.186   3.405
    1PA    H11R15964   3.058   3.259   3.378
    1PA    H11S15965   3.216   3.237   3.459
    1PA    C11015966   3.198   3.139   3.273
    1PA    H10R15967   3.273   3.063   3.295
    1PA    H10S15968   3.125   3.090   3.208
    1PA     C1915969   3.273   3.251   3.199
    1PA     H9R15970   3.325   3.307   3.277
    1PA     H9S15971   3.353   3.214   3.134
    1PA     C1815972   3.188   3.344   3.111
    1PA     H8R15973   3.220   3.336   3.007
    1PA     H8S15974   3.084   3.321   3.135
    1PA     C1715975   3.199   3.495   3.137
    1PA     H7R15976   3.154   3.525   3.232
    1PA     H7S15977   3.304   3.522   3.144
    1PA     C1615978   3.151   3.580   3.018
    1PA     H6R15979   3.181   3.528   2.927
    1PA     H6S15980   3.042   3.573   3.019
    1PA     C1515981   3.210   3.722   3.022
    1PA     H5R15982   3.148   3.793   2.968
    1PA     H5S15983   3.219   3.759   3.124
    1PA     C1415984   3.349   3.719   2.955
    1PA     H4R15985   3.389   3.818   2.981
    1PA     H4S15986   3.416   3.648   3.003
    1PA     C1315987   3.349   3.709   2.802
    1PA     H3R15988   3.334   3.607   2.767
    1PA     H3S15989   3.263   3.767   2.769
    1PA     C1215990   3.473   3.772   2.736
    1PA     H2R15991   3.482   3.880   2.754
    1PA     H2S15992   3.555   3.725   2.789
    2PC     C1115993   3.461   3.763   2.586
    2PC     O1215994   3.361   3.802   2.529
    2PC     O1115995   3.563   3.694   2.532
    2PC      C115996   3.585   3.695   2.390
    2PC      HR15997   3.674   3.634   2.373
    2PC      HS15998   3.503   3.652   2.332
    2PC      C215999   3.614   3.838   2.341
    2PC      HX16000   3.521   3.888   2.312
    2PC      C316001   3.709   3.838   2.220
    2PC      HA16002   3.657   3.800   2.132
    2PC      HB16003   3.737   3.942   2.200
    2PC     O3116004   3.828   3.761   2.246
    2PC     P3116005   3.950   3.773   2.143
    2PC     O3216006   3.976   3.931   2.144
    2PC     C3116007   4.111   3.974   2.119
    2PC     H1A16008   4.177   3.952   2.203
    2PC     H1B16009   4.146   3.903   2.043
    2PC     C3216010   4.116   4.115   2.057
    2PC     H2A16011   4.112   4.197   2.129
    2PC     H2B16012   4.209   4.111   1.999
    2PC     N3116013   4.015   4.155   1.955
    2PC     C3316014   3.979   4.048   1.855
    2PC     H3A16015   3.936   3.963   1.908
    2PC     H3B16016   3.914   4.085   1.776
    2PC     H3C16017   4.070   4.007   1.812
    2PC     C3416018   3.880   4.191   2.011
    2PC     H4A16019   3.813   4.214   1.929
    2PC     H4B16020   3.849   4.099   2.060
    2PC     H4C16021   3.886   4.274   2.081
    2PC     C3516022   4.074   4.268   1.876
    2PC     H5A16023   4.084   4.350   1.948
    2PC     H5B16024   3.999   4.290   1.799
    2PC     H5C16025   4.164   4.233   1.826
    2PC     O3316026   4.069   3.697   2.188
    2PC     O3416027   3.921   3.738   2.002
    2PC     O2116028   3.689   3.916   2.436
    2PC     C2116029   3.657   4.044   2.460
    2PC     O2216030   3.565   4.095   2.399
    3OL     C1216031   3.731   4.108   2.574
    3OL     H2R16032   3.682   4.075   2.666
    3OL     H2S16033   3.721   4.217   2.569
    3OL     C1316034   3.877   4.064   2.595
    3OL     H3R16035   3.867   3.962   2.633
    3OL     H3S16036   3.917   4.126   2.675
    3OL     C1416037   3.957   4.062   2.464
    3OL     H4R16038   3.961   4.157   2.411
    3OL     H4S16039   3.918   3.990   2.392
    3OL     C1516040   4.103   4.020   2.487
    3OL     H5R16041   4.140   4.064   2.580
    3OL     H5S16042   4.180   4.056   2.418
    3OL     C1616043   4.115   3.868   2.507
    3OL     H6R16044   4.086   3.815   2.416
    3OL     H6S16045   4.050   3.834   2.587
    3OL     C1716046   4.257   3.822   2.543
    3OL     H7R16047   4.300   3.868   2.632
    3OL     H7S16048   4.318   3.849   2.457
    3OL     C1816049   4.254   3.669   2.561
    3OL     H8R16050   4.217   3.609   2.478
    3OL     H8S16051   4.181   3.642   2.638
    3OL     C1916052   4.387   3.609   2.600
    3OL     H9R16053   4.470   3.656   2.549
    3OL    C11016054   4.414   3.520   2.693
    3OL    H10R16055   4.519   3.493   2.708
    3OL    C11116056   4.310   3.453   2.780
    3OL    H11R16057   4.225   3.427   2.716
    3OL    H11S16058   4.287   3.524   2.859
    3OL    C11216059   4.379   3.327   2.836
    3OL    H12R16060   4.467   3.351   2.897
    3OL    H12S16061   4.402   3.258   2.755
    3OL    C11316062   4.281   3.259   2.932
    3OL    H13R16063   4.300   3.151   2.929
    3OL    H13S16064   4.184   3.277   2.886
    3OL    C11416065   4.286   3.311   3.076
    3OL    H14R16066   4.283   3.420   3.077
    3OL    H14S16067   4.385   3.278   3.109
    3OL    C11516068   4.195   3.257   3.187
    3OL    H15R16069   4.232   3.285   3.286
    3OL    H15S16070   4.185   3.149   3.191
    3OL    C11616071   4.054   3.316   3.173
    3OL    H16R16072   4.006   3.293   3.077
    3OL    H16S16073   4.065   3.424   3.187
    3OL    C11716074   3.962   3.250   3.277
    3OL    H17R16075   3.977   3.278   3.381
    3OL    H17S16076   3.989   3.144   3.267
    3OL    C11816077   3.815   3.276   3.242
    3OL    H18R16078   3.800   3.265   3.134
    3OL    H18S16079   3.799   3.382   3.266
    3OL    H18T16080   3.750   3.207   3.296
    1PA    C11616081   0.636   4.861   3.828
    1PA    H16R16082   0.606   4.756   3.837
    1PA    H16S16083   0.616   4.913   3.922
    1PA    H16T16084   0.742   4.849   3.805
    1PA    C11516085   0.559   4.938   3.720
    1PA    H15R16086   0.589   4.920   3.617
    1PA    H15S16087   0.454   4.909   3.734
    1PA    C11416088   0.588   5.088   3.731
    1PA    H14R16089   0.549   5.121   3.828
    1PA    H14S16090   0.695   5.103   3.716
    1PA    C11316091   0.513   5.168   3.624
    1PA    H13R16092   0.557   5.172   3.524
    1PA    H13S16093   0.418   5.118   3.604
    1PA    C11216094   0.485   5.312   3.669
    1PA    H12R16095   0.460   5.308   3.775
    1PA    H12S16096   0.571   5.380   3.671
    1PA    C11116097   0.381   5.384   3.582
    1PA    H11R16098   0.294   5.321   3.598
    1PA    H11S16099   0.371   5.489   3.611
    1PA    C11016100   0.429   5.387   3.436
    1PA    H10R16101   0.515   5.453   3.428
    1PA    H10S16102   0.455   5.288   3.397
    1PA     C1916103   0.312   5.445   3.355
    1PA     H9R16104   0.237   5.367   3.365
    1PA     H9S16105   0.272   5.530   3.411
    1PA     C1816106   0.341   5.479   3.208
    1PA     H8R16107   0.435   5.534   3.205
    1PA     H8S16108   0.356   5.391   3.146
    1PA     C1716109   0.243   5.572   3.135
    1PA     H7R16110   0.148   5.522   3.118
    1PA     H7S16111   0.224   5.663   3.193
    1PA     C1616112   0.292   5.612   2.995
    1PA     H6R16113   0.369   5.687   3.013
    1PA     H6S16114   0.339   5.528   2.943
    1PA     C1516115   0.189   5.689   2.911
    1PA     H5R16116   0.099   5.631   2.890
    1PA     H5S16117   0.149   5.774   2.966
    1PA     C1416118   0.236   5.725   2.769
    1PA     H4R16119   0.175   5.812   2.743
    1PA     H4S16120   0.338   5.762   2.766
    1PA     C1316121   0.220   5.606   2.674
    1PA     H3R16122   0.261   5.512   2.713
    1PA     H3S16123   0.112   5.600   2.666
    1PA     C1216124   0.273   5.638   2.533
    1PA     H2R16125   0.251   5.740   2.500
    1PA     H2S16126   0.382   5.641   2.538
    2PC     C1116127   0.241   5.526   2.438
    2PC     O1216128   0.133   5.477   2.414
    2PC     O1116129   0.348   5.486   2.366
    2PC      C116130   0.330   5.396   2.255
    2PC      HR16131   0.313   5.298   2.302
    2PC      HS16132   0.241   5.432   2.202
    2PC      C216133   0.459   5.397   2.173
    2PC      HX16134   0.488   5.501   2.154
    2PC      C316135   0.448   5.325   2.038
    2PC      HA16136   0.392   5.383   1.964
    2PC      HB16137   0.546   5.297   2.000
    2PC     O3116138   0.374   5.204   2.067
    2PC     P3116139   0.278   5.149   1.952
    2PC     O3216140   0.207   5.041   2.047
    2PC     C3116141   0.108   4.957   1.983
    2PC     H1A16142   0.029   5.025   1.951
    2PC     H1B16143   0.148   4.892   1.905
    2PC     C3216144   0.039   4.876   2.094
    2PC     H2A16145   0.024   4.944   2.178
    2PC     H2B16146  -0.057   4.834   2.063
    2PC     N3116147   0.113   4.752   2.135
    2PC     C3316148   0.126   4.653   2.023
    2PC     H3A16149   0.199   4.688   1.950
    2PC     H3B16150   0.150   4.555   2.064
    2PC     H3C16151   0.029   4.636   1.977
    2PC     C3416152   0.249   4.779   2.193
    2PC     H4A16153   0.262   4.690   2.255
    2PC     H4B16154   0.322   4.784   2.112
    2PC     H4C16155   0.252   4.875   2.244
    2PC     C3516156   0.029   4.705   2.250
    2PC     H5A16157   0.089   4.623   2.289
    2PC     H5B16158  -0.068   4.679   2.208
    2PC     H5C16159   0.024   4.789   2.320
    2PC     O3316160   0.180   5.246   1.900
    2PC     O3416161   0.345   5.100   1.829
    2PC     O2116162   0.560   5.334   2.253
    2PC     C2116163   0.687   5.368   2.224
    2PC     O2216164   0.719   5.458   2.150
    3OL     C1216165   0.777   5.279   2.305
    3OL     H2R16166   0.756   5.176   2.273
    3OL     H2S16167   0.739   5.293   2.406
    3OL     C1316168   0.924   5.320   2.288
    3OL     H3R16169   0.932   5.419   2.335
    3OL     H3S16170   0.958   5.322   2.184
    3OL     C1416171   1.000   5.222   2.378
    3OL     H4R16172   1.108   5.231   2.369
    3OL     H4S16173   0.985   5.119   2.345
    3OL     C1516174   0.954   5.233   2.524
    3OL     H5R16175   0.851   5.207   2.547
    3OL     H5S16176   0.966   5.338   2.551
    3OL     C1616177   1.043   5.149   2.617
    3OL     H6R16178   1.143   5.192   2.617
    3OL     H6S16179   1.055   5.044   2.588
    3OL     C1716180   1.007   5.152   2.766
    3OL     H7R16181   1.089   5.101   2.817
    3OL     H7S16182   0.913   5.101   2.790
    3OL     C1816183   1.012   5.296   2.818
    3OL     H8R16184   0.949   5.359   2.755
    3OL     H8S16185   1.111   5.337   2.797
    3OL     C1916186   0.989   5.295   2.967
    3OL     H9R16187   0.905   5.239   3.006
    3OL    C11016188   1.073   5.342   3.058
    3OL    H10R16189   1.052   5.339   3.165
    3OL    C11116190   1.199   5.416   3.019
    3OL    H11R16191   1.230   5.485   3.099
    3OL    H11S16192   1.186   5.463   2.922
    3OL    C11216193   1.301   5.304   2.997
    3OL    H12R16194   1.252   5.231   2.933
    3OL    H12S16195   1.313   5.256   3.095
    3OL    C11316196   1.432   5.355   2.936
    3OL    H13R16197   1.414   5.418   2.848
    3OL    H13S16198   1.495   5.279   2.890
    3OL    C11416199   1.507   5.438   3.041
    3OL    H14R16200   1.505   5.385   3.136
    3OL    H14S16201   1.469   5.539   3.055
    3OL    C11516202   1.653   5.455   2.996
    3OL    H15R16203   1.668   5.512   2.904
    3OL    H15S16204   1.698   5.356   2.985
    3OL    C11616205   1.723   5.520   3.116
    3OL    H16R16206   1.704   5.473   3.213
    3OL    H16S16207   1.691   5.624   3.126
    3OL    C11716208   1.873   5.519   3.086
    3OL    H17R16209   1.878   5.605   3.018
    3OL    H17S16210   1.915   5.438   3.026
    3OL    C11816211   1.962   5.558   3.205
    3OL    H18R16212   1.936   5.657   3.246
    3OL    H18S16213   2.065   5.564   3.169
    3OL    H18T16214   1.949   5.479   3.280
    1PA    C11616215   2.089   2.889   3.806
    1PA    H16R16216   2.116   2.993   3.785
    1PA    H16S16217   2.021   2.894   3.891
    1PA    H16T16218   2.035   2.850   3.719
    1PA    C11516219   2.205   2.794   3.841
    1PA    H15R16220   2.244   2.821   3.939
    1PA    H15S16221   2.157   2.697   3.846
    1PA    C11416222   2.327   2.786   3.748
    1PA    H14R16223   2.293   2.737   3.657
    1PA    H14S16224   2.363   2.884   3.718
    1PA    C11316225   2.448   2.708   3.802
    1PA    H13R16226   2.490   2.760   3.888
    1PA    H13S16227   2.411   2.608   3.824
    1PA    C11216228   2.550   2.692   3.688
    1PA    H12R16229   2.483   2.674   3.604
    1PA    H12S16230   2.605   2.784   3.665
    1PA    C11116231   2.652   2.581   3.714
    1PA    H11R16232   2.701   2.598   3.810
    1PA    H11S16233   2.586   2.495   3.720
    1PA    C11016234   2.760   2.574   3.604
    1PA    H10R16235   2.806   2.474   3.602
    1PA    H10S16236   2.714   2.582   3.506
    1PA     C1916237   2.870   2.681   3.615
    1PA     H9R16238   2.837   2.778   3.579
    1PA     H9S16239   2.879   2.690   3.724
    1PA     C1816240   3.007   2.648   3.556
    1PA     H8R16241   3.077   2.729   3.578
    1PA     H8S16242   3.039   2.559   3.611
    1PA     C1716243   3.003   2.616   3.406
    1PA     H7R16244   3.095   2.570   3.371
    1PA     H7S16245   2.915   2.556   3.380
    1PA     C1616246   2.987   2.746   3.325
    1PA     H6R16247   2.893   2.795   3.351
    1PA     H6S16248   3.070   2.810   3.355
    1PA     C1516249   2.980   2.720   3.173
    1PA     H5R16250   3.071   2.668   3.141
    1PA     H5S16251   2.897   2.653   3.153
    1PA     C1416252   2.956   2.846   3.089
    1PA     H4R16253   2.867   2.891   3.136
    1PA     H4S16254   3.037   2.918   3.100
    1PA     C1316255   2.934   2.815   2.941
    1PA     H3R16256   3.028   2.775   2.901
    1PA     H3S16257   2.860   2.734   2.934
    1PA     C1216258   2.878   2.935   2.863
    1PA     H2R16259   2.771   2.949   2.882
    1PA     H2S16260   2.934   3.018   2.907
    2PC     C1116261   2.892   2.931   2.713
    2PC     O1216262   2.803   2.976   2.645
    2PC     O1116263   3.007   2.874   2.672
    2PC      C116264   3.036   2.856   2.533
    2PC      HR16265   2.942   2.833   2.480
    2PC      HS16266   3.074   2.951   2.494
    2PC      C216267   3.145   2.750   2.509
    2PC      HX16268   3.241   2.781   2.550
    2PC      C316269   3.168   2.720   2.360
    2PC      HA16270   3.212   2.805   2.307
    2PC      HB16271   3.242   2.640   2.355
    2PC     O3116272   3.053   2.679   2.285
    2PC     P3116273   3.080   2.606   2.145
    2PC     O3216274   3.075   2.737   2.052
    2PC     C3116275   3.192   2.773   1.976
    2PC     H1A16276   3.267   2.800   2.051
    2PC     H1B16277   3.229   2.688   1.918
    2PC     C3216278   3.152   2.875   1.869
    2PC     H2A16279   3.108   2.953   1.932
    2PC     H2B16280   3.240   2.911   1.816
    2PC     N3116281   3.061   2.834   1.757
    2PC     C3316282   2.916   2.820   1.793
    2PC     H3A16283   2.882   2.899   1.860
    2PC     H3B16284   2.857   2.811   1.701
    2PC     H3C16285   2.921   2.724   1.845
    2PC     C3416286   3.063   2.948   1.660
    2PC     H4A16287   3.027   3.042   1.703
    2PC     H4B16288   3.162   2.951   1.615
    2PC     H4C16289   3.001   2.920   1.575
    2PC     C3516290   3.105   2.702   1.701
    2PC     H5A16291   3.125   2.625   1.776
    2PC     H5B16292   3.202   2.719   1.654
    2PC     H5C16293   3.038   2.653   1.630
    2PC     O3316294   3.211   2.538   2.145
    2PC     O3416295   2.991   2.493   2.111
    2PC     O2116296   3.103   2.633   2.582
    2PC     C2116297   3.203   2.557   2.631
    2PC     O2216298   3.319   2.576   2.601
    3OL     C1216299   3.156   2.446   2.722
    3OL     H2R16300   3.129   2.352   2.674
    3OL     H2S16301   3.071   2.493   2.773
    3OL     C1316302   3.269   2.422   2.822
    3OL     H3R16303   3.312   2.511   2.868
    3OL     H3S16304   3.352   2.378   2.765
    3OL     C1416305   3.228   2.332   2.939
    3OL     H4R16306   3.313   2.269   2.970
    3OL     H4S16307   3.155   2.262   2.898
    3OL     C1516308   3.172   2.413   3.057
    3OL     H5R16309   3.115   2.494   3.011
    3OL     H5S16310   3.259   2.455   3.106
    3OL     C1616311   3.092   2.329   3.157
    3OL     H6R16312   3.106   2.369   3.258
    3OL     H6S16313   3.129   2.226   3.159
    3OL     C1716314   2.945   2.327   3.115
    3OL     H7R16315   2.924   2.258   3.032
    3OL     H7S16316   2.903   2.426   3.094
    3OL     C1816317   2.865   2.277   3.236
    3OL     H8R16318   2.759   2.291   3.215
    3OL     H8S16319   2.889   2.341   3.322
    3OL     C1916320   2.892   2.132   3.268
    3OL     H9R16321   2.889   2.075   3.176
    3OL    C11016322   2.927   2.083   3.386
    3OL    H10R16323   2.943   1.976   3.384
    3OL    C11116324   2.910   2.156   3.517
    3OL    H11R16325   2.866   2.098   3.598
    3OL    H11S16326   2.837   2.237   3.514
    3OL    C11216327   3.045   2.219   3.553
    3OL    H12R16328   3.075   2.297   3.482
    3OL    H12S16329   3.119   2.139   3.543
    3OL    C11316330   3.046   2.277   3.695
    3OL    H13R16331   2.970   2.355   3.704
    3OL    H13S16332   3.139   2.332   3.710
    3OL    C11416333   3.026   2.174   3.807
    3OL    H14R16334   3.095   2.092   3.788
    3OL    H14S16335   2.927   2.128   3.802
    3OL    C11516336   3.057   2.217   3.951
    3OL    H15R16337   2.985   2.296   3.971
    3OL    H15S16338   3.157   2.259   3.966
    3OL    C11616339   3.036   2.102   4.052
    3OL    H16R16340   3.102   2.020   4.025
    3OL    H16S16341   2.936   2.060   4.043
    3OL    C11716342   3.067   2.135   4.199
    3OL    H17R16343   3.009   2.217   4.241
    3OL    H17S16344   3.168   2.175   4.214
    3OL    C11816345   3.058   2.014   4.293
    3OL    H18R16346   3.141   1.943   4.285
    3OL    H18S16347   2.965   1.962   4.268
    3OL    H18T16348   3.043   2.038   4.398
    1PA    C11616349   1.418   2.032   3.829
    1PA    H16R16350   1.508   2.079   3.868
    1PA    H16S16351   1.410   1.928   3.861
    1PA    H16T16352   1.338   2.083   3.883
    1PA    C11516353   1.403   2.046   3.677
    1PA    H15R16354   1.456   1.969   3.620
    1PA    H15S16355   1.297   2.032   3.655
    1PA    C11416356   1.460   2.181   3.633
    1PA    H14R16357   1.425   2.195   3.531
    1PA    H14S16358   1.426   2.265   3.695
    1PA    C11316359   1.613   2.179   3.614
    1PA    H13R16360   1.667   2.141   3.701
    1PA    H13S16361   1.633   2.109   3.533
    1PA    C11216362   1.665   2.315   3.566
    1PA    H12R16363   1.605   2.345   3.480
    1PA    H12S16364   1.645   2.382   3.650
    1PA    C11116365   1.816   2.307   3.541
    1PA    H11R16366   1.874   2.269   3.626
    1PA    H11S16367   1.824   2.250   3.449
    1PA    C11016368   1.877   2.446   3.523
    1PA    H10R16369   1.838   2.472   3.424
    1PA    H10S16370   1.836   2.517   3.595
    1PA     C1916371   2.031   2.448   3.525
    1PA     H9R16372   2.070   2.388   3.608
    1PA     H9S16373   2.067   2.395   3.437
    1PA     C1816374   2.091   2.589   3.532
    1PA     H8R16375   2.042   2.649   3.608
    1PA     H8S16376   2.194   2.579   3.567
    1PA     C1716377   2.079   2.659   3.396
    1PA     H7R16378   2.131   2.604   3.317
    1PA     H7S16379   1.974   2.656   3.368
    1PA     C1616380   2.119   2.807   3.400
    1PA     H6R16381   2.044   2.850   3.468
    1PA     H6S16382   2.216   2.830   3.444
    1PA     C1516383   2.107   2.869   3.260
    1PA     H5R16384   2.017   2.844   3.203
    1PA     H5S16385   2.090   2.975   3.282
    1PA     C1416386   2.228   2.845   3.170
    1PA     H4R16387   2.322   2.877   3.216
    1PA     H4S16388   2.242   2.741   3.137
    1PA     C1316389   2.196   2.931   3.047
    1PA     H3R16390   2.155   3.030   3.068
    1PA     H3S16391   2.290   2.942   2.992
    1PA     C1216392   2.090   2.867   2.956
    1PA     H2R16393   2.096   2.759   2.942
    1PA     H2S16394   1.991   2.908   2.978
    2PC     C1116395   2.097   2.916   2.813
    2PC     O1216396   2.176   3.003   2.779
    2PC     O1116397   2.017   2.846   2.731
    2PC      C116398   2.027   2.862   2.589
    2PC      HR16399   1.947   2.809   2.537
    2PC      HS16400   2.036   2.970   2.570
    2PC      C216401   2.153   2.786   2.545
    2PC      HX16402   2.243   2.830   2.588
    2PC      C316403   2.173   2.805   2.393
    2PC      HA16404   2.147   2.906   2.362
    2PC      HB16405   2.275   2.782   2.364
    2PC     O3116406   2.091   2.712   2.320
    2PC     P3116407   2.098   2.721   2.160
    2PC     O3216408   2.211   2.610   2.134
    2PC     C3116409   2.227   2.559   2.000
    2PC     H1A16410   2.133   2.524   1.956
    2PC     H1B16411   2.255   2.642   1.935
    2PC     C3216412   2.343   2.459   2.004
    2PC     H2A16413   2.374   2.450   1.900
    2PC     H2B16414   2.427   2.499   2.063
    2PC     N3116415   2.324   2.328   2.073
    2PC     C3316416   2.278   2.344   2.215
    2PC     H3A16417   2.329   2.430   2.259
    2PC     H3B16418   2.171   2.350   2.197
    2PC     H3C16419   2.304   2.252   2.266
    2PC     C3416420   2.230   2.237   1.998
    2PC     H4A16421   2.285   2.192   1.915
    2PC     H4B16422   2.192   2.161   2.066
    2PC     H4C16423   2.143   2.295   1.968
    2PC     C3516424   2.458   2.260   2.074
    2PC     H5A16425   2.532   2.327   2.118
    2PC     H5B16426   2.493   2.228   1.976
    2PC     H5C16427   2.449   2.174   2.141
    2PC     O3316428   1.957   2.706   2.116
    2PC     O3416429   2.153   2.847   2.106
    2PC     O2116430   2.148   2.649   2.589
    2PC     C2116431   2.209   2.617   2.704
    2PC     O2216432   2.256   2.705   2.774
    3OL     C1216433   2.183   2.474   2.745
    3OL     H2R16434   2.276   2.425   2.714
    3OL     H2S16435   2.110   2.416   2.688
    3OL     C1316436   2.160   2.461   2.896
    3OL     H3R16437   2.207   2.538   2.956
    3OL     H3S16438   2.218   2.372   2.921
    3OL     C1416439   2.012   2.442   2.932
    3OL     H4R16440   1.962   2.367   2.871
    3OL     H4S16441   1.961   2.538   2.924
    3OL     C1516442   1.995   2.386   3.074
    3OL     H5R16443   2.012   2.459   3.154
    3OL     H5S16444   2.073   2.311   3.091
    3OL     C1616445   1.850   2.338   3.088
    3OL     H6R16446   1.841   2.278   3.179
    3OL     H6S16447   1.832   2.274   3.001
    3OL     C1716448   1.743   2.448   3.093
    3OL     H7R16449   1.754   2.506   3.001
    3OL     H7S16450   1.772   2.511   3.178
    3OL     C1816451   1.605   2.382   3.096
    3OL     H8R16452   1.579   2.340   3.193
    3OL     H8S16453   1.588   2.308   3.017
    3OL     C1916454   1.504   2.485   3.052
    3OL     H9R16455   1.518   2.513   2.948
    3OL    C11016456   1.407   2.533   3.129
    3OL    H10R16457   1.340   2.603   3.080
    3OL    C11116458   1.391   2.504   3.276
    3OL    H11R16459   1.400   2.594   3.338
    3OL    H11S16460   1.452   2.426   3.320
    3OL    C11216461   1.244   2.461   3.289
    3OL    H12R16462   1.229   2.366   3.236
    3OL    H12S16463   1.177   2.533   3.242
    3OL    C11316464   1.200   2.445   3.436
    3OL    H13R16465   1.196   2.538   3.492
    3OL    H13S16466   1.280   2.382   3.476
    3OL    C11416467   1.071   2.365   3.455
    3OL    H14R16468   1.074   2.284   3.382
    3OL    H14S16469   0.989   2.431   3.424
    3OL    C11516470   1.064   2.307   3.598
    3OL    H15R16471   1.059   2.384   3.676
    3OL    H15S16472   1.142   2.235   3.621
    3OL    C11616473   0.929   2.236   3.610
    3OL    H16R16474   0.919   2.164   3.529
    3OL    H16S16475   0.854   2.316   3.604
    3OL    C11716476   0.918   2.162   3.744
    3OL    H17R16477   0.932   2.235   3.825
    3OL    H17S16478   0.985   2.076   3.751
    3OL    C11816479   0.777   2.102   3.749
    3OL    H18R16480   0.750   2.050   3.656
    3OL    H18S16481   0.708   2.184   3.773
    3OL    H18T16482   0.771   2.031   3.831
    1PA    C11616483   2.794   3.950   3.824
    1PA    H16R16484   2.846   4.027   3.767
    1PA    H16S16485   2.859   3.862   3.826
    1PA    H16T16486   2.777   3.991   3.924
    1PA    C11516487   2.664   3.895   3.764
    1PA    H15R16488   2.603   3.982   3.736
    1PA    H15S16489   2.685   3.844   3.670
    1PA    C11416490   2.574   3.809   3.854
    1PA    H14R16491   2.535   3.869   3.937
    1PA    H14S16492   2.496   3.765   3.792
    1PA    C11316493   2.652   3.687   3.907
    1PA    H13R16494   2.749   3.724   3.941
    1PA    H13S16495   2.601   3.651   3.996
    1PA    C11216496   2.678   3.581   3.799
    1PA    H12R16497   2.724   3.629   3.713
    1PA    H12S16498   2.756   3.512   3.834
    1PA    C11116499   2.554   3.496   3.769
    1PA    H11R16500   2.504   3.462   3.860
    1PA    H11S16501   2.480   3.552   3.711
    1PA    C11016502   2.589   3.378   3.678
    1PA    H10R16503   2.597   3.415   3.576
    1PA    H10S16504   2.689   3.344   3.707
    1PA     C1916505   2.494   3.258   3.691
    1PA     H9R16506   2.500   3.226   3.795
    1PA     H9S16507   2.390   3.281   3.668
    1PA     C1816508   2.532   3.135   3.606
    1PA     H8R16509   2.636   3.121   3.634
    1PA     H8S16510   2.471   3.048   3.630
    1PA     C1716511   2.539   3.165   3.456
    1PA     H7R16512   2.449   3.217   3.424
    1PA     H7S16513   2.621   3.235   3.436
    1PA     C1616514   2.558   3.040   3.368
    1PA     H6R16515   2.651   2.992   3.397
    1PA     H6S16516   2.472   2.975   3.389
    1PA     C1516517   2.579   3.066   3.218
    1PA     H5R16518   2.678   3.110   3.203
    1PA     H5S16519   2.584   2.969   3.168
    1PA     C1416520   2.461   3.140   3.155
    1PA     H4R16521   2.372   3.079   3.168
    1PA     H4S16522   2.440   3.236   3.202
    1PA     C1316523   2.493   3.151   3.005
    1PA     H3R16524   2.584   3.211   2.993
    1PA     H3S16525   2.502   3.050   2.966
    1PA     C1216526   2.384   3.231   2.931
    1PA     H2R16527   2.290   3.178   2.918
    1PA     H2S16528   2.373   3.320   2.994
    2PC     C1116529   2.429   3.278   2.795
    2PC     O1216530   2.535   3.246   2.745
    2PC     O1116531   2.345   3.360   2.730
    2PC      C116532   2.388   3.408   2.601
    2PC      HR16533   2.490   3.445   2.608
    2PC      HS16534   2.391   3.317   2.541
    2PC      C216535   2.295   3.511   2.535
    2PC      HX16536   2.198   3.462   2.528
    2PC      C316537   2.343   3.559   2.397
    2PC      HA16538   2.436   3.607   2.427
    2PC      HB16539   2.366   3.470   2.338
    2PC     O3116540   2.252   3.653   2.335
    2PC     P3116541   2.284   3.714   2.191
    2PC     O3216542   2.297   3.579   2.107
    2PC     C3116543   2.172   3.513   2.080
    2PC     H1A16544   2.123   3.489   2.174
    2PC     H1B16545   2.099   3.570   2.021
    2PC     C3216546   2.195   3.379   2.008
    2PC     H2A16547   2.263   3.309   2.055
    2PC     H2B16548   2.099   3.328   1.997
    2PC     N3116549   2.253   3.386   1.870
    2PC     C3316550   2.400   3.415   1.881
    2PC     H3A16551   2.426   3.351   1.965
    2PC     H3B16552   2.445   3.394   1.784
    2PC     H3C16553   2.407   3.516   1.922
    2PC     C3416554   2.254   3.246   1.815
    2PC     H4A16555   2.152   3.215   1.793
    2PC     H4B16556   2.321   3.233   1.730
    2PC     H4C16557   2.283   3.185   1.901
    2PC     C3516558   2.191   3.487   1.778
    2PC     H5A16559   2.238   3.584   1.795
    2PC     H5B16560   2.084   3.499   1.794
    2PC     H5C16561   2.217   3.450   1.679
    2PC     O3316562   2.175   3.798   2.137
    2PC     O3416563   2.406   3.797   2.208
    2PC     O2116564   2.294   3.626   2.621
    2PC     C2116565   2.195   3.649   2.710
    2PC     O2216566   2.100   3.575   2.714
    3OL     C1216567   2.220   3.769   2.798
    3OL     H2R16568   2.157   3.856   2.781
    3OL     H2S16569   2.322   3.806   2.781
    3OL     C1316570   2.228   3.727   2.946
    3OL     H3R16571   2.289   3.802   2.996
    3OL     H3S16572   2.273   3.628   2.953
    3OL     C1416573   2.085   3.722   3.000
    3OL     H4R16574   2.027   3.640   2.957
    3OL     H4S16575   2.026   3.812   2.980
    3OL     C1516576   2.082   3.713   3.153
    3OL     H5R16577   2.138   3.794   3.201
    3OL     H5S16578   2.134   3.624   3.190
    3OL     C1616579   1.942   3.721   3.214
    3OL     H6R16580   1.886   3.795   3.156
    3OL     H6S16581   1.950   3.757   3.316
    3OL     C1716582   1.864   3.588   3.217
    3OL     H7R16583   1.920   3.501   3.250
    3OL     H7S16584   1.819   3.575   3.119
    3OL     C1816585   1.742   3.608   3.308
    3OL     H8R16586   1.696   3.695   3.261
    3OL     H8S16587   1.779   3.631   3.409
    3OL     C1916588   1.651   3.488   3.312
    3OL     H9R16589   1.674   3.403   3.248
    3OL    C11016590   1.546   3.486   3.393
    3OL    H10R16591   1.481   3.399   3.401
    3OL    C11116592   1.504   3.605   3.476
    3OL    H11R16593   1.403   3.627   3.441
    3OL    H11S16594   1.567   3.693   3.461
    3OL    C11216595   1.501   3.569   3.625
    3OL    H12R16596   1.602   3.558   3.663
    3OL    H12S16597   1.445   3.476   3.637
    3OL    C11316598   1.443   3.683   3.709
    3OL    H13R16599   1.482   3.779   3.676
    3OL    H13S16600   1.470   3.681   3.815
    3OL    C11416601   1.291   3.699   3.690
    3OL    H14R16602   1.246   3.611   3.736
    3OL    H14S16603   1.273   3.693   3.582
    3OL    C11516604   1.236   3.832   3.743
    3OL    H15R16605   1.282   3.914   3.687
    3OL    H15S16606   1.275   3.856   3.842
    3OL    C11616607   1.084   3.834   3.725
    3OL    H16R16608   1.031   3.746   3.762
    3OL    H16S16609   1.063   3.844   3.618
    3OL    C11716610   1.024   3.957   3.796
    3OL    H17R16611   1.071   4.038   3.741
    3OL    H17S16612   1.051   3.972   3.901
    3OL    C11816613   0.872   3.962   3.781
    3OL    H18R16614   0.828   3.878   3.836
    3OL    H18S16615   0.845   3.962   3.675
    3OL    H18T16616   0.828   4.052   3.826
    1PA    C11616617   2.496   3.401   4.364
    1PA    H16R16618   2.555   3.364   4.449
    1PA    H16S16619   2.408   3.337   4.351
    1PA    H16T16620   2.473   3.507   4.378
    1PA    C11516621   2.586   3.388   4.240
    1PA    H15R16622   2.544   3.411   4.142
    1PA    H15S16623   2.666   3.462   4.239
    1PA    C11416624   2.643   3.246   4.225
    1PA    H14R16625   2.698   3.228   4.133
    1PA    H14S16626   2.706   3.222   4.311
    1PA    C11316627   2.539   3.133   4.222
    1PA    H13R16628   2.593   3.039   4.211
    1PA    H13S16629   2.485   3.141   4.316
    1PA    C11216630   2.449   3.146   4.098
    1PA    H12R16631   2.483   3.215   4.020
    1PA    H12S16632   2.443   3.051   4.044
    1PA    C11116633   2.303   3.180   4.130
    1PA    H11R16634   2.273   3.121   4.217
    1PA    H11S16635   2.298   3.286   4.154
    1PA    C11016636   2.211   3.164   4.008
    1PA    H10R16637   2.256   3.218   3.925
    1PA    H10S16638   2.192   3.060   3.980
    1PA     C1916639   2.071   3.221   4.035
    1PA     H9R16640   2.031   3.161   4.117
    1PA     H9S16641   2.070   3.325   4.068
    1PA     C1816642   1.960   3.212   3.930
    1PA     H8R16643   1.954   3.106   3.905
    1PA     H8S16644   1.875   3.257   3.982
    1PA     C1716645   1.994   3.284   3.798
    1PA     H7R16646   1.983   3.392   3.810
    1PA     H7S16647   2.094   3.253   3.765
    1PA     C1616648   1.893   3.250   3.688
    1PA     H6R16649   1.901   3.143   3.670
    1PA     H6S16650   1.794   3.283   3.722
    1PA     C1516651   1.933   3.319   3.557
    1PA     H5R16652   1.853   3.313   3.483
    1PA     H5S16653   1.954   3.424   3.581
    1PA     C1416654   2.058   3.257   3.493
    1PA     H4R16655   2.140   3.256   3.565
    1PA     H4S16656   2.045   3.151   3.469
    1PA     C1316657   2.106   3.336   3.371
    1PA     H3R16658   2.082   3.442   3.386
    1PA     H3S16659   2.213   3.318   3.358
    1PA     C1216660   2.033   3.276   3.250
    1PA     H2R16661   2.044   3.168   3.240
    1PA     H2S16662   1.926   3.282   3.269
    2PC     C1116663   2.075   3.334   3.118
    2PC     O1216664   2.157   3.422   3.105
    2PC     O1116665   2.006   3.271   3.021
    2PC      C116666   2.016   3.333   2.891
    2PC      HR16667   1.979   3.436   2.894
    2PC      HS16668   2.118   3.348   2.855
    2PC      C216669   1.926   3.262   2.789
    2PC      HX16670   1.906   3.158   2.817
    2PC      C316671   2.000   3.276   2.656
    2PC      HA16672   1.980   3.379   2.625
    2PC      HB16673   2.105   3.255   2.672
    2PC     O3116674   1.953   3.188   2.552
    2PC     P3116675   1.998   3.196   2.398
    2PC     O3216676   1.936   3.340   2.365
    2PC     C3116677   1.796   3.371   2.381
    2PC     H1A16678   1.732   3.297   2.334
    2PC     H1B16679   1.774   3.371   2.488
    2PC     C3216680   1.771   3.511   2.323
    2PC     H2A16681   1.825   3.509   2.228
    2PC     H2B16682   1.664   3.531   2.313
    2PC     N3116683   1.822   3.622   2.410
    2PC     C3316684   1.970   3.610   2.430
    2PC     H3A16685   2.002   3.517   2.477
    2PC     H3B16686   2.019   3.621   2.333
    2PC     H3C16687   2.007   3.685   2.501
    2PC     C3416688   1.793   3.747   2.333
    2PC     H4A16689   1.824   3.838   2.384
    2PC     H4B16690   1.838   3.729   2.235
    2PC     H4C16691   1.687   3.752   2.308
    2PC     C3516692   1.759   3.627   2.546
    2PC     H5A16693   1.778   3.539   2.607
    2PC     H5B16694   1.652   3.645   2.537
    2PC     H5C16695   1.808   3.715   2.589
    2PC     O3316696   2.146   3.196   2.391
    2PC     O3416697   1.964   3.097   2.293
    2PC     O2116698   1.802   3.334   2.776
    2PC     C2116699   1.701   3.308   2.861
    2PC     O2216700   1.699   3.214   2.938
    3OL     C1216701   1.590   3.409   2.845
    3OL     H2R16702   1.508   3.371   2.783
    3OL     H2S16703   1.624   3.502   2.798
    3OL     C1316704   1.534   3.442   2.984
    3OL     H3R16705   1.618   3.473   3.046
    3OL     H3S16706   1.505   3.348   3.032
    3OL     C1416707   1.427   3.550   2.967
    3OL     H4R16708   1.341   3.517   2.909
    3OL     H4S16709   1.463   3.634   2.908
    3OL     C1516710   1.373   3.599   3.103
    3OL     H5R16711   1.453   3.647   3.159
    3OL     H5S16712   1.340   3.508   3.154
    3OL     C1616713   1.277   3.717   3.083
    3OL     H6R16714   1.189   3.690   3.024
    3OL     H6S16715   1.310   3.810   3.036
    3OL     C1716716   1.214   3.741   3.221
    3OL     H7R16717   1.297   3.762   3.288
    3OL     H7S16718   1.161   3.651   3.250
    3OL     C1816719   1.115   3.859   3.217
    3OL     H8R16720   1.040   3.842   3.139
    3OL     H8S16721   1.174   3.945   3.184
    3OL     C1916722   1.071   3.895   3.356
    3OL     H9R16723   1.150   3.911   3.428
    3OL    C11016724   0.946   3.923   3.392
    3OL    H10R16725   0.931   3.953   3.495
    3OL    C11116726   0.819   3.908   3.312
    3OL    H11R16727   0.832   3.881   3.207
    3OL    H11S16728   0.770   4.005   3.313
    3OL    C11216729   0.720   3.810   3.376
    3OL    H12R16730   0.631   3.804   3.313
    3OL    H12S16731   0.685   3.847   3.472
    3OL    C11316732   0.785   3.672   3.394
    3OL    H13R16733   0.867   3.679   3.466
    3OL    H13S16734   0.839   3.639   3.305
    3OL    C11416735   0.695   3.554   3.434
    3OL    H14R16736   0.749   3.461   3.453
    3OL    H14S16737   0.624   3.543   3.351
    3OL    C11516738   0.621   3.587   3.565
    3OL    H15R16739   0.522   3.543   3.578
    3OL    H15S16740   0.615   3.695   3.571
    3OL    C11616741   0.696   3.530   3.687
    3OL    H16R16742   0.804   3.547   3.677
    3OL    H16S16743   0.684   3.422   3.693
    3OL    C11716744   0.645   3.585   3.821
    3OL    H17R16745   0.538   3.564   3.827
    3OL    H17S16746   0.641   3.694   3.817
    3OL    C11816747   0.727   3.535   3.940
    3OL    H18R16748   0.822   3.588   3.939
    3OL    H18S16749   0.741   3.426   3.941
    3OL    H18T16750   0.673   3.568   4.029
    1PA    C11616751   1.669   4.527   3.633
    1PA    H16R16752   1.744   4.459   3.673
    1PA    H16S16753   1.718   4.597   3.565
    1PA    H16T16754   1.597   4.469   3.574
    1PA    C11516755   1.590   4.600   3.743
    1PA    H15R16756   1.517   4.534   3.791
    1PA    H15S16757   1.654   4.628   3.827
    1PA    C11416758   1.505   4.713   3.684
    1PA    H14R16759   1.482   4.782   3.765
    1PA    H14S16760   1.567   4.768   3.612
    1PA    C11316761   1.387   4.653   3.607
    1PA    H13R16762   1.409   4.579   3.529
    1PA    H13S16763   1.328   4.598   3.681
    1PA    C11216764   1.302   4.766   3.549
    1PA    H12R16765   1.370   4.830   3.492
    1PA    H12S16766   1.239   4.723   3.471
    1PA    C11116767   1.226   4.842   3.659
    1PA    H11R16768   1.179   4.776   3.732
    1PA    H11S16769   1.299   4.909   3.705
    1PA    C11016770   1.124   4.945   3.608
    1PA    H10R16771   1.141   5.041   3.658
    1PA    H10S16772   1.155   4.970   3.506
    1PA     C1916773   0.975   4.911   3.620
    1PA     H9R16774   0.952   4.892   3.724
    1PA     H9S16775   0.911   4.988   3.576
    1PA     C1816776   0.954   4.774   3.554
    1PA     H8R16777   1.030   4.702   3.584
    1PA     H8S16778   0.859   4.736   3.590
    1PA     C1716779   0.943   4.780   3.401
    1PA     H7R16780   0.862   4.835   3.353
    1PA     H7S16781   1.033   4.827   3.363
    1PA     C1616782   0.940   4.635   3.348
    1PA     H6R16783   1.019   4.572   3.389
    1PA     H6S16784   0.848   4.583   3.373
    1PA     C1516785   0.955   4.618   3.196
    1PA     H5R16786   1.044   4.678   3.176
    1PA     H5S16787   0.973   4.514   3.169
    1PA     C1416788   0.830   4.663   3.120
    1PA     H4R16789   0.755   4.583   3.122
    1PA     H4S16790   0.787   4.753   3.165
    1PA     C1316791   0.864   4.698   2.974
    1PA     H3R16792   0.950   4.764   2.963
    1PA     H3S16793   0.889   4.602   2.930
    1PA     C1216794   0.743   4.755   2.898
    1PA     H2R16795   0.647   4.703   2.905
    1PA     H2S16796   0.724   4.852   2.943
    2PC     C1116797   0.769   4.779   2.751
    2PC     O1216798   0.881   4.787   2.704
    2PC     O1116799   0.657   4.811   2.685
    2PC      C116800   0.661   4.857   2.549
    2PC      HR16801   0.753   4.915   2.538
    2PC      HS16802   0.664   4.775   2.476
    2PC      C216803   0.544   4.947   2.509
    2PC      HX16804   0.452   4.903   2.550
    2PC      C316805   0.531   4.952   2.356
    2PC      HA16806   0.455   4.881   2.320
    2PC      HB16807   0.493   5.051   2.332
    2PC     O3116808   0.656   4.927   2.290
    2PC     P3116809   0.658   4.879   2.137
    2PC     O3216810   0.801   4.937   2.096
    2PC     C3116811   0.913   4.850   2.123
    2PC     H1A16812   0.900   4.819   2.227
    2PC     H1B16813   0.900   4.761   2.061
    2PC     C3216814   1.042   4.926   2.092
    2PC     H2A16815   1.048   5.022   2.144
    2PC     H2B16816   1.127   4.873   2.135
    2PC     N3116817   1.076   4.936   1.946
    2PC     C3316818   1.204   5.011   1.928
    2PC     H3A16819   1.216   5.087   2.005
    2PC     H3B16820   1.283   4.937   1.944
    2PC     H3C16821   1.212   5.042   1.824
    2PC     C3416822   1.081   4.801   1.882
    2PC     H4A16823   1.116   4.819   1.781
    2PC     H4B16824   1.162   4.750   1.936
    2PC     H4C16825   0.978   4.766   1.890
    2PC     C3516826   0.962   5.012   1.884
    2PC     H5A16827   0.931   5.093   1.950
    2PC     H5B16828   0.883   4.943   1.856
    2PC     H5C16829   0.994   5.057   1.790
    2PC     O3316830   0.659   4.731   2.138
    2PC     O3416831   0.536   4.913   2.060
    2PC     O2116832   0.566   5.080   2.560
    2PC     C2116833   0.466   5.169   2.567
    2PC     O2216834   0.360   5.154   2.511
    3OL     C1216835   0.504   5.303   2.626
    3OL     H2R16836   0.407   5.351   2.639
    3OL     H2S16837   0.550   5.370   2.553
    3OL     C1316838   0.594   5.299   2.750
    3OL     H3R16839   0.643   5.396   2.759
    3OL     H3S16840   0.680   5.233   2.732
    3OL     C1416841   0.533   5.252   2.882
    3OL     H4R16842   0.480   5.159   2.861
    3OL     H4S16843   0.460   5.328   2.911
    3OL     C1516844   0.646   5.245   2.986
    3OL     H5R16845   0.704   5.337   2.983
    3OL     H5S16846   0.708   5.158   2.963
    3OL     C1616847   0.588   5.202   3.121
    3OL     H6R16848   0.522   5.117   3.106
    3OL     H6S16849   0.528   5.281   3.167
    3OL     C1716850   0.682   5.152   3.232
    3OL     H7R16851   0.748   5.076   3.190
    3OL     H7S16852   0.617   5.111   3.309
    3OL     C1816853   0.760   5.266   3.301
    3OL     H8R16854   0.696   5.353   3.319
    3OL     H8S16855   0.827   5.302   3.223
    3OL     C1916856   0.819   5.209   3.427
    3OL     H9R16857   0.839   5.103   3.427
    3OL    C11016858   0.846   5.271   3.541
    3OL    H10R16859   0.893   5.209   3.618
    3OL    C11116860   0.812   5.413   3.580
    3OL    H11R16861   0.789   5.418   3.687
    3OL    H11S16862   0.720   5.436   3.527
    3OL    C11216863   0.927   5.513   3.563
    3OL    H12R16864   0.896   5.617   3.571
    3OL    H12S16865   0.984   5.494   3.471
    3OL    C11316866   1.036   5.501   3.670
    3OL    H13R16867   1.111   5.576   3.644
    3OL    H13S16868   1.085   5.403   3.675
    3OL    C11416869   0.988   5.542   3.810
    3OL    H14R16870   0.916   5.472   3.853
    3OL    H14S16871   0.935   5.638   3.809
    3OL    C11516872   1.096   5.553   3.918
    3OL    H15R16873   1.156   5.642   3.897
    3OL    H15S16874   1.164   5.467   3.913
    3OL    C11616875   1.040   5.567   4.060
    3OL    H16R16876   0.954   5.499   4.066
    3OL    H16S16877   0.992   5.665   4.073
    3OL    C11716878   1.141   5.534   4.170
    3OL    H17R16879   1.188   5.436   4.156
    3OL    H17S16880   1.092   5.537   4.268
    3OL    C11816881   1.243   5.647   4.186
    3OL    H18R16882   1.194   5.736   4.227
    3OL    H18S16883   1.292   5.666   4.090
    3OL    H18T16884   1.318   5.612   4.257
    1PA    C11616885   3.726   2.922   4.378
    1PA    H16R16886   3.728   2.860   4.467
    1PA    H16S16887   3.732   3.028   4.405
    1PA    H16T16888   3.806   2.882   4.316
    1PA    C11516889   3.593   2.885   4.310
    1PA    H15R16890   3.572   2.778   4.311
    1PA    H15S16891   3.506   2.930   4.359
    1PA    C11416892   3.583   2.918   4.160
    1PA    H14R16893   3.483   2.898   4.124
    1PA    H14S16894   3.617   3.022   4.157
    1PA    C11316895   3.671   2.830   4.069
    1PA    H13R16896   3.772   2.835   4.110
    1PA    H13S16897   3.630   2.729   4.069
    1PA    C11216898   3.675   2.883   3.925
    1PA    H12R16899   3.581   2.872   3.871
    1PA    H12S16900   3.700   2.989   3.934
    1PA    C11116901   3.785   2.811   3.844
    1PA    H11R16902   3.878   2.804   3.900
    1PA    H11S16903   3.752   2.707   3.839
    1PA    C11016904   3.796   2.869   3.703
    1PA    H10R16905   3.703   2.852   3.647
    1PA    H10S16906   3.814   2.977   3.710
    1PA     C1916907   3.913   2.804   3.628
    1PA     H9R16908   4.007   2.819   3.681
    1PA     H9S16909   3.898   2.696   3.629
    1PA     C1816910   3.926   2.851   3.483
    1PA     H8R16911   3.923   2.960   3.490
    1PA     H8S16912   4.029   2.822   3.459
    1PA     C1716913   3.829   2.791   3.380
    1PA     H7R16914   3.822   2.683   3.390
    1PA     H7S16915   3.736   2.845   3.403
    1PA     C1616916   3.880   2.838   3.243
    1PA     H6R16917   3.803   2.815   3.170
    1PA     H6S16918   3.887   2.947   3.252
    1PA     C1516919   4.010   2.767   3.205
    1PA     H5R16920   4.056   2.822   3.122
    1PA     H5S16921   4.084   2.774   3.285
    1PA     C1416922   3.991   2.624   3.154
    1PA     H4R16923   4.067   2.553   3.187
    1PA     H4S16924   3.903   2.573   3.194
    1PA     C1316925   3.963   2.610   3.003
    1PA     H3R16926   3.899   2.687   2.960
    1PA     H3S16927   4.065   2.635   2.973
    1PA     C1216928   3.909   2.469   2.977
    1PA     H2R16929   3.970   2.401   3.036
    1PA     H2S16930   3.801   2.472   2.995
    2PC     C1116931   3.915   2.437   2.830
    2PC     O1216932   3.816   2.421   2.762
    2PC     O1116933   4.042   2.432   2.786
    2PC      C116934   4.072   2.412   2.647
    2PC      HR16935   4.174   2.379   2.628
    2PC      HS16936   4.004   2.332   2.616
    2PC      C216937   4.032   2.536   2.565
    2PC      HX16938   3.926   2.536   2.537
    2PC      C316939   4.119   2.536   2.438
    2PC      HA16940   4.219   2.574   2.462
    2PC      HB16941   4.120   2.434   2.399
    2PC     O3116942   4.063   2.606   2.326
    2PC     P3116943   4.148   2.625   2.191
    2PC     O3216944   4.202   2.769   2.236
    2PC     C3116945   4.211   2.864   2.128
    2PC     H1A16946   4.256   2.826   2.035
    2PC     H1B16947   4.117   2.909   2.096
    2PC     C3216948   4.301   2.971   2.190
    2PC     H2A16949   4.251   2.999   2.283
    2PC     H2B16950   4.403   2.937   2.210
    2PC     N3116951   4.325   3.090   2.102
    2PC     C3316952   4.395   3.199   2.178
    2PC     H3A16953   4.438   3.264   2.102
    2PC     H3B16954   4.334   3.267   2.237
    2PC     H3C16955   4.472   3.156   2.242
    2PC     C3416956   4.403   3.053   1.980
    2PC     H4A16957   4.495   3.001   2.009
    2PC     H4B16958   4.350   2.982   1.916
    2PC     H4C16959   4.421   3.146   1.927
    2PC     C3516960   4.199   3.156   2.053
    2PC     H5A16961   4.165   3.099   1.967
    2PC     H5B16962   4.238   3.247   2.007
    2PC     H5C16963   4.123   3.178   2.128
    2PC     O3316964   4.242   2.517   2.153
    2PC     O3416965   4.054   2.650   2.080
    2PC     O2116966   4.056   2.654   2.644
    2PC     C2116967   3.980   2.761   2.619
    2PC     O2216968   3.890   2.764   2.537
    3OL     C1216969   4.018   2.881   2.701
    3OL     H2R16970   4.120   2.912   2.678
    3OL     H2S16971   4.036   2.853   2.805
    3OL     C1316972   3.926   3.003   2.682
    3OL     H3R16973   3.829   2.989   2.729
    3OL     H3S16974   3.902   3.015   2.576
    3OL     C1416975   3.987   3.137   2.726
    3OL     H4R16976   4.085   3.163   2.685
    3OL     H4S16977   3.995   3.128   2.834
    3OL     C1516978   3.889   3.254   2.710
    3OL     H5R16979   3.797   3.221   2.757
    3OL     H5S16980   3.865   3.261   2.604
    3OL     C1616981   3.928   3.386   2.777
    3OL     H6R16982   4.017   3.427   2.729
    3OL     H6S16983   3.952   3.367   2.882
    3OL     C1716984   3.814   3.488   2.766
    3OL     H7R16985   3.740   3.440   2.831
    3OL     H7S16986   3.784   3.498   2.661
    3OL     C1816987   3.846   3.624   2.830
    3OL     H8R16988   3.746   3.665   2.840
    3OL     H8S16989   3.898   3.685   2.756
    3OL     C1916990   3.915   3.610   2.964
    3OL     H9R16991   3.854   3.547   3.027
    3OL    C11016992   4.027   3.667   3.005
    3OL    H10R16993   4.067   3.653   3.106
    3OL    C11116994   4.097   3.770   2.920
    3OL    H11R16995   4.067   3.772   2.815
    3OL    H11S16996   4.200   3.737   2.906
    3OL    C11216997   4.099   3.897   3.006
    3OL    H12R16998   4.108   3.871   3.112
    3OL    H12S16999   3.998   3.936   2.996
    3OL    C11317000   4.200   4.000   2.953
    3OL    H13R17001   4.170   4.035   2.854
    3OL    H13S17002   4.292   3.943   2.947
    3OL    C11417003   4.207   4.116   3.054
    3OL    H14R17004   4.206   4.080   3.157
    3OL    H14S17005   4.116   4.175   3.044
    3OL    C11517006   4.327   4.206   3.024
    3OL    H15R17007   4.322   4.273   3.111
    3OL    H15S17008   4.316   4.258   2.929
    3OL    C11617009   4.467   4.142   3.026
    3OL    H16R17010   4.471   4.058   2.956
    3OL    H16S17011   4.484   4.101   3.126
    3OL    C11717012   4.573   4.243   2.981
    3OL    H17R17013   4.582   4.315   3.063
    3OL    H17S17014   4.543   4.296   2.891
    3OL    C11817015   4.712   4.184   2.952
    3OL    H18R17016   4.702   4.115   2.868
    3OL    H18S17017   4.757   4.129   3.035
    3OL    H18T17018   4.773   4.270   2.924
    1PA    C11617019   2.620   4.050   4.414
    1PA    H16R17020   2.558   3.990   4.481
    1PA    H16S17021   2.613   4.158   4.423
    1PA    H16T17022   2.723   4.018   4.430
    1PA    C11517023   2.568   4.017   4.274
    1PA    H15R17024   2.634   4.066   4.202
    1PA    H15S17025   2.568   3.909   4.258
    1PA    C11417026   2.429   4.082   4.259
    1PA    H14R17027   2.359   4.027   4.322
    1PA    H14S17028   2.433   4.187   4.289
    1PA    C11317029   2.385   4.072   4.112
    1PA    H13R17030   2.469   4.098   4.047
    1PA    H13S17031   2.348   3.971   4.090
    1PA    C11217032   2.270   4.168   4.077
    1PA    H12R17033   2.192   4.152   4.151
    1PA    H12S17034   2.301   4.272   4.085
    1PA    C11117035   2.225   4.131   3.936
    1PA    H11R17036   2.318   4.129   3.879
    1PA    H11S17037   2.183   4.030   3.934
    1PA    C11017038   2.119   4.231   3.886
    1PA    H10R17039   2.036   4.214   3.954
    1PA    H10S17040   2.143   4.336   3.903
    1PA     C1917041   2.070   4.206   3.743
    1PA     H9R17042   2.025   4.107   3.750
    1PA     H9S17043   1.984   4.273   3.733
    1PA     C1817044   2.178   4.220   3.635
    1PA     H8R17045   2.224   4.319   3.631
    1PA     H8S17046   2.256   4.145   3.650
    1PA     C1717047   2.104   4.186   3.505
    1PA     H7R17048   2.053   4.090   3.505
    1PA     H7S17049   2.023   4.259   3.494
    1PA     C1617050   2.190   4.185   3.378
    1PA     H6R17051   2.217   4.289   3.355
    1PA     H6S17052   2.290   4.145   3.397
    1PA     C1517053   2.106   4.132   3.261
    1PA     H5R17054   2.096   4.024   3.271
    1PA     H5S17055   2.008   4.180   3.252
    1PA     C1417056   2.180   4.147   3.128
    1PA     H4R17057   2.210   4.251   3.115
    1PA     H4S17058   2.278   4.099   3.124
    1PA     C1317059   2.105   4.101   3.002
    1PA     H3R17060   2.165   4.081   2.913
    1PA     H3S17061   2.040   4.015   3.016
    1PA     C1217062   2.004   4.205   2.952
    1PA     H2R17063   1.930   4.190   3.030
    1PA     H2S17064   2.050   4.303   2.958
    2PC     C1117065   1.950   4.181   2.813
    2PC     O1217066   1.850   4.113   2.802
    2PC     O1117067   2.005   4.258   2.717
    2PC      C117068   1.970   4.223   2.582
    2PC      HR17069   2.035   4.283   2.518
    2PC      HS17070   1.986   4.118   2.556
    2PC      C217071   1.828   4.263   2.540
    2PC      HX17072   1.762   4.216   2.613
    2PC      C317073   1.770   4.219   2.405
    2PC      HA17074   1.781   4.112   2.390
    2PC      HB17075   1.663   4.241   2.401
    2PC     O3117076   1.838   4.296   2.305
    2PC     P3117077   1.849   4.233   2.158
    2PC     O3217078   1.975   4.311   2.098
    2PC     C3117079   2.094   4.313   2.179
    2PC     H1A17080   2.070   4.354   2.277
    2PC     H1B17081   2.135   4.211   2.181
    2PC     C3217082   2.196   4.393   2.096
    2PC     H2A17083   2.173   4.498   2.112
    2PC     H2B17084   2.298   4.391   2.133
    2PC     N3117085   2.204   4.369   1.948
    2PC     C3317086   2.342   4.413   1.908
    2PC     H3A17087   2.359   4.512   1.950
    2PC     H3B17088   2.412   4.347   1.959
    2PC     H3C17089   2.363   4.399   1.802
    2PC     C3417090   2.186   4.224   1.914
    2PC     H4A17091   2.082   4.196   1.929
    2PC     H4B17092   2.209   4.202   1.809
    2PC     H4C17093   2.244   4.155   1.976
    2PC     C3517094   2.100   4.450   1.877
    2PC     H5A17095   2.002   4.411   1.908
    2PC     H5B17096   2.106   4.447   1.768
    2PC     H5C17097   2.119   4.553   1.906
    2PC     O3317098   1.881   4.089   2.163
    2PC     O3417099   1.729   4.244   2.071
    2PC     O2117100   1.813   4.405   2.562
    2PC     C2117101   1.695   4.457   2.598
    2PC     O2217102   1.587   4.401   2.599
    3OL     C1217103   1.713   4.600   2.641
    3OL     H2R17104   1.641   4.616   2.722
    3OL     H2S17105   1.690   4.664   2.555
    3OL     C1317106   1.849   4.624   2.707
    3OL     H3R17107   1.925   4.599   2.632
    3OL     H3S17108   1.870   4.568   2.798
    3OL     C1417109   1.859   4.773   2.740
    3OL     H4R17110   1.770   4.803   2.796
    3OL     H4S17111   1.848   4.815   2.640
    3OL     C1517112   1.995   4.809   2.802
    3OL     H5R17113   2.083   4.793   2.739
    3OL     H5S17114   2.002   4.743   2.889
    3OL     C1617115   1.989   4.958   2.837
    3OL     H6R17116   1.949   5.007   2.748
    3OL     H6S17117   2.088   4.998   2.860
    3OL     C1717118   1.901   4.987   2.959
    3OL     H7R17119   1.940   4.924   3.039
    3OL     H7S17120   1.800   4.949   2.939
    3OL     C1817121   1.904   5.136   2.996
    3OL     H8R17122   1.857   5.196   2.917
    3OL     H8S17123   2.009   5.161   3.013
    3OL     C1917124   1.832   5.164   3.125
    3OL     H9R17125   1.730   5.202   3.117
    3OL    C11017126   1.885   5.175   3.246
    3OL    H10R17127   1.815   5.195   3.326
    3OL    C11117128   2.028   5.144   3.284
    3OL    H11R17129   2.094   5.231   3.291
    3OL    H11S17130   2.071   5.070   3.216
    3OL    C11217131   2.042   5.098   3.430
    3OL    H12R17132   1.995   5.174   3.494
    3OL    H12S17133   2.149   5.103   3.450
    3OL    C11317134   1.969   4.967   3.462
    3OL    H13R17135   1.986   4.891   3.385
    3OL    H13S17136   1.861   4.985   3.466
    3OL    C11417137   2.033   4.926   3.595
    3OL    H14R17138   2.015   5.003   3.671
    3OL    H14S17139   2.141   4.914   3.588
    3OL    C11517140   1.953   4.805   3.645
    3OL    H15R17141   1.851   4.802   3.607
    3OL    H15S17142   1.943   4.818   3.752
    3OL    C11617143   2.033   4.677   3.614
    3OL    H16R17144   2.118   4.695   3.548
    3OL    H16S17145   1.961   4.606   3.572
    3OL    C11717146   2.096   4.631   3.746
    3OL    H17R17147   2.144   4.533   3.743
    3OL    H17S17148   2.030   4.617   3.832
    3OL    C11817149   2.219   4.717   3.777
    3OL    H18R17150   2.284   4.712   3.689
    3OL    H18S17151   2.290   4.675   3.848
    3OL    H18T17152   2.204   4.823   3.800
    4SOL     OW17153   3.155   3.402   6.084
    4SOL    HW117154   3.128   3.320   6.042
    4SOL    HW217155   3.226   3.435   6.029
    5SOL     OW17156   4.679   1.061   0.285
    5SOL    HW117157   4.742   1.076   0.214
    5SOL    HW217158   4.598   1.038   0.239
    6SOL     OW17159   0.749   1.076   6.505
    6SOL    HW117160   0.745   1.166   6.537
    6SOL    HW217161   0.720   1.023   6.579
    7SOL     OW17162   0.340   5.609   1.473
    7SOL    HW117163   0.344   5.627   1.567
    7SOL    HW217164   0.246   5.600   1.455
    8SOL     OW17165   5.149   6.231   0.609
    8SOL    HW117166   5.082   6.175   0.647
    8SOL    HW217167   5.230   6.181   0.619
    9SOL     OW17168   6.044   2.842   7.308
    9SOL    HW117169   6.080   2.879   7.227
    9SOL    HW217170   5.957   2.811   7.284
   10SOL     OW17171   3.576   0.084   0.231
   10SOL    HW117172   3.616   0.003   0.200
   10SOL    HW217173   3.483   0.063   0.239
   11SOL     OW17174   0.366   3.371   1.000
   11SOL    HW117175   0.313   3.419   0.937
   11SOL    HW217176   0.324   3.387   1.084
   12SOL     OW17177   4.542   2.579   7.119
   12SOL    HW117178   4.462   2.631   7.109
   12SOL    HW217179   4.520   2.494   7.081
   13SOL     OW17180   1.896   1.190   7.406
   13SOL    HW117181   1.974   1.227   7.447
   13SOL    HW217182   1.848   1.265   7.372
   14SOL     OW17183   0.349   1.689   2.461
   14SOL    HW117184   0.389   1.737   2.534
   14SOL    HW217185   0.289   1.627   2.503
   15SOL     OW17186   2.879   3.389   0.667
   15SOL    HW117187   2.804   3.438   0.634
   15SOL    HW217188   2.955   3.439   0.637
   16SOL     OW17189   3.692   5.512   7.599
   16SOL    HW117190   3.629   5.462   7.651
   16SOL    HW217191   3.777   5.483   7.631
   17SOL     OW17192   4.396   1.038   7.425
   17SOL    HW117193   4.367   1.067   7.511
   17SOL    HW217194   4.329   1.071   7.364
   18SOL     OW17195   3.002   4.895   7.022
   18SOL    HW117196   2.935   4.951   6.982
   18SOL    HW217197   2.969   4.879   7.111
   19SOL     OW17198   3.009   1.797   7.107
   19SOL    HW117199   3.022   1.709   7.142
   19SOL    HW217200   3.080   1.809   7.044
   20SOL     OW17201   0.741   5.417   6.629
   20SOL    HW117202   0.720   5.376   6.712
   20SOL    HW217203   0.833   5.444   6.638
   21SOL     OW17204   4.918   3.074   7.235
   21SOL    HW117205   5.008   3.102   7.217
   21SOL    HW217206   4.913   2.986   7.199
   22SOL     OW17207   1.919   6.195   0.048
   22SOL    HW117208   2.013   6.183   0.042
   22SOL    HW217209   1.881   6.130  -0.010
   23SOL     OW17210   3.419   5.388   0.892
   23SOL    HW117211   3.440   5.329   0.820
   23SOL    HW217212   3.489   5.373   0.956
   24SOL     OW17213   1.655   5.705   6.621
   24SOL    HW117214   1.611   5.636   6.672
   24SOL    HW217215   1.731   5.729   6.675
   25SOL     OW17216   2.547   4.778   6.890
   25SOL    HW117217   2.599   4.719   6.836
   25SOL    HW217218   2.585   4.864   6.875
   26SOL     OW17219   1.139   4.420   6.395
   26SOL    HW117220   1.176   4.492   6.344
   26SOL    HW217221   1.214   4.385   6.443
   27SOL     OW17222   3.384   1.094   7.111
   27SOL    HW117223   3.289   1.083   7.112
   27SOL    HW217224   3.413   1.057   7.194
   28SOL     OW17225   6.015   5.814   0.091
   28SOL    HW117226   5.925   5.845   0.091
   28SOL    HW217227   6.061   5.875   0.033
   29SOL     OW17228   5.013   3.641   0.392
   29SOL    HW117229   4.975   3.643   0.305
   29SOL    HW217230   4.939   3.631   0.451
   30SOL     OW17231   2.239   5.758   7.222
   30SOL    HW117232   2.216   5.844   7.257
   30SOL    HW217233   2.327   5.770   7.186
   31SOL     OW17234   1.810   3.082   7.014
   31SOL    HW117235   1.746   3.141   7.053
   31SOL    HW217236   1.833   3.122   6.931
   32SOL     OW17237   1.050   6.088   2.049
   32SOL    HW117238   0.984   6.030   2.088
   32SOL    HW217239   1.004   6.131   1.977
   33SOL     OW17240   2.761   0.780   7.531
   33SOL    HW117241   2.779   0.724   7.606
   33SOL    HW217242   2.755   0.868   7.568
   34SOL     OW17243   4.668   5.684   0.588
   34SOL    HW117244   4.664   5.711   0.680
   34SOL    HW217245   4.601   5.616   0.580
   35SOL     OW17246   1.015   3.028   6.322
   35SOL    HW117247   1.048   3.009   6.234
   35SOL    HW217248   1.059   3.109   6.347
   36SOL     OW17249   3.960   5.564   1.049
   36SOL    HW117250   4.019   5.503   1.094
   36SOL    HW217251   3.982   5.650   1.085
   37SOL     OW17252   1.455   2.442   6.905
   37SOL    HW117253   1.390   2.376   6.882
   37SOL    HW217254   1.430   2.471   6.993
   38SOL     OW17255   0.179   4.441   0.061
   38SOL    HW117256   0.214   4.485   0.139
   38SOL    HW217257   0.249   4.450  -0.004
   39SOL     OW17258   5.798   2.381   0.929
   39SOL    HW117259   5.744   2.392   1.007
   39SOL    HW217260   5.854   2.459   0.928
   40SOL     OW17261   2.891   3.230   7.930
   40SOL    HW117262   2.905   3.135   7.936
   40SOL    HW217263   2.946   3.257   7.857
   41SOL     OW17264   2.130   3.155   0.411
   41SOL    HW117265   2.127   3.227   0.348
   41SOL    HW217266   2.188   3.091   0.371
   42SOL     OW17267   1.690   5.568   2.389
   42SOL    HW117268   1.725   5.488   2.428
   42SOL    HW217269   1.603   5.543   2.357
   43SOL     OW17270   0.883   0.267   7.884
   43SOL    HW117271   0.877   0.186   7.832
   43SOL    HW217272   0.935   0.242   7.960
   44SOL     OW17273   0.367   4.736   7.754
   44SOL    HW117274   0.318   4.809   7.792
   44SOL    HW217275   0.307   4.662   7.761
   45SOL     OW17276   0.404   0.821   7.525
   45SOL    HW117277   0.430   0.734   7.556
   45SOL    HW217278   0.311   0.828   7.545
   46SOL     OW17279   3.150   2.783   7.735
   46SOL    HW117280   3.104   2.796   7.652
   46SOL    HW217281   3.243   2.776   7.711
   47SOL     OW17282   3.605   1.578   5.644
   47SOL    HW117283   3.582   1.670   5.635
   47SOL    HW217284   3.557   1.533   5.575
   48SOL     OW17285   6.292   5.256   1.972
   48SOL    HW117286   6.299   5.315   2.048
   48SOL    HW217287   6.382   5.251   1.939
   49SOL     OW17288   3.539   4.751   7.952
   49SOL    HW117289   3.613   4.803   7.922
   49SOL    HW217290   3.471   4.815   7.971
   50SOL     OW17291   2.694   4.789   5.999
   50SOL    HW117292   2.627   4.735   5.957
   50SOL    HW217293   2.759   4.804   5.930
   51SOL     OW17294   0.309   0.914   7.113
   51SOL    HW117295   0.360   0.886   7.188
   51SOL    HW217296   0.369   0.967   7.061
   52SOL     OW17297   4.735   0.864   0.929
   52SOL    HW117298   4.800   0.809   0.884
   52SOL    HW217299   4.691   0.911   0.859
   53SOL     OW17300   1.432   3.168   6.639
   53SOL    HW117301   1.518   3.129   6.625
   53SOL    HW217302   1.414   3.217   6.559
   54SOL     OW17303   3.117   0.757   1.783
   54SOL    HW117304   3.137   0.764   1.689
   54SOL    HW217305   3.044   0.696   1.787
   55SOL     OW17306   5.159   0.604   1.610
   55SOL    HW117307   5.212   0.525   1.614
   55SOL    HW217308   5.125   0.615   1.699
   56SOL     OW17309   1.190   5.057   1.585
   56SOL    HW117310   1.133   5.130   1.608
   56SOL    HW217311   1.131   4.982   1.578
   57SOL     OW17312   2.934   4.675   6.765
   57SOL    HW117313   3.018   4.636   6.739
   57SOL    HW217314   2.957   4.764   6.792
   58SOL     OW17315   4.550   2.426   5.892
   58SOL    HW117316   4.622   2.365   5.879
   58SOL    HW217317   4.481   2.396   5.833
   59SOL     OW17318   1.456   2.003   1.719
   59SOL    HW117319   1.469   2.007   1.814
   59SOL    HW217320   1.485   1.916   1.694
   60SOL     OW17321   4.065   2.353   7.328
   60SOL    HW117322   4.136   2.290   7.335
   60SOL    HW217323   4.008   2.334   7.403
   61SOL     OW17324   4.773   4.000   0.418
   61SOL    HW117325   4.847   3.951   0.453
   61SOL    HW217326   4.763   3.968   0.328
   62SOL     OW17327   4.564   5.050   6.195
   62SOL    HW117328   4.624   5.044   6.120
   62SOL    HW217329   4.477   5.052   6.156
   63SOL     OW17330   2.283   2.924   1.880
   63SOL    HW117331   2.245   2.902   1.965
   63SOL    HW217332   2.372   2.952   1.900
   64SOL     OW17333   1.411   5.821   0.061
   64SOL    HW117334   1.433   5.800   0.151
   64SOL    HW217335   1.453   5.753   0.009
   65SOL     OW17336   3.901   4.605   6.519
   65SOL    HW117337   3.852   4.526   6.499
   65SOL    HW217338   3.986   4.593   6.476
   66SOL     OW17339   2.731   4.218   6.828
   66SOL    HW117340   2.755   4.277   6.899
   66SOL    HW217341   2.777   4.137   6.847
   67SOL     OW17342   5.494   6.221   6.918
   67SOL    HW117343   5.577   6.174   6.918
   67SOL    HW217344   5.429   6.153   6.935
   68SOL     OW17345   2.230   1.516   1.207
   68SOL    HW117346   2.154   1.483   1.255
   68SOL    HW217347   2.226   1.611   1.219
   69SOL     OW17348   2.316   6.270   1.087
   69SOL    HW117349   2.288   6.217   1.012
   69SOL    HW217350   2.272   6.230   1.162
   70SOL     OW17351   1.531   0.577   1.546
   70SOL    HW117352   1.458   0.556   1.489
   70SOL    HW217353   1.607   0.578   1.488
   71SOL     OW17354   3.103   4.674   6.276
   71SOL    HW117355   3.081   4.763   6.304
   71SOL    HW217356   3.025   4.643   6.230
   72SOL     OW17357   0.508   0.644   1.913
   72SOL    HW117358   0.484   0.557   1.943
   72SOL    HW217359   0.527   0.693   1.993
   73SOL     OW17360   4.268   3.894   7.358
   73SOL    HW117361   4.218   3.941   7.291
   73SOL    HW217362   4.204   3.834   7.397
   74SOL     OW17363   0.667   1.951   0.527
   74SOL    HW117364   0.676   2.046   0.517
   74SOL    HW217365   0.617   1.924   0.449
   75SOL     OW17366   1.754   4.745   1.180
   75SOL    HW117367   1.746   4.726   1.273
   75SOL    HW217368   1.685   4.810   1.164
   76SOL     OW17369   5.677   3.506   1.226
   76SOL    HW117370   5.737   3.527   1.297
   76SOL    HW217371   5.638   3.422   1.251
   77SOL     OW17372   2.730   2.569   6.027
   77SOL    HW117373   2.695   2.579   6.115
   77SOL    HW217374   2.664   2.517   5.981
   78SOL     OW17375   3.876   0.770   0.622
   78SOL    HW117376   3.848   0.861   0.634
   78SOL    HW217377   3.971   0.775   0.611
   79SOL     OW17378   4.751   2.254   8.054
   79SOL    HW117379   4.797   2.315   8.111
   79SOL    HW217380   4.662   2.251   8.089
   80SOL     OW17381   2.455   1.029   7.014
   80SOL    HW117382   2.414   1.081   7.083
   80SOL    HW217383   2.549   1.038   7.031
   81SOL     OW17384   2.235   2.487   7.509
   81SOL    HW117385   2.317   2.441   7.528
   81SOL    HW217386   2.188   2.427   7.452
   82SOL     OW17387   5.788   2.517   0.095
   82SOL    HW117388   5.743   2.504   0.011
   82SOL    HW217389   5.770   2.608   0.118
   83SOL     OW17390   3.705   0.561   6.468
   83SOL    HW117391   3.632   0.559   6.529
   83SOL    HW217392   3.728   0.469   6.454
   84SOL     OW17393   4.930   6.035   7.874
   84SOL    HW117394   4.843   5.998   7.861
   84SOL    HW217395   4.945   6.088   7.796
   85SOL     OW17396   5.127   2.629   6.096
   85SOL    HW117397   5.112   2.583   6.014
   85SOL    HW217398   5.167   2.564   6.154
   86SOL     OW17399   3.426   1.854   7.306
   86SOL    HW117400   3.477   1.876   7.384
   86SOL    HW217401   3.490   1.813   7.247
   87SOL     OW17402   1.464   3.290   7.901
   87SOL    HW117403   1.457   3.325   7.990
   87SOL    HW217404   1.439   3.363   7.845
   88SOL     OW17405   1.209   2.234   1.779
   88SOL    HW117406   1.221   2.146   1.744
   88SOL    HW217407   1.268   2.238   1.855
   89SOL     OW17408   2.210   6.152   6.954
   89SOL    HW117409   2.180   6.232   6.998
   89SOL    HW217410   2.131   6.117   6.913
   90SOL     OW17411   0.857   2.782   1.026
   90SOL    HW117412   0.809   2.731   1.091
   90SOL    HW217413   0.948   2.780   1.056
   91SOL     OW17414   1.295   4.180   0.239
   91SOL    HW117415   1.367   4.203   0.181
   91SOL    HW217416   1.250   4.263   0.255
   92SOL     OW17417   3.196   1.730   7.409
   92SOL    HW117418   3.261   1.782   7.362
   92SOL    HW217419   3.117   1.736   7.356
   93SOL     OW17420   2.219   0.584   6.854
   93SOL    HW117421   2.237   0.677   6.866
   93SOL    HW217422   2.199   0.575   6.761
   94SOL     OW17423   0.684   1.876   1.264
   94SOL    HW117424   0.658   1.969   1.266
   94SOL    HW217425   0.775   1.877   1.237
   95SOL     OW17426   1.164   3.103   2.249
   95SOL    HW117427   1.093   3.127   2.190
   95SOL    HW217428   1.229   3.173   2.239
   96SOL     OW17429   1.570   4.509   5.977
   96SOL    HW117430   1.582   4.470   6.064
   96SOL    HW217431   1.495   4.568   5.988
   97SOL     OW17432   6.325   5.654   7.222
   97SOL    HW117433   6.272   5.706   7.283
   97SOL    HW217434   6.414   5.663   7.254
   98SOL     OW17435   6.109   3.245   6.748
   98SOL    HW117436   6.077   3.196   6.672
   98SOL    HW217437   6.154   3.179   6.801
   99SOL     OW17438   2.916   6.300   7.680
   99SOL    HW117439   3.002   6.336   7.659
   99SOL    HW217440   2.854   6.355   7.632
  100SOL     OW17441   6.208   2.527   7.330
  100SOL    HW117442   6.281   2.475   7.297
  100SOL    HW217443   6.206   2.604   7.273
  101SOL     OW17444   0.386   4.835   1.863
  101SOL    HW117445   0.453   4.858   1.927
  101SOL    HW217446   0.363   4.919   1.821
  102SOL     OW17447   4.206   1.563   2.478
  102SOL    HW117448   4.243   1.635   2.427
  102SOL    HW217449   4.114   1.587   2.490
  103SOL     OW17450   4.101   1.140   2.023
  103SOL    HW117451   4.026   1.086   1.998
  103SOL    HW217452   4.168   1.121   1.957
  104SOL     OW17453   1.724   4.445   5.555
  104SOL    HW117454   1.690   4.513   5.613
  104SOL    HW217455   1.674   4.366   5.577
  105SOL     OW17456   1.204   5.242   6.855
  105SOL    HW117457   1.140   5.310   6.836
  105SOL    HW217458   1.229   5.207   6.769
  106SOL     OW17459   0.643   3.258   0.821
  106SOL    HW117460   0.584   3.286   0.750
  106SOL    HW217461   0.729   3.289   0.795
  107SOL     OW17462   5.437   3.642   7.840
  107SOL    HW117463   5.351   3.637   7.881
  107SOL    HW217464   5.490   3.578   7.888
  108SOL     OW17465   1.501   4.040   0.651
  108SOL    HW117466   1.465   4.108   0.708
  108SOL    HW217467   1.546   4.089   0.582
  109SOL     OW17468   3.280   3.186   0.389
  109SOL    HW117469   3.186   3.171   0.381
  109SOL    HW217470   3.288   3.280   0.405
  110SOL     OW17471   1.885   0.553   1.742
  110SOL    HW117472   1.816   0.553   1.808
  110SOL    HW217473   1.875   0.637   1.697
  111SOL     OW17474   2.314   2.751   7.133
  111SOL    HW117475   2.356   2.745   7.218
  111SOL    HW217476   2.264   2.670   7.125
  112SOL     OW17477   0.962   2.196   7.864
  112SOL    HW117478   0.921   2.262   7.809
  112SOL    HW217479   0.984   2.125   7.804
  113SOL     OW17480   5.097   4.196   1.892
  113SOL    HW117481   5.165   4.235   1.946
  113SOL    HW217482   5.048   4.140   1.951
  114SOL     OW17483   3.489   0.703   3.027
  114SOL    HW117484   3.564   0.659   3.067
  114SOL    HW217485   3.507   0.702   2.933
  115SOL     OW17486   2.735   5.364   0.183
  115SOL    HW117487   2.648   5.356   0.222
  115SOL    HW217488   2.718   5.368   0.089
  116SOL     OW17489   1.225   3.496   1.066
  116SOL    HW117490   1.186   3.428   1.122
  116SOL    HW217491   1.304   3.454   1.031
  117SOL     OW17492   4.265   5.095   6.238
  117SOL    HW117493   4.213   5.129   6.312
  117SOL    HW217494   4.246   5.001   6.237
  118SOL     OW17495   5.183   1.396   6.308
  118SOL    HW117496   5.144   1.377   6.223
  118SOL    HW217497   5.229   1.479   6.295
  119SOL     OW17498   5.550   2.195   1.684
  119SOL    HW117499   5.540   2.140   1.761
  119SOL    HW217500   5.461   2.210   1.653
  120SOL     OW17501   4.021   5.766   2.141
  120SOL    HW117502   3.984   5.717   2.214
  120SOL    HW217503   3.951   5.826   2.114
  121SOL     OW17504   5.491   4.135   6.552
  121SOL    HW117505   5.526   4.047   6.539
  121SOL    HW217506   5.435   4.150   6.476
  122SOL     OW17507   4.642   5.632   6.158
  122SOL    HW117508   4.732   5.662   6.143
  122SOL    HW217509   4.588   5.694   6.111
  123SOL     OW17510   2.415   4.765   6.153
  123SOL    HW117511   2.402   4.671   6.149
  123SOL    HW217512   2.387   4.797   6.067
  124SOL     OW17513   6.197   1.722   7.652
  124SOL    HW117514   6.233   1.718   7.563
  124SOL    HW217515   6.249   1.659   7.701
  125SOL     OW17516   1.803   6.324   7.305
  125SOL    HW117517   1.760   6.246   7.269
  125SOL    HW217518   1.752   6.397   7.271
  126SOL     OW17519   4.453   2.475   7.460
  126SOL    HW117520   4.478   2.442   7.546
  126SOL    HW217521   4.476   2.405   7.400
  127SOL     OW17522   4.752   2.085   6.369
  127SOL    HW117523   4.777   2.148   6.302
  127SOL    HW217524   4.832   2.035   6.387
  128SOL     OW17525   1.577   2.519   0.336
  128SOL    HW117526   1.503   2.465   0.308
  128SOL    HW217527   1.629   2.532   0.256
  129SOL     OW17528   0.458   5.350   1.699
  129SOL    HW117529   0.389   5.297   1.738
  129SOL    HW217530   0.440   5.439   1.729
  130SOL     OW17531   4.347   4.655   1.221
  130SOL    HW117532   4.344   4.620   1.310
  130SOL    HW217533   4.268   4.707   1.212
  131SOL     OW17534   5.697   4.541   1.283
  131SOL    HW117535   5.784   4.505   1.298
  131SOL    HW217536   5.711   4.636   1.282
  132SOL     OW17537   2.543   5.939   0.167
  132SOL    HW117538   2.583   6.015   0.124
  132SOL    HW217539   2.450   5.962   0.173
  133SOL     OW17540   2.660   4.156   6.354
  133SOL    HW117541   2.581   4.160   6.300
  133SOL    HW217542   2.720   4.219   6.314
  134SOL     OW17543   5.871   1.463   0.845
  134SOL    HW117544   5.885   1.551   0.810
  134SOL    HW217545   5.778   1.445   0.829
  135SOL     OW17546   5.646   5.615   1.083
  135SOL    HW117547   5.649   5.519   1.085
  135SOL    HW217548   5.731   5.643   1.117
  136SOL     OW17549   3.063   5.893   7.482
  136SOL    HW117550   3.138   5.872   7.426
  136SOL    HW217551   3.102   5.931   7.561
  137SOL     OW17552   5.127   3.496   1.792
  137SOL    HW117553   5.072   3.516   1.868
  137SOL    HW217554   5.167   3.412   1.813
  138SOL     OW17555   4.899   1.023   7.137
  138SOL    HW117556   4.992   1.026   7.116
  138SOL    HW217557   4.882   1.105   7.184
  139SOL     OW17558   3.426   3.622   1.487
  139SOL    HW117559   3.435   3.527   1.482
  139SOL    HW217560   3.452   3.644   1.576
  140SOL     OW17561   1.101   3.158   7.207
  140SOL    HW117562   1.006   3.168   7.196
  140SOL    HW217563   1.127   3.233   7.260
  141SOL     OW17564   3.456   4.032   7.418
  141SOL    HW117565   3.361   4.021   7.408
  141SOL    HW217566   3.466   4.112   7.471
  142SOL     OW17567   5.649   3.369   6.311
  142SOL    HW117568   5.670   3.297   6.370
  142SOL    HW217569   5.553   3.373   6.310
  143SOL     OW17570   2.608   3.088   8.010
  143SOL    HW117571   2.626   3.031   7.936
  143SOL    HW217572   2.583   3.172   7.971
  144SOL     OW17573   4.665   0.244   0.330
  144SOL    HW117574   4.697   0.160   0.363
  144SOL    HW217575   4.745   0.295   0.314
  145SOL     OW17576   3.103   1.723   0.038
  145SOL    HW117577   3.103   1.761  -0.050
  145SOL    HW217578   3.077   1.632   0.025
  146SOL     OW17579   0.897   2.220   5.897
  146SOL    HW117580   0.824   2.241   5.956
  146SOL    HW217581   0.972   2.208   5.956
  147SOL     OW17582   5.860   0.829   7.283
  147SOL    HW117583   5.947   0.863   7.261
  147SOL    HW217584   5.800   0.888   7.238
  148SOL     OW17585   6.207   1.320   6.802
  148SOL    HW117586   6.180   1.409   6.826
  148SOL    HW217587   6.162   1.263   6.864
  149SOL     OW17588   4.770   3.771   6.352
  149SOL    HW117589   4.762   3.805   6.263
  149SOL    HW217590   4.797   3.847   6.404
  150SOL     OW17591   2.800   5.795   1.901
  150SOL    HW117592   2.711   5.768   1.926
  150SOL    HW217593   2.788   5.842   1.819
  151SOL     OW17594   2.601   1.987   0.169
  151SOL    HW117595   2.595   1.893   0.150
  151SOL    HW217596   2.625   2.026   0.085
  152SOL     OW17597   6.142   5.901   6.199
  152SOL    HW117598   6.118   5.993   6.209
  152SOL    HW217599   6.060   5.854   6.208
  153SOL     OW17600   2.092   5.462   6.808
  153SOL    HW117601   2.060   5.377   6.777
  153SOL    HW217602   2.041   5.480   6.887
  154SOL     OW17603   4.309   3.242   1.115
  154SOL    HW117604   4.328   3.274   1.203
  154SOL    HW217605   4.289   3.149   1.127
  155SOL     OW17606   4.364   2.405   1.969
  155SOL    HW117607   4.317   2.454   2.037
  155SOL    HW217608   4.295   2.362   1.919
  156SOL     OW17609   3.492   5.034   2.124
  156SOL    HW117610   3.496   5.127   2.102
  156SOL    HW217611   3.454   4.992   2.047
  157SOL     OW17612   5.295   5.473   1.033
  157SOL    HW117613   5.211   5.428   1.040
  157SOL    HW217614   5.359   5.403   1.020
  158SOL     OW17615   0.950   3.987   7.402
  158SOL    HW117616   0.870   3.968   7.451
  158SOL    HW217617   0.980   3.902   7.371
  159SOL     OW17618   1.716   3.109   1.564
  159SOL    HW117619   1.759   3.092   1.648
  159SOL    HW217620   1.786   3.096   1.499
  160SOL     OW17621   4.774   4.469   7.890
  160SOL    HW117622   4.850   4.527   7.883
  160SOL    HW217623   4.725   4.502   7.965
  161SOL     OW17624   6.214   4.795   0.474
  161SOL    HW117625   6.211   4.888   0.452
  161SOL    HW217626   6.216   4.750   0.390
  162SOL     OW17627   3.821   4.469   2.452
  162SOL    HW117628   3.897   4.469   2.394
  162SOL    HW217629   3.759   4.409   2.410
  163SOL     OW17630   4.456   4.737   7.881
  163SOL    HW117631   4.485   4.691   7.959
  163SOL    HW217632   4.443   4.668   7.816
  164SOL     OW17633   5.005   1.009   0.403
  164SOL    HW117634   5.064   0.959   0.346
  164SOL    HW217635   4.996   1.094   0.360
  165SOL     OW17636   3.232   2.161   1.357
  165SOL    HW117637   3.249   2.068   1.374
  165SOL    HW217638   3.312   2.205   1.386
  166SOL     OW17639   6.341   2.128   1.876
  166SOL    HW117640   6.334   2.084   1.791
  166SOL    HW217641   6.435   2.139   1.891
  167SOL     OW17642   4.337   5.097   6.592
  167SOL    HW117643   4.309   5.047   6.669
  167SOL    HW217644   4.405   5.042   6.552
  168SOL     OW17645   2.169   0.535   0.596
  168SOL    HW117646   2.123   0.615   0.570
  168SOL    HW217647   2.257   0.545   0.558
  169SOL     OW17648   0.310   2.432   0.991
  169SOL    HW117649   0.248   2.456   1.060
  169SOL    HW217650   0.366   2.510   0.981
  170SOL     OW17651   0.530   4.849   0.036
  170SOL    HW117652   0.583   4.926   0.058
  170SOL    HW217653   0.454   4.855   0.095
  171SOL     OW17654   2.783   1.199   2.543
  171SOL    HW117655   2.831   1.140   2.601
  171SOL    HW217656   2.777   1.281   2.591
  172SOL     OW17657   1.477   6.023   6.679
  172SOL    HW117658   1.407   6.010   6.743
  172SOL    HW217659   1.433   6.019   6.594
  173SOL     OW17660   3.777   3.097   7.277
  173SOL    HW117661   3.690   3.087   7.316
  173SOL    HW217662   3.775   3.183   7.235
  174SOL     OW17663   4.037   5.108   0.616
  174SOL    HW117664   4.011   5.038   0.556
  174SOL    HW217665   3.986   5.092   0.695
  175SOL     OW17666   2.788   0.776   6.788
  175SOL    HW117667   2.779   0.687   6.754
  175SOL    HW217668   2.738   0.830   6.728
  176SOL     OW17669   4.339   1.614   6.346
  176SOL    HW117670   4.309   1.526   6.326
  176SOL    HW217671   4.284   1.671   6.293
  177SOL     OW17672   5.892   3.246   0.363
  177SOL    HW117673   5.981   3.267   0.334
  177SOL    HW217674   5.860   3.326   0.405
  178SOL     OW17675   6.139   2.199   2.059
  178SOL    HW117676   6.202   2.174   1.993
  178SOL    HW217677   6.141   2.295   2.059
  179SOL     OW17678   0.716   4.997   1.078
  179SOL    HW117679   0.728   5.090   1.057
  179SOL    HW217680   0.759   4.985   1.163
  180SOL     OW17681   0.184   0.239   0.855
  180SOL    HW117682   0.121   0.204   0.918
  180SOL    HW217683   0.133   0.251   0.775
  181SOL     OW17684   4.320   5.786   2.394
  181SOL    HW117685   4.256   5.718   2.416
  181SOL    HW217686   4.278   5.868   2.418
  182SOL     OW17687   2.320   0.852   0.100
  182SOL    HW117688   2.272   0.933   0.118
  182SOL    HW217689   2.302   0.833   0.008
  183SOL     OW17690   2.628   4.581   0.461
  183SOL    HW117691   2.571   4.589   0.537
  183SOL    HW217692   2.568   4.573   0.387
  184SOL     OW17693   1.230   4.612   7.426
  184SOL    HW117694   1.144   4.573   7.414
  184SOL    HW217695   1.213   4.705   7.442
  185SOL     OW17696   1.748   5.723   7.618
  185SOL    HW117697   1.672   5.750   7.669
  185SOL    HW217698   1.812   5.694   7.684
  186SOL     OW17699   0.071   4.210   6.812
  186SOL    HW117700   0.088   4.289   6.761
  186SOL    HW217701  -0.017   4.183   6.787
  187SOL     OW17702   2.417   1.772   7.602
  187SOL    HW117703   2.511   1.790   7.598
  187SOL    HW217704   2.411   1.681   7.631
  188SOL     OW17705   3.135   3.289   1.706
  188SOL    HW117706   3.123   3.212   1.762
  188SOL    HW217707   3.093   3.265   1.623
  189SOL     OW17708   1.122   0.476   0.010
  189SOL    HW117709   1.207   0.474  -0.034
  189SOL    HW217710   1.119   0.562   0.054
  190SOL     OW17711   2.503   6.160   7.809
  190SOL    HW117712   2.597   6.154   7.824
  190SOL    HW217713   2.478   6.070   7.785
  191SOL     OW17714   3.247   1.247   7.955
  191SOL    HW117715   3.232   1.313   7.888
  191SOL    HW217716   3.183   1.178   7.936
  192SOL     OW17717   5.376   1.904   7.645
  192SOL    HW117718   5.309   1.857   7.596
  192SOL    HW217719   5.439   1.836   7.671
  193SOL     OW17720   0.411   2.766   7.457
  193SOL    HW117721   0.491   2.804   7.495
  193SOL    HW217722   0.377   2.709   7.526
  194SOL     OW17723   6.265   1.906   0.612
  194SOL    HW117724   6.248   1.913   0.518
  194SOL    HW217725   6.209   1.833   0.640
  195SOL     OW17726   3.164   1.065   1.595
  195SOL    HW117727   3.131   1.074   1.685
  195SOL    HW217728   3.091   1.091   1.540
  196SOL     OW17729   6.119   5.667   7.775
  196SOL    HW117730   6.187   5.642   7.837
  196SOL    HW217731   6.127   5.762   7.767
  197SOL     OW17732   3.569   3.378   7.620
  197SOL    HW117733   3.543   3.392   7.529
  197SOL    HW217734   3.650   3.428   7.629
  198SOL     OW17735   5.950   0.260   1.648
  198SOL    HW117736   5.878   0.272   1.587
  198SOL    HW217737   5.934   0.324   1.718
  199SOL     OW17738   4.150   1.629   0.441
  199SOL    HW117739   4.192   1.615   0.526
  199SOL    HW217740   4.222   1.657   0.384
  200SOL     OW17741   3.638   1.648   6.839
  200SOL    HW117742   3.661   1.669   6.749
  200SOL    HW217743   3.566   1.707   6.860
  201SOL     OW17744   4.314   5.427   6.253
  201SOL    HW117745   4.366   5.384   6.184
  201SOL    HW217746   4.274   5.354   6.301
  202SOL     OW17747   1.171   5.021   0.530
  202SOL    HW117748   1.238   4.970   0.485
  202SOL    HW217749   1.100   4.959   0.546
  203SOL     OW17750   2.668   0.546   6.133
  203SOL    HW117751   2.715   0.628   6.120
  203SOL    HW217752   2.735   0.478   6.128
  204SOL     OW17753   4.836   5.449   5.924
  204SOL    HW117754   4.851   5.519   5.987
  204SOL    HW217755   4.780   5.387   5.970
  205SOL     OW17756   0.851   1.270   1.574
  205SOL    HW117757   0.870   1.295   1.483
  205SOL    HW217758   0.887   1.341   1.627
  206SOL     OW17759   3.096   0.307   1.374
  206SOL    HW117760   3.142   0.368   1.432
  206SOL    HW217761   3.070   0.235   1.431
  207SOL     OW17762   5.218   0.304   6.565
  207SOL    HW117763   5.150   0.349   6.516
  207SOL    HW217764   5.210   0.213   6.539
  208SOL     OW17765   4.883   0.882   7.454
  208SOL    HW117766   4.862   0.828   7.378
  208SOL    HW217767   4.849   0.969   7.431
  209SOL     OW17768   1.935   0.726   2.055
  209SOL    HW117769   1.914   0.632   2.062
  209SOL    HW217770   2.030   0.729   2.052
  210SOL     OW17771   5.829   0.938   0.743
  210SOL    HW117772   5.830   1.007   0.677
  210SOL    HW217773   5.911   0.948   0.791
  211SOL     OW17774   1.679   1.002   7.453
  211SOL    HW117775   1.711   0.923   7.410
  211SOL    HW217776   1.739   1.071   7.423
  212SOL     OW17777   1.763   2.255   6.989
  212SOL    HW117778   1.710   2.217   6.919
  212SOL    HW217779   1.800   2.334   6.950
  213SOL     OW17780   4.831   0.520   7.959
  213SOL    HW117781   4.758   0.469   7.923
  213SOL    HW217782   4.796   0.557   8.040
  214SOL     OW17783   2.505   6.199   1.505
  214SOL    HW117784   2.447   6.123   1.506
  214SOL    HW217785   2.585   6.168   1.463
  215SOL     OW17786   6.098   4.535   2.566
  215SOL    HW117787   6.022   4.480   2.584
  215SOL    HW217788   6.098   4.546   2.471
  216SOL     OW17789   3.218   0.489   0.445
  216SOL    HW117790   3.147   0.455   0.499
  216SOL    HW217791   3.183   0.488   0.356
  217SOL     OW17792   1.899   0.771   1.026
  217SOL    HW117793   1.837   0.828   0.981
  217SOL    HW217794   1.965   0.750   0.960
  218SOL     OW17795   3.170   5.651   1.444
  218SOL    HW117796   3.171   5.654   1.348
  218SOL    HW217797   3.186   5.741   1.471
  219SOL     OW17798   4.272   4.697   0.907
  219SOL    HW117799   4.178   4.705   0.923
  219SOL    HW217800   4.279   4.636   0.834
  220SOL     OW17801   5.903   3.711   7.166
  220SOL    HW117802   5.856   3.684   7.087
  220SOL    HW217803   5.952   3.789   7.140
  221SOL     OW17804   4.850   1.717   7.034
  221SOL    HW117805   4.904   1.716   6.955
  221SOL    HW217806   4.912   1.727   7.106
  222SOL     OW17807   0.854   4.866   0.367
  222SOL    HW117808   0.897   4.822   0.441
  222SOL    HW217809   0.803   4.797   0.324
  223SOL     OW17810   4.683   2.289   6.768
  223SOL    HW117811   4.730   2.317   6.689
  223SOL    HW217812   4.753   2.273   6.832
  224SOL     OW17813   6.001   0.942   6.721
  224SOL    HW117814   6.026   1.027   6.687
  224SOL    HW217815   5.909   0.931   6.694
  225SOL     OW17816   3.074   5.861   6.414
  225SOL    HW117817   2.992   5.909   6.421
  225SOL    HW217818   3.079   5.809   6.495
  226SOL     OW17819   1.430   3.275   7.511
  226SOL    HW117820   1.341   3.312   7.513
  226SOL    HW217821   1.486   3.350   7.490
  227SOL     OW17822   0.910   3.869   6.588
  227SOL    HW117823   0.943   3.805   6.525
  227SOL    HW217824   0.867   3.936   6.534
  228SOL     OW17825   1.266   0.383   2.366
  228SOL    HW117826   1.301   0.396   2.455
  228SOL    HW217827   1.328   0.430   2.310
  229SOL     OW17828   2.763   6.186   1.976
  229SOL    HW117829   2.800   6.178   1.889
  229SOL    HW217830   2.688   6.245   1.965
  230SOL     OW17831   2.734   2.031   5.609
  230SOL    HW117832   2.811   2.085   5.595
  230SOL    HW217833   2.764   1.961   5.667
  231SOL     OW17834   1.664   4.657   6.903
  231SOL    HW117835   1.617   4.579   6.876
  231SOL    HW217836   1.721   4.627   6.974
  232SOL     OW17837   0.206   4.300   2.078
  232SOL    HW117838   0.148   4.257   2.141
  232SOL    HW217839   0.242   4.375   2.126
  233SOL     OW17840   3.524   1.750   0.726
  233SOL    HW117841   3.510   1.696   0.804
  233SOL    HW217842   3.443   1.741   0.676
  234SOL     OW17843   3.842   3.709   0.859
  234SOL    HW117844   3.802   3.769   0.796
  234SOL    HW217845   3.791   3.628   0.851
  235SOL     OW17846   2.407   1.445   1.713
  235SOL    HW117847   2.481   1.409   1.761
  235SOL    HW217848   2.433   1.440   1.621
  236SOL     OW17849   4.448   6.208   7.352
  236SOL    HW117850   4.523   6.261   7.323
  236SOL    HW217851   4.390   6.206   7.276
  237SOL     OW17852   1.892   0.121   6.788
  237SOL    HW117853   1.834   0.103   6.714
  237SOL    HW217854   1.962   0.174   6.751
  238SOL     OW17855   5.470   1.651   0.037
  238SOL    HW117856   5.478   1.731   0.089
  238SOL    HW217857   5.534   1.591   0.075
  239SOL     OW17858   2.149   5.586   6.582
  239SOL    HW117859   2.057   5.604   6.560
  239SOL    HW217860   2.145   5.527   6.657
  240SOL     OW17861   6.184   4.745   7.201
  240SOL    HW117862   6.121   4.811   7.173
  240SOL    HW217863   6.267   4.774   7.164
  241SOL     OW17864   0.399   0.366   6.478
  241SOL    HW117865   0.439   0.299   6.423
  241SOL    HW217866   0.364   0.318   6.553
  242SOL     OW17867   5.760   6.144   1.016
  242SOL    HW117868   5.811   6.080   1.066
  242SOL    HW217869   5.669   6.125   1.039
  243SOL     OW17870   1.586   2.573   6.447
  243SOL    HW117871   1.504   2.549   6.405
  243SOL    HW217872   1.596   2.511   6.519
  244SOL     OW17873   5.157   3.058   0.147
  244SOL    HW117874   5.210   3.082   0.071
  244SOL    HW217875   5.215   3.070   0.222
  245SOL     OW17876   1.983   5.815   0.964
  245SOL    HW117877   2.068   5.838   1.001
  245SOL    HW217878   1.919   5.857   1.022
  246SOL     OW17879   1.025   1.449   7.549
  246SOL    HW117880   0.935   1.467   7.574
  246SOL    HW217881   1.077   1.473   7.626
  247SOL     OW17882   3.310   1.668   2.381
  247SOL    HW117883   3.345   1.742   2.430
  247SOL    HW217884   3.386   1.624   2.344
  248SOL     OW17885   6.020   6.034   6.912
  248SOL    HW117886   6.069   5.968   6.961
  248SOL    HW217887   6.016   6.109   6.972
  249SOL     OW17888   3.448   5.245   6.747
  249SOL    HW117889   3.493   5.231   6.831
  249SOL    HW217890   3.394   5.323   6.762
  250SOL     OW17891   0.593   4.675   7.881
  250SOL    HW117892   0.579   4.727   7.960
  250SOL    HW217893   0.515   4.691   7.828
  251SOL     OW17894   0.715   6.030   1.878
  251SOL    HW117895   0.785   6.093   1.860
  251SOL    HW217896   0.683   6.005   1.791
  252SOL     OW17897   4.949   2.317   6.861
  252SOL    HW117898   4.984   2.377   6.926
  252SOL    HW217899   5.023   2.300   6.803
  253SOL     OW17900   4.789   4.423   0.476
  253SOL    HW117901   4.760   4.513   0.490
  253SOL    HW217902   4.740   4.371   0.540
  254SOL     OW17903   0.845   2.157   7.046
  254SOL    HW117904   0.755   2.138   7.075
  254SOL    HW217905   0.833   2.207   6.965
  255SOL     OW17906   4.363   5.821   1.698
  255SOL    HW117907   4.345   5.788   1.610
  255SOL    HW217908   4.458   5.811   1.708
  256SOL     OW17909   6.263   3.644   0.573
  256SOL    HW117910   6.345   3.694   0.581
  256SOL    HW217911   6.211   3.694   0.509
  257SOL     OW17912   2.185   0.556   0.074
  257SOL    HW117913   2.165   0.649   0.057
  257SOL    HW217914   2.279   0.555   0.090
  258SOL     OW17915   5.592   5.188   2.230
  258SOL    HW117916   5.538   5.205   2.307
  258SOL    HW217917   5.549   5.115   2.186
  259SOL     OW17918   6.248   6.088   1.649
  259SOL    HW117919   6.274   6.169   1.606
  259SOL    HW217920   6.265   6.103   1.742
  260SOL     OW17921   2.985   2.340   7.313
  260SOL    HW117922   2.976   2.256   7.268
  260SOL    HW217923   3.042   2.392   7.255
  261SOL     OW17924   3.452   4.704   1.695
  261SOL    HW117925   3.491   4.657   1.621
  261SOL    HW217926   3.392   4.766   1.654
  262SOL     OW17927   5.233   5.721   6.709
  262SOL    HW117928   5.286   5.748   6.784
  262SOL    HW217929   5.222   5.626   6.720
  263SOL     OW17930   1.188   5.083   6.557
  263SOL    HW117931   1.224   5.115   6.474
  263SOL    HW217932   1.102   5.124   6.564
  264SOL     OW17933   3.530   2.058   0.535
  264SOL    HW117934   3.502   2.002   0.462
  264SOL    HW217935   3.618   2.027   0.557
  265SOL     OW17936   1.337   6.151   0.216
  265SOL    HW117937   1.414   6.172   0.164
  265SOL    HW217938   1.359   6.070   0.261
  266SOL     OW17939   4.287   3.968   0.608
  266SOL    HW117940   4.214   3.911   0.633
  266SOL    HW217941   4.247   4.054   0.597
  267SOL     OW17942   4.804   4.559   1.579
  267SOL    HW117943   4.779   4.596   1.495
  267SOL    HW217944   4.755   4.477   1.585
  268SOL     OW17945   3.219   2.373   7.892
  268SOL    HW117946   3.315   2.364   7.892
  268SOL    HW217947   3.203   2.464   7.915
  269SOL     OW17948   4.925   3.989   6.880
  269SOL    HW117949   4.990   3.952   6.940
  269SOL    HW217950   4.841   3.961   6.916
  270SOL     OW17951   4.687   4.030   1.100
  270SOL    HW117952   4.676   4.116   1.058
  270SOL    HW217953   4.609   3.981   1.076
  271SOL     OW17954   1.514   6.328   1.389
  271SOL    HW117955   1.472   6.379   1.458
  271SOL    HW217956   1.557   6.256   1.435
  272SOL     OW17957   6.055   1.266   1.163
  272SOL    HW117958   6.149   1.253   1.149
  272SOL    HW217959   6.025   1.185   1.203
  273SOL     OW17960   0.422   5.029   0.483
  273SOL    HW117961   0.426   4.960   0.549
  273SOL    HW217962   0.512   5.062   0.477
  274SOL     OW17963   5.862   1.286   2.484
  274SOL    HW117964   5.941   1.232   2.485
  274SOL    HW217965   5.790   1.223   2.485
  275SOL     OW17966   6.333   5.673   7.946
  275SOL    HW117967   6.329   5.734   8.020
  275SOL    HW217968   6.409   5.702   7.895
  276SOL     OW17969   2.880   6.050   7.327
  276SOL    HW117970   2.909   6.008   7.246
  276SOL    HW217971   2.934   6.009   7.395
  277SOL     OW17972   3.185   2.352   5.580
  277SOL    HW117973   3.256   2.343   5.517
  277SOL    HW217974   3.218   2.416   5.644
  278SOL     OW17975   2.743   5.743   0.203
  278SOL    HW117976   2.815   5.801   0.230
  278SOL    HW217977   2.672   5.803   0.180
  279SOL     OW17978   2.358   5.306   1.473
  279SOL    HW117979   2.431   5.281   1.416
  279SOL    HW217980   2.396   5.368   1.535
  280SOL     OW17981   4.295   1.824   5.288
  280SOL    HW117982   4.226   1.864   5.341
  280SOL    HW217983   4.277   1.854   5.199
  281SOL     OW17984   0.806   2.266   6.775
  281SOL    HW117985   0.850   2.207   6.715
  281SOL    HW217986   0.748   2.318   6.719
  282SOL     OW17987   3.561   2.096   5.879
  282SOL    HW117988   3.531   2.034   5.946
  282SOL    HW217989   3.489   2.101   5.817
  283SOL     OW17990   2.397   4.829   0.839
  283SOL    HW117991   2.331   4.804   0.904
  283SOL    HW217992   2.370   4.785   0.759
  284SOL     OW17993   5.659   4.904   6.808
  284SOL    HW117994   5.674   4.812   6.827
  284SOL    HW217995   5.708   4.951   6.875
  285SOL     OW17996   3.931   6.162   2.190
  285SOL    HW117997   3.967   6.217   2.120
  285SOL    HW217998   4.007   6.121   2.230
  286SOL     OW17999   1.731   5.520   0.097
  286SOL    HW118000   1.715   5.533   0.190
  286SOL    HW218001   1.825   5.535   0.087
  287SOL     OW18002   5.542   4.099   8.049
  287SOL    HW118003   5.470   4.074   7.990
  287SOL    HW218004   5.515   4.065   8.135
  288SOL     OW18005   4.234   5.399   7.872
  288SOL    HW118006   4.255   5.488   7.899
  288SOL    HW218007   4.318   5.363   7.842
  289SOL     OW18008   4.328   2.150   1.441
  289SOL    HW118009   4.396   2.152   1.375
  289SOL    HW218010   4.296   2.060   1.440
  290SOL     OW18011   2.790   2.609   6.506
  290SOL    HW118012   2.819   2.527   6.467
  290SOL    HW218013   2.854   2.625   6.576
  291SOL     OW18014   4.833   1.936   0.651
  291SOL    HW118015   4.816   1.997   0.723
  291SOL    HW218016   4.826   1.990   0.572
  292SOL     OW18017   2.906   5.038   7.959
  292SOL    HW118018   2.927   4.973   8.026
  292SOL    HW218019   2.810   5.040   7.956
  293SOL     OW18020   0.272   0.502   1.647
  293SOL    HW118021   0.364   0.519   1.630
  293SOL    HW218022   0.264   0.501   1.742
  294SOL     OW18023   5.666   4.702   7.251
  294SOL    HW118024   5.637   4.791   7.270
  294SOL    HW218025   5.679   4.662   7.337
  295SOL     OW18026   5.189   3.308   0.380
  295SOL    HW118027   5.111   3.305   0.324
  295SOL    HW218028   5.155   3.329   0.467
  296SOL     OW18029   2.648   0.046   5.602
  296SOL    HW118030   2.614   0.129   5.637
  296SOL    HW218031   2.585  -0.020   5.631
  297SOL     OW18032   5.445   4.195   2.672
  297SOL    HW118033   5.512   4.263   2.667
  297SOL    HW218034   5.369   4.238   2.710
  298SOL     OW18035   3.517   1.907   1.075
  298SOL    HW118036   3.432   1.950   1.067
  298SOL    HW218037   3.572   1.949   1.009
  299SOL     OW18038   2.112   3.992   7.949
  299SOL    HW118039   2.176   4.006   8.019
  299SOL    HW218040   2.163   3.999   7.868
  300SOL     OW18041   3.586   5.584   0.556
  300SOL    HW118042   3.545   5.618   0.476
  300SOL    HW218043   3.652   5.522   0.525
  301SOL     OW18044   2.729   0.150   7.231
  301SOL    HW118045   2.787   0.075   7.223
  301SOL    HW218046   2.786   0.226   7.218
  302SOL     OW18047   4.724   4.853   1.747
  302SOL    HW118048   4.793   4.841   1.682
  302SOL    HW218049   4.769   4.885   1.825
  303SOL     OW18050   5.280   2.032   6.093
  303SOL    HW118051   5.238   2.040   6.007
  303SOL    HW218052   5.235   2.095   6.148
  304SOL     OW18053   1.709   1.143   0.552
  304SOL    HW118054   1.636   1.101   0.596
  304SOL    HW218055   1.764   1.178   0.622
  305SOL     OW18056   3.818   2.924   7.988
  305SOL    HW118057   3.872   2.997   8.020
  305SOL    HW218058   3.752   2.913   8.057
  306SOL     OW18059   1.089   4.236   7.441
  306SOL    HW118060   1.047   4.150   7.441
  306SOL    HW218061   1.129   4.243   7.355
  307SOL     OW18062   3.673   0.195   7.791
  307SOL    HW118063   3.586   0.213   7.828
  307SOL    HW218064   3.726   0.271   7.815
  308SOL     OW18065   1.908   5.115   0.529
  308SOL    HW118066   1.884   5.026   0.501
  308SOL    HW218067   2.003   5.113   0.536
  309SOL     OW18068   2.906   2.836   8.002
  309SOL    HW118069   2.844   2.875   7.940
  309SOL    HW218070   2.987   2.884   7.987
  310SOL     OW18071   1.732   1.783   0.551
  310SOL    HW118072   1.726   1.871   0.511
  310SOL    HW218073   1.648   1.742   0.529
  311SOL     OW18074   0.271   3.365   7.741
  311SOL    HW118075   0.323   3.399   7.669
  311SOL    HW218076   0.321   3.290   7.773
  312SOL     OW18077   1.915   4.250   0.509
  312SOL    HW118078   1.954   4.302   0.438
  312SOL    HW218079   1.823   4.239   0.483
  313SOL     OW18080   3.222   2.453   1.264
  313SOL    HW118081   3.214   2.377   1.322
  313SOL    HW218082   3.256   2.523   1.320
  314SOL     OW18083   0.394   3.776   1.522
  314SOL    HW118084   0.413   3.808   1.611
  314SOL    HW218085   0.333   3.703   1.536
  315SOL     OW18086   1.241   1.545   2.587
  315SOL    HW118087   1.159   1.510   2.621
  315SOL    HW218088   1.286   1.469   2.550
  316SOL     OW18089   4.948   3.203   0.283
  316SOL    HW118090   4.914   3.149   0.355
  316SOL    HW218091   5.017   3.149   0.244
  317SOL     OW18092   3.781   5.920   6.895
  317SOL    HW118093   3.803   5.832   6.865
  317SOL    HW218094   3.836   5.934   6.972
  318SOL     OW18095   4.187   3.490   1.810
  318SOL    HW118096   4.146   3.406   1.788
  318SOL    HW218097   4.278   3.469   1.828
  319SOL     OW18098   1.835   2.799   7.911
  319SOL    HW118099   1.779   2.845   7.849
  319SOL    HW218100   1.795   2.815   7.997
  320SOL     OW18101   0.661   1.981   7.144
  320SOL    HW118102   0.587   1.988   7.084
  320SOL    HW218103   0.688   1.889   7.137
  321SOL     OW18104   5.244   5.835   0.284
  321SOL    HW118105   5.182   5.901   0.315
  321SOL    HW218106   5.265   5.784   0.362
  322SOL     OW18107   1.368   0.415   0.327
  322SOL    HW118108   1.398   0.343   0.270
  322SOL    HW218109   1.282   0.387   0.358
  323SOL     OW18110   1.932   1.949   0.281
  323SOL    HW118111   1.852   1.991   0.248
  323SOL    HW218112   1.978   2.018   0.329
  324SOL     OW18113   1.519   5.179   0.518
  324SOL    HW118114   1.499   5.176   0.424
  324SOL    HW218115   1.605   5.221   0.522
  325SOL     OW18116   4.483   0.875   2.441
  325SOL    HW118117   4.395   0.877   2.476
  325SOL    HW218118   4.519   0.962   2.459
  326SOL     OW18119   5.011   5.537   1.528
  326SOL    HW118120   4.980   5.493   1.608
  326SOL    HW218121   5.088   5.587   1.557
  327SOL     OW18122   3.520   2.176   6.886
  327SOL    HW118123   3.541   2.216   6.970
  327SOL    HW218124   3.452   2.112   6.906
  328SOL     OW18125   0.732   5.231   7.925
  328SOL    HW118126   0.646   5.258   7.895
  328SOL    HW218127   0.733   5.251   8.018
  329SOL     OW18128   3.091   1.479   5.735
  329SOL    HW118129   3.023   1.431   5.689
  329SOL    HW218130   3.172   1.431   5.714
  330SOL     OW18131   5.254   0.451   0.830
  330SOL    HW118132   5.167   0.418   0.852
  330SOL    HW218133   5.238   0.534   0.785
  331SOL     OW18134   6.077   5.481   0.883
  331SOL    HW118135   6.038   5.433   0.811
  331SOL    HW218136   6.159   5.436   0.902
  332SOL     OW18137   2.978   6.298   6.976
  332SOL    HW118138   2.966   6.391   6.997
  332SOL    HW218139   2.894   6.271   6.939
  333SOL     OW18140   1.324   4.179   2.388
  333SOL    HW118141   1.329   4.274   2.394
  333SOL    HW218142   1.323   4.161   2.294
  334SOL     OW18143   2.007   1.919   7.114
  334SOL    HW118144   1.938   1.885   7.058
  334SOL    HW218145   2.024   2.008   7.082
  335SOL     OW18146   5.369   5.572   6.944
  335SOL    HW118147   5.336   5.534   7.026
  335SOL    HW218148   5.383   5.496   6.887
  336SOL     OW18149   1.092   5.915   1.545
  336SOL    HW118150   1.034   5.919   1.469
  336SOL    HW218151   1.160   5.853   1.520
  337SOL     OW18152   3.338   0.375   0.146
  337SOL    HW118153   3.428   0.392   0.174
  337SOL    HW218154   3.310   0.302   0.201
  338SOL     OW18155   4.828   1.554   1.147
  338SOL    HW118156   4.879   1.633   1.164
  338SOL    HW218157   4.890   1.482   1.162
  339SOL     OW18158   3.644   2.224   2.035
  339SOL    HW118159   3.643   2.316   2.009
  339SOL    HW218160   3.703   2.220   2.110
  340SOL     OW18161   5.127   1.115   0.940
  340SOL    HW118162   5.150   1.189   0.996
  340SOL    HW218163   5.034   1.125   0.923
  341SOL     OW18164   1.014   0.936   6.088
  341SOL    HW118165   1.016   0.945   5.992
  341SOL    HW218166   1.094   0.979   6.118
  342SOL     OW18167   4.000   5.246   6.021
  342SOL    HW118168   3.987   5.255   6.115
  342SOL    HW218169   3.990   5.334   5.986
  343SOL     OW18170   4.866   1.295   2.055
  343SOL    HW118171   4.855   1.211   2.100
  343SOL    HW218172   4.815   1.285   1.974
  344SOL     OW18173   6.086   0.710   7.993
  344SOL    HW118174   6.015   0.716   8.057
  344SOL    HW218175   6.045   0.727   7.909
  345SOL     OW18176   3.985   4.821   6.727
  345SOL    HW118177   3.995   4.753   6.660
  345SOL    HW218178   3.948   4.895   6.680
  346SOL     OW18179   2.704   0.614   1.281
  346SOL    HW118180   2.680   0.522   1.291
  346SOL    HW218181   2.631   0.662   1.322
  347SOL     OW18182   1.091   1.459   7.136
  347SOL    HW118183   1.181   1.442   7.165
  347SOL    HW218184   1.092   1.438   7.043
  348SOL     OW18185   4.353   1.116   2.213
  348SOL    HW118186   4.399   1.150   2.290
  348SOL    HW218187   4.261   1.117   2.238
  349SOL     OW18188   0.420   2.384   0.416
  349SOL    HW118189   0.387   2.294   0.412
  349SOL    HW218190   0.467   2.396   0.333
  350SOL     OW18191   2.137   2.630   7.716
  350SOL    HW118192   2.177   2.600   7.634
  350SOL    HW218193   2.202   2.610   7.783
  351SOL     OW18194   4.449   3.096   6.346
  351SOL    HW118195   4.492   3.127   6.266
  351SOL    HW218196   4.436   3.174   6.399
  352SOL     OW18197   3.996   5.592   3.131
  352SOL    HW118198   4.080   5.594   3.177
  352SOL    HW218199   3.998   5.509   3.082
  353SOL     OW18200   5.205   6.057   6.902
  353SOL    HW118201   5.159   6.054   6.818
  353SOL    HW218202   5.278   5.996   6.892
  354SOL     OW18203   2.186   1.972   1.544
  354SOL    HW118204   2.119   2.032   1.579
  354SOL    HW218205   2.224   1.932   1.622
  355SOL     OW18206   1.664   3.501   0.671
  355SOL    HW118207   1.654   3.488   0.766
  355SOL    HW218208   1.668   3.412   0.635
  356SOL     OW18209   6.230   3.048   0.312
  356SOL    HW118210   6.325   3.040   0.302
  356SOL    HW218211   6.210   3.138   0.286
  357SOL     OW18212   2.852   1.226   6.146
  357SOL    HW118213   2.794   1.229   6.070
  357SOL    HW218214   2.895   1.141   6.141
  358SOL     OW18215   5.473   6.047   6.561
  358SOL    HW118216   5.511   6.021   6.478
  358SOL    HW218217   5.486   6.142   6.565
  359SOL     OW18218   1.895   5.285   1.946
  359SOL    HW118219   1.900   5.203   1.994
  359SOL    HW218220   1.944   5.347   1.999
  360SOL     OW18221   1.873   4.497   0.258
  360SOL    HW118222   1.824   4.456   0.186
  360SOL    HW218223   1.807   4.522   0.322
  361SOL     OW18224   1.453   5.736   6.997
  361SOL    HW118225   1.385   5.710   7.059
  361SOL    HW218226   1.420   5.707   6.912
  362SOL     OW18227   1.729   4.297   1.833
  362SOL    HW118228   1.764   4.220   1.790
  362SOL    HW218229   1.728   4.275   1.926
  363SOL     OW18230   2.849   0.664   0.131
  363SOL    HW118231   2.829   0.753   0.160
  363SOL    HW218232   2.791   0.650   0.056
  364SOL     OW18233   0.474   1.533   0.411
  364SOL    HW118234   0.391   1.494   0.439
  364SOL    HW218235   0.454   1.574   0.327
  365SOL     OW18236   4.532   5.266   1.135
  365SOL    HW118237   4.480   5.285   1.057
  365SOL    HW218238   4.597   5.202   1.107
  366SOL     OW18239   6.151   4.194   0.783
  366SOL    HW118240   6.240   4.205   0.751
  366SOL    HW218241   6.123   4.109   0.748
  367SOL     OW18242   3.492   0.144   1.227
  367SOL    HW118243   3.434   0.167   1.300
  367SOL    HW218244   3.536   0.225   1.204
  368SOL     OW18245   1.943   1.090   1.817
  368SOL    HW118246   1.977   1.022   1.759
  368SOL    HW218247   1.869   1.049   1.861
  369SOL     OW18248   0.121   1.915   0.793
  369SOL    HW118249   0.045   1.898   0.738
  369SOL    HW218250   0.159   1.995   0.757
  370SOL     OW18251   3.542   5.695   0.088
  370SOL    HW118252   3.476   5.745   0.038
  370SOL    HW218253   3.621   5.699   0.033
  371SOL     OW18254   0.534   1.563   7.204
  371SOL    HW118255   0.487   1.587   7.124
  371SOL    HW218256   0.584   1.485   7.180
  372SOL     OW18257   0.422   5.450   0.159
  372SOL    HW118258   0.428   5.359   0.189
  372SOL    HW218259   0.509   5.486   0.172
  373SOL     OW18260   1.200   2.103   7.550
  373SOL    HW118261   1.258   2.109   7.474
  373SOL    HW218262   1.112   2.101   7.513
  374SOL     OW18263   3.701   5.960   6.493
  374SOL    HW118264   3.688   5.887   6.553
  374SOL    HW218265   3.619   6.009   6.497
  375SOL     OW18266   0.309   3.652   0.392
  375SOL    HW118267   0.343   3.604   0.316
  375SOL    HW218268   0.234   3.700   0.359
  376SOL     OW18269   0.330   0.355   7.630
  376SOL    HW118270   0.303   0.402   7.708
  376SOL    HW218271   0.360   0.423   7.570
  377SOL     OW18272   5.514   5.040   1.591
  377SOL    HW118273   5.527   5.134   1.600
  377SOL    HW218274   5.436   5.022   1.644
  378SOL     OW18275   4.626   6.111   0.475
  378SOL    HW118276   4.548   6.097   0.421
  378SOL    HW218277   4.671   6.027   0.475
  379SOL     OW18278   2.126   2.525   1.248
  379SOL    HW118279   2.068   2.532   1.324
  379SOL    HW218280   2.197   2.587   1.267
  380SOL     OW18281   4.398   4.724   1.957
  380SOL    HW118282   4.413   4.692   2.046
  380SOL    HW218283   4.385   4.818   1.966
  381SOL     OW18284   5.781   0.956   0.205
  381SOL    HW118285   5.694   0.996   0.204
  381SOL    HW218286   5.798   0.937   0.297
  382SOL     OW18287   3.684   0.609   1.842
  382SOL    HW118288   3.688   0.684   1.902
  382SOL    HW218289   3.775   0.580   1.835
  383SOL     OW18290   5.412   1.266   2.164
  383SOL    HW118291   5.317   1.266   2.150
  383SOL    HW218292   5.448   1.234   2.082
  384SOL     OW18293   5.713   0.579   0.319
  384SOL    HW118294   5.728   0.534   0.236
  384SOL    HW218295   5.765   0.530   0.382
  385SOL     OW18296   2.501   4.522   8.062
  385SOL    HW118297   2.560   4.463   8.015
  385SOL    HW218298   2.477   4.589   7.997
  386SOL     OW18299   1.067   4.333   0.231
  386SOL    HW118300   1.045   4.388   0.156
  386SOL    HW218301   1.060   4.243   0.198
  387SOL     OW18302   5.663   5.313   2.628
  387SOL    HW118303   5.663   5.394   2.678
  387SOL    HW218304   5.715   5.332   2.550
  388SOL     OW18305   0.246   2.591   7.665
  388SOL    HW118306   0.197   2.673   7.673
  388SOL    HW218307   0.254   2.560   7.755
  389SOL     OW18308   2.622   6.129   6.470
  389SOL    HW118309   2.540   6.110   6.516
  389SOL    HW218310   2.635   6.223   6.482
  390SOL     OW18311   4.621   5.701   7.812
  390SOL    HW118312   4.658   5.782   7.775
  390SOL    HW218313   4.694   5.660   7.858
  391SOL     OW18314   2.706   0.647   7.993
  391SOL    HW118315   2.672   0.560   7.972
  391SOL    HW218316   2.666   0.705   7.929
  392SOL     OW18317   4.325   2.318   6.489
  392SOL    HW118318   4.334   2.323   6.584
  392SOL    HW218319   4.412   2.341   6.455
  393SOL     OW18320   5.635   1.730   1.704
  393SOL    HW118321   5.559   1.788   1.695
  393SOL    HW218322   5.633   1.702   1.795
  394SOL     OW18323   2.944   5.390   5.759
  394SOL    HW118324   2.956   5.303   5.797
  394SOL    HW218325   3.032   5.417   5.731
  395SOL     OW18326   4.999   0.472   6.454
  395SOL    HW118327   4.924   0.464   6.512
  395SOL    HW218328   5.008   0.566   6.440
  396SOL     OW18329   2.934   5.933   1.253
  396SOL    HW118330   3.015   5.957   1.209
  396SOL    HW218331   2.921   5.840   1.232
  397SOL     OW18332   2.005   2.981   7.608
  397SOL    HW118333   2.043   2.922   7.674
  397SOL    HW218334   1.981   3.059   7.658
  398SOL     OW18335   1.379   0.726   7.120
  398SOL    HW118336   1.378   0.731   7.215
  398SOL    HW218337   1.320   0.654   7.099
  399SOL     OW18338   0.831   4.629   8.036
  399SOL    HW118339   0.908   4.623   7.980
  399SOL    HW218340   0.757   4.618   7.975
  400SOL     OW18341   2.536   4.580   7.396
  400SOL    HW118342   2.489   4.612   7.473
  400SOL    HW218343   2.511   4.642   7.326
  401SOL     OW18344   3.762   3.458   6.301
  401SOL    HW118345   3.717   3.375   6.284
  401SOL    HW218346   3.696   3.525   6.286
  402SOL     OW18347   3.205   1.031   2.814
  402SOL    HW118348   3.232   1.122   2.811
  402SOL    HW218349   3.247   0.996   2.893
  403SOL     OW18350   0.032   0.207   7.895
  403SOL    HW118351   0.112   0.248   7.926
  403SOL    HW218352  -0.038   0.260   7.933
  404SOL     OW18353   5.364   6.252   1.241
  404SOL    HW118354   5.305   6.300   1.299
  404SOL    HW218355   5.355   6.160   1.268
  405SOL     OW18356   1.552   0.108   6.812
  405SOL    HW118357   1.495   0.155   6.752
  405SOL    HW218358   1.627   0.081   6.758
  406SOL     OW18359   4.805   6.289   1.740
  406SOL    HW118360   4.851   6.360   1.694
  406SOL    HW218361   4.850   6.282   1.824
  407SOL     OW18362   0.537   0.572   1.643
  407SOL    HW118363   0.542   0.603   1.733
  407SOL    HW218364   0.531   0.651   1.590
  408SOL     OW18365   1.759   0.490   0.142
  408SOL    HW118366   1.802   0.444   0.214
  408SOL    HW218367   1.689   0.541   0.185
  409SOL     OW18368   5.177   0.009   6.472
  409SOL    HW118369   5.104  -0.033   6.519
  409SOL    HW218370   5.180  -0.036   6.387
  410SOL     OW18371   3.649   4.149   7.205
  410SOL    HW118372   3.621   4.100   7.282
  410SOL    HW218373   3.694   4.084   7.151
  411SOL     OW18374   2.601   4.262   0.308
  411SOL    HW118375   2.654   4.300   0.378
  411SOL    HW218376   2.522   4.316   0.306
  412SOL     OW18377   4.288   0.362   1.728
  412SOL    HW118378   4.299   0.329   1.817
  412SOL    HW218379   4.198   0.337   1.704
  413SOL     OW18380   4.722   2.216   7.773
  413SOL    HW118381   4.755   2.127   7.776
  413SOL    HW218382   4.723   2.246   7.864
  414SOL     OW18383   0.889   2.052   0.003
  414SOL    HW118384   0.906   2.116  -0.067
  414SOL    HW218385   0.893   2.103   0.084
  415SOL     OW18386   0.222   4.900   7.953
  415SOL    HW118387   0.158   4.938   7.893
  415SOL    HW218388   0.215   4.953   8.033
  416SOL     OW18389   1.155   1.670   1.180
  416SOL    HW118390   1.193   1.583   1.197
  416SOL    HW218391   1.227   1.731   1.194
  417SOL     OW18392   0.732   1.607   0.603
  417SOL    HW118393   0.669   1.610   0.675
  417SOL    HW218394   0.691   1.553   0.537
  418SOL     OW18395   5.556   4.153   7.189
  418SOL    HW118396   5.587   4.239   7.217
  418SOL    HW218397   5.525   4.167   7.099
  419SOL     OW18398   2.927   0.987   7.389
  419SOL    HW118399   2.880   0.906   7.410
  419SOL    HW218400   3.020   0.963   7.394
  420SOL     OW18401   3.695   5.186   0.391
  420SOL    HW118402   3.759   5.234   0.339
  420SOL    HW218403   3.717   5.206   0.482
  421SOL     OW18404   2.746   5.348   2.242
  421SOL    HW118405   2.825   5.367   2.291
  421SOL    HW218406   2.761   5.261   2.205
  422SOL     OW18407   3.899   4.640   1.723
  422SOL    HW118408   3.963   4.647   1.651
  422SOL    HW218409   3.936   4.694   1.792
  423SOL     OW18410   3.667   1.383   7.961
  423SOL    HW118411   3.721   1.444   8.011
  423SOL    HW218412   3.679   1.409   7.870
  424SOL     OW18413   1.318   2.208   2.049
  424SOL    HW118414   1.350   2.267   2.117
  424SOL    HW218415   1.237   2.172   2.085
  425SOL     OW18416   0.960   1.019   1.563
  425SOL    HW118417   0.923   1.106   1.579
  425SOL    HW218418   1.052   1.026   1.591
  426SOL     OW18419   3.508   4.256   7.558
  426SOL    HW118420   3.427   4.269   7.608
  426SOL    HW218421   3.522   4.340   7.514
  427SOL     OW18422   3.925   1.017   5.613
  427SOL    HW118423   3.989   0.981   5.675
  427SOL    HW218424   3.849   1.038   5.666
  428SOL     OW18425   0.137   1.017   7.524
  428SOL    HW118426   0.077   1.078   7.481
  428SOL    HW218427   0.081   0.968   7.585
  429SOL     OW18428   5.886   4.830   1.456
  429SOL    HW118429   5.873   4.800   1.366
  429SOL    HW218430   5.798   4.839   1.491
  430SOL     OW18431   4.135   0.068   2.827
  430SOL    HW118432   4.094   0.154   2.834
  430SOL    HW218433   4.228   0.085   2.841
  431SOL     OW18434   5.132   1.320   2.143
  431SOL    HW118435   5.038   1.303   2.131
  431SOL    HW218436   5.150   1.394   2.085
  432SOL     OW18437   3.980   3.408   2.071
  432SOL    HW118438   4.013   3.476   2.013
  432SOL    HW218439   3.988   3.444   2.159
  433SOL     OW18440   2.413   0.831   6.831
  433SOL    HW118441   2.497   0.825   6.787
  433SOL    HW218442   2.428   0.891   6.904
  434SOL     OW18443   6.163   5.577   7.037
  434SOL    HW118444   6.231   5.590   7.103
  434SOL    HW218445   6.082   5.570   7.086
  435SOL     OW18446   5.523   3.497   7.589
  435SOL    HW118447   5.567   3.583   7.595
  435SOL    HW218448   5.447   3.505   7.646
  436SOL     OW18449   0.374   1.567   6.987
  436SOL    HW118450   0.346   1.594   6.899
  436SOL    HW218451   0.368   1.472   6.985
  437SOL     OW18452   2.736   6.353   1.250
  437SOL    HW118453   2.819   6.352   1.202
  437SOL    HW218454   2.709   6.261   1.252
  438SOL     OW18455   4.558   4.114   2.126
  438SOL    HW118456   4.490   4.147   2.185
  438SOL    HW218457   4.637   4.110   2.179
  439SOL     OW18458   6.080   5.106   6.308
  439SOL    HW118459   6.148   5.083   6.246
  439SOL    HW218460   6.090   5.201   6.322
  440SOL     OW18461   3.593   4.631   1.403
  440SOL    HW118462   3.684   4.605   1.391
  440SOL    HW218463   3.542   4.559   1.365
  441SOL     OW18464   4.687   5.991   7.766
  441SOL    HW118465   4.678   5.992   7.670
  441SOL    HW218466   4.691   6.084   7.790
  442SOL     OW18467   1.018   3.112   1.452
  442SOL    HW118468   1.088   3.056   1.418
  442SOL    HW218469   0.979   3.151   1.374
  443SOL     OW18470   6.275   4.890   7.567
  443SOL    HW118471   6.329   4.891   7.488
  443SOL    HW218472   6.226   4.971   7.565
  444SOL     OW18473   4.035   5.900   0.699
  444SOL    HW118474   3.944   5.912   0.725
  444SOL    HW218475   4.084   5.959   0.756
  445SOL     OW18476   0.021   2.320   7.242
  445SOL    HW118477  -0.004   2.239   7.288
  445SOL    HW218478   0.061   2.290   7.161
  446SOL     OW18479   0.908   2.989   8.030
  446SOL    HW118480   0.980   2.941   8.072
  446SOL    HW218481   0.854   3.019   8.103
  447SOL     OW18482   5.941   1.125   7.195
  447SOL    HW118483   5.946   1.193   7.262
  447SOL    HW218484   5.991   1.052   7.230
  448SOL     OW18485   2.732   5.947   6.812
  448SOL    HW118486   2.782   5.878   6.768
  448SOL    HW218487   2.641   5.920   6.804
  449SOL     OW18488   4.109   2.796   0.126
  449SOL    HW118489   4.141   2.832   0.043
  449SOL    HW218490   4.045   2.730   0.101
  450SOL     OW18491   3.397   3.104   1.849
  450SOL    HW118492   3.342   3.109   1.927
  450SOL    HW218493   3.472   3.160   1.869
  451SOL     OW18494   2.349   4.314   7.013
  451SOL    HW118495   2.417   4.353   7.067
  451SOL    HW218496   2.378   4.328   6.923
  452SOL     OW18497   3.192   2.024   7.666
  452SOL    HW118498   3.267   2.068   7.626
  452SOL    HW218499   3.116   2.072   7.633
  453SOL     OW18500   6.106   5.266   1.765
  453SOL    HW118501   6.126   5.188   1.711
  453SOL    HW218502   6.162   5.257   1.842
  454SOL     OW18503   3.195   0.049   7.869
  454SOL    HW118504   3.194  -0.014   7.941
  454SOL    HW218505   3.187  -0.004   7.790
  455SOL     OW18506   3.910   0.755   7.551
  455SOL    HW118507   3.878   0.677   7.505
  455SOL    HW218508   3.891   0.737   7.643
  456SOL     OW18509   3.321   3.515   6.672
  456SOL    HW118510   3.300   3.481   6.585
  456SOL    HW218511   3.380   3.449   6.710
  457SOL     OW18512   3.489   0.401   2.540
  457SOL    HW118513   3.407   0.375   2.498
  457SOL    HW218514   3.523   0.471   2.484
  458SOL     OW18515   1.146   1.351   6.431
  458SOL    HW118516   1.139   1.297   6.510
  458SOL    HW218517   1.229   1.324   6.391
  459SOL     OW18518   1.952   2.455   2.395
  459SOL    HW118519   2.007   2.382   2.424
  459SOL    HW218520   2.012   2.517   2.355
  460SOL     OW18521   0.715   2.361   7.310
  460SOL    HW118522   0.690   2.318   7.227
  460SOL    HW218523   0.637   2.353   7.365
  461SOL     OW18524   3.477   3.304   8.051
  461SOL    HW118525   3.419   3.268   7.985
  461SOL    HW218526   3.548   3.344   8.002
  462SOL     OW18527   3.009   0.313   7.537
  462SOL    HW118528   2.998   0.323   7.631
  462SOL    HW218529   2.963   0.388   7.499
  463SOL     OW18530   6.169   0.791   0.246
  463SOL    HW118531   6.144   0.700   0.261
  463SOL    HW218532   6.264   0.788   0.237
  464SOL     OW18533   5.447   5.380   0.306
  464SOL    HW118534   5.504   5.424   0.242
  464SOL    HW218535   5.384   5.447   0.331
  465SOL     OW18536   0.693   4.713   0.207
  465SOL    HW118537   0.764   4.677   0.156
  465SOL    HW218538   0.628   4.741   0.142
  466SOL     OW18539   0.766   3.043   6.387
  466SOL    HW118540   0.855   3.055   6.353
  466SOL    HW218541   0.713   3.025   6.310
  467SOL     OW18542   0.774   2.206   0.428
  467SOL    HW118543   0.842   2.193   0.362
  467SOL    HW218544   0.755   2.300   0.425
  468SOL     OW18545   5.592   0.789   0.503
  468SOL    HW118546   5.636   0.737   0.435
  468SOL    HW218547   5.585   0.730   0.578
  469SOL     OW18548   3.330   3.364   6.434
  469SOL    HW118549   3.330   3.333   6.344
  469SOL    HW218550   3.322   3.285   6.487
  470SOL     OW18551   4.533   3.976   6.222
  470SOL    HW118552   4.622   3.984   6.188
  470SOL    HW218553   4.544   3.962   6.316
  471SOL     OW18554   5.159   3.638   7.936
  471SOL    HW118555   5.145   3.719   7.886
  471SOL    HW218556   5.143   3.663   8.027
  472SOL     OW18557   2.108   4.544   7.039
  472SOL    HW118558   2.068   4.620   6.996
  472SOL    HW218559   2.195   4.537   6.999
  473SOL     OW18560   1.725   0.874   2.226
  473SOL    HW118561   1.630   0.861   2.233
  473SOL    HW218562   1.757   0.796   2.181
  474SOL     OW18563   1.179   3.678   6.223
  474SOL    HW118564   1.127   3.600   6.239
  474SOL    HW218565   1.263   3.645   6.190
  475SOL     OW18566   3.506   4.567   6.677
  475SOL    HW118567   3.594   4.600   6.695
  475SOL    HW218568   3.496   4.491   6.735
  476SOL     OW18569   1.653   2.537   7.584
  476SOL    HW118570   1.722   2.477   7.612
  476SOL    HW218571   1.700   2.605   7.535
  477SOL     OW18572   0.998   4.630   2.485
  477SOL    HW118573   0.968   4.673   2.565
  477SOL    HW218574   0.919   4.616   2.433
  478SOL     OW18575   2.798   1.304   1.638
  478SOL    HW118576   2.819   1.251   1.561
  478SOL    HW218577   2.705   1.287   1.654
  479SOL     OW18578   5.367   2.008   0.569
  479SOL    HW118579   5.455   1.972   0.556
  479SOL    HW218580   5.369   2.092   0.522
  480SOL     OW18581   4.300   6.152   8.033
  480SOL    HW118582   4.261   6.144   8.121
  480SOL    HW218583   4.303   6.246   8.017
  481SOL     OW18584   1.472   5.184   7.736
  481SOL    HW118585   1.456   5.138   7.653
  481SOL    HW218586   1.431   5.269   7.724
  482SOL     OW18587   3.438   3.629   5.595
  482SOL    HW118588   3.504   3.609   5.529
  482SOL    HW218589   3.470   3.710   5.637
  483SOL     OW18590   5.380   0.268   0.445
  483SOL    HW118591   5.306   0.256   0.386
  483SOL    HW218592   5.431   0.187   0.436
  484SOL     OW18593   0.744   6.276   0.255
  484SOL    HW118594   0.824   6.319   0.222
  484SOL    HW218595   0.719   6.328   0.331
  485SOL     OW18596   4.523   0.600   5.801
  485SOL    HW118597   4.442   0.646   5.823
  485SOL    HW218598   4.504   0.509   5.821
  486SOL     OW18599   5.542   5.062   0.357
  486SOL    HW118600   5.634   5.085   0.367
  486SOL    HW218601   5.497   5.111   0.427
  487SOL     OW18602   2.459   6.143   2.272
  487SOL    HW118603   2.474   6.049   2.271
  487SOL    HW218604   2.381   6.154   2.326
  488SOL     OW18605   3.869   0.752   7.130
  488SOL    HW118606   3.956   0.787   7.110
  488SOL    HW218607   3.886   0.662   7.160
  489SOL     OW18608   1.992   2.445   0.362
  489SOL    HW118609   2.076   2.484   0.334
  489SOL    HW218610   1.929   2.479   0.299
  490SOL     OW18611   4.715   1.884   0.151
  490SOL    HW118612   4.781   1.819   0.125
  490SOL    HW218613   4.716   1.949   0.081
  491SOL     OW18614   2.757   1.772   2.072
  491SOL    HW118615   2.828   1.720   2.111
  491SOL    HW218616   2.726   1.829   2.142
  492SOL     OW18617   0.196   4.127   6.149
  492SOL    HW118618   0.284   4.147   6.180
  492SOL    HW218619   0.141   4.196   6.185
  493SOL     OW18620   6.195   4.217   1.354
  493SOL    HW118621   6.198   4.163   1.434
  493SOL    HW218622   6.283   4.253   1.347
  494SOL     OW18623   0.014   0.101   1.835
  494SOL    HW118624   0.013   0.007   1.856
  494SOL    HW218625  -0.025   0.143   1.912
  495SOL     OW18626   2.884   4.594   6.149
  495SOL    HW118627   2.873   4.519   6.090
  495SOL    HW218628   2.813   4.654   6.125
  496SOL     OW18629   2.499   2.902   0.596
  496SOL    HW118630   2.567   2.960   0.629
  496SOL    HW218631   2.540   2.815   0.595
  497SOL     OW18632   4.748   0.853   6.574
  497SOL    HW118633   4.789   0.836   6.659
  497SOL    HW218634   4.662   0.810   6.581
  498SOL     OW18635   2.942   2.149   6.024
  498SOL    HW118636   2.930   2.070   6.076
  498SOL    HW218637   2.855   2.187   6.016
  499SOL     OW18638   1.578   1.666   7.954
  499SOL    HW118639   1.546   1.576   7.958
  499SOL    HW218640   1.613   1.683   8.041
  500SOL     OW18641   2.738   0.606   6.467
  500SOL    HW118642   2.698   0.566   6.389
  500SOL    HW218643   2.712   0.547   6.539
  501SOL     OW18644   1.814   2.738   7.475
  501SOL    HW118645   1.823   2.790   7.395
  501SOL    HW218646   1.902   2.706   7.493
  502SOL     OW18647   3.373   3.738   6.435
  502SOL    HW118648   3.300   3.785   6.476
  502SOL    HW218649   3.331   3.669   6.384
  503SOL     OW18650   5.913   3.119   7.787
  503SOL    HW118651   5.890   3.207   7.817
  503SOL    HW218652   5.863   3.108   7.706
  504SOL     OW18653   4.457   1.642   1.075
  504SOL    HW118654   4.508   1.636   0.994
  504SOL    HW218655   4.414   1.728   1.070
  505SOL     OW18656   2.992   0.420   6.558
  505SOL    HW118657   2.995   0.398   6.465
  505SOL    HW218658   2.899   0.414   6.582
  506SOL     OW18659   1.510   4.604   2.379
  506SOL    HW118660   1.440   4.539   2.387
  506SOL    HW218661   1.472   4.684   2.415
  507SOL     OW18662   1.169   5.672   1.170
  507SOL    HW118663   1.149   5.608   1.238
  507SOL    HW218664   1.243   5.634   1.122
  508SOL     OW18665   4.517   1.806   1.459
  508SOL    HW118666   4.549   1.727   1.416
  508SOL    HW218667   4.574   1.876   1.426
  509SOL     OW18668   0.258   3.308   1.836
  509SOL    HW118669   0.181   3.359   1.862
  509SOL    HW218670   0.257   3.232   1.894
  510SOL     OW18671   0.066   4.796   5.916
  510SOL    HW118672   0.096   4.742   5.843
  510SOL    HW218673   0.114   4.879   5.906
  511SOL     OW18674   5.028   2.738   7.676
  511SOL    HW118675   5.118   2.707   7.673
  511SOL    HW218676   5.029   2.822   7.631
  512SOL     OW18677   4.152   4.433   6.068
  512SOL    HW118678   4.077   4.486   6.040
  512SOL    HW218679   4.168   4.374   5.994
  513SOL     OW18680   5.444   6.171   0.503
  513SOL    HW118681   5.449   6.159   0.598
  513SOL    HW218682   5.422   6.085   0.469
  514SOL     OW18683   5.072   0.461   1.298
  514SOL    HW118684   5.114   0.404   1.233
  514SOL    HW218685   5.143   0.484   1.358
  515SOL     OW18686   1.511   0.305   0.695
  515SOL    HW118687   1.572   0.365   0.651
  515SOL    HW218688   1.433   0.358   0.711
  516SOL     OW18689   2.246   3.025   6.707
  516SOL    HW118690   2.199   2.963   6.762
  516SOL    HW218691   2.299   2.971   6.649
  517SOL     OW18692   3.549   4.029   0.755
  517SOL    HW118693   3.460   4.038   0.721
  517SOL    HW218694   3.553   4.093   0.827
  518SOL     OW18695   4.189   2.047   0.057
  518SOL    HW118696   4.124   2.020   0.121
  518SOL    HW218697   4.212   2.137   0.081
  519SOL     OW18698   3.208   5.092   7.016
  519SOL    HW118699   3.258   5.082   7.097
  519SOL    HW218700   3.157   5.012   7.009
  520SOL     OW18701   2.360   1.982   1.831
  520SOL    HW118702   2.394   2.054   1.777
  520SOL    HW218703   2.418   1.980   1.908
  521SOL     OW18704   4.794   0.820   0.408
  521SOL    HW118705   4.755   0.893   0.360
  521SOL    HW218706   4.880   0.853   0.434
  522SOL     OW18707   2.446   4.735   7.181
  522SOL    HW118708   2.522   4.743   7.123
  522SOL    HW218709   2.401   4.819   7.173
  523SOL     OW18710   5.360   0.955   7.697
  523SOL    HW118711   5.284   0.905   7.669
  523SOL    HW218712   5.376   1.016   7.625
  524SOL     OW18713   4.219   0.786   6.064
  524SOL    HW118714   4.156   0.859   6.064
  524SOL    HW218715   4.252   0.783   5.974
  525SOL     OW18716   0.511   3.269   1.986
  525SOL    HW118717   0.467   3.185   1.975
  525SOL    HW218718   0.604   3.247   1.991
  526SOL     OW18719   6.166   0.693   0.781
  526SOL    HW118720   6.132   0.754   0.847
  526SOL    HW218721   6.188   0.614   0.830
  527SOL     OW18722   2.479   3.708   6.736
  527SOL    HW118723   2.522   3.759   6.805
  527SOL    HW218724   2.449   3.774   6.673
  528SOL     OW18725   4.170   4.849   1.225
  528SOL    HW118726   4.157   4.920   1.288
  528SOL    HW218727   4.186   4.893   1.142
  529SOL     OW18728   2.717   4.030   0.365
  529SOL    HW118729   2.673   4.106   0.328
  529SOL    HW218730   2.699   4.035   0.459
  530SOL     OW18731   3.592   2.920   1.353
  530SOL    HW118732   3.668   2.937   1.298
  530SOL    HW218733   3.521   2.901   1.292
  531SOL     OW18734   2.741   0.965   7.957
  531SOL    HW118735   2.805   0.910   7.912
  531SOL    HW218736   2.656   0.932   7.929
  532SOL     OW18737   5.396   5.862   7.817
  532SOL    HW118738   5.323   5.908   7.777
  532SOL    HW218739   5.444   5.823   7.744
  533SOL     OW18740   0.428   1.351   2.443
  533SOL    HW118741   0.356   1.406   2.410
  533SOL    HW218742   0.390   1.303   2.516
  534SOL     OW18743   0.245   5.091   6.719
  534SOL    HW118744   0.196   5.019   6.679
  534SOL    HW218745   0.271   5.146   6.645
  535SOL     OW18746   3.388   2.001   7.078
  535SOL    HW118747   3.406   1.951   7.158
  535SOL    HW218748   3.412   2.091   7.100
  536SOL     OW18749   1.619   3.932   2.134
  536SOL    HW118750   1.700   3.982   2.137
  536SOL    HW218751   1.555   3.988   2.178
  537SOL     OW18752   6.269   1.969   6.708
  537SOL    HW118753   6.177   1.990   6.690
  537SOL    HW218754   6.304   1.940   6.624
  538SOL     OW18755   4.134   5.295   0.027
  538SOL    HW118756   4.148   5.309  -0.067
  538SOL    HW218757   4.085   5.372   0.056
  539SOL     OW18758   1.414   0.481   1.158
  539SOL    HW118759   1.500   0.443   1.142
  539SOL    HW218760   1.404   0.482   1.253
  540SOL     OW18761   5.298   4.855   7.190
  540SOL    HW118762   5.387   4.888   7.192
  540SOL    HW218763   5.253   4.901   7.260
  541SOL     OW18764   1.717   2.857   0.105
  541SOL    HW118765   1.722   2.920   0.033
  541SOL    HW218766   1.657   2.897   0.168
  542SOL     OW18767   2.209   1.568   1.868
  542SOL    HW118768   2.278   1.521   1.821
  542SOL    HW218769   2.229   1.555   1.960
  543SOL     OW18770   2.376   1.051   2.036
  543SOL    HW118771   2.314   1.094   1.978
  543SOL    HW218772   2.400   1.118   2.100
  544SOL     OW18773   3.171   2.634   7.954
  544SOL    HW118774   3.185   2.711   8.009
  544SOL    HW218775   3.183   2.666   7.864
  545SOL     OW18776   5.761   5.778   0.723
  545SOL    HW118777   5.823   5.771   0.796
  545SOL    HW218778   5.744   5.872   0.716
  546SOL     OW18779   4.463   0.061   2.513
  546SOL    HW118780   4.508   0.116   2.450
  546SOL    HW218781   4.384   0.032   2.467
  547SOL     OW18782   5.093   5.133   7.840
  547SOL    HW118783   5.007   5.145   7.799
  547SOL    HW218784   5.085   5.050   7.887
  548SOL     OW18785   0.033   3.320   0.733
  548SOL    HW118786  -0.051   3.323   0.687
  548SOL    HW218787   0.013   3.280   0.818
  549SOL     OW18788   3.677   0.746   7.763
  549SOL    HW118789   3.595   0.774   7.803
  549SOL    HW218790   3.745   0.789   7.816
  550SOL     OW18791   5.040   5.767   0.643
  550SOL    HW118792   5.035   5.766   0.738
  550SOL    HW218793   5.125   5.726   0.623
  551SOL     OW18794   2.075   4.717   1.035
  551SOL    HW118795   2.030   4.666   1.102
  551SOL    HW218796   2.144   4.659   1.003
  552SOL     OW18797   3.964   4.907   5.565
  552SOL    HW118798   3.965   4.816   5.536
  552SOL    HW218799   3.935   4.903   5.656
  553SOL     OW18800   2.684   4.849   0.784
  553SOL    HW118801   2.597   4.848   0.822
  553SOL    HW218802   2.727   4.924   0.823
  554SOL     OW18803   3.777   5.327   0.689
  554SOL    HW118804   3.860   5.289   0.718
  554SOL    HW218805   3.778   5.416   0.724
  555SOL     OW18806   2.160   2.304   1.719
  555SOL    HW118807   2.080   2.254   1.701
  555SOL    HW218808   2.207   2.303   1.636
  556SOL     OW18809   1.668   3.051   6.627
  556SOL    HW118810   1.718   3.055   6.545
  556SOL    HW218811   1.661   2.958   6.646
  557SOL     OW18812   1.473   1.036   1.856
  557SOL    HW118813   1.567   1.037   1.878
  557SOL    HW218814   1.458   0.948   1.822
  558SOL     OW18815   2.655   0.165   6.960
  558SOL    HW118816   2.607   0.185   7.040
  558SOL    HW218817   2.590   0.126   6.902
  559SOL     OW18818   3.460   6.105   6.358
  559SOL    HW118819   3.423   6.140   6.278
  559SOL    HW218820   3.460   6.178   6.419
  560SOL     OW18821   5.047   3.739   7.567
  560SOL    HW118822   5.016   3.738   7.477
  560SOL    HW218823   5.023   3.653   7.602
  561SOL     OW18824   5.070   3.873   1.941
  561SOL    HW118825   5.029   3.834   1.864
  561SOL    HW218826   5.070   3.803   2.006
  562SOL     OW18827   1.951   3.049   2.039
  562SOL    HW118828   1.999   2.967   2.030
  562SOL    HW218829   1.959   3.072   2.131
  563SOL     OW18830   3.134   3.707   1.001
  563SOL    HW118831   3.155   3.788   0.954
  563SOL    HW218832   3.150   3.728   1.093
  564SOL     OW18833   6.034   3.999   6.158
  564SOL    HW118834   6.074   4.082   6.186
  564SOL    HW218835   6.107   3.950   6.120
  565SOL     OW18836   4.455   4.223   1.248
  565SOL    HW118837   4.416   4.281   1.183
  565SOL    HW218838   4.550   4.237   1.240
  566SOL     OW18839   4.731   5.545   6.593
  566SOL    HW118840   4.811   5.518   6.547
  566SOL    HW218841   4.669   5.565   6.523
  567SOL     OW18842   0.049   2.690   5.867
  567SOL    HW118843   0.035   2.781   5.891
  567SOL    HW218844   0.119   2.692   5.802
  568SOL     OW18845   3.693   0.795   0.172
  568SOL    HW118846   3.610   0.771   0.131
  568SOL    HW218847   3.689   0.754   0.258
  569SOL     OW18848   0.959   0.499   6.814
  569SOL    HW118849   0.973   0.441   6.889
  569SOL    HW218850   0.895   0.454   6.759
  570SOL     OW18851   0.305   4.571   0.270
  570SOL    HW118852   0.376   4.564   0.334
  570SOL    HW218853   0.249   4.642   0.303
  571SOL     OW18854   4.428   0.378   0.299
  571SOL    HW118855   4.499   0.318   0.321
  571SOL    HW218856   4.351   0.340   0.341
  572SOL     OW18857   0.024   2.118   7.932
  572SOL    HW118858  -0.001   2.160   8.014
  572SOL    HW218859   0.048   2.029   7.958
  573SOL     OW18860   3.959   6.341   0.824
  573SOL    HW118861   3.884   6.388   0.787
  573SOL    HW218862   3.969   6.376   0.913
  574SOL     OW18863   1.350   4.254   1.739
  574SOL    HW118864   1.366   4.160   1.739
  574SOL    HW218865   1.280   4.267   1.803
  575SOL     OW18866   3.507   4.183   6.440
  575SOL    HW118867   3.574   4.246   6.414
  575SOL    HW218868   3.457   4.168   6.360
  576SOL     OW18869   6.179   3.113   1.502
  576SOL    HW118870   6.146   3.171   1.433
  576SOL    HW218871   6.243   3.167   1.549
  577SOL     OW18872   2.066   3.974   2.306
  577SOL    HW118873   1.997   4.010   2.250
  577SOL    HW218874   2.101   3.901   2.256
  578SOL     OW18875   1.195   6.092   0.510
  578SOL    HW118876   1.246   6.173   0.502
  578SOL    HW218877   1.136   6.093   0.435
  579SOL     OW18878   4.798   5.310   1.512
  579SOL    HW118879   4.885   5.272   1.524
  579SOL    HW218880   4.750   5.244   1.462
  580SOL     OW18881   1.670   1.367   7.330
  580SOL    HW118882   1.599   1.389   7.391
  580SOL    HW218883   1.667   1.435   7.263
  581SOL     OW18884   2.113   2.908   1.153
  581SOL    HW118885   2.058   2.936   1.080
  581SOL    HW218886   2.148   2.990   1.189
  582SOL     OW18887   5.459   2.020   7.181
  582SOL    HW118888   5.500   1.968   7.112
  582SOL    HW218889   5.505   2.104   7.180
  583SOL     OW18890   4.978   5.796   6.341
  583SOL    HW118891   4.989   5.857   6.415
  583SOL    HW218892   5.046   5.821   6.279
  584SOL     OW18893   3.322   0.730   7.227
  584SOL    HW118894   3.352   0.651   7.272
  584SOL    HW218895   3.395   0.754   7.170
  585SOL     OW18896   1.764   5.817   2.334
  585SOL    HW118897   1.859   5.818   2.344
  585SOL    HW218898   1.740   5.725   2.345
  586SOL     OW18899   5.776   1.563   0.477
  586SOL    HW118900   5.854   1.618   0.469
  586SOL    HW218901   5.809   1.475   0.495
  587SOL     OW18902   5.589   2.940   7.515
  587SOL    HW118903   5.659   2.940   7.580
  587SOL    HW218904   5.527   2.875   7.547
  588SOL     OW18905   0.136   4.745   6.982
  588SOL    HW118906   0.088   4.669   7.014
  588SOL    HW218907   0.089   4.772   6.903
  589SOL     OW18908   4.125   5.815   1.466
  589SOL    HW118909   4.199   5.813   1.405
  589SOL    HW218910   4.095   5.906   1.465
  590SOL     OW18911   3.954   3.960   1.537
  590SOL    HW118912   3.908   3.909   1.603
  590SOL    HW218913   4.026   3.903   1.508
  591SOL     OW18914   1.643   5.205   0.195
  591SOL    HW118915   1.649   5.256   0.114
  591SOL    HW218916   1.592   5.260   0.254
  592SOL     OW18917   2.813   5.974   6.188
  592SOL    HW118918   2.788   5.954   6.278
  592SOL    HW218919   2.730   5.979   6.141
  593SOL     OW18920   4.933   2.210   0.173
  593SOL    HW118921   4.893   2.189   0.089
  593SOL    HW218922   4.976   2.295   0.158
  594SOL     OW18923   4.907   5.890   0.225
  594SOL    HW118924   4.979   5.948   0.199
  594SOL    HW218925   4.931   5.805   0.188
  595SOL     OW18926   0.585   5.286   7.550
  595SOL    HW118927   0.676   5.313   7.536
  595SOL    HW218928   0.592   5.204   7.598
  596SOL     OW18929   2.374   4.714   0.573
  596SOL    HW118930   2.417   4.792   0.539
  596SOL    HW218931   2.322   4.681   0.500
  597SOL     OW18932   3.262   6.277   1.175
  597SOL    HW118933   3.313   6.314   1.103
  597SOL    HW218934   3.289   6.326   1.252
  598SOL     OW18935   4.526   5.961   8.051
  598SOL    HW118936   4.551   5.943   7.961
  598SOL    HW218937   4.469   6.038   8.045
  599SOL     OW18938   3.280   1.283   2.004
  599SOL    HW118939   3.228   1.363   2.013
  599SOL    HW218940   3.370   1.310   2.022
  600SOL     OW18941   4.968   2.280   1.599
  600SOL    HW118942   4.901   2.214   1.586
  600SOL    HW218943   4.929   2.342   1.661
  601SOL     OW18944   2.299   4.908   6.834
  601SOL    HW118945   2.317   4.816   6.854
  601SOL    HW218946   2.365   4.932   6.769
  602SOL     OW18947   3.644   2.500   0.607
  602SOL    HW118948   3.619   2.589   0.582
  602SOL    HW218949   3.560   2.454   0.617
  603SOL     OW18950   2.973   5.614   7.286
  603SOL    HW118951   2.914   5.655   7.222
  603SOL    HW218952   3.033   5.561   7.233
  604SOL     OW18953   1.109   6.181   7.521
  604SOL    HW118954   1.188   6.191   7.468
  604SOL    HW218955   1.059   6.261   7.505
  605SOL     OW18956   2.033   1.440   1.377
  605SOL    HW118957   1.954   1.411   1.423
  605SOL    HW218958   2.077   1.498   1.438
  606SOL     OW18959   2.433   2.332   7.611
  606SOL    HW118960   2.387   2.267   7.664
  606SOL    HW218961   2.509   2.286   7.578
  607SOL     OW18962   1.509   3.982   1.742
  607SOL    HW118963   1.585   3.936   1.704
  607SOL    HW218964   1.545   4.063   1.777
  608SOL     OW18965   3.012   3.770   2.298
  608SOL    HW118966   2.957   3.753   2.374
  608SOL    HW218967   2.951   3.771   2.224
  609SOL     OW18968   5.557   1.284   1.713
  609SOL    HW118969   5.474   1.256   1.675
  609SOL    HW218970   5.563   1.377   1.694
  610SOL     OW18971   4.287   1.635   1.707
  610SOL    HW118972   4.352   1.641   1.776
  610SOL    HW218973   4.257   1.725   1.694
  611SOL     OW18974   0.295   6.124   7.406
  611SOL    HW118975   0.379   6.095   7.443
  611SOL    HW218976   0.255   6.176   7.476
  612SOL     OW18977   2.377   5.024   1.121
  612SOL    HW118978   2.330   5.026   1.037
  612SOL    HW218979   2.311   4.995   1.184
  613SOL     OW18980   0.138   1.225   7.029
  613SOL    HW118981   0.086   1.303   7.048
  613SOL    HW218982   0.123   1.168   7.104
  614SOL     OW18983   1.980   0.067   7.469
  614SOL    HW118984   1.918   0.064   7.396
  614SOL    HW218985   1.962   0.151   7.512
  615SOL     OW18986   1.314   3.581   1.983
  615SOL    HW118987   1.324   3.485   1.983
  615SOL    HW218988   1.391   3.613   2.029
  616SOL     OW18989   4.926   6.025   0.700
  616SOL    HW118990   4.958   5.940   0.730
  616SOL    HW218991   4.845   6.005   0.653
  617SOL     OW18992   3.452   6.133   1.738
  617SOL    HW118993   3.476   6.115   1.829
  617SOL    HW218994   3.375   6.079   1.722
  618SOL     OW18995   3.988   5.640   0.638
  618SOL    HW118996   3.987   5.733   0.664
  618SOL    HW218997   4.072   5.629   0.594
  619SOL     OW18998   4.302   0.768   7.620
  619SOL    HW118999   4.243   0.823   7.568
  619SOL    HW219000   4.262   0.765   7.706
  620SOL     OW19001   3.714   4.732   0.314
  620SOL    HW119002   3.651   4.804   0.313
  620SOL    HW219003   3.683   4.676   0.386
  621SOL     OW19004   2.911   5.910   5.225
  621SOL    HW119005   2.951   5.997   5.227
  621SOL    HW219006   2.817   5.927   5.215
  622SOL     OW19007   4.902   5.884   2.163
  622SOL    HW119008   4.863   5.939   2.096
  622SOL    HW219009   4.911   5.941   2.239
  623SOL     OW19010   0.021   2.649   1.067
  623SOL    HW119011   0.004   2.741   1.086
  623SOL    HW219012   0.094   2.626   1.124
  624SOL     OW19013   4.067   1.875   6.986
  624SOL    HW119014   3.986   1.825   6.997
  624SOL    HW219015   4.108   1.874   7.073
  625SOL     OW19016   4.640   4.998   6.815
  625SOL    HW119017   4.654   4.969   6.906
  625SOL    HW219018   4.546   5.016   6.811
  626SOL     OW19019   3.788   5.099   5.926
  626SOL    HW119020   3.729   5.163   5.966
  626SOL    HW219021   3.875   5.138   5.935
  627SOL     OW19022   4.400   3.654   0.416
  627SOL    HW119023   4.362   3.599   0.485
  627SOL    HW219024   4.478   3.605   0.388
  628SOL     OW19025   2.232   5.930   0.810
  628SOL    HW119026   2.215   5.837   0.795
  628SOL    HW219027   2.253   5.935   0.903
  629SOL     OW19028   0.185   1.523   2.610
  629SOL    HW119029   0.154   1.471   2.684
  629SOL    HW219030   0.117   1.512   2.543
  630SOL     OW19031   3.088   0.747   2.928
  630SOL    HW119032   3.133   0.665   2.948
  630SOL    HW219033   3.082   0.749   2.833
  631SOL     OW19034   1.942   2.808   6.497
  631SOL    HW119035   1.878   2.812   6.568
  631SOL    HW219036   1.925   2.725   6.453
  632SOL     OW19037   2.435   0.323   7.052
  632SOL    HW119038   2.494   0.382   7.097
  632SOL    HW219039   2.400   0.266   7.121
  633SOL     OW19040   1.851   2.707   6.726
  633SOL    HW119041   1.831   2.737   6.814
  633SOL    HW219042   1.939   2.670   6.732
  634SOL     OW19043   3.901   2.425   6.669
  634SOL    HW119044   3.831   2.489   6.654
  634SOL    HW219045   3.856   2.342   6.682
  635SOL     OW19046   1.588   3.791   2.739
  635SOL    HW119047   1.533   3.866   2.764
  635SOL    HW219048   1.658   3.791   2.804
  636SOL     OW19049   3.521   2.237   1.074
  636SOL    HW119050   3.568   2.315   1.044
  636SOL    HW219051   3.487   2.198   0.993
  637SOL     OW19052   2.408   0.723   1.271
  637SOL    HW119053   2.314   0.733   1.256
  637SOL    HW219054   2.448   0.792   1.218
  638SOL     OW19055   4.339   3.162   7.511
  638SOL    HW119056   4.363   3.081   7.465
  638SOL    HW219057   4.363   3.232   7.450
  639SOL     OW19058   6.319   0.475   7.988
  639SOL    HW119059   6.372   0.482   8.067
  639SOL    HW219060   6.229   0.466   8.021
  640SOL     OW19061   1.720   4.474   1.085
  640SOL    HW119062   1.723   4.570   1.088
  640SOL    HW219063   1.810   4.447   1.069
  641SOL     OW19064   3.031   3.427   2.110
  641SOL    HW119065   2.958   3.456   2.164
  641SOL    HW219066   3.021   3.332   2.104
  642SOL     OW19067   3.244   4.984   5.476
  642SOL    HW119068   3.330   4.993   5.516
  642SOL    HW219069   3.210   4.901   5.509
  643SOL     OW19070   0.929   1.336   6.675
  643SOL    HW119071   0.836   1.324   6.695
  643SOL    HW219072   0.958   1.249   6.646
  644SOL     OW19073   4.390   1.382   1.705
  644SOL    HW119074   4.370   1.474   1.691
  644SOL    HW219075   4.413   1.375   1.797
  645SOL     OW19076   4.070   4.208   1.536
  645SOL    HW119077   3.994   4.264   1.552
  645SOL    HW219078   4.037   4.119   1.549
  646SOL     OW19079   3.055   3.030   7.837
  646SOL    HW119080   3.103   2.951   7.813
  646SOL    HW219081   3.022   3.065   7.754
  647SOL     OW19082   2.455   0.845   7.560
  647SOL    HW119083   2.486   0.869   7.473
  647SOL    HW219084   2.394   0.914   7.584
  648SOL     OW19085   6.088   3.845   7.966
  648SOL    HW119086   6.109   3.823   7.875
  648SOL    HW219087   6.033   3.923   7.960
  649SOL     OW19088   1.783   2.307   7.698
  649SOL    HW119089   1.703   2.308   7.750
  649SOL    HW219090   1.839   2.373   7.739
  650SOL     OW19091   3.045   3.433   0.243
  650SOL    HW119092   3.114   3.413   0.180
  650SOL    HW219093   3.025   3.349   0.285
  651SOL     OW19094   3.989   4.587   7.430
  651SOL    HW119095   4.058   4.628   7.483
  651SOL    HW219096   3.991   4.494   7.456
  652SOL     OW19097   1.809   3.048   0.828
  652SOL    HW119098   1.756   2.972   0.855
  652SOL    HW219099   1.866   3.013   0.759
  653SOL     OW19100   3.807   0.038   1.866
  653SOL    HW119101   3.712   0.028   1.874
  653SOL    HW219102   3.821   0.066   1.776
  654SOL     OW19103   3.523   3.141   1.012
  654SOL    HW119104   3.521   3.065   0.954
  654SOL    HW219105   3.456   3.200   0.976
  655SOL     OW19106   6.267   0.422   0.808
  655SOL    HW119107   6.360   0.432   0.790
  655SOL    HW219108   6.228   0.402   0.723
  656SOL     OW19109   6.220   2.104   1.048
  656SOL    HW119110   6.299   2.151   1.023
  656SOL    HW219111   6.154   2.173   1.059
  657SOL     OW19112   1.783   5.312   1.549
  657SOL    HW119113   1.813   5.401   1.567
  657SOL    HW219114   1.706   5.322   1.494
  658SOL     OW19115   1.933   2.527   1.473
  658SOL    HW119116   1.843   2.516   1.504
  658SOL    HW219117   1.957   2.440   1.439
  659SOL     OW19118   6.118   5.189   6.778
  659SOL    HW119119   6.195   5.228   6.737
  659SOL    HW219120   6.047   5.206   6.716
  660SOL     OW19121   2.859   0.810   2.785
  660SOL    HW119122   2.860   0.798   2.880
  660SOL    HW219123   2.823   0.728   2.751
  661SOL     OW19124   2.001   1.431   7.551
  661SOL    HW119125   1.909   1.453   7.566
  661SOL    HW219126   2.026   1.480   7.473
  662SOL     OW19127   0.219   5.942   1.630
  662SOL    HW119128   0.265   5.866   1.666
  662SOL    HW219129   0.207   6.000   1.705
  663SOL     OW19130   1.078   5.334   1.966
  663SOL    HW119131   1.078   5.428   1.986
  663SOL    HW219132   1.167   5.305   1.988
  664SOL     OW19133   2.424   6.310   7.552
  664SOL    HW119134   2.511   6.302   7.515
  664SOL    HW219135   2.423   6.250   7.626
  665SOL     OW19136   0.040   5.092   1.015
  665SOL    HW119137   0.116   5.055   1.058
  665SOL    HW219138   0.055   5.076   0.922
  666SOL     OW19139   1.013   5.317   7.119
  666SOL    HW119140   1.075   5.389   7.104
  666SOL    HW219141   0.977   5.298   7.032
  667SOL     OW19142   2.136   1.916   1.094
  667SOL    HW119143   2.147   1.880   1.006
  667SOL    HW219144   2.100   2.003   1.080
  668SOL     OW19145   4.059   5.204   3.170
  668SOL    HW119146   3.987   5.231   3.227
  668SOL    HW219147   4.058   5.268   3.098
  669SOL     OW19148   3.386   2.388   7.458
  669SOL    HW119149   3.397   2.295   7.478
  669SOL    HW219150   3.293   2.404   7.469
  670SOL     OW19151   3.394   5.629   0.299
  670SOL    HW119152   3.457   5.640   0.228
  670SOL    HW219153   3.380   5.534   0.304
  671SOL     OW19154   6.240   1.867   1.162
  671SOL    HW119155   6.203   1.951   1.136
  671SOL    HW219156   6.327   1.866   1.123
  672SOL     OW19157   1.123   0.028   7.991
  672SOL    HW119158   1.107   0.120   8.011
  672SOL    HW219159   1.082  -0.019   8.063
  673SOL     OW19160   5.992   5.453   6.445
  673SOL    HW119161   5.992   5.522   6.510
  673SOL    HW219162   6.076   5.407   6.458
  674SOL     OW19163   5.941   2.631   0.909
  674SOL    HW119164   5.978   2.654   0.824
  674SOL    HW219165   5.992   2.682   0.972
  675SOL     OW19166   2.676   1.972   0.880
  675SOL    HW119167   2.759   2.015   0.858
  675SOL    HW219168   2.630   2.035   0.935
  676SOL     OW19169   2.927   1.240   7.576
  676SOL    HW119170   2.938   1.335   7.581
  676SOL    HW219171   2.997   1.204   7.630
  677SOL     OW19172   1.304   1.810   2.633
  677SOL    HW119173   1.344   1.837   2.715
  677SOL    HW219174   1.278   1.719   2.648
  678SOL     OW19175   4.612   2.636   0.405
  678SOL    HW119176   4.592   2.711   0.461
  678SOL    HW219177   4.527   2.610   0.369
  679SOL     OW19178   4.930   4.240   7.842
  679SOL    HW119179   4.876   4.170   7.804
  679SOL    HW219180   4.869   4.312   7.857
  680SOL     OW19181   0.981   0.738   6.913
  680SOL    HW119182   0.976   0.652   6.871
  680SOL    HW219183   0.957   0.723   7.004
  681SOL     OW19184   2.862   3.215   0.141
  681SOL    HW119185   2.772   3.245   0.136
  681SOL    HW219186   2.894   3.216   0.050
  682SOL     OW19187   0.907   2.525   1.357
  682SOL    HW119188   0.894   2.446   1.304
  682SOL    HW219189   0.938   2.491   1.441
  683SOL     OW19190   0.076   4.699   1.651
  683SOL    HW119191   0.099   4.609   1.671
  683SOL    HW219192   0.030   4.730   1.729
  684SOL     OW19193   3.419   0.206   7.238
  684SOL    HW119194   3.441   0.279   7.179
  684SOL    HW219195   3.394   0.134   7.180
  685SOL     OW19196   2.819   2.051   0.347
  685SOL    HW119197   2.836   1.984   0.413
  685SOL    HW219198   2.728   2.037   0.322
  686SOL     OW19199   5.819   0.036   7.776
  686SOL    HW119200   5.750  -0.024   7.806
  686SOL    HW219201   5.894   0.016   7.831
  687SOL     OW19202   0.607   0.182   1.339
  687SOL    HW119203   0.602   0.151   1.430
  687SOL    HW219204   0.642   0.270   1.346
  688SOL     OW19205   2.524   6.163   0.840
  688SOL    HW119206   2.527   6.138   0.748
  688SOL    HW219207   2.522   6.259   0.839
  689SOL     OW19208   4.464   3.304   2.472
  689SOL    HW119209   4.449   3.374   2.409
  689SOL    HW219210   4.499   3.347   2.549
  690SOL     OW19211   4.038   5.625   7.362
  690SOL    HW119212   4.044   5.720   7.350
  690SOL    HW219213   3.944   5.606   7.360
  691SOL     OW19214   4.042   5.884   0.260
  691SOL    HW119215   4.090   5.861   0.180
  691SOL    HW219216   3.968   5.823   0.261
  692SOL     OW19217   0.803   4.188   7.258
  692SOL    HW119218   0.864   4.138   7.312
  692SOL    HW219219   0.784   4.266   7.309
  693SOL     OW19220   2.892   1.120   2.058
  693SOL    HW119221   2.890   1.144   2.151
  693SOL    HW219222   2.863   1.029   2.056
  694SOL     OW19223   1.380   1.023   0.393
  694SOL    HW119224   1.328   1.065   0.462
  694SOL    HW219225   1.315   0.998   0.326
  695SOL     OW19226   6.171   0.800   1.193
  695SOL    HW119227   6.131   0.719   1.225
  695SOL    HW219228   6.232   0.772   1.125
  696SOL     OW19229   2.748   4.630   7.201
  696SOL    HW119230   2.690   4.621   7.277
  696SOL    HW219231   2.815   4.692   7.229
  697SOL     OW19232   5.188   2.708   6.960
  697SOL    HW119233   5.199   2.801   6.938
  697SOL    HW219234   5.272   2.682   6.997
  698SOL     OW19235   2.491   5.870   2.332
  698SOL    HW119236   2.462   5.791   2.287
  698SOL    HW219237   2.586   5.861   2.339
  699SOL     OW19238   1.794   5.029   1.616
  699SOL    HW119239   1.747   5.049   1.535
  699SOL    HW219240   1.864   5.094   1.620
  700SOL     OW19241   6.268   3.094   7.324
  700SOL    HW119242   6.204   3.164   7.318
  700SOL    HW219243   6.222   3.022   7.368
  701SOL     OW19244   1.234   2.415   7.646
  701SOL    HW119245   1.292   2.421   7.570
  701SOL    HW219246   1.174   2.343   7.625
  702SOL     OW19247   4.328   3.669   2.152
  702SOL    HW119248   4.367   3.741   2.202
  702SOL    HW219249   4.234   3.676   2.171
  703SOL     OW19250   5.057   2.465   5.896
  703SOL    HW119251   5.034   2.377   5.925
  703SOL    HW219252   5.121   2.451   5.826
  704SOL     OW19253   6.047   3.826   0.381
  704SOL    HW119254   6.088   3.877   0.450
  704SOL    HW219255   5.953   3.835   0.397
  705SOL     OW19256   0.053   2.312   5.975
  705SOL    HW119257   0.136   2.303   6.022
  705SOL    HW219258   0.010   2.227   5.985
  706SOL     OW19259   1.530   3.048   0.521
  706SOL    HW119260   1.558   2.975   0.467
  706SOL    HW219261   1.453   3.084   0.477
  707SOL     OW19262   5.129   2.819   1.671
  707SOL    HW119263   5.189   2.890   1.649
  707SOL    HW219264   5.073   2.856   1.740
  708SOL     OW19265   5.183   0.884   6.643
  708SOL    HW119266   5.115   0.832   6.599
  708SOL    HW219267   5.151   0.974   6.639
  709SOL     OW19268   4.152   5.247   1.055
  709SOL    HW119269   4.177   5.239   1.147
  709SOL    HW219270   4.234   5.271   1.010
  710SOL     OW19271   4.585   3.508   1.228
  710SOL    HW119272   4.570   3.483   1.319
  710SOL    HW219273   4.567   3.602   1.227
  711SOL     OW19274   3.153   3.761   6.017
  711SOL    HW119275   3.224   3.813   5.981
  711SOL    HW219276   3.108   3.726   5.939
  712SOL     OW19277   5.598   2.961   7.910
  712SOL    HW119278   5.684   2.965   7.952
  712SOL    HW219279   5.598   2.878   7.863
  713SOL     OW19280   2.011   1.536   0.634
  713SOL    HW119281   1.984   1.482   0.560
  713SOL    HW219282   2.107   1.530   0.635
  714SOL     OW19283   5.108   4.051   7.445
  714SOL    HW119284   5.041   4.036   7.378
  714SOL    HW219285   5.074   4.124   7.497
  715SOL     OW19286   3.031   2.187   6.748
  715SOL    HW119287   3.049   2.281   6.753
  715SOL    HW219288   2.981   2.176   6.667
  716SOL     OW19289   5.816   0.612   1.522
  716SOL    HW119290   5.805   0.704   1.547
  716SOL    HW219291   5.886   0.579   1.579
  717SOL     OW19292   1.884   0.662   7.054
  717SOL    HW119293   1.813   0.701   7.105
  717SOL    HW219294   1.854   0.669   6.963
  718SOL     OW19295   1.606   1.457   0.280
  718SOL    HW119296   1.590   1.481   0.371
  718SOL    HW219297   1.600   1.362   0.278
  719SOL     OW19298   3.257   4.342   0.570
  719SOL    HW119299   3.172   4.320   0.609
  719SOL    HW219300   3.236   4.368   0.480
  720SOL     OW19301   2.240   5.869   6.745
  720SOL    HW119302   2.171   5.902   6.688
  720SOL    HW219303   2.197   5.854   6.829
  721SOL     OW19304   4.938   4.386   6.170
  721SOL    HW119305   4.958   4.294   6.185
  721SOL    HW219306   5.002   4.414   6.104
  722SOL     OW19307   5.114   5.177   6.704
  722SOL    HW119308   5.165   5.097   6.696
  722SOL    HW219309   5.024   5.150   6.689
  723SOL     OW19310   0.188   3.400   6.704
  723SOL    HW119311   0.119   3.423   6.767
  723SOL    HW219312   0.147   3.335   6.647
  724SOL     OW19313   1.859   4.875   0.190
  724SOL    HW119314   1.945   4.832   0.185
  724SOL    HW219315   1.814   4.846   0.111
  725SOL     OW19316   5.593   4.473   6.308
  725SOL    HW119317   5.586   4.381   6.283
  725SOL    HW219318   5.514   4.489   6.359
  726SOL     OW19319   0.320   3.826   0.861
  726SOL    HW119320   0.261   3.778   0.921
  726SOL    HW219321   0.393   3.853   0.916
  727SOL     OW19322   4.239   1.079   1.730
  727SOL    HW119323   4.292   1.088   1.809
  727SOL    HW219324   4.303   1.080   1.658
  728SOL     OW19325   6.098   1.323   0.556
  728SOL    HW119326   6.125   1.331   0.465
  728SOL    HW219327   6.003   1.314   0.552
  729SOL     OW19328   2.627   3.654   7.207
  729SOL    HW119329   2.588   3.612   7.284
  729SOL    HW219330   2.592   3.743   7.207
  730SOL     OW19331   4.756   0.906   2.642
  730SOL    HW119332   4.775   0.990   2.599
  730SOL    HW219333   4.662   0.909   2.659
  731SOL     OW19334   4.326   6.260   1.665
  731SOL    HW119335   4.312   6.182   1.612
  731SOL    HW219336   4.417   6.286   1.646
  732SOL     OW19337   5.313   1.979   8.050
  732SOL    HW119338   5.234   1.977   8.103
  732SOL    HW219339   5.385   1.984   8.113
  733SOL     OW19340   5.323   0.377   1.586
  733SOL    HW119341   5.359   0.420   1.663
  733SOL    HW219342   5.320   0.284   1.609
  734SOL     OW19343   0.375   1.115   6.294
  734SOL    HW119344   0.361   1.202   6.333
  734SOL    HW219345   0.294   1.067   6.313
  735SOL     OW19346   4.606   5.102   2.352
  735SOL    HW119347   4.533   5.164   2.345
  735SOL    HW219348   4.582   5.031   2.292
  736SOL     OW19349   0.545   1.471   2.099
  736SOL    HW119350   0.518   1.380   2.084
  736SOL    HW219351   0.641   1.467   2.102
  737SOL     OW19352   2.626   1.131   1.319
  737SOL    HW119353   2.545   1.102   1.361
  737SOL    HW219354   2.628   1.226   1.334
  738SOL     OW19355   2.887   4.498   1.157
  738SOL    HW119356   2.950   4.525   1.091
  738SOL    HW219357   2.941   4.459   1.227
  739SOL     OW19358   4.779   1.203   0.779
  739SOL    HW119359   4.857   1.182   0.727
  739SOL    HW219360   4.706   1.176   0.724
  740SOL     OW19361   1.628   5.312   2.197
  740SOL    HW119362   1.621   5.221   2.169
  740SOL    HW219363   1.624   5.363   2.116
  741SOL     OW19364   5.269   2.155   6.442
  741SOL    HW119365   5.197   2.166   6.379
  741SOL    HW219366   5.334   2.219   6.415
  742SOL     OW19367   0.192   5.147   1.604
  742SOL    HW119368   0.103   5.133   1.637
  742SOL    HW219369   0.248   5.133   1.681
  743SOL     OW19370   1.892   6.228   7.644
  743SOL    HW119371   1.897   6.293   7.574
  743SOL    HW219372   1.821   6.169   7.616
  744SOL     OW19373   4.431   2.326   6.989
  744SOL    HW119374   4.505   2.265   6.991
  744SOL    HW219375   4.384   2.304   6.909
  745SOL     OW19376   1.906   0.746   1.563
  745SOL    HW119377   1.985   0.768   1.613
  745SOL    HW219378   1.905   0.809   1.491
  746SOL     OW19379   4.095   0.139   6.784
  746SOL    HW119380   4.067   0.163   6.873
  746SOL    HW219381   4.190   0.130   6.790
  747SOL     OW19382   4.783   3.214   7.415
  747SOL    HW119383   4.800   3.307   7.407
  747SOL    HW219384   4.842   3.173   7.352
  748SOL     OW19385   0.806   5.655   6.184
  748SOL    HW119386   0.829   5.698   6.266
  748SOL    HW219387   0.712   5.639   6.191
  749SOL     OW19388   4.440   3.355   1.805
  749SOL    HW119389   4.515   3.316   1.851
  749SOL    HW219390   4.390   3.281   1.771
  750SOL     OW19391   4.117   5.617   1.638
  750SOL    HW119392   4.136   5.680   1.708
  750SOL    HW219393   4.091   5.672   1.563
  751SOL     OW19394   1.208   0.419   7.620
  751SOL    HW119395   1.241   0.384   7.703
  751SOL    HW219396   1.278   0.475   7.588
  752SOL     OW19397   2.382   2.801   7.379
  752SOL    HW119398   2.416   2.890   7.372
  752SOL    HW219399   2.409   2.772   7.466
  753SOL     OW19400   2.104   2.992   1.555
  753SOL    HW119401   2.160   2.957   1.624
  753SOL    HW219402   2.050   3.058   1.600
  754SOL     OW19403   3.944   5.363   2.974
  754SOL    HW119404   3.972   5.341   2.885
  754SOL    HW219405   3.849   5.376   2.967
  755SOL     OW19406   2.773   3.665   0.014
  755SOL    HW119407   2.703   3.730   0.014
  755SOL    HW219408   2.743   3.598  -0.048
  756SOL     OW19409   4.078   3.762   6.202
  756SOL    HW119410   4.145   3.803   6.256
  756SOL    HW219411   4.109   3.773   6.112
  757SOL     OW19412   5.228   4.968   0.925
  757SOL    HW119413   5.212   4.874   0.911
  757SOL    HW219414   5.322   4.975   0.935
  758SOL     OW19415   0.954   5.969   6.864
  758SOL    HW119416   0.868   5.992   6.828
  758SOL    HW219417   0.971   6.036   6.930
  759SOL     OW19418   2.964   2.199   1.290
  759SOL    HW119419   3.053   2.168   1.311
  759SOL    HW219420   2.953   2.278   1.342
  760SOL     OW19421   4.960   3.323   1.407
  760SOL    HW119422   4.932   3.232   1.411
  760SOL    HW219423   4.963   3.352   1.498
  761SOL     OW19424   0.683   4.520   7.661
  761SOL    HW119425   0.774   4.550   7.652
  761SOL    HW219426   0.638   4.592   7.704
  762SOL     OW19427   2.976   4.671   7.559
  762SOL    HW119428   2.905   4.734   7.552
  762SOL    HW219429   3.051   4.714   7.517
  763SOL     OW19430   1.053   0.749   1.797
  763SOL    HW119431   1.094   0.747   1.710
  763SOL    HW219432   0.962   0.727   1.781
  764SOL     OW19433   3.360   2.450   5.775
  764SOL    HW119434   3.455   2.442   5.781
  764SOL    HW219435   3.338   2.527   5.827
  765SOL     OW19436   2.239   3.099   2.150
  765SOL    HW119437   2.184   3.124   2.224
  765SOL    HW219438   2.208   3.012   2.126
  766SOL     OW19439   5.019   5.441   0.820
  766SOL    HW119440   4.999   5.528   0.855
  766SOL    HW219441   4.941   5.418   0.769
  767SOL     OW19442   4.576   2.761   0.093
  767SOL    HW119443   4.552   2.843   0.049
  767SOL    HW219444   4.509   2.750   0.160
  768SOL     OW19445   5.855   1.476   1.929
  768SOL    HW119446   5.791   1.525   1.980
  768SOL    HW219447   5.939   1.498   1.970
  769SOL     OW19448   4.854   1.259   7.303
  769SOL    HW119449   4.822   1.336   7.255
  769SOL    HW219450   4.778   1.228   7.352
  770SOL     OW19451   4.664   5.765   1.710
  770SOL    HW119452   4.675   5.718   1.792
  770SOL    HW219453   4.715   5.846   1.722
  771SOL     OW19454   1.165   4.352   7.677
  771SOL    HW119455   1.175   4.268   7.721
  771SOL    HW219456   1.157   4.330   7.584
  772SOL     OW19457   6.021   2.168   7.867
  772SOL    HW119458   6.005   2.262   7.868
  772SOL    HW219459   6.104   2.158   7.821
  773SOL     OW19460   5.475   2.020   0.969
  773SOL    HW119461   5.568   2.002   0.959
  773SOL    HW219462   5.471   2.113   0.990
  774SOL     OW19463   0.432   1.937   6.758
  774SOL    HW119464   0.416   1.908   6.848
  774SOL    HW219465   0.345   1.944   6.720
  775SOL     OW19466   2.905   3.534   7.239
  775SOL    HW119467   2.824   3.576   7.210
  775SOL    HW219468   2.964   3.541   7.165
  776SOL     OW19469   5.964   0.689   0.560
  776SOL    HW119470   6.044   0.666   0.607
  776SOL    HW219471   5.917   0.746   0.619
  777SOL     OW19472   4.035   3.784   7.881
  777SOL    HW119473   3.993   3.775   7.967
  777SOL    HW219474   4.002   3.709   7.831
  778SOL     OW19475   5.376   2.067   1.394
  778SOL    HW119476   5.324   2.004   1.344
  778SOL    HW219477   5.467   2.038   1.381
  779SOL     OW19478   3.277   3.643   1.795
  779SOL    HW119479   3.355   3.640   1.851
  779SOL    HW219480   3.204   3.631   1.855
  780SOL     OW19481   0.012   0.937   1.465
  780SOL    HW119482   0.033   0.859   1.517
  780SOL    HW219483  -0.079   0.956   1.486
  781SOL     OW19484   1.932   2.981   0.571
  781SOL    HW119485   1.921   2.891   0.538
  781SOL    HW219486   1.986   3.024   0.505
  782SOL     OW19487   1.171   2.268   0.040
  782SOL    HW119488   1.097   2.282  -0.019
  782SOL    HW219489   1.230   2.210  -0.009
  783SOL     OW19490   2.486   2.036   2.382
  783SOL    HW119491   2.409   2.024   2.326
  783SOL    HW219492   2.561   2.029   2.323
  784SOL     OW19493   5.236   2.740   1.279
  784SOL    HW119494   5.266   2.831   1.285
  784SOL    HW219495   5.313   2.688   1.301
  785SOL     OW19496   5.791   0.889   1.520
  785SOL    HW119497   5.754   0.954   1.580
  785SOL    HW219498   5.740   0.900   1.439
  786SOL     OW19499   5.199   5.424   7.865
  786SOL    HW119500   5.246   5.343   7.850
  786SOL    HW219501   5.116   5.413   7.820
  787SOL     OW19502   3.216   2.272   0.754
  787SOL    HW119503   3.191   2.299   0.843
  787SOL    HW219504   3.161   2.325   0.696
  788SOL     OW19505   2.691   4.565   6.735
  788SOL    HW119506   2.702   4.535   6.644
  788SOL    HW219507   2.775   4.606   6.756
  789SOL     OW19508   3.123   4.933   1.788
  789SOL    HW119509   3.096   4.880   1.714
  789SOL    HW219510   3.059   5.005   1.791
  790SOL     OW19511   3.448   3.656   1.996
  790SOL    HW119512   3.539   3.631   2.016
  790SOL    HW219513   3.440   3.745   2.030
  791SOL     OW19514   2.898   0.358   7.247
  791SOL    HW119515   2.871   0.448   7.270
  791SOL    HW219516   2.990   0.354   7.270
  792SOL     OW19517   2.340   1.422   0.379
  792SOL    HW119518   2.278   1.369   0.328
  792SOL    HW219519   2.327   1.511   0.346
  793SOL     OW19520   4.256   5.108   1.361
  793SOL    HW119521   4.304   5.094   1.443
  793SOL    HW219522   4.321   5.091   1.293
  794SOL     OW19523   4.861   0.220   1.258
  794SOL    HW119524   4.899   0.290   1.205
  794SOL    HW219525   4.774   0.252   1.282
  795SOL     OW19526   3.220   3.475   5.696
  795SOL    HW119527   3.265   3.473   5.781
  795SOL    HW219528   3.285   3.511   5.636
  796SOL     OW19529   1.117   1.406   6.857
  796SOL    HW119530   1.115   1.311   6.874
  796SOL    HW219531   1.031   1.425   6.820
  797SOL     OW19532   3.827   2.756   2.026
  797SOL    HW119533   3.874   2.831   1.990
  797SOL    HW219534   3.896   2.690   2.040
  798SOL     OW19535   4.865   2.740   0.750
  798SOL    HW119536   4.907   2.766   0.667
  798SOL    HW219537   4.906   2.796   0.816
  799SOL     OW19538   4.710   4.740   1.011
  799SOL    HW119539   4.656   4.818   1.018
  799SOL    HW219540   4.665   4.685   0.947
  800SOL     OW19541   5.929   5.223   6.595
  800SOL    HW119542   5.869   5.161   6.553
  800SOL    HW219543   5.960   5.279   6.524
  801SOL     OW19544   3.387   4.250   0.133
  801SOL    HW119545   3.301   4.273   0.097
  801SOL    HW219546   3.448   4.268   0.061
  802SOL     OW19547   4.771   5.013   0.264
  802SOL    HW119548   4.812   5.093   0.297
  802SOL    HW219549   4.677   5.029   0.274
  803SOL     OW19550   4.776   5.774   2.800
  803SOL    HW119551   4.684   5.792   2.823
  803SOL    HW219552   4.804   5.853   2.753
  804SOL     OW19553   3.234   3.566   0.767
  804SOL    HW119554   3.185   3.646   0.750
  804SOL    HW219555   3.227   3.553   0.862
  805SOL     OW19556   2.723   1.247  -0.003
  805SOL    HW119557   2.717   1.156  -0.030
  805SOL    HW219558   2.740   1.243   0.091
  806SOL     OW19559   0.874   5.753   6.424
  806SOL    HW119560   0.945   5.812   6.450
  806SOL    HW219561   0.795   5.806   6.433
  807SOL     OW19562   2.219   5.495   0.458
  807SOL    HW119563   2.240   5.449   0.539
  807SOL    HW219564   2.177   5.429   0.402
  808SOL     OW19565   2.854   4.808   0.236
  808SOL    HW119566   2.759   4.807   0.249
  808SOL    HW219567   2.869   4.748   0.164
  809SOL     OW19568   3.192   6.250   0.021
  809SOL    HW119569   3.158   6.279   0.105
  809SOL    HW219570   3.279   6.215   0.040
  810SOL     OW19571   6.134   2.413   1.069
  810SOL    HW119572   6.155   2.404   0.976
  810SOL    HW219573   6.202   2.470   1.103
  811SOL     OW19574   2.246   3.917   1.894
  811SOL    HW119575   2.168   3.898   1.842
  811SOL    HW219576   2.236   3.864   1.973
  812SOL     OW19577   3.707   0.533   3.072
  812SOL    HW119578   3.696   0.439   3.090
  812SOL    HW219579   3.777   0.537   3.008
  813SOL     OW19580   1.441   3.352   1.764
  813SOL    HW119581   1.400   3.335   1.849
  813SOL    HW219582   1.497   3.428   1.779
  814SOL     OW19583   3.831   2.623   7.275
  814SOL    HW119584   3.777   2.569   7.332
  814SOL    HW219585   3.911   2.640   7.324
  815SOL     OW19586   4.878   0.691   0.776
  815SOL    HW119587   4.966   0.725   0.758
  815SOL    HW219588   4.866   0.622   0.709
  816SOL     OW19589   1.746   3.951   7.854
  816SOL    HW119590   1.737   3.862   7.820
  816SOL    HW219591   1.662   3.970   7.896
  817SOL     OW19592   4.057   2.034   6.587
  817SOL    HW119593   4.045   2.089   6.510
  817SOL    HW219594   4.058   2.097   6.660
  818SOL     OW19595   1.593   1.763   0.883
  818SOL    HW119596   1.577   1.816   0.805
  818SOL    HW219597   1.688   1.757   0.889
  819SOL     OW19598   5.303   5.084   7.599
  819SOL    HW119599   5.219   5.105   7.641
  819SOL    HW219600   5.369   5.106   7.664
  820SOL     OW19601   3.105   0.082   7.406
  820SOL    HW119602   3.077   0.169   7.434
  820SOL    HW219603   3.028   0.045   7.363
  821SOL     OW19604   0.842   3.947   0.398
  821SOL    HW119605   0.765   3.941   0.341
  821SOL    HW219606   0.812   3.998   0.473
  822SOL     OW19607   0.512   0.872   2.095
  822SOL    HW119608   0.434   0.925   2.113
  822SOL    HW219609   0.551   0.914   2.018
  823SOL     OW19610   2.862   1.571   0.676
  823SOL    HW119611   2.924   1.506   0.644
  823SOL    HW219612   2.778   1.547   0.637
  824SOL     OW19613   4.720   0.418   6.602
  824SOL    HW119614   4.672   0.472   6.539
  824SOL    HW219615   4.673   0.334   6.602
  825SOL     OW19616   3.758   5.055   6.699
  825SOL    HW119617   3.818   5.095   6.762
  825SOL    HW219618   3.681   5.034   6.751
  826SOL     OW19619   4.276   1.176   0.619
  826SOL    HW119620   4.317   1.218   0.694
  826SOL    HW219621   4.211   1.240   0.588
  827SOL     OW19622   6.061   0.500   1.796
  827SOL    HW119623   6.084   0.593   1.794
  827SOL    HW219624   6.145   0.455   1.789
  828SOL     OW19625   6.233   2.611   0.828
  828SOL    HW119626   6.219   2.520   0.805
  828SOL    HW219627   6.255   2.609   0.921
  829SOL     OW19628   0.909   3.524   6.759
  829SOL    HW119629   0.976   3.544   6.694
  829SOL    HW219630   0.877   3.610   6.788
  830SOL     OW19631   4.330   5.602   0.810
  830SOL    HW119632   4.339   5.697   0.817
  830SOL    HW219633   4.290   5.588   0.724
  831SOL     OW19634   3.179   0.616   6.606
  831SOL    HW119635   3.110   0.551   6.594
  831SOL    HW219636   3.142   0.697   6.571
  832SOL     OW19637   2.719   0.269   6.322
  832SOL    HW119638   2.713   0.359   6.351
  832SOL    HW219639   2.764   0.274   6.237
  833SOL     OW19640   4.283   3.154   1.711
  833SOL    HW119641   4.204   3.189   1.669
  833SOL    HW219642   4.326   3.103   1.643
  834SOL     OW19643   2.765   2.421   6.818
  834SOL    HW119644   2.777   2.347   6.877
  834SOL    HW219645   2.677   2.410   6.782
  835SOL     OW19646   2.440   0.555   0.102
  835SOL    HW119647   2.474   0.640   0.076
  835SOL    HW219648   2.514   0.511   0.144
  836SOL     OW19649   3.545   0.409   0.341
  836SOL    HW119650   3.505   0.379   0.422
  836SOL    HW219651   3.559   0.503   0.354
  837SOL     OW19652   0.813   1.906   5.375
  837SOL    HW119653   0.797   1.980   5.317
  837SOL    HW219654   0.728   1.889   5.416
  838SOL     OW19655   4.056   2.260   6.444
  838SOL    HW119656   4.024   2.327   6.504
  838SOL    HW219657   4.152   2.265   6.452
  839SOL     OW19658   4.331   2.083   0.412
  839SOL    HW119659   4.249   2.037   0.433
  839SOL    HW219660   4.399   2.018   0.429
  840SOL     OW19661   1.974   2.195   0.043
  840SOL    HW119662   1.954   2.289   0.049
  840SOL    HW219663   2.044   2.181   0.107
  841SOL     OW19664   5.266   2.491   7.738
  841SOL    HW119665   5.198   2.524   7.796
  841SOL    HW219666   5.250   2.397   7.731
  842SOL     OW19667   1.395   1.376   7.241
  842SOL    HW119668   1.363   1.411   7.324
  842SOL    HW219669   1.336   1.303   7.221
  843SOL     OW19670   0.707   4.269   0.454
  843SOL    HW119671   0.700   4.188   0.504
  843SOL    HW219672   0.656   4.254   0.375
  844SOL     OW19673   2.796   3.233   1.852
  844SOL    HW119674   2.741   3.252   1.928
  844SOL    HW219675   2.830   3.319   1.825
  845SOL     OW19676   4.368   4.653   7.387
  845SOL    HW119677   4.313   4.657   7.465
  845SOL    HW219678   4.379   4.745   7.361
  846SOL     OW19679   0.866   2.485   0.234
  846SOL    HW119680   0.819   2.464   0.314
  846SOL    HW219681   0.927   2.554   0.258
  847SOL     OW19682   1.353   1.297   2.521
  847SOL    HW119683   1.342   1.220   2.577
  847SOL    HW219684   1.333   1.266   2.433
  848SOL     OW19685   4.704   3.336   0.176
  848SOL    HW119686   4.646   3.346   0.251
  848SOL    HW219687   4.778   3.285   0.209
  849SOL     OW19688   4.519   6.342   0.212
  849SOL    HW119689   4.539   6.408   0.278
  849SOL    HW219690   4.574   6.267   0.236
  850SOL     OW19691   2.997   5.126   6.535
  850SOL    HW119692   3.087   5.097   6.520
  850SOL    HW219693   3.004   5.221   6.548
  851SOL     OW19694   4.610   4.605   7.210
  851SOL    HW119695   4.537   4.578   7.265
  851SOL    HW219696   4.661   4.664   7.265
  852SOL     OW19697   4.482   1.609   6.076
  852SOL    HW119698   4.435   1.595   6.159
  852SOL    HW219699   4.417   1.650   6.019
  853SOL     OW19700   5.651   2.452   1.179
  853SOL    HW119701   5.616   2.529   1.134
  853SOL    HW219702   5.668   2.482   1.269
  854SOL     OW19703   1.408   4.458   7.278
  854SOL    HW119704   1.350   4.510   7.334
  854SOL    HW219705   1.421   4.376   7.327
  855SOL     OW19706   6.258   1.402   5.885
  855SOL    HW119707   6.297   1.412   5.972
  855SOL    HW219708   6.274   1.486   5.842
  856SOL     OW19709   3.922   0.333   1.113
  856SOL    HW119710   3.951   0.424   1.121
  856SOL    HW219711   3.827   0.337   1.125
  857SOL     OW19712   6.309   4.034   6.004
  857SOL    HW119713   6.399   4.064   6.009
  857SOL    HW219714   6.259   4.102   6.050
  858SOL     OW19715   1.661   2.031   0.479
  858SOL    HW119716   1.751   2.062   0.493
  858SOL    HW219717   1.644   2.050   0.387
  859SOL     OW19718   0.948   3.230   5.834
  859SOL    HW119719   0.966   3.322   5.814
  859SOL    HW219720   0.871   3.209   5.780
  860SOL     OW19721   4.047   0.248   1.819
  860SOL    HW119722   4.108   0.253   1.892
  860SOL    HW219723   3.987   0.322   1.831
  861SOL     OW19724   3.639   6.132   1.021
  861SOL    HW119725   3.666   6.216   1.059
  861SOL    HW219726   3.579   6.156   0.951
  862SOL     OW19727   1.898   2.543   7.800
  862SOL    HW119728   1.852   2.625   7.821
  862SOL    HW219729   1.988   2.569   7.786
  863SOL     OW19730   4.757   6.287   8.051
  863SOL    HW119731   4.720   6.272   7.964
  863SOL    HW219732   4.723   6.216   8.104
  864SOL     OW19733   4.543   5.554   6.390
  864SOL    HW119734   4.580   5.591   6.309
  864SOL    HW219735   4.463   5.510   6.361
  865SOL     OW19736   2.555   4.839   0.181
  865SOL    HW119737   2.520   4.867   0.096
  865SOL    HW219738   2.574   4.921   0.227
  866SOL     OW19739   1.311   3.587   7.541
  866SOL    HW119740   1.222   3.576   7.506
  866SOL    HW219741   1.346   3.662   7.493
  867SOL     OW19742   0.187   5.095   6.138
  867SOL    HW119743   0.258   5.121   6.196
  867SOL    HW219744   0.115   5.154   6.160
  868SOL     OW19745   3.814   3.482   1.689
  868SOL    HW119746   3.790   3.531   1.768
  868SOL    HW219747   3.751   3.510   1.623
  869SOL     OW19748   1.140   4.290   1.560
  869SOL    HW119749   1.080   4.221   1.589
  869SOL    HW219750   1.219   4.276   1.613
  870SOL     OW19751   4.296   1.343   6.266
  870SOL    HW119752   4.391   1.346   6.284
  870SOL    HW219753   4.273   1.251   6.272
  871SOL     OW19754   6.286   4.398   7.657
  871SOL    HW119755   6.281   4.448   7.575
  871SOL    HW219756   6.220   4.439   7.714
  872SOL     OW19757   2.870   0.381   2.381
  872SOL    HW119758   2.790   0.374   2.328
  872SOL    HW219759   2.900   0.291   2.392
  873SOL     OW19760   3.200   1.369   6.823
  873SOL    HW119761   3.290   1.385   6.796
  873SOL    HW219762   3.152   1.357   6.741
  874SOL     OW19763   2.851   4.890   0.575
  874SOL    HW119764   2.788   4.877   0.646
  874SOL    HW219765   2.798   4.917   0.501
  875SOL     OW19766   3.415   0.517   7.386
  875SOL    HW119767   3.501   0.505   7.346
  875SOL    HW219768   3.402   0.439   7.439
  876SOL     OW19769   5.722   6.071   6.931
  876SOL    HW119770   5.785   6.006   6.901
  876SOL    HW219771   5.754   6.097   7.017
  877SOL     OW19772   2.782   1.601   0.348
  877SOL    HW119773   2.731   1.530   0.310
  877SOL    HW219774   2.721   1.647   0.405
  878SOL     OW19775   3.062   5.515   0.062
  878SOL    HW119776   2.979   5.547   0.027
  878SOL    HW219777   3.039   5.442   0.118
  879SOL     OW19778   3.144   5.685   0.259
  879SOL    HW119779   3.236   5.667   0.275
  879SOL    HW219780   3.119   5.623   0.190
  880SOL     OW19781   4.983   4.037   7.219
  880SOL    HW119782   4.936   3.955   7.232
  880SOL    HW219783   4.915   4.099   7.192
  881SOL     OW19784   0.023   4.350   2.309
  881SOL    HW119785   0.113   4.370   2.333
  881SOL    HW219786   0.018   4.254   2.311
  882SOL     OW19787   4.224   1.624   7.039
  882SOL    HW119788   4.133   1.637   7.012
  882SOL    HW219789   4.240   1.694   7.102
  883SOL     OW19790   6.151   3.214   2.124
  883SOL    HW119791   6.116   3.140   2.173
  883SOL    HW219792   6.077   3.275   2.117
  884SOL     OW19793   2.716   4.352   7.975
  884SOL    HW119794   2.758   4.332   7.892
  884SOL    HW219795   2.751   4.287   8.036
  885SOL     OW19796   1.662   0.464   0.497
  885SOL    HW119797   1.693   0.384   0.455
  885SOL    HW219798   1.578   0.482   0.455
  886SOL     OW19799   5.903   4.755   0.421
  886SOL    HW119800   5.808   4.749   0.431
  886SOL    HW219801   5.938   4.700   0.492
  887SOL     OW19802   1.638   3.339   6.480
  887SOL    HW119803   1.655   3.245   6.486
  887SOL    HW219804   1.559   3.345   6.426
  888SOL     OW19805   1.004   5.412   0.626
  888SOL    HW119806   1.070   5.425   0.694
  888SOL    HW219807   0.943   5.486   0.637
  889SOL     OW19808   5.205   2.824   6.252
  889SOL    HW119809   5.230   2.883   6.182
  889SOL    HW219810   5.175   2.745   6.207
  890SOL     OW19811   3.505   5.363   6.298
  890SOL    HW119812   3.551   5.364   6.214
  890SOL    HW219813   3.565   5.404   6.359
  891SOL     OW19814   3.400   3.251   7.800
  891SOL    HW119815   3.456   3.288   7.732
  891SOL    HW219816   3.383   3.162   7.772
  892SOL     OW19817   2.278   5.287   0.058
  892SOL    HW119818   2.210   5.316  -0.002
  892SOL    HW219819   2.231   5.266   0.139
  893SOL     OW19820   3.230   5.250   7.403
  893SOL    HW119821   3.200   5.159   7.393
  893SOL    HW219822   3.292   5.247   7.475
  894SOL     OW19823   5.418   3.438   0.810
  894SOL    HW119824   5.407   3.517   0.863
  894SOL    HW219825   5.434   3.470   0.721
  895SOL     OW19826   5.747   4.292   7.648
  895SOL    HW119827   5.747   4.306   7.742
  895SOL    HW219828   5.796   4.366   7.612
  896SOL     OW19829   6.089   3.896   7.048
  896SOL    HW119830   6.042   3.970   7.011
  896SOL    HW219831   6.171   3.933   7.080
  897SOL     OW19832   3.172   4.133   7.109
  897SOL    HW119833   3.139   4.045   7.092
  897SOL    HW219834   3.258   4.134   7.067
  898SOL     OW19835   3.624   3.948   7.723
  898SOL    HW119836   3.627   4.017   7.789
  898SOL    HW219837   3.641   3.993   7.640
  899SOL     OW19838   2.599   4.747   6.429
  899SOL    HW119839   2.511   4.710   6.420
  899SOL    HW219840   2.655   4.671   6.446
  900SOL     OW19841   2.775   4.224   7.747
  900SOL    HW119842   2.754   4.141   7.705
  900SOL    HW219843   2.802   4.281   7.675
  901SOL     OW19844   4.810   4.686   0.245
  901SOL    HW119845   4.896   4.703   0.206
  901SOL    HW219846   4.792   4.764   0.297
  902SOL     OW19847   3.863   0.211   6.178
  902SOL    HW119848   3.795   0.165   6.226
  902SOL    HW219849   3.883   0.153   6.104
  903SOL     OW19850   4.775   1.485   0.339
  903SOL    HW119851   4.682   1.470   0.324
  903SOL    HW219852   4.803   1.542   0.267
  904SOL     OW19853   0.874   5.037   7.743
  904SOL    HW119854   0.897   4.964   7.800
  904SOL    HW219855   0.839   5.104   7.802
  905SOL     OW19856   3.401   4.105   6.989
  905SOL    HW119857   3.389   4.014   6.964
  905SOL    HW219858   3.495   4.121   6.980
  906SOL     OW19859   1.606   2.566   0.053
  906SOL    HW119860   1.511   2.553   0.056
  906SOL    HW219861   1.617   2.660   0.037
  907SOL     OW19862   1.695   6.208   6.177
  907SOL    HW119863   1.774   6.176   6.220
  907SOL    HW219864   1.629   6.142   6.196
  908SOL     OW19865   0.077   5.011   0.123
  908SOL    HW119866   0.028   5.068   0.183
  908SOL    HW219867   0.102   5.069   0.051
  909SOL     OW19868   0.339   3.918   6.063
  909SOL    HW119869   0.278   3.992   6.064
  909SOL    HW219870   0.292   3.847   6.106
  910SOL     OW19871   0.646   1.138   0.247
  910SOL    HW119872   0.573   1.098   0.294
  910SOL    HW219873   0.613   1.153   0.159
  911SOL     OW19874   3.849   4.519   1.358
  911SOL    HW119875   3.859   4.458   1.430
  911SOL    HW219876   3.918   4.584   1.372
  912SOL     OW19877   6.026   5.567   2.519
  912SOL    HW119878   6.024   5.609   2.605
  912SOL    HW219879   6.101   5.507   2.523
  913SOL     OW19880   2.239   2.336   0.526
  913SOL    HW119881   2.145   2.348   0.539
  913SOL    HW219882   2.256   2.373   0.439
  914SOL     OW19883   3.169   0.360   7.242
  914SOL    HW119884   3.173   0.370   7.146
  914SOL    HW219885   3.240   0.299   7.262
  915SOL     OW19886   5.521   6.042   8.001
  915SOL    HW119887   5.488   5.977   7.939
  915SOL    HW219888   5.524   6.124   7.950
  916SOL     OW19889   1.541   4.495   6.511
  916SOL    HW119890   1.484   4.547   6.567
  916SOL    HW219891   1.495   4.411   6.500
  917SOL     OW19892   4.359   3.896   0.311
  917SOL    HW119893   4.395   3.821   0.358
  917SOL    HW219894   4.420   3.908   0.237
  918SOL     OW19895   5.899   0.528   6.663
  918SOL    HW119896   5.839   0.535   6.737
  918SOL    HW219897   5.858   0.579   6.593
  919SOL     OW19898   5.383   3.366   6.434
  919SOL    HW119899   5.345   3.414   6.508
  919SOL    HW219900   5.317   3.300   6.412
  920SOL     OW19901   1.707   5.253   1.017
  920SOL    HW119902   1.710   5.334   0.967
  920SOL    HW219903   1.615   5.225   1.011
  921SOL     OW19904   0.650   2.034   7.850
  921SOL    HW119905   0.667   2.069   7.763
  921SOL    HW219906   0.736   2.021   7.888
  922SOL     OW19907   0.634   0.789   1.218
  922SOL    HW119908   0.553   0.822   1.180
  922SOL    HW219909   0.608   0.709   1.264
  923SOL     OW19910   4.656   4.305   0.971
  923SOL    HW119911   4.719   4.325   0.902
  923SOL    HW219912   4.641   4.388   1.015
  924SOL     OW19913   2.038   5.327   8.019
  924SOL    HW119914   2.006   5.274   8.093
  924SOL    HW219915   1.968   5.322   7.954
  925SOL     OW19916   0.648   2.797   0.849
  925SOL    HW119917   0.726   2.800   0.904
  925SOL    HW219918   0.592   2.867   0.882
  926SOL     OW19919   1.743   3.816   7.371
  926SOL    HW119920   1.769   3.726   7.349
  926SOL    HW219921   1.715   3.854   7.288
  927SOL     OW19922   2.491   1.078   0.610
  927SOL    HW119923   2.403   1.042   0.619
  927SOL    HW219924   2.497   1.144   0.679
  928SOL     OW19925   5.988   1.286   1.788
  928SOL    HW119926   5.926   1.346   1.831
  928SOL    HW219927   5.941   1.253   1.712
  929SOL     OW19928   1.023   4.142   6.903
  929SOL    HW119929   1.010   4.225   6.949
  929SOL    HW219930   0.974   4.078   6.955
  930SOL     OW19931   2.595   2.014   0.550
  930SOL    HW119932   2.683   1.983   0.574
  930SOL    HW219933   2.584   2.095   0.600
  931SOL     OW19934   4.238   2.721   7.709
  931SOL    HW119935   4.332   2.700   7.708
  931SOL    HW219936   4.226   2.771   7.790
  932SOL     OW19937   3.742   1.808   7.916
  932SOL    HW119938   3.674   1.872   7.941
  932SOL    HW219939   3.693   1.730   7.891
  933SOL     OW19940   1.327   3.915   1.026
  933SOL    HW119941   1.354   3.978   0.959
  933SOL    HW219942   1.308   3.834   0.978
  934SOL     OW19943   5.373   4.021   7.872
  934SOL    HW119944   5.399   4.093   7.814
  934SOL    HW219945   5.315   3.967   7.819
  935SOL     OW19946   2.077   2.170   6.215
  935SOL    HW119947   2.060   2.177   6.121
  935SOL    HW219948   2.172   2.184   6.223
  936SOL     OW19949   2.684   4.434   1.515
  936SOL    HW119950   2.594   4.426   1.546
  936SOL    HW219951   2.692   4.526   1.489
  937SOL     OW19952   5.085   5.016   1.778
  937SOL    HW119953   5.143   4.941   1.769
  937SOL    HW219954   5.063   5.042   1.689
  938SOL     OW19955   3.084   0.048   1.868
  938SOL    HW119956   3.173   0.025   1.841
  938SOL    HW219957   3.075   0.010   1.956
  939SOL     OW19958   5.319   4.306   6.013
  939SOL    HW119959   5.263   4.376   6.045
  939SOL    HW219960   5.275   4.274   5.934
  940SOL     OW19961   0.395   6.215   1.707
  940SOL    HW119962   0.342   6.172   1.775
  940SOL    HW219963   0.382   6.308   1.721
  941SOL     OW19964   4.345   2.764   0.286
  941SOL    HW119965   4.323   2.686   0.337
  941SOL    HW219966   4.267   2.779   0.232
  942SOL     OW19967   4.329   6.129   1.024
  942SOL    HW119968   4.285   6.137   0.939
  942SOL    HW219969   4.284   6.193   1.080
  943SOL     OW19970   2.306   0.302   1.669
  943SOL    HW119971   2.217   0.325   1.644
  943SOL    HW219972   2.359   0.327   1.594
  944SOL     OW19973   0.635   1.011   1.866
  944SOL    HW119974   0.599   1.078   1.807
  944SOL    HW219975   0.683   1.060   1.932
  945SOL     OW19976   2.189   3.568   7.751
  945SOL    HW119977   2.170   3.646   7.699
  945SOL    HW219978   2.211   3.501   7.687
  946SOL     OW19979   0.160   2.861   7.752
  946SOL    HW119980   0.146   2.917   7.675
  946SOL    HW219981   0.247   2.884   7.784
  947SOL     OW19982   1.334   2.508   0.978
  947SOL    HW119983   1.240   2.492   0.979
  947SOL    HW219984   1.366   2.473   1.061
  948SOL     OW19985   4.946   5.615   7.489
  948SOL    HW119986   4.985   5.689   7.442
  948SOL    HW219987   4.867   5.595   7.440
  949SOL     OW19988   5.130   2.384   1.423
  949SOL    HW119989   5.075   2.367   1.499
  949SOL    HW219990   5.115   2.477   1.402
  950SOL     OW19991   0.996   3.255   0.267
  950SOL    HW119992   0.926   3.274   0.204
  950SOL    HW219993   0.992   3.161   0.281
  951SOL     OW19994   5.453   0.526   1.792
  951SOL    HW119995   5.536   0.573   1.799
  951SOL    HW219996   5.386   0.593   1.807
  952SOL     OW19997   2.186   3.486   6.075
  952SOL    HW119998   2.249   3.416   6.094
  952SOL    HW219999   2.239   3.566   6.078
  953SOL     OW20000   1.331   4.824   0.420
  953SOL    HW120001   1.387   4.822   0.343
  953SOL    HW220002   1.253   4.774   0.395
  954SOL     OW20003   5.630   2.203   6.247
  954SOL    HW120004   5.599   2.114   6.229
  954SOL    HW220005   5.550   2.252   6.268
  955SOL     OW20006   6.010   2.939   1.134
  955SOL    HW120007   5.928   2.951   1.085
  955SOL    HW220008   5.982   2.930   1.225
  956SOL     OW20009   3.148   4.810   1.378
  956SOL    HW120010   3.196   4.893   1.382
  956SOL    HW220011   3.071   4.824   1.433
  957SOL     OW20012   3.758   6.069   1.649
  957SOL    HW120013   3.721   6.112   1.726
  957SOL    HW220014   3.849   6.096   1.648
  958SOL     OW20015   2.271   5.903   2.498
  958SOL    HW120016   2.341   5.864   2.446
  958SOL    HW220017   2.262   5.992   2.463
  959SOL     OW20018   6.179   4.551   1.490
  959SOL    HW120019   6.146   4.568   1.401
  959SOL    HW220020   6.243   4.481   1.478
  960SOL     OW20021   6.189   0.312   1.310
  960SOL    HW120022   6.118   0.254   1.340
  960SOL    HW220023   6.157   0.348   1.227
  961SOL     OW20024   5.306   1.145   1.652
  961SOL    HW120025   5.239   1.120   1.715
  961SOL    HW220026   5.316   1.068   1.595
  962SOL     OW20027   0.659   4.431   0.179
  962SOL    HW120028   0.679   4.514   0.222
  962SOL    HW220029   0.603   4.385   0.241
  963SOL     OW20030   5.788   3.626   6.908
  963SOL    HW120031   5.837   3.544   6.903
  963SOL    HW220032   5.794   3.662   6.820
  964SOL     OW20033   5.682   5.331   1.077
  964SOL    HW120034   5.757   5.285   1.114
  964SOL    HW220035   5.680   5.305   0.985
  965SOL     OW20036   2.455   6.025   6.980
  965SOL    HW120037   2.448   5.955   6.916
  965SOL    HW220038   2.365   6.055   6.993
  966SOL     OW20039   4.181   3.084   7.101
  966SOL    HW120040   4.127   3.162   7.090
  966SOL    HW220041   4.141   3.038   7.175
  967SOL     OW20042   1.525   1.357   2.185
  967SOL    HW120043   1.587   1.295   2.148
  967SOL    HW220044   1.439   1.328   2.154
  968SOL     OW20045   3.182   2.464   0.452
  968SOL    HW120046   3.245   2.535   0.464
  968SOL    HW220047   3.100   2.509   0.430
  969SOL     OW20048   1.733   4.095   7.490
  969SOL    HW120049   1.777   4.164   7.440
  969SOL    HW220050   1.770   4.014   7.456
  970SOL     OW20051   6.101   0.966   1.561
  970SOL    HW120052   6.103   1.011   1.645
  970SOL    HW220053   6.010   0.970   1.533
  971SOL     OW20054   2.253   6.129   0.640
  971SOL    HW120055   2.232   6.058   0.701
  971SOL    HW220056   2.344   6.114   0.616
  972SOL     OW20057   1.728   5.659   1.375
  972SOL    HW120058   1.744   5.588   1.437
  972SOL    HW220059   1.685   5.727   1.427
  973SOL     OW20060   3.225   3.223   7.183
  973SOL    HW120061   3.133   3.246   7.196
  973SOL    HW220062   3.224   3.157   7.114
  974SOL     OW20063   4.068   0.255   7.736
  974SOL    HW120064   4.083   0.161   7.722
  974SOL    HW220065   4.079   0.267   7.830
  975SOL     OW20066   0.554   2.849   0.560
  975SOL    HW120067   0.520   2.938   0.559
  975SOL    HW220068   0.613   2.846   0.635
  976SOL     OW20069   5.891   5.801   6.253
  976SOL    HW120070   5.855   5.775   6.338
  976SOL    HW220071   5.826   5.862   6.218
  977SOL     OW20072   5.555   6.012   6.040
  977SOL    HW120073   5.498   6.009   5.963
  977SOL    HW220074   5.548   6.102   6.071
  978SOL     OW20075   2.007   5.355   7.454
  978SOL    HW120076   1.935   5.416   7.438
  978SOL    HW220077   2.002   5.292   7.382
  979SOL     OW20078   2.351   5.234   5.707
  979SOL    HW120079   2.359   5.203   5.616
  979SOL    HW220080   2.336   5.154   5.757
  980SOL     OW20081   4.255   3.860   7.728
  980SOL    HW120082   4.288   3.779   7.690
  980SOL    HW220083   4.175   3.834   7.773
  981SOL     OW20084   2.527   3.668   1.713
  981SOL    HW120085   2.521   3.593   1.654
  981SOL    HW220086   2.444   3.715   1.701
  982SOL     OW20087   1.480   6.040   1.122
  982SOL    HW120088   1.574   6.021   1.126
  982SOL    HW220089   1.474   6.134   1.111
  983SOL     OW20090   4.372   5.865   0.852
  983SOL    HW120091   4.429   5.931   0.813
  983SOL    HW220092   4.341   5.905   0.933
  984SOL     OW20093   4.072   1.306   5.603
  984SOL    HW120094   4.043   1.250   5.531
  984SOL    HW220095   4.066   1.395   5.569
  985SOL     OW20096   0.028   4.484   7.007
  985SOL    HW120097  -0.067   4.469   7.002
  985SOL    HW220098   0.062   4.407   7.052
  986SOL     OW20099   1.548   2.771   7.080
  986SOL    HW120100   1.637   2.780   7.046
  986SOL    HW220101   1.538   2.844   7.142
  987SOL     OW20102   3.260   0.843   7.811
  987SOL    HW120103   3.251   0.784   7.736
  987SOL    HW220104   3.181   0.827   7.863
  988SOL     OW20105   1.007   0.887   0.739
  988SOL    HW120106   0.911   0.893   0.747
  988SOL    HW220107   1.040   0.959   0.793
  989SOL     OW20108   5.316   0.942   0.975
  989SOL    HW120109   5.309   0.860   1.024
  989SOL    HW220110   5.233   0.987   0.992
  990SOL     OW20111   5.137   4.217   6.336
  990SOL    HW120112   5.062   4.178   6.291
  990SOL    HW220113   5.204   4.149   6.333
  991SOL     OW20114   4.389   4.546   1.511
  991SOL    HW120115   4.368   4.453   1.514
  991SOL    HW220116   4.417   4.567   1.601
  992SOL     OW20117   5.105   1.984   0.439
  992SOL    HW120118   5.013   1.998   0.461
  992SOL    HW220119   5.153   2.016   0.515
  993SOL     OW20120   4.876   5.457   0.543
  993SOL    HW120121   4.811   5.473   0.611
  993SOL    HW220122   4.899   5.544   0.510
  994SOL     OW20123   4.593   4.674   6.552
  994SOL    HW120124   4.553   4.723   6.480
  994SOL    HW220125   4.556   4.713   6.631
  995SOL     OW20126   3.919   0.652   1.018
  995SOL    HW120127   3.943   0.740   0.989
  995SOL    HW220128   3.912   0.601   0.937
  996SOL     OW20129   5.486   3.698   1.160
  996SOL    HW120130   5.405   3.697   1.211
  996SOL    HW220131   5.547   3.646   1.212
  997SOL     OW20132   0.580   5.018   7.637
  997SOL    HW120133   0.547   4.946   7.582
  997SOL    HW220134   0.661   4.983   7.675
  998SOL     OW20135   3.275   1.718   6.188
  998SOL    HW120136   3.228   1.636   6.202
  998SOL    HW220137   3.329   1.701   6.110
  999SOL     OW20138   3.682   4.489   1.831
  999SOL    HW120139   3.751   4.550   1.804
  999SOL    HW220140   3.651   4.524   1.915
 1000SOL     OW20141   5.343   4.753   2.076
 1000SOL    HW120142   5.356   4.686   2.009
 1000SOL    HW220143   5.386   4.717   2.154
 1001SOL     OW20144   3.481   5.536   7.100
 1001SOL    HW120145   3.455   5.589   7.024
 1001SOL    HW220146   3.572   5.560   7.115
 1002SOL     OW20147   2.454   5.754   0.745
 1002SOL    HW120148   2.396   5.706   0.804
 1002SOL    HW220149   2.487   5.827   0.798
 1003SOL     OW20150   1.419   4.286   0.805
 1003SOL    HW120151   1.433   4.355   0.740
 1003SOL    HW220152   1.324   4.278   0.810
 1004SOL     OW20153   4.033   2.886   0.874
 1004SOL    HW120154   4.007   2.978   0.882
 1004SOL    HW220155   4.129   2.887   0.877
 1005SOL     OW20156   2.067   0.761   0.511
 1005SOL    HW120157   2.017   0.780   0.590
 1005SOL    HW220158   2.003   0.763   0.440
 1006SOL     OW20159   4.520   0.416   0.901
 1006SOL    HW120160   4.477   0.502   0.894
 1006SOL    HW220161   4.538   0.391   0.810
 1007SOL     OW20162   0.624   1.522   1.513
 1007SOL    HW120163   0.689   1.453   1.528
 1007SOL    HW220164   0.579   1.531   1.597
 1008SOL     OW20165   2.249   5.365   0.972
 1008SOL    HW120166   2.339   5.379   0.941
 1008SOL    HW220167   2.257   5.299   1.041
 1009SOL     OW20168   5.191   5.518   2.215
 1009SOL    HW120169   5.146   5.440   2.249
 1009SOL    HW220170   5.153   5.591   2.265
 1010SOL     OW20171   4.044   3.002   7.323
 1010SOL    HW120172   4.041   2.932   7.388
 1010SOL    HW220173   3.954   3.034   7.317
 1011SOL     OW20174   1.508   4.839   1.388
 1011SOL    HW120175   1.569   4.771   1.416
 1011SOL    HW220176   1.452   4.796   1.323
 1012SOL     OW20177   2.251   0.141   0.899
 1012SOL    HW120178   2.204   0.208   0.950
 1012SOL    HW220179   2.269   0.071   0.961
 1013SOL     OW20180   6.307   4.312   7.267
 1013SOL    HW120181   6.349   4.335   7.350
 1013SOL    HW220182   6.380   4.294   7.208
 1014SOL     OW20183   1.239   2.905   7.280
 1014SOL    HW120184   1.174   2.970   7.252
 1014SOL    HW220185   1.324   2.945   7.259
 1015SOL     OW20186   0.861   2.239   1.331
 1015SOL    HW120187   0.933   2.218   1.390
 1015SOL    HW220188   0.790   2.180   1.357
 1016SOL     OW20189   4.389   6.092   1.425
 1016SOL    HW120190   4.475   6.070   1.388
 1016SOL    HW220191   4.327   6.061   1.359
 1017SOL     OW20192   5.049   1.053   7.918
 1017SOL    HW120193   5.073   0.967   7.951
 1017SOL    HW220194   5.120   1.076   7.857
 1018SOL     OW20195   4.028   2.027   7.473
 1018SOL    HW120196   3.999   2.112   7.506
 1018SOL    HW220197   4.122   2.025   7.491
 1019SOL     OW20198   0.422   0.375   0.852
 1019SOL    HW120199   0.334   0.345   0.875
 1019SOL    HW220200   0.481   0.316   0.900
 1020SOL     OW20201   6.255   0.988   6.919
 1020SOL    HW120202   6.297   1.074   6.920
 1020SOL    HW220203   6.172   1.002   6.873
 1021SOL     OW20204   3.370   0.057   1.853
 1021SOL    HW120205   3.420   0.079   1.774
 1021SOL    HW220206   3.411  -0.024   1.885
 1022SOL     OW20207   0.254   4.313   7.494
 1022SOL    HW120208   0.315   4.346   7.559
 1022SOL    HW220209   0.246   4.220   7.513
 1023SOL     OW20210   4.471   6.258   6.268
 1023SOL    HW120211   4.465   6.317   6.192
 1023SOL    HW220212   4.455   6.171   6.231
 1024SOL     OW20213   0.045   4.820   6.737
 1024SOL    HW120214  -0.020   4.885   6.763
 1024SOL    HW220215   0.008   4.780   6.658
 1025SOL     OW20216   3.224   0.810   6.356
 1025SOL    HW120217   3.137   0.830   6.391
 1025SOL    HW220218   3.252   0.890   6.312
 1026SOL     OW20219   5.085   5.861   1.163
 1026SOL    HW120220   5.026   5.868   1.239
 1026SOL    HW220221   5.120   5.772   1.169
 1027SOL     OW20222   1.995   5.608   0.056
 1027SOL    HW120223   2.018   5.539  -0.007
 1027SOL    HW220224   2.073   5.618   0.110
 1028SOL     OW20225   2.211   3.411   7.500
 1028SOL    HW120226   2.158   3.459   7.436
 1028SOL    HW220227   2.201   3.319   7.475
 1029SOL     OW20228   3.001   1.416   1.010
 1029SOL    HW120229   3.046   1.475   0.950
 1029SOL    HW220230   2.918   1.460   1.030
 1030SOL     OW20231   3.559   2.753   1.772
 1030SOL    HW120232   3.507   2.674   1.759
 1030SOL    HW220233   3.608   2.764   1.690
 1031SOL     OW20234   5.543   4.955   7.311
 1031SOL    HW120235   5.487   4.981   7.384
 1031SOL    HW220236   5.574   5.037   7.273
 1032SOL     OW20237   5.612   4.862   1.255
 1032SOL    HW120238   5.692   4.910   1.238
 1032SOL    HW220239   5.591   4.819   1.172
 1033SOL     OW20240   0.722   1.226   6.909
 1033SOL    HW120241   0.686   1.267   6.830
 1033SOL    HW220242   0.783   1.160   6.877
 1034SOL     OW20243   5.287   4.885   0.630
 1034SOL    HW120244   5.308   4.939   0.706
 1034SOL    HW220245   5.309   4.796   0.657
 1035SOL     OW20246   3.764   1.770   5.845
 1035SOL    HW120247   3.669   1.755   5.841
 1035SOL    HW220248   3.773   1.865   5.855
 1036SOL     OW20249   1.917   5.033   2.024
 1036SOL    HW120250   1.928   5.008   1.932
 1036SOL    HW220251   1.982   4.981   2.071
 1037SOL     OW20252   3.358   3.796   0.512
 1037SOL    HW120253   3.334   3.880   0.472
 1037SOL    HW220254   3.275   3.759   0.541
 1038SOL     OW20255   1.749   0.328   1.556
 1038SOL    HW120256   1.712   0.343   1.469
 1038SOL    HW220257   1.772   0.415   1.588
 1039SOL     OW20258   4.950   3.185   5.739
 1039SOL    HW120259   4.984   3.130   5.811
 1039SOL    HW220260   5.000   3.266   5.745
 1040SOL     OW20261   5.019   2.816   7.164
 1040SOL    HW120262   4.945   2.755   7.153
 1040SOL    HW220263   5.077   2.797   7.091
 1041SOL     OW20264   1.684   5.872   7.019
 1041SOL    HW120265   1.738   5.850   6.943
 1041SOL    HW220266   1.603   5.823   7.007
 1042SOL     OW20267   6.284   2.836   7.905
 1042SOL    HW120268   6.343   2.850   7.831
 1042SOL    HW220269   6.343   2.826   7.981
 1043SOL     OW20270   3.333   4.973   7.228
 1043SOL    HW120271   3.401   4.923   7.274
 1043SOL    HW220272   3.296   4.911   7.165
 1044SOL     OW20273   3.506   3.693   6.046
 1044SOL    HW120274   3.470   3.772   6.087
 1044SOL    HW220275   3.528   3.720   5.957
 1045SOL     OW20276   2.720   0.796   0.939
 1045SOL    HW120277   2.671   0.714   0.943
 1045SOL    HW220278   2.676   0.847   0.871
 1046SOL     OW20279   0.462   4.275   1.294
 1046SOL    HW120280   0.498   4.190   1.317
 1046SOL    HW220281   0.483   4.331   1.369
 1047SOL     OW20282   0.485   5.323   7.852
 1047SOL    HW120283   0.442   5.406   7.873
 1047SOL    HW220284   0.423   5.278   7.795
 1048SOL     OW20285   2.217   2.207   6.517
 1048SOL    HW120286   2.247   2.156   6.442
 1048SOL    HW220287   2.168   2.280   6.479
 1049SOL     OW20288   2.287   0.703   7.884
 1049SOL    HW120289   2.334   0.619   7.876
 1049SOL    HW220290   2.225   0.703   7.811
 1050SOL     OW20291   5.723   2.203   1.203
 1050SOL    HW120292   5.734   2.212   1.298
 1050SOL    HW220293   5.693   2.289   1.174
 1051SOL     OW20294   3.805   2.481   1.762
 1051SOL    HW120295   3.884   2.495   1.710
 1051SOL    HW220296   3.821   2.399   1.808
 1052SOL     OW20297   4.437   2.727   0.906
 1052SOL    HW120298   4.376   2.800   0.891
 1052SOL    HW220299   4.484   2.752   0.985
 1053SOL     OW20300   1.098   3.893   1.490
 1053SOL    HW120301   1.080   3.948   1.566
 1053SOL    HW220302   1.044   3.931   1.420
 1054SOL     OW20303   4.577   3.910   0.695
 1054SOL    HW120304   4.586   3.820   0.726
 1054SOL    HW220305   4.495   3.911   0.645
 1055SOL     OW20306   2.823   5.512   1.362
 1055SOL    HW120307   2.844   5.458   1.437
 1055SOL    HW220308   2.816   5.601   1.397
 1056SOL     OW20309   5.944   0.715   2.676
 1056SOL    HW120310   5.915   0.648   2.614
 1056SOL    HW220311   5.896   0.696   2.756
 1057SOL     OW20312   6.046   4.176   6.474
 1057SOL    HW120313   6.119   4.195   6.416
 1057SOL    HW220314   5.976   4.145   6.416
 1058SOL     OW20315   4.106   4.410   1.127
 1058SOL    HW120316   4.063   4.483   1.081
 1058SOL    HW220317   4.198   4.416   1.102
 1059SOL     OW20318   0.422   1.994   7.526
 1059SOL    HW120319   0.410   1.953   7.612
 1059SOL    HW220320   0.492   2.057   7.538
 1060SOL     OW20321   5.250   3.514   6.631
 1060SOL    HW120322   5.330   3.566   6.641
 1060SOL    HW220323   5.183   3.563   6.678
 1061SOL     OW20324   3.520   1.238   7.625
 1061SOL    HW120325   3.463   1.162   7.639
 1061SOL    HW220326   3.590   1.206   7.568
 1062SOL     OW20327   1.871   3.042   1.763
 1062SOL    HW120328   1.879   2.947   1.776
 1062SOL    HW220329   1.913   3.080   1.840
 1063SOL     OW20330   5.358   5.995   1.360
 1063SOL    HW120331   5.395   5.945   1.287
 1063SOL    HW220332   5.381   5.943   1.437
 1064SOL     OW20333   0.968   1.969   7.703
 1064SOL    HW120334   0.889   1.920   7.679
 1064SOL    HW220335   1.026   1.959   7.627
 1065SOL     OW20336   6.159   5.480   1.631
 1065SOL    HW120337   6.098   5.417   1.669
 1065SOL    HW220338   6.241   5.432   1.622
 1066SOL     OW20339   3.370   0.844   1.202
 1066SOL    HW120340   3.283   0.834   1.240
 1066SOL    HW220341   3.407   0.756   1.203
 1067SOL     OW20342   0.725   2.633   6.952
 1067SOL    HW120343   0.652   2.694   6.961
 1067SOL    HW220344   0.803   2.687   6.969
 1068SOL     OW20345   5.998   1.761   7.055
 1068SOL    HW120346   6.084   1.797   7.078
 1068SOL    HW220347   5.943   1.781   7.131
 1069SOL     OW20348   0.776   3.752   6.801
 1069SOL    HW120349   0.816   3.809   6.735
 1069SOL    HW220350   0.683   3.749   6.777
 1070SOL     OW20351   6.058   0.902   0.952
 1070SOL    HW120352   6.072   0.966   0.881
 1070SOL    HW220353   6.062   0.954   1.032
 1071SOL     OW20354   0.225   5.785   7.859
 1071SOL    HW120355   0.320   5.781   7.846
 1071SOL    HW220356   0.192   5.823   7.778
 1072SOL     OW20357   2.923   0.692   0.501
 1072SOL    HW120358   2.906   0.703   0.595
 1072SOL    HW220359   2.934   0.597   0.491
 1073SOL     OW20360   3.842   2.900   1.668
 1073SOL    HW120361   3.801   2.820   1.633
 1073SOL    HW220362   3.773   2.966   1.664
 1074SOL     OW20363   4.292   2.775   1.739
 1074SOL    HW120364   4.317   2.695   1.693
 1074SOL    HW220365   4.374   2.821   1.755
 1075SOL     OW20366   2.247   6.092   1.339
 1075SOL    HW120367   2.241   6.168   1.398
 1075SOL    HW220368   2.314   6.036   1.380
 1076SOL     OW20369   5.614   1.436   0.799
 1076SOL    HW120370   5.564   1.363   0.835
 1076SOL    HW220371   5.578   1.449   0.711
 1077SOL     OW20372   2.913   6.000   7.760
 1077SOL    HW120373   2.995   5.990   7.711
 1077SOL    HW220374   2.906   6.094   7.774
 1078SOL     OW20375   2.160   1.827   1.782
 1078SOL    HW120376   2.226   1.878   1.828
 1078SOL    HW220377   2.173   1.738   1.812
 1079SOL     OW20378   4.740   6.018   1.757
 1079SOL    HW120379   4.740   6.112   1.743
 1079SOL    HW220380   4.823   5.988   1.719
 1080SOL     OW20381   5.448   4.138   1.336
 1080SOL    HW120382   5.382   4.205   1.353
 1080SOL    HW220383   5.427   4.105   1.249
 1081SOL     OW20384   2.295   1.960   6.648
 1081SOL    HW120385   2.290   2.039   6.594
 1081SOL    HW220386   2.226   1.903   6.614
 1082SOL     OW20387   2.567   4.142   1.943
 1082SOL    HW120388   2.524   4.063   1.909
 1082SOL    HW220389   2.555   4.137   2.037
 1083SOL     OW20390   2.018   4.545   0.638
 1083SOL    HW120391   2.034   4.559   0.731
 1083SOL    HW220392   1.958   4.615   0.613
 1084SOL     OW20393   3.991   0.427   7.510
 1084SOL    HW120394   4.045   0.479   7.450
 1084SOL    HW220395   4.040   0.346   7.522
 1085SOL     OW20396   2.430   2.413   6.211
 1085SOL    HW120397   2.389   2.427   6.125
 1085SOL    HW220398   2.439   2.501   6.248
 1086SOL     OW20399   4.016   1.151   5.370
 1086SOL    HW120400   3.991   1.099   5.447
 1086SOL    HW220401   3.945   1.139   5.308
 1087SOL     OW20402   0.656   2.807   0.337
 1087SOL    HW120403   0.752   2.801   0.344
 1087SOL    HW220404   0.626   2.818   0.427
 1088SOL     OW20405   1.504   6.311   1.118
 1088SOL    HW120406   1.526   6.306   1.212
 1088SOL    HW220407   1.582   6.348   1.078
 1089SOL     OW20408   0.093   3.865   6.248
 1089SOL    HW120409   0.095   3.933   6.180
 1089SOL    HW220410   0.102   3.913   6.330
 1090SOL     OW20411   0.716   2.081   2.101
 1090SOL    HW120412   0.621   2.072   2.108
 1090SOL    HW220413   0.735   2.165   2.142
 1091SOL     OW20414   1.757   0.036   1.079
 1091SOL    HW120415   1.822  -0.026   1.111
 1091SOL    HW220416   1.807   0.098   1.026
 1092SOL     OW20417   3.767   6.338   7.639
 1092SOL    HW120418   3.704   6.268   7.622
 1092SOL    HW220419   3.719   6.401   7.693
 1093SOL     OW20420   5.373   5.027   2.097
 1093SOL    HW120421   5.293   5.080   2.097
 1093SOL    HW220422   5.342   4.938   2.080
 1094SOL     OW20423   0.444   3.251   1.375
 1094SOL    HW120424   0.447   3.285   1.465
 1094SOL    HW220425   0.449   3.156   1.386
 1095SOL     OW20426   2.401   4.269   1.182
 1095SOL    HW120427   2.366   4.198   1.128
 1095SOL    HW220428   2.406   4.231   1.270
 1096SOL     OW20429   4.647   0.349   6.955
 1096SOL    HW120430   4.671   0.420   6.895
 1096SOL    HW220431   4.705   0.276   6.931
 1097SOL     OW20432   4.009   3.465   1.189
 1097SOL    HW120433   3.942   3.430   1.130
 1097SOL    HW220434   3.960   3.513   1.256
 1098SOL     OW20435   1.834   5.909   2.063
 1098SOL    HW120436   1.901   5.863   2.014
 1098SOL    HW220437   1.800   5.844   2.124
 1099SOL     OW20438   2.288   1.327   6.595
 1099SOL    HW120439   2.273   1.351   6.503
 1099SOL    HW220440   2.228   1.383   6.644
 1100SOL     OW20441   5.694   2.757   0.179
 1100SOL    HW120442   5.735   2.803   0.106
 1100SOL    HW220443   5.719   2.808   0.256
 1101SOL     OW20444   2.663   3.267   6.548
 1101SOL    HW120445   2.748   3.310   6.544
 1101SOL    HW220446   2.600   3.339   6.551
 1102SOL     OW20447   1.090   3.912   1.173
 1102SOL    HW120448   1.178   3.923   1.136
 1102SOL    HW220449   1.034   3.965   1.116
 1103SOL     OW20450   4.432   5.022   7.911
 1103SOL    HW120451   4.441   4.930   7.886
 1103SOL    HW220452   4.368   5.021   7.982
 1104SOL     OW20453   1.611   4.302   5.782
 1104SOL    HW120454   1.653   4.233   5.833
 1104SOL    HW220455   1.601   4.374   5.844
 1105SOL     OW20456   3.870   0.388   0.291
 1105SOL    HW120457   3.777   0.364   0.296
 1105SOL    HW220458   3.907   0.359   0.374
 1106SOL     OW20459   4.209   1.244   6.661
 1106SOL    HW120460   4.289   1.276   6.620
 1106SOL    HW220461   4.190   1.162   6.616
 1107SOL     OW20462   3.270   2.038   6.773
 1107SOL    HW120463   3.176   2.037   6.753
 1107SOL    HW220464   3.308   2.097   6.708
 1108SOL     OW20465   3.530   1.861   1.388
 1108SOL    HW120466   3.579   1.940   1.362
 1108SOL    HW220467   3.496   1.827   1.305
 1109SOL     OW20468   6.047   1.042   7.593
 1109SOL    HW120469   6.094   1.024   7.674
 1109SOL    HW220470   5.957   1.016   7.611
 1110SOL     OW20471   0.904   0.306   0.726
 1110SOL    HW120472   0.969   0.236   0.734
 1110SOL    HW220473   0.930   0.370   0.791
 1111SOL     OW20474   3.097   5.592   6.751
 1111SOL    HW120475   3.178   5.592   6.699
 1111SOL    HW220476   3.109   5.520   6.814
 1112SOL     OW20477   3.346   4.194   2.233
 1112SOL    HW120478   3.408   4.129   2.268
 1112SOL    HW220479   3.271   4.142   2.204
 1113SOL     OW20480   4.133   2.531   7.567
 1113SOL    HW120481   4.148   2.553   7.475
 1113SOL    HW220482   4.175   2.602   7.616
 1114SOL     OW20483   4.570   0.201   7.305
 1114SOL    HW120484   4.597   0.271   7.246
 1114SOL    HW220485   4.646   0.143   7.310
 1115SOL     OW20486   6.213   3.788   6.003
 1115SOL    HW120487   6.248   3.876   5.992
 1115SOL    HW220488   6.266   3.734   5.945
 1116SOL     OW20489   2.465   2.402   5.466
 1116SOL    HW120490   2.385   2.434   5.425
 1116SOL    HW220491   2.437   2.370   5.552
 1117SOL     OW20492   6.275   1.645   5.774
 1117SOL    HW120493   6.352   1.637   5.718
 1117SOL    HW220494   6.284   1.730   5.817
 1118SOL     OW20495   2.847   5.635   8.050
 1118SOL    HW120496   2.791   5.656   8.125
 1118SOL    HW220497   2.787   5.601   7.983
 1119SOL     OW20498   5.152   4.561   5.707
 1119SOL    HW120499   5.105   4.583   5.787
 1119SOL    HW220500   5.201   4.482   5.728
 1120SOL     OW20501   5.406   3.395   8.025
 1120SOL    HW120502   5.401   3.300   8.034
 1120SOL    HW220503   5.416   3.427   8.114
 1121SOL     OW20504   3.680   1.453   0.634
 1121SOL    HW120505   3.695   1.545   0.615
 1121SOL    HW220506   3.643   1.452   0.723
 1122SOL     OW20507   5.882   4.659   0.715
 1122SOL    HW120508   5.933   4.606   0.776
 1122SOL    HW220509   5.922   4.746   0.719
 1123SOL     OW20510   1.373   2.624   2.234
 1123SOL    HW120511   1.447   2.671   2.272
 1123SOL    HW220512   1.304   2.690   2.227
 1124SOL     OW20513   4.089   2.810   1.553
 1124SOL    HW120514   4.008   2.839   1.596
 1124SOL    HW220515   4.151   2.800   1.625
 1125SOL     OW20516   4.813   1.773   6.596
 1125SOL    HW120517   4.729   1.729   6.610
 1125SOL    HW220518   4.842   1.743   6.510
 1126SOL     OW20519   4.791   4.612   6.929
 1126SOL    HW120520   4.836   4.540   6.972
 1126SOL    HW220521   4.779   4.581   6.839
 1127SOL     OW20522   4.597   2.946   1.309
 1127SOL    HW120523   4.601   2.883   1.236
 1127SOL    HW220524   4.586   3.030   1.266
 1128SOL     OW20525   1.220   2.760   2.517
 1128SOL    HW120526   1.245   2.674   2.484
 1128SOL    HW220527   1.197   2.810   2.438
 1129SOL     OW20528   5.195   3.395   7.839
 1129SOL    HW120529   5.282   3.385   7.878
 1129SOL    HW220530   5.170   3.485   7.860
 1130SOL     OW20531   4.540   4.062   5.417
 1130SOL    HW120532   4.480   4.115   5.469
 1130SOL    HW220533   4.594   4.125   5.370
 1131SOL     OW20534   1.502   1.986   0.245
 1131SOL    HW120535   1.412   1.951   0.243
 1131SOL    HW220536   1.553   1.923   0.195
 1132SOL     OW20537   3.056   0.786   7.961
 1132SOL    HW120538   3.054   0.731   8.039
 1132SOL    HW220539   3.031   0.727   7.889
 1133SOL     OW20540   3.498   0.595   1.201
 1133SOL    HW120541   3.554   0.602   1.279
 1133SOL    HW220542   3.452   0.512   1.212
 1134SOL     OW20543   4.432   4.302   0.772
 1134SOL    HW120544   4.515   4.322   0.728
 1134SOL    HW220545   4.457   4.246   0.845
 1135SOL     OW20546   0.467   0.122   7.093
 1135SOL    HW120547   0.495   0.212   7.074
 1135SOL    HW220548   0.490   0.108   7.184
 1136SOL     OW20549   5.716   4.291   6.529
 1136SOL    HW120550   5.637   4.254   6.570
 1136SOL    HW220551   5.745   4.224   6.468
 1137SOL     OW20552   1.479   5.058   1.515
 1137SOL    HW120553   1.406   5.019   1.565
 1137SOL    HW220554   1.500   4.991   1.449
 1138SOL     OW20555   1.667   4.520   1.648
 1138SOL    HW120556   1.584   4.523   1.696
 1138SOL    HW220557   1.713   4.444   1.684
 1139SOL     OW20558   0.412   0.900   1.081
 1139SOL    HW120559   0.337   0.949   1.115
 1139SOL    HW220560   0.375   0.845   1.012
 1140SOL     OW20561   4.798   3.671   0.603
 1140SOL    HW120562   4.845   3.708   0.678
 1140SOL    HW220563   4.716   3.639   0.641
 1141SOL     OW20564   5.811   5.824   7.170
 1141SOL    HW120565   5.868   5.886   7.214
 1141SOL    HW220566   5.732   5.820   7.224
 1142SOL     OW20567   4.078   0.019   1.660
 1142SOL    HW120568   4.076   0.099   1.713
 1142SOL    HW220569   4.167  -0.014   1.671
 1143SOL     OW20570   4.377   0.496   7.509
 1143SOL    HW120571   4.427   0.514   7.430
 1143SOL    HW220572   4.314   0.567   7.514
 1144SOL     OW20573   3.553   1.501   1.386
 1144SOL    HW120574   3.597   1.508   1.471
 1144SOL    HW220575   3.485   1.568   1.389
 1145SOL     OW20576   2.172   1.163   5.959
 1145SOL    HW120577   2.175   1.074   5.992
 1145SOL    HW220578   2.257   1.201   5.981
 1146SOL     OW20579   3.438   6.152   0.003
 1146SOL    HW120580   3.524   6.188  -0.018
 1146SOL    HW220581   3.447   6.117   0.092
 1147SOL     OW20582   5.395   3.950   6.853
 1147SOL    HW120583   5.473   3.947   6.909
 1147SOL    HW220584   5.328   3.992   6.907
 1148SOL     OW20585   1.505   3.278   0.129
 1148SOL    HW120586   1.560   3.343   0.174
 1148SOL    HW220587   1.416   3.297   0.159
 1149SOL     OW20588   4.124   2.328   7.812
 1149SOL    HW120589   4.061   2.293   7.874
 1149SOL    HW220590   4.209   2.318   7.856
 1150SOL     OW20591   2.829   0.964   1.730
 1150SOL    HW120592   2.810   0.907   1.804
 1150SOL    HW220593   2.904   1.017   1.758
 1151SOL     OW20594   1.034   3.020   5.990
 1151SOL    HW120595   0.994   3.104   5.968
 1151SOL    HW220596   0.965   2.956   5.973
 1152SOL     OW20597   1.895   2.580   6.383
 1152SOL    HW120598   1.872   2.617   6.298
 1152SOL    HW220599   1.815   2.538   6.414
 1153SOL     OW20600   2.482   2.990   1.253
 1153SOL    HW120601   2.458   2.921   1.191
 1153SOL    HW220602   2.571   3.014   1.229
 1154SOL     OW20603   3.705   5.336   6.696
 1154SOL    HW120604   3.625   5.290   6.671
 1154SOL    HW220605   3.726   5.300   6.783
 1155SOL     OW20606   2.980   3.261   6.706
 1155SOL    HW120607   3.069   3.259   6.743
 1155SOL    HW220608   2.923   3.268   6.782
 1156SOL     OW20609   1.605   2.776   0.390
 1156SOL    HW120610   1.589   2.683   0.376
 1156SOL    HW220611   1.691   2.779   0.432
 1157SOL     OW20612   5.799   0.137   0.566
 1157SOL    HW120613   5.810   0.232   0.563
 1157SOL    HW220614   5.806   0.116   0.659
 1158SOL     OW20615   1.904   3.368   5.782
 1158SOL    HW120616   1.915   3.277   5.811
 1158SOL    HW220617   1.954   3.374   5.701
 1159SOL     OW20618   1.007   4.723   0.520
 1159SOL    HW120619   0.981   4.637   0.486
 1159SOL    HW220620   1.080   4.704   0.579
 1160SOL     OW20621   2.333   4.587   6.487
 1160SOL    HW120622   2.332   4.540   6.404
 1160SOL    HW220623   2.305   4.676   6.466
 1161SOL     OW20624   6.149   4.005   1.524
 1161SOL    HW120625   6.105   3.988   1.607
 1161SOL    HW220626   6.212   3.934   1.516
 1162SOL     OW20627   6.059   2.827   0.270
 1162SOL    HW120628   6.118   2.901   0.282
 1162SOL    HW220629   5.973   2.860   0.296
 1163SOL     OW20630   1.096   1.198   1.987
 1163SOL    HW120631   1.048   1.223   2.066
 1163SOL    HW220632   1.034   1.146   1.937
 1164SOL     OW20633   6.080   5.506   7.556
 1164SOL    HW120634   6.111   5.547   7.637
 1164SOL    HW220635   6.015   5.442   7.585
 1165SOL     OW20636   3.184   5.584   2.264
 1165SOL    HW120637   3.259   5.540   2.224
 1165SOL    HW220638   3.110   5.525   2.248
 1166SOL     OW20639   1.072   1.714   1.722
 1166SOL    HW120640   1.105   1.629   1.749
 1166SOL    HW220641   0.980   1.714   1.745
 1167SOL     OW20642   3.519   2.069   2.341
 1167SOL    HW120643   3.601   2.102   2.304
 1167SOL    HW220644   3.480   2.146   2.383
 1168SOL     OW20645   5.287   2.951   7.588
 1168SOL    HW120646   5.280   3.046   7.579
 1168SOL    HW220647   5.299   2.936   7.681
 1169SOL     OW20648   1.094   3.781   0.472
 1169SOL    HW120649   1.016   3.830   0.497
 1169SOL    HW220650   1.165   3.845   0.474
 1170SOL     OW20651   1.785   3.940   6.970
 1170SOL    HW120652   1.824   3.908   6.888
 1170SOL    HW220653   1.691   3.922   6.961
 1171SOL     OW20654   2.282   0.026   6.388
 1171SOL    HW120655   2.237   0.093   6.336
 1171SOL    HW220656   2.270   0.054   6.479
 1172SOL     OW20657   6.098   6.321   0.672
 1172SOL    HW120658   6.125   6.261   0.742
 1172SOL    HW220659   6.006   6.301   0.658
 1173SOL     OW20660   3.522   5.282   7.313
 1173SOL    HW120661   3.428   5.264   7.313
 1173SOL    HW220662   3.563   5.196   7.301
 1174SOL     OW20663   3.418   2.574   1.464
 1174SOL    HW120664   3.380   2.655   1.429
 1174SOL    HW220665   3.472   2.603   1.538
 1175SOL     OW20666   0.955   1.004   7.717
 1175SOL    HW120667   0.991   0.931   7.766
 1175SOL    HW220668   0.877   0.968   7.673
 1176SOL     OW20669   4.669   1.787   0.971
 1176SOL    HW120670   4.639   1.757   1.057
 1176SOL    HW220671   4.763   1.765   0.970
 1177SOL     OW20672   1.384   3.925   0.318
 1177SOL    HW120673   1.381   3.870   0.240
 1177SOL    HW220674   1.352   4.010   0.289
 1178SOL     OW20675   0.858   6.274   6.444
 1178SOL    HW120676   0.880   6.181   6.451
 1178SOL    HW220677   0.763   6.277   6.450
 1179SOL     OW20678   1.747   3.901   2.938
 1179SOL    HW120679   1.787   3.977   2.896
 1179SOL    HW220680   1.667   3.934   2.978
 1180SOL     OW20681   0.152   5.014   2.413
 1180SOL    HW120682   0.080   5.076   2.418
 1180SOL    HW220683   0.227   5.060   2.451
 1181SOL     OW20684   3.043   0.502   0.216
 1181SOL    HW120685   2.962   0.552   0.202
 1181SOL    HW220686   3.040   0.432   0.150
 1182SOL     OW20687   5.257   2.061   0.820
 1182SOL    HW120688   5.302   2.054   0.736
 1182SOL    HW220689   5.322   2.035   0.885
 1183SOL     OW20690   1.451   4.313   1.471
 1183SOL    HW120691   1.403   4.260   1.406
 1183SOL    HW220692   1.428   4.275   1.555
 1184SOL     OW20693   1.784   4.767   7.528
 1184SOL    HW120694   1.712   4.707   7.510
 1184SOL    HW220695   1.744   4.837   7.580
 1185SOL     OW20696   5.812   2.964   0.011
 1185SOL    HW120697   5.905   2.944  -0.004
 1185SOL    HW220698   5.813   3.042   0.067
 1186SOL     OW20699   3.177   0.809   0.800
 1186SOL    HW120700   3.109   0.789   0.735
 1186SOL    HW220701   3.259   0.786   0.757
 1187SOL     OW20702   4.191   5.105   2.245
 1187SOL    HW120703   4.115   5.150   2.281
 1187SOL    HW220704   4.265   5.137   2.297
 1188SOL     OW20705   2.485   4.670   2.153
 1188SOL    HW120706   2.509   4.762   2.167
 1188SOL    HW220707   2.393   4.672   2.126
 1189SOL     OW20708   5.112   2.218   6.197
 1189SOL    HW120709   5.137   2.309   6.212
 1189SOL    HW220710   5.039   2.222   6.136
 1190SOL     OW20711   2.807   4.538   6.444
 1190SOL    HW120712   2.826   4.480   6.370
 1190SOL    HW220713   2.861   4.615   6.429
 1191SOL     OW20714   3.436   2.145   7.601
 1191SOL    HW120715   3.456   2.148   7.694
 1191SOL    HW220716   3.483   2.068   7.569
 1192SOL     OW20717   5.776   0.111   0.872
 1192SOL    HW120718   5.807   0.127   0.961
 1192SOL    HW220719   5.747   0.020   0.872
 1193SOL     OW20720   4.406   5.664   1.080
 1193SOL    HW120721   4.380   5.635   0.992
 1193SOL    HW220722   4.390   5.588   1.136
 1194SOL     OW20723   6.333   3.341   7.796
 1194SOL    HW120724   6.345   3.273   7.730
 1194SOL    HW220725   6.346   3.296   7.880
 1195SOL     OW20726   5.998   1.949   6.624
 1195SOL    HW120727   5.949   1.992   6.554
 1195SOL    HW220728   5.963   1.987   6.705
 1196SOL     OW20729   3.288   4.294   1.470
 1196SOL    HW120730   3.314   4.318   1.559
 1196SOL    HW220731   3.319   4.204   1.459
 1197SOL     OW20732   1.711   2.379   2.296
 1197SOL    HW120733   1.705   2.443   2.226
 1197SOL    HW220734   1.799   2.392   2.333
 1198SOL     OW20735   4.412   2.267   0.820
 1198SOL    HW120736   4.460   2.347   0.842
 1198SOL    HW220737   4.475   2.197   0.833
 1199SOL     OW20738   2.962   3.240   7.204
 1199SOL    HW120739   2.946   3.334   7.204
 1199SOL    HW220740   2.891   3.203   7.256
 1200SOL     OW20741   0.960   2.223   7.339
 1200SOL    HW120742   0.879   2.273   7.349
 1200SOL    HW220743   1.021   2.283   7.296
 1201SOL     OW20744   5.510   1.202   6.497
 1201SOL    HW120745   5.499   1.116   6.538
 1201SOL    HW220746   5.422   1.235   6.484
 1202SOL     OW20747   2.183   3.583   0.515
 1202SOL    HW120748   2.265   3.629   0.500
 1202SOL    HW220749   2.131   3.599   0.435
 1203SOL     OW20750   0.872   2.504   2.407
 1203SOL    HW120751   0.915   2.432   2.361
 1203SOL    HW220752   0.794   2.523   2.355
 1204SOL     OW20753   1.478   0.712   6.776
 1204SOL    HW120754   1.401   0.767   6.791
 1204SOL    HW220755   1.467   0.679   6.686
 1205SOL     OW20756   3.465   1.058   1.600
 1205SOL    HW120757   3.485   1.041   1.692
 1205SOL    HW220758   3.378   1.097   1.601
 1206SOL     OW20759   4.688   2.743   7.374
 1206SOL    HW120760   4.638   2.692   7.310
 1206SOL    HW220761   4.720   2.678   7.436
 1207SOL     OW20762   2.160   0.285   0.443
 1207SOL    HW120763   2.169   0.368   0.490
 1207SOL    HW220764   2.242   0.239   0.458
 1208SOL     OW20765   5.277   4.601   5.456
 1208SOL    HW120766   5.236   4.566   5.535
 1208SOL    HW220767   5.223   4.678   5.434
 1209SOL     OW20768   1.355   5.343   1.216
 1209SOL    HW120769   1.433   5.366   1.266
 1209SOL    HW220770   1.355   5.247   1.212
 1210SOL     OW20771   5.116   1.702   7.752
 1210SOL    HW120772   5.045   1.765   7.746
 1210SOL    HW220773   5.141   1.703   7.844
 1211SOL     OW20774   4.180   3.848   5.963
 1211SOL    HW120775   4.186   3.940   5.937
 1211SOL    HW220776   4.225   3.801   5.893
 1212SOL     OW20777   2.876   5.130   7.094
 1212SOL    HW120778   2.863   5.208   7.039
 1212SOL    HW220779   2.946   5.155   7.155
 1213SOL     OW20780   5.840   0.120   1.169
 1213SOL    HW120781   5.746   0.102   1.171
 1213SOL    HW220782   5.880   0.043   1.210
 1214SOL     OW20783   2.960   0.366   8.044
 1214SOL    HW120784   2.936   0.458   8.056
 1214SOL    HW220785   3.021   0.366   7.970
 1215SOL     OW20786   2.640   5.435   6.807
 1215SOL    HW120787   2.718   5.432   6.752
 1215SOL    HW220788   2.573   5.475   6.751
 1216SOL     OW20789   5.116   5.328   7.364
 1216SOL    HW120790   5.143   5.408   7.410
 1216SOL    HW220791   5.084   5.360   7.279
 1217SOL     OW20792   2.187   5.435   1.301
 1217SOL    HW120793   2.213   5.371   1.366
 1217SOL    HW220794   2.102   5.404   1.269
 1218SOL     OW20795   1.477   3.797   0.526
 1218SOL    HW120796   1.491   3.877   0.577
 1218SOL    HW220797   1.458   3.828   0.438
 1219SOL     OW20798   4.400   0.769   1.611
 1219SOL    HW120799   4.328   0.719   1.574
 1219SOL    HW220800   4.402   0.850   1.560
 1220SOL     OW20801   0.138   5.165   7.368
 1220SOL    HW120802   0.087   5.245   7.381
 1220SOL    HW220803   0.177   5.148   7.454
 1221SOL     OW20804   3.951   5.902   2.451
 1221SOL    HW120805   3.948   5.807   2.442
 1221SOL    HW220806   4.002   5.932   2.376
 1222SOL     OW20807   3.322   2.271   0.093
 1222SOL    HW120808   3.266   2.228   0.029
 1222SOL    HW220809   3.282   2.357   0.108
 1223SOL     OW20810   1.825   2.867   2.274
 1223SOL    HW120811   1.885   2.820   2.216
 1223SOL    HW220812   1.868   2.952   2.289
 1224SOL     OW20813   6.203   4.395   2.076
 1224SOL    HW120814   6.289   4.352   2.084
 1224SOL    HW220815   6.141   4.327   2.101
 1225SOL     OW20816   4.867   5.337   2.768
 1225SOL    HW120817   4.858   5.272   2.838
 1225SOL    HW220818   4.821   5.299   2.694
 1226SOL     OW20819   1.334   0.436   6.802
 1226SOL    HW120820   1.280   0.402   6.731
 1226SOL    HW220821   1.372   0.517   6.767
 1227SOL     OW20822   3.297   1.467   0.222
 1227SOL    HW120823   3.318   1.465   0.316
 1227SOL    HW220824   3.220   1.411   0.214
 1228SOL     OW20825   5.856   4.278   6.759
 1228SOL    HW120826   5.814   4.358   6.789
 1228SOL    HW220827   5.826   4.268   6.668
 1229SOL     OW20828   5.252   2.658   0.849
 1229SOL    HW120829   5.253   2.633   0.757
 1229SOL    HW220830   5.265   2.576   0.896
 1230SOL     OW20831   0.139   4.292   6.482
 1230SOL    HW120832   0.122   4.290   6.388
 1230SOL    HW220833   0.135   4.385   6.505
 1231SOL     OW20834   4.084   0.755   1.429
 1231SOL    HW120835   4.021   0.784   1.495
 1231SOL    HW220836   4.126   0.836   1.399
 1232SOL     OW20837   1.212   1.095   0.818
 1232SOL    HW120838   1.180   1.052   0.898
 1232SOL    HW220839   1.266   1.167   0.850
 1233SOL     OW20840   0.615   0.301   7.951
 1233SOL    HW120841   0.670   0.228   7.977
 1233SOL    HW220842   0.653   0.377   7.995
 1234SOL     OW20843   0.365   4.041   1.480
 1234SOL    HW120844   0.397   3.966   1.431
 1234SOL    HW220845   0.298   4.005   1.538
 1235SOL     OW20846   0.259   4.024   7.080
 1235SOL    HW120847   0.299   4.022   6.993
 1235SOL    HW220848   0.312   3.964   7.132
 1236SOL     OW20849   3.832   1.022   6.197
 1236SOL    HW120850   3.828   0.936   6.239
 1236SOL    HW220851   3.913   1.020   6.147
 1237SOL     OW20852   4.618   0.723   0.596
 1237SOL    HW120853   4.673   0.739   0.520
 1237SOL    HW220854   4.636   0.796   0.655
 1238SOL     OW20855   2.321   5.704   1.594
 1238SOL    HW120856   2.327   5.707   1.690
 1238SOL    HW220857   2.268   5.627   1.576
 1239SOL     OW20858   4.950   3.308   6.647
 1239SOL    HW120859   4.919   3.295   6.558
 1239SOL    HW220860   4.918   3.395   6.671
 1240SOL     OW20861   6.221   2.096   7.378
 1240SOL    HW120862   6.206   2.071   7.469
 1240SOL    HW220863   6.154   2.162   7.360
 1241SOL     OW20864   6.263   3.970   1.833
 1241SOL    HW120865   6.278   3.876   1.835
 1241SOL    HW220866   6.172   3.980   1.805
 1242SOL     OW20867   1.561   5.971   7.348
 1242SOL    HW120868   1.597   6.049   7.304
 1242SOL    HW220869   1.585   5.898   7.291
 1243SOL     OW20870   3.606   0.334   1.403
 1243SOL    HW120871   3.689   0.291   1.420
 1243SOL    HW220872   3.618   0.424   1.434
 1244SOL     OW20873   5.430   3.689   0.903
 1244SOL    HW120874   5.479   3.753   0.853
 1244SOL    HW220875   5.455   3.705   0.994
 1245SOL     OW20876   4.871   4.452   5.883
 1245SOL    HW120877   4.843   4.412   5.965
 1245SOL    HW220878   4.941   4.512   5.908
 1246SOL     OW20879   5.877   3.765   6.701
 1246SOL    HW120880   5.947   3.820   6.667
 1246SOL    HW220881   5.802   3.784   6.645
 1247SOL     OW20882   1.695   5.799   0.402
 1247SOL    HW120883   1.706   5.813   0.308
 1247SOL    HW220884   1.724   5.880   0.443
 1248SOL     OW20885   3.705   0.080   0.746
 1248SOL    HW120886   3.660   0.163   0.760
 1248SOL    HW220887   3.634   0.018   0.726
 1249SOL     OW20888   3.907   0.396   1.460
 1249SOL    HW120889   3.972   0.430   1.398
 1249SOL    HW220890   3.911   0.457   1.534
 1250SOL     OW20891   1.425   3.779   7.388
 1250SOL    HW120892   1.363   3.745   7.324
 1250SOL    HW220893   1.505   3.795   7.338
 1251SOL     OW20894   4.449   4.423   6.926
 1251SOL    HW120895   4.397   4.407   6.847
 1251SOL    HW220896   4.485   4.511   6.913
 1252SOL     OW20897   2.941   4.123   1.133
 1252SOL    HW120898   2.866   4.096   1.080
 1252SOL    HW220899   2.906   4.187   1.194
 1253SOL     OW20900   6.193   1.267   0.282
 1253SOL    HW120901   6.249   1.225   0.216
 1253SOL    HW220902   6.104   1.252   0.250
 1254SOL     OW20903   4.019   4.742   0.964
 1254SOL    HW120904   3.996   4.833   0.947
 1254SOL    HW220905   3.982   4.722   1.050
 1255SOL     OW20906   6.050   4.410   6.983
 1255SOL    HW120907   5.978   4.382   6.927
 1255SOL    HW220908   6.007   4.460   7.053
 1256SOL     OW20909   1.126   5.783   0.046
 1256SOL    HW120910   1.154   5.699   0.084
 1256SOL    HW220911   1.206   5.820   0.010
 1257SOL     OW20912   0.681   0.457   7.569
 1257SOL    HW120913   0.682   0.381   7.511
 1257SOL    HW220914   0.759   0.446   7.624
 1258SOL     OW20915   3.064   3.081   5.370
 1258SOL    HW120916   3.148   3.096   5.326
 1258SOL    HW220917   3.065   3.139   5.446
 1259SOL     OW20918   6.338   3.172   0.982
 1259SOL    HW120919   6.340   3.079   1.001
 1259SOL    HW220920   6.323   3.214   1.067
 1260SOL     OW20921   1.954   5.236   6.034
 1260SOL    HW120922   1.880   5.191   5.992
 1260SOL    HW220923   2.027   5.175   6.027
 1261SOL     OW20924   5.791   5.056   6.235
 1261SOL    HW120925   5.818   5.031   6.146
 1261SOL    HW220926   5.872   5.051   6.286
 1262SOL     OW20927   5.078   0.663   5.697
 1262SOL    HW120928   5.158   0.695   5.738
 1262SOL    HW220929   5.105   0.637   5.609
 1263SOL     OW20930   6.072   3.439   7.112
 1263SOL    HW120931   6.158   3.480   7.126
 1263SOL    HW220932   6.026   3.499   7.054
 1264SOL     OW20933   4.209   3.560   0.970
 1264SOL    HW120934   4.154   3.520   1.037
 1264SOL    HW220935   4.216   3.652   0.996
 1265SOL     OW20936   2.194   3.179   7.804
 1265SOL    HW120937   2.111   3.206   7.764
 1265SOL    HW220938   2.191   3.084   7.807
 1266SOL     OW20939   4.520   5.711   7.482
 1266SOL    HW120940   4.469   5.632   7.467
 1266SOL    HW220941   4.534   5.713   7.577
 1267SOL     OW20942   0.125   1.648   1.262
 1267SOL    HW120943   0.034   1.621   1.252
 1267SOL    HW220944   0.148   1.688   1.178
 1268SOL     OW20945   1.169   1.971   1.736
 1268SOL    HW120946   1.264   1.984   1.740
 1268SOL    HW220947   1.159   1.876   1.727
 1269SOL     OW20948   3.295   1.981   0.166
 1269SOL    HW120949   3.230   1.919   0.200
 1269SOL    HW220950   3.248   2.064   0.162
 1270SOL     OW20951   1.194   5.810   7.085
 1270SOL    HW120952   1.103   5.840   7.089
 1270SOL    HW220953   1.241   5.870   7.143
 1271SOL     OW20954   4.450   4.564   7.648
 1271SOL    HW120955   4.429   4.473   7.665
 1271SOL    HW220956   4.428   4.577   7.556
 1272SOL     OW20957   2.358   4.373   0.731
 1272SOL    HW120958   2.333   4.282   0.747
 1272SOL    HW220959   2.432   4.367   0.671
 1273SOL     OW20960   3.142   2.348   1.962
 1273SOL    HW120961   3.234   2.342   1.988
 1273SOL    HW220962   3.106   2.417   2.018
 1274SOL     OW20963   2.840   4.435   0.487
 1274SOL    HW120964   2.766   4.495   0.483
 1274SOL    HW220965   2.900   4.464   0.419
 1275SOL     OW20966   4.552   2.040   6.557
 1275SOL    HW120967   4.557   1.944   6.560
 1275SOL    HW220968   4.633   2.067   6.515
 1276SOL     OW20969   3.730   3.223   0.725
 1276SOL    HW120970   3.758   3.172   0.650
 1276SOL    HW220971   3.637   3.239   0.711
 1277SOL     OW20972   1.706   5.897   0.167
 1277SOL    HW120973   1.717   5.866   0.077
 1277SOL    HW220974   1.787   5.944   0.185
 1278SOL     OW20975   6.296   6.262   7.384
 1278SOL    HW120976   6.220   6.252   7.442
 1278SOL    HW220977   6.267   6.322   7.316
 1279SOL     OW20978   3.312   6.165   0.563
 1279SOL    HW120979   3.264   6.167   0.480
 1279SOL    HW220980   3.300   6.076   0.596
 1280SOL     OW20981   4.807   2.883   5.993
 1280SOL    HW120982   4.723   2.925   5.973
 1280SOL    HW220983   4.800   2.795   5.956
 1281SOL     OW20984   1.439   4.630   1.217
 1281SOL    HW120985   1.457   4.696   1.150
 1281SOL    HW220986   1.521   4.583   1.228
 1282SOL     OW20987   1.984   4.433   1.516
 1282SOL    HW120988   1.940   4.517   1.502
 1282SOL    HW220989   1.913   4.373   1.541
 1283SOL     OW20990   3.116   0.170   6.297
 1283SOL    HW120991   3.031   0.174   6.253
 1283SOL    HW220992   3.156   0.088   6.267
 1284SOL     OW20993   0.200   5.753   0.382
 1284SOL    HW120994   0.134   5.761   0.451
 1284SOL    HW220995   0.277   5.717   0.427
 1285SOL     OW20996   4.665   3.232   5.792
 1285SOL    HW120997   4.636   3.174   5.862
 1285SOL    HW220998   4.756   3.205   5.776
 1286SOL     OW20999   2.980   2.258   7.844
 1286SOL    HW121000   2.955   2.260   7.751
 1286SOL    HW221001   3.068   2.297   7.846
 1287SOL     OW21002   0.263   5.089   1.340
 1287SOL    HW121003   0.232   5.099   1.430
 1287SOL    HW221004   0.240   5.171   1.297
 1288SOL     OW21005   4.149   0.612   2.089
 1288SOL    HW121006   4.114   0.641   2.174
 1288SOL    HW221007   4.225   0.559   2.112
 1289SOL     OW21008   1.718   1.210   2.074
 1289SOL    HW121009   1.733   1.269   2.000
 1289SOL    HW221010   1.743   1.124   2.041
 1290SOL     OW21011   4.077   4.267   6.453
 1290SOL    HW121012   4.021   4.242   6.527
 1290SOL    HW221013   4.015   4.284   6.382
 1291SOL     OW21014   5.333   5.892   1.924
 1291SOL    HW121015   5.296   5.915   2.009
 1291SOL    HW221016   5.426   5.911   1.932
 1292SOL     OW21017   3.613   0.988   6.966
 1292SOL    HW121018   3.519   0.994   6.980
 1292SOL    HW221019   3.635   1.069   6.919
 1293SOL     OW21020   0.835   3.123   6.754
 1293SOL    HW121021   0.895   3.090   6.821
 1293SOL    HW221022   0.892   3.161   6.688
 1294SOL     OW21023   2.849   0.663   1.846
 1294SOL    HW121024   2.793   0.678   1.770
 1294SOL    HW221025   2.814   0.584   1.887
 1295SOL     OW21026   3.036   4.381   7.142
 1295SOL    HW121027   3.041   4.302   7.088
 1295SOL    HW221028   2.950   4.419   7.121
 1296SOL     OW21029   5.237   1.054   1.934
 1296SOL    HW121030   5.186   1.028   2.011
 1296SOL    HW221031   5.189   1.128   1.897
 1297SOL     OW21032   3.340   1.085   6.775
 1297SOL    HW121033   3.354   1.121   6.687
 1297SOL    HW221034   3.371   1.154   6.834
 1298SOL     OW21035   0.933   5.936   7.543
 1298SOL    HW121036   0.949   5.886   7.623
 1298SOL    HW221037   0.994   6.009   7.548
 1299SOL     OW21038   4.866   3.847   0.218
 1299SOL    HW121039   4.858   3.763   0.174
 1299SOL    HW221040   4.909   3.903   0.153
 1300SOL     OW21041   0.285   1.353   6.375
 1300SOL    HW121042   0.323   1.393   6.296
 1300SOL    HW221043   0.270   1.426   6.434
 1301SOL     OW21044   4.084   3.231   0.600
 1301SOL    HW121045   4.011   3.176   0.571
 1301SOL    HW221046   4.085   3.220   0.695
 1302SOL     OW21047   4.831   6.230   6.043
 1302SOL    HW121048   4.770   6.285   5.993
 1302SOL    HW221049   4.910   6.284   6.052
 1303SOL     OW21050   5.348   5.039   6.319
 1303SOL    HW121051   5.386   5.023   6.233
 1303SOL    HW221052   5.271   5.094   6.301
 1304SOL     OW21053   1.392   3.309   1.006
 1304SOL    HW121054   1.418   3.244   1.072
 1304SOL    HW221055   1.475   3.347   0.977
 1305SOL     OW21056   4.604   0.282   1.188
 1305SOL    HW121057   4.536   0.319   1.245
 1305SOL    HW221058   4.642   0.358   1.145
 1306SOL     OW21059   2.785   5.106   1.895
 1306SOL    HW121060   2.820   5.195   1.893
 1306SOL    HW221061   2.765   5.091   1.988
 1307SOL     OW21062   4.591   4.889   2.196
 1307SOL    HW121063   4.681   4.859   2.210
 1307SOL    HW221064   4.541   4.808   2.180
 1308SOL     OW21065   0.732   5.031   0.151
 1308SOL    HW121066   0.767   4.983   0.227
 1308SOL    HW221067   0.785   5.110   0.146
 1309SOL     OW21068   1.279   2.873   0.334
 1309SOL    HW121069   1.338   2.841   0.267
 1309SOL    HW221070   1.252   2.794   0.382
 1310SOL     OW21071   5.233   1.574   7.537
 1310SOL    HW121072   5.213   1.617   7.619
 1310SOL    HW221073   5.150   1.538   7.507
 1311SOL     OW21074   5.257   4.562   7.111
 1311SOL    HW121075   5.314   4.528   7.041
 1311SOL    HW221076   5.296   4.647   7.133
 1312SOL     OW21077   6.260   2.411   7.773
 1312SOL    HW121078   6.212   2.449   7.699
 1312SOL    HW221079   6.193   2.363   7.822
 1313SOL     OW21080   0.434   5.765   0.549
 1313SOL    HW121081   0.408   5.855   0.566
 1313SOL    HW221082   0.496   5.772   0.476
 1314SOL     OW21083   1.953   2.119   1.667
 1314SOL    HW121084   1.879   2.169   1.701
 1314SOL    HW221085   1.929   2.027   1.682
 1315SOL     OW21086   2.153   4.142   7.083
 1315SOL    HW121087   2.191   4.054   7.083
 1315SOL    HW221088   2.206   4.191   7.021
 1316SOL     OW21089   5.031   4.589   1.338
 1316SOL    HW121090   5.063   4.680   1.339
 1316SOL    HW221091   5.062   4.553   1.255
 1317SOL     OW21092   5.320   0.317   7.157
 1317SOL    HW121093   5.349   0.397   7.113
 1317SOL    HW221094   5.280   0.348   7.239
 1318SOL     OW21095   0.892   5.531   7.622
 1318SOL    HW121096   0.929   5.566   7.541
 1318SOL    HW221097   0.948   5.457   7.644
 1319SOL     OW21098   2.489   2.888   2.676
 1319SOL    HW121099   2.465   2.957   2.614
 1319SOL    HW221100   2.408   2.869   2.724
 1320SOL     OW21101   3.423   3.713   7.688
 1320SOL    HW121102   3.511   3.709   7.650
 1320SOL    HW221103   3.423   3.646   7.756
 1321SOL     OW21104   5.188   2.792   7.382
 1321SOL    HW121105   5.116   2.823   7.327
 1321SOL    HW221106   5.199   2.860   7.448
 1322SOL     OW21107   3.398   5.837   5.716
 1322SOL    HW121108   3.390   5.755   5.764
 1322SOL    HW221109   3.447   5.815   5.637
 1323SOL     OW21110   2.759   4.431   7.001
 1323SOL    HW121111   2.766   4.509   7.057
 1323SOL    HW221112   2.755   4.465   6.912
 1324SOL     OW21113   3.125   5.933   0.395
 1324SOL    HW121114   3.125   5.845   0.356
 1324SOL    HW221115   3.035   5.963   0.387
 1325SOL     OW21116   2.943   1.035   2.673
 1325SOL    HW121117   3.034   1.047   2.699
 1325SOL    HW221118   2.919   0.950   2.708
 1326SOL     OW21119   4.989   6.199   6.637
 1326SOL    HW121120   5.014   6.235   6.722
 1326SOL    HW221121   4.893   6.198   6.640
 1327SOL     OW21122   2.633   3.639   2.147
 1327SOL    HW121123   2.691   3.671   2.217
 1327SOL    HW221124   2.551   3.687   2.160
 1328SOL     OW21125   4.666   3.602   0.343
 1328SOL    HW121126   4.687   3.671   0.406
 1328SOL    HW221127   4.719   3.527   0.370
 1329SOL     OW21128   1.670   3.170   7.651
 1329SOL    HW121129   1.658   3.220   7.570
 1329SOL    HW221130   1.589   3.185   7.700
 1330SOL     OW21131   0.381   0.094   0.031
 1330SOL    HW121132   0.326   0.129   0.101
 1330SOL    HW221133   0.413   0.172  -0.015
 1331SOL     OW21134   0.896   2.353   6.322
 1331SOL    HW121135   0.899   2.265   6.360
 1331SOL    HW221136   0.988   2.378   6.315
 1332SOL     OW21137   3.868   1.248   6.953
 1332SOL    HW121138   3.951   1.232   6.997
 1332SOL    HW221139   3.838   1.332   6.989
 1333SOL     OW21140   4.436   3.363   6.456
 1333SOL    HW121141   4.357   3.414   6.439
 1333SOL    HW221142   4.452   3.372   6.549
 1334SOL     OW21143   3.859   4.629   2.126
 1334SOL    HW121144   3.799   4.703   2.115
 1334SOL    HW221145   3.938   4.655   2.080
 1335SOL     OW21146   3.437   5.265   1.294
 1335SOL    HW121147   3.511   5.311   1.254
 1335SOL    HW221148   3.435   5.298   1.384
 1336SOL     OW21149   1.348   1.294   1.925
 1336SOL    HW121150   1.393   1.214   1.900
 1336SOL    HW221151   1.258   1.265   1.945
 1337SOL     OW21152   5.629   5.556   7.766
 1337SOL    HW121153   5.581   5.475   7.747
 1337SOL    HW221154   5.655   5.547   7.858
 1338SOL     OW21155   3.139   2.789   7.234
 1338SOL    HW121156   3.108   2.820   7.148
 1338SOL    HW221157   3.228   2.758   7.217
 1339SOL     OW21158   3.282   2.557   6.355
 1339SOL    HW121159   3.250   2.584   6.269
 1339SOL    HW221160   3.262   2.463   6.358
 1340SOL     OW21161   4.920   6.135   7.348
 1340SOL    HW121162   4.974   6.174   7.279
 1340SOL    HW221163   4.873   6.064   7.304
 1341SOL     OW21164   4.762   2.956   0.161
 1341SOL    HW121165   4.713   2.978   0.241
 1341SOL    HW221166   4.695   2.924   0.101
 1342SOL     OW21167   3.644   2.294   0.342
 1342SOL    HW121168   3.558   2.336   0.335
 1342SOL    HW221169   3.643   2.253   0.428
 1343SOL     OW21170   6.056   1.285   7.413
 1343SOL    HW121171   6.140   1.315   7.376
 1343SOL    HW221172   6.077   1.200   7.452
 1344SOL     OW21173   1.264   2.289   1.401
 1344SOL    HW121174   1.262   2.240   1.319
 1344SOL    HW221175   1.172   2.298   1.426
 1345SOL     OW21176   5.280   4.606   7.792
 1345SOL    HW121177   5.309   4.539   7.853
 1345SOL    HW221178   5.337   4.596   7.716
 1346SOL     OW21179   1.550   0.726   2.005
 1346SOL    HW121180   1.461   0.735   1.970
 1346SOL    HW221181   1.539   0.732   2.100
 1347SOL     OW21182   2.759   3.927   0.965
 1347SOL    HW121183   2.689   3.984   0.997
 1347SOL    HW221184   2.793   3.884   1.044
 1348SOL     OW21185   6.242   5.130   2.329
 1348SOL    HW121186   6.241   5.163   2.240
 1348SOL    HW221187   6.162   5.076   2.335
 1349SOL     OW21188   1.115   2.920   7.558
 1349SOL    HW121189   1.079   2.859   7.493
 1349SOL    HW221190   1.196   2.952   7.519
 1350SOL     OW21191   5.705   2.103   0.315
 1350SOL    HW121192   5.737   2.042   0.382
 1350SOL    HW221193   5.667   2.047   0.248
 1351SOL     OW21194   3.039   0.078   5.646
 1351SOL    HW121195   3.121   0.107   5.607
 1351SOL    HW221196   3.010   0.153   5.699
 1352SOL     OW21197   0.148   3.201   1.490
 1352SOL    HW121198   0.146   3.205   1.585
 1352SOL    HW221199   0.230   3.155   1.470
 1353SOL     OW21200   4.792   3.150   1.575
 1353SOL    HW121201   4.757   3.091   1.642
 1353SOL    HW221202   4.812   3.231   1.622
 1354SOL     OW21203   2.924   5.689   0.748
 1354SOL    HW121204   2.982   5.661   0.677
 1354SOL    HW221205   2.970   5.761   0.791
 1355SOL     OW21206   2.423   1.402   1.040
 1355SOL    HW121207   2.500   1.449   1.071
 1355SOL    HW221208   2.350   1.440   1.088
 1356SOL     OW21209   5.640   1.205   1.127
 1356SOL    HW121210   5.700   1.279   1.123
 1356SOL    HW221211   5.596   1.206   1.042
 1357SOL     OW21212   2.504   5.458   0.901
 1357SOL    HW121213   2.537   5.526   0.844
 1357SOL    HW221214   2.558   5.464   0.980
 1358SOL     OW21215   0.224   4.943   1.120
 1358SOL    HW121216   0.242   4.992   1.201
 1358SOL    HW221217   0.308   4.903   1.097
 1359SOL     OW21218   2.049   1.399   2.218
 1359SOL    HW121219   2.080   1.337   2.285
 1359SOL    HW221220   2.129   1.433   2.178
 1360SOL     OW21221   5.521   2.287   6.582
 1360SOL    HW121222   5.605   2.254   6.550
 1360SOL    HW221223   5.473   2.312   6.503
 1361SOL     OW21224   5.103   0.845   7.592
 1361SOL    HW121225   5.091   0.774   7.655
 1361SOL    HW221226   5.020   0.848   7.544
 1362SOL     OW21227   2.030   5.459   6.170
 1362SOL    HW121228   1.949   5.471   6.220
 1362SOL    HW221229   2.007   5.394   6.104
 1363SOL     OW21230   1.675   3.115   8.031
 1363SOL    HW121231   1.612   3.130   8.103
 1363SOL    HW221232   1.629   3.146   7.953
 1364SOL     OW21233   4.679   4.485   5.663
 1364SOL    HW121234   4.760   4.508   5.709
 1364SOL    HW221235   4.624   4.563   5.671
 1365SOL     OW21236   4.026   1.146   1.187
 1365SOL    HW121237   3.961   1.139   1.257
 1365SOL    HW221238   3.985   1.103   1.112
 1366SOL     OW21239   2.984   0.011   1.149
 1366SOL    HW121240   2.975   0.104   1.129
 1366SOL    HW221241   3.077   0.000   1.167
 1367SOL     OW21242   6.223   5.174   1.294
 1367SOL    HW121243   6.258   5.093   1.256
 1367SOL    HW221244   6.295   5.237   1.289
 1368SOL     OW21245   3.760   3.928   7.091
 1368SOL    HW121246   3.747   3.842   7.053
 1368SOL    HW221247   3.781   3.911   7.183
 1369SOL     OW21248   1.692   2.908   7.708
 1369SOL    HW121249   1.673   2.993   7.667
 1369SOL    HW221250   1.743   2.861   7.643
 1370SOL     OW21251   5.179   1.394   1.037
 1370SOL    HW121252   5.203   1.484   1.058
 1370SOL    HW221253   5.115   1.370   1.105
 1371SOL     OW21254   4.144   3.290   0.321
 1371SOL    HW121255   4.103   3.296   0.408
 1371SOL    HW221256   4.080   3.244   0.267
 1372SOL     OW21257   1.398   1.718   1.862
 1372SOL    HW121258   1.479   1.687   1.821
 1372SOL    HW221259   1.333   1.652   1.840
 1373SOL     OW21260   4.064   3.117   2.333
 1373SOL    HW121261   4.013   3.195   2.312
 1373SOL    HW221262   3.999   3.047   2.337
 1374SOL     OW21263   4.712   5.715   5.867
 1374SOL    HW121264   4.743   5.625   5.870
 1374SOL    HW221265   4.792   5.767   5.863
 1375SOL     OW21266   0.453   1.821   1.488
 1375SOL    HW121267   0.425   1.781   1.406
 1375SOL    HW221268   0.547   1.801   1.493
 1376SOL     OW21269   0.440   2.163   7.040
 1376SOL    HW121270   0.522   2.200   7.008
 1376SOL    HW221271   0.417   2.217   7.116
 1377SOL     OW21272   2.549   1.223   7.349
 1377SOL    HW121273   2.512   1.294   7.402
 1377SOL    HW221274   2.642   1.243   7.344
 1378SOL     OW21275   0.259   3.453   1.250
 1378SOL    HW121276   0.170   3.418   1.256
 1378SOL    HW221277   0.300   3.429   1.333
 1379SOL     OW21278   0.874   4.359   0.915
 1379SOL    HW121279   0.846   4.334   1.003
 1379SOL    HW221280   0.793   4.378   0.868
 1380SOL     OW21281   4.921   5.244   1.068
 1380SOL    HW121282   4.853   5.178   1.086
 1380SOL    HW221283   4.967   5.210   0.991
 1381SOL     OW21284   6.178   0.971   0.460
 1381SOL    HW121285   6.133   0.916   0.395
 1381SOL    HW221286   6.217   1.041   0.408
 1382SOL     OW21287   1.909   1.350   0.443
 1382SOL    HW121288   1.892   1.374   0.352
 1382SOL    HW221289   1.830   1.304   0.471
 1383SOL     OW21290   1.291   1.904   0.066
 1383SOL    HW121291   1.246   1.888   0.149
 1383SOL    HW221292   1.270   1.827   0.012
 1384SOL     OW21293   5.054   5.227   1.529
 1384SOL    HW121294   5.074   5.224   1.435
 1384SOL    HW221295   5.128   5.273   1.568
 1385SOL     OW21296   5.928   5.105   7.465
 1385SOL    HW121297   5.982   5.026   7.465
 1385SOL    HW221298   5.899   5.114   7.556
 1386SOL     OW21299   6.115   1.686   0.710
 1386SOL    HW121300   6.027   1.724   0.709
 1386SOL    HW221301   6.129   1.659   0.801
 1387SOL     OW21302   2.620   0.638   1.684
 1387SOL    HW121303   2.663   0.678   1.609
 1387SOL    HW221304   2.639   0.545   1.675
 1388SOL     OW21305   4.911   5.395   0.159
 1388SOL    HW121306   4.996   5.367   0.125
 1388SOL    HW221307   4.931   5.470   0.214
 1389SOL     OW21308   4.260   1.606   7.729
 1389SOL    HW121309   4.204   1.623   7.805
 1389SOL    HW221310   4.280   1.513   7.734
 1390SOL     OW21311   2.692   0.186   1.025
 1390SOL    HW121312   2.654   0.136   1.097
 1390SOL    HW221313   2.764   0.235   1.066
 1391SOL     OW21314   0.678   0.690   0.647
 1391SOL    HW121315   0.638   0.667   0.731
 1391SOL    HW221316   0.765   0.651   0.650
 1392SOL     OW21317   3.989   5.766   5.903
 1392SOL    HW121318   3.921   5.823   5.939
 1392SOL    HW221319   3.980   5.775   5.808
 1393SOL     OW21320   4.771   5.486   1.072
 1393SOL    HW121321   4.811   5.401   1.054
 1393SOL    HW221322   4.776   5.495   1.168
 1394SOL     OW21323   1.042   5.279   1.698
 1394SOL    HW121324   0.947   5.279   1.708
 1394SOL    HW221325   1.075   5.304   1.784
 1395SOL     OW21326   5.451   4.490   7.583
 1395SOL    HW121327   5.378   4.478   7.522
 1395SOL    HW221328   5.439   4.421   7.649
 1396SOL     OW21329   0.095   3.773   0.313
 1396SOL    HW121330   0.022   3.785   0.253
 1396SOL    HW221331   0.147   3.853   0.305
 1397SOL     OW21332   4.361   2.187   5.518
 1397SOL    HW121333   4.441   2.235   5.494
 1397SOL    HW221334   4.384   2.095   5.506
 1398SOL     OW21335   2.366   6.194   1.802
 1398SOL    HW121336   2.419   6.230   1.730
 1398SOL    HW221337   2.391   6.245   1.878
 1399SOL     OW21338   4.025   0.463   6.827
 1399SOL    HW121339   3.933   0.490   6.815
 1399SOL    HW221340   4.022   0.367   6.824
 1400SOL     OW21341   4.181   5.956   2.075
 1400SOL    HW121342   4.124   5.888   2.110
 1400SOL    HW221343   4.194   6.016   2.148
 1401SOL     OW21344   6.228   5.950   7.091
 1401SOL    HW121345   6.251   6.043   7.090
 1401SOL    HW221346   6.296   5.909   7.144
 1402SOL     OW21347   2.855   5.485   0.987
 1402SOL    HW121348   2.838   5.391   0.988
 1402SOL    HW221349   2.934   5.494   0.934
 1403SOL     OW21350   6.189   5.838   7.388
 1403SOL    HW121351   6.255   5.902   7.361
 1403SOL    HW221352   6.186   5.847   7.484
 1404SOL     OW21353   5.755   4.205   0.772
 1404SOL    HW121354   5.787   4.153   0.845
 1404SOL    HW221355   5.817   4.189   0.701
 1405SOL     OW21356   6.018   3.208   7.404
 1405SOL    HW121357   5.966   3.282   7.372
 1405SOL    HW221358   5.957   3.159   7.460
 1406SOL     OW21359   2.986   0.601   2.494
 1406SOL    HW121360   2.950   0.528   2.444
 1406SOL    HW221361   2.919   0.621   2.559
 1407SOL     OW21362   4.641   3.216   7.143
 1407SOL    HW121363   4.638   3.310   7.160
 1407SOL    HW221364   4.721   3.186   7.186
 1408SOL     OW21365   0.603   2.905   7.598
 1408SOL    HW121366   0.692   2.935   7.581
 1408SOL    HW221367   0.602   2.881   7.691
 1409SOL     OW21368   2.099   4.010   0.270
 1409SOL    HW121369   2.021   4.030   0.219
 1409SOL    HW221370   2.082   4.047   0.356
 1410SOL     OW21371   0.644   2.614   2.266
 1410SOL    HW121372   0.641   2.682   2.333
 1410SOL    HW221373   0.576   2.639   2.203
 1411SOL     OW21374   3.051   5.040   7.479
 1411SOL    HW121375   3.065   4.947   7.495
 1411SOL    HW221376   3.003   5.071   7.555
 1412SOL     OW21377   3.716   2.602   6.069
 1412SOL    HW121378   3.656   2.665   6.027
 1412SOL    HW221379   3.786   2.657   6.104
 1413SOL     OW21380   0.972   2.235   0.209
 1413SOL    HW121381   1.053   2.247   0.159
 1413SOL    HW221382   0.920   2.313   0.191
 1414SOL     OW21383   1.926   5.265   1.280
 1414SOL    HW121384   1.882   5.261   1.195
 1414SOL    HW221385   1.855   5.261   1.344
 1415SOL     OW21386   4.045   4.005   7.236
 1415SOL    HW121387   3.957   3.979   7.262
 1415SOL    HW221388   4.056   3.967   7.149
 1416SOL     OW21389   4.663   1.044   1.652
 1416SOL    HW121390   4.673   0.960   1.607
 1416SOL    HW221391   4.681   1.110   1.585
 1417SOL     OW21392   4.458   0.920   0.193
 1417SOL    HW121393   4.381   0.939   0.246
 1417SOL    HW221394   4.460   0.824   0.188
 1418SOL     OW21395   4.561   3.038   8.069
 1418SOL    HW121396   4.562   3.133   8.061
 1418SOL    HW221397   4.560   3.006   7.979
 1419SOL     OW21398   5.114   0.021   8.028
 1419SOL    HW121399   5.060   0.074   8.086
 1419SOL    HW221400   5.095  -0.070   8.054
 1420SOL     OW21401   5.254   0.808   5.842
 1420SOL    HW121402   5.192   0.849   5.902
 1420SOL    HW221403   5.339   0.843   5.869
 1421SOL     OW21404   5.980   6.163   1.570
 1421SOL    HW121405   6.060   6.113   1.583
 1421SOL    HW221406   6.011   6.251   1.545
 1422SOL     OW21407   4.068   5.438   6.933
 1422SOL    HW121408   4.140   5.416   6.992
 1422SOL    HW221409   4.107   5.496   6.867
 1423SOL     OW21410   2.395   4.082   7.277
 1423SOL    HW121411   2.411   4.121   7.191
 1423SOL    HW221412   2.317   4.127   7.310
 1424SOL     OW21413   2.444   4.581   1.198
 1424SOL    HW121414   2.485   4.513   1.251
 1424SOL    HW221415   2.513   4.610   1.138
 1425SOL     OW21416   3.825   1.958   1.825
 1425SOL    HW121417   3.818   1.867   1.793
 1425SOL    HW221418   3.796   1.954   1.916
 1426SOL     OW21419   0.502   0.174   6.315
 1426SOL    HW121420   0.446   0.107   6.274
 1426SOL    HW221421   0.555   0.125   6.378
 1427SOL     OW21422   5.243   5.375   0.655
 1427SOL    HW121423   5.163   5.388   0.707
 1427SOL    HW221424   5.217   5.398   0.565
 1428SOL     OW21425   2.960   3.848   1.726
 1428SOL    HW121426   2.982   3.891   1.809
 1428SOL    HW221427   3.007   3.765   1.728
 1429SOL     OW21428   1.450   2.053   6.589
 1429SOL    HW121429   1.422   1.962   6.582
 1429SOL    HW221430   1.386   2.101   6.536
 1430SOL     OW21431   1.073   1.554   1.478
 1430SOL    HW121432   1.073   1.629   1.537
 1430SOL    HW221433   1.000   1.570   1.419
 1431SOL     OW21434   1.555   1.826   6.946
 1431SOL    HW121435   1.565   1.748   7.000
 1431SOL    HW221436   1.472   1.864   6.976
 1432SOL     OW21437   5.298   0.960   6.181
 1432SOL    HW121438   5.328   1.002   6.101
 1432SOL    HW221439   5.361   0.889   6.196
 1433SOL     OW21440   2.609   3.854   2.370
 1433SOL    HW121441   2.655   3.920   2.318
 1433SOL    HW221442   2.524   3.845   2.328
 1434SOL     OW21443   4.006   1.542   6.895
 1434SOL    HW121444   3.913   1.557   6.911
 1434SOL    HW221445   4.015   1.542   6.800
 1435SOL     OW21446   1.438   0.933   7.353
 1435SOL    HW121447   1.398   1.017   7.371
 1435SOL    HW221448   1.528   0.942   7.385
 1436SOL     OW21449   6.199   2.928   6.727
 1436SOL    HW121450   6.149   2.986   6.669
 1436SOL    HW221451   6.212   2.848   6.676
 1437SOL     OW21452   6.010   3.967   0.648
 1437SOL    HW121453   6.097   3.937   0.623
 1437SOL    HW221454   5.985   3.911   0.721
 1438SOL     OW21455   0.629   0.993   6.262
 1438SOL    HW121456   0.540   1.027   6.270
 1438SOL    HW221457   0.684   1.058   6.308
 1439SOL     OW21458   5.216   1.831   1.303
 1439SOL    HW121459   5.190   1.743   1.277
 1439SOL    HW221460   5.296   1.819   1.353
 1440SOL     OW21461   2.542   0.049   0.731
 1440SOL    HW121462   2.544   0.016   0.641
 1440SOL    HW221463   2.633   0.075   0.749
 1441SOL     OW21464   3.643   0.596   1.496
 1441SOL    HW121465   3.644   0.607   1.591
 1441SOL    HW221466   3.641   0.686   1.462
 1442SOL     OW21467   1.410   6.276   7.213
 1442SOL    HW121468   1.408   6.324   7.296
 1442SOL    HW221469   1.427   6.344   7.147
 1443SOL     OW21470   2.683   2.400   0.512
 1443SOL    HW121471   2.765   2.365   0.547
 1443SOL    HW221472   2.684   2.377   0.420
 1444SOL     OW21473   3.761   0.894   1.094
 1444SOL    HW121474   3.773   0.949   1.171
 1444SOL    HW221475   3.800   0.810   1.118
 1445SOL     OW21476   3.957   3.425   7.903
 1445SOL    HW121477   4.030   3.455   7.957
 1445SOL    HW221478   3.984   3.339   7.870
 1446SOL     OW21479   4.584   4.759   5.980
 1446SOL    HW121480   4.645   4.832   5.986
 1446SOL    HW221481   4.583   4.736   5.887
 1447SOL     OW21482   3.581   0.091   1.681
 1447SOL    HW121483   3.507   0.119   1.626
 1447SOL    HW221484   3.656   0.093   1.622
 1448SOL     OW21485   5.339   0.604   0.017
 1448SOL    HW121486   5.384   0.535   0.065
 1448SOL    HW221487   5.408   0.666  -0.006
 1449SOL     OW21488   3.590   1.661   7.516
 1449SOL    HW121489   3.572   1.669   7.422
 1449SOL    HW221490   3.663   1.600   7.521
 1450SOL     OW21491   5.274   5.994   7.337
 1450SOL    HW121492   5.214   6.004   7.410
 1450SOL    HW221493   5.224   5.946   7.271
 1451SOL     OW21494   5.282   3.426   7.077
 1451SOL    HW121495   5.352   3.429   7.142
 1451SOL    HW221496   5.313   3.483   7.006
 1452SOL     OW21497   0.187   5.658   7.445
 1452SOL    HW121498   0.119   5.606   7.488
 1452SOL    HW221499   0.268   5.613   7.467
 1453SOL     OW21500   0.704   3.579   0.660
 1453SOL    HW121501   0.646   3.508   0.687
 1453SOL    HW221502   0.711   3.571   0.565
 1454SOL     OW21503   1.714   0.203   1.939
 1454SOL    HW121504   1.698   0.251   2.021
 1454SOL    HW221505   1.801   0.230   1.912
 1455SOL     OW21506   5.392   3.107   6.243
 1455SOL    HW121507   5.466   3.122   6.302
 1455SOL    HW221508   5.429   3.115   6.155
 1456SOL     OW21509   0.230   1.722   7.355
 1456SOL    HW121510   0.237   1.750   7.446
 1456SOL    HW221511   0.245   1.802   7.304
 1457SOL     OW21512   0.278   4.521   1.305
 1457SOL    HW121513   0.365   4.503   1.343
 1457SOL    HW221514   0.258   4.610   1.334
 1458SOL     OW21515   1.629   2.271   6.475
 1458SOL    HW121516   1.537   2.249   6.462
 1458SOL    HW221517   1.630   2.323   6.555
 1459SOL     OW21518   1.254   5.959   6.852
 1459SOL    HW121519   1.277   5.918   6.935
 1459SOL    HW221520   1.168   5.996   6.867
 1460SOL     OW21521   5.857   2.954   6.648
 1460SOL    HW121522   5.836   2.917   6.562
 1460SOL    HW221523   5.932   3.012   6.631
 1461SOL     OW21524   5.037   3.999   0.638
 1461SOL    HW121525   4.962   4.008   0.698
 1461SOL    HW221526   5.085   3.923   0.672
 1462SOL     OW21527   5.384   3.016   0.321
 1462SOL    HW121528   5.435   3.019   0.240
 1462SOL    HW221529   5.417   2.939   0.367
 1463SOL     OW21530   3.079   0.009   0.246
 1463SOL    HW121531   3.027  -0.025   0.319
 1463SOL    HW221532   3.022   0.075   0.206
 1464SOL     OW21533   2.386   2.070   0.361
 1464SOL    HW121534   2.425   2.003   0.305
 1464SOL    HW221535   2.444   2.074   0.438
 1465SOL     OW21536   3.232   2.292   1.045
 1465SOL    HW121537   3.245   2.350   1.120
 1465SOL    HW221538   3.297   2.223   1.056
 1466SOL     OW21539   5.676   1.526   0.215
 1466SOL    HW121540   5.717   1.537   0.300
 1466SOL    HW221541   5.683   1.432   0.196
 1467SOL     OW21542   0.689   3.813   7.813
 1467SOL    HW121543   0.772   3.842   7.774
 1467SOL    HW221544   0.666   3.735   7.763
 1468SOL     OW21545   2.464   5.237   7.854
 1468SOL    HW121546   2.379   5.205   7.824
 1468SOL    HW221547   2.444   5.321   7.896
 1469SOL     OW21548   0.247   1.552   6.728
 1469SOL    HW121549   0.306   1.479   6.707
 1469SOL    HW221550   0.173   1.541   6.669
 1470SOL     OW21551   5.763   0.807   1.061
 1470SOL    HW121552   5.743   0.739   0.996
 1470SOL    HW221553   5.857   0.821   1.055
 1471SOL     OW21554   5.979   2.885   1.660
 1471SOL    HW121555   5.977   2.793   1.634
 1471SOL    HW221556   5.894   2.901   1.699
 1472SOL     OW21557   4.063   1.030   6.029
 1472SOL    HW121558   4.052   1.122   6.005
 1472SOL    HW221559   4.092   0.987   5.949
 1473SOL     OW21560   1.918   4.073   7.189
 1473SOL    HW121561   1.874   4.015   7.127
 1473SOL    HW221562   2.002   4.093   7.148
 1474SOL     OW21563   1.134   1.130   6.641
 1474SOL    HW121564   1.224   1.104   6.627
 1474SOL    HW221565   1.126   1.138   6.736
 1475SOL     OW21566   3.547   0.321   0.759
 1475SOL    HW121567   3.471   0.379   0.769
 1475SOL    HW221568   3.554   0.307   0.664
 1476SOL     OW21569   3.887   3.645   6.945
 1476SOL    HW121570   3.955   3.597   6.992
 1476SOL    HW221571   3.934   3.695   6.879
 1477SOL     OW21572   0.531   4.495   2.215
 1477SOL    HW121573   0.613   4.447   2.203
 1477SOL    HW221574   0.550   4.584   2.185
 1478SOL     OW21575   4.074   3.241   7.461
 1478SOL    HW121576   4.011   3.169   7.455
 1478SOL    HW221577   4.154   3.200   7.494
 1479SOL     OW21578   0.098   1.688   7.054
 1479SOL    HW121579   0.161   1.680   7.126
 1479SOL    HW221580   0.090   1.782   7.040
 1480SOL     OW21581   4.841   3.417   1.139
 1480SOL    HW121582   4.887   3.386   1.217
 1480SOL    HW221583   4.756   3.446   1.171
 1481SOL     OW21584   2.788   5.311   1.630
 1481SOL    HW121585   2.770   5.384   1.690
 1481SOL    HW221586   2.862   5.266   1.669
 1482SOL     OW21587   2.130   2.991   0.154
 1482SOL    HW121588   2.201   2.981   0.091
 1482SOL    HW221589   2.066   3.046   0.110
 1483SOL     OW21590   1.363   0.278   7.821
 1483SOL    HW121591   1.403   0.210   7.875
 1483SOL    HW221592   1.431   0.302   7.758
 1484SOL     OW21593   1.072   0.567   1.572
 1484SOL    HW121594   1.006   0.506   1.606
 1484SOL    HW221595   1.031   0.606   1.495
 1485SOL     OW21596   0.771   1.992   6.256
 1485SOL    HW121597   0.757   2.077   6.215
 1485SOL    HW221598   0.780   1.931   6.183
 1486SOL     OW21599   1.711   2.478   0.625
 1486SOL    HW121600   1.660   2.476   0.544
 1486SOL    HW221601   1.646   2.492   0.694
 1487SOL     OW21602   2.481   2.253   0.640
 1487SOL    HW121603   2.401   2.290   0.605
 1487SOL    HW221604   2.549   2.318   0.620
 1488SOL     OW21605   2.710   5.560   7.374
 1488SOL    HW121606   2.680   5.504   7.302
 1488SOL    HW221607   2.792   5.597   7.342
 1489SOL     OW21608   6.124   6.336   2.010
 1489SOL    HW121609   6.156   6.422   1.983
 1489SOL    HW221610   6.199   6.278   1.997
 1490SOL     OW21611   1.477   0.167   7.091
 1490SOL    HW121612   1.480   0.151   6.997
 1490SOL    HW221613   1.568   0.181   7.116
 1491SOL     OW21614   5.609   0.188   0.181
 1491SOL    HW121615   5.533   0.140   0.150
 1491SOL    HW221616   5.622   0.159   0.271
 1492SOL     OW21617   1.268   5.686   1.505
 1492SOL    HW121618   1.334   5.639   1.556
 1492SOL    HW221619   1.208   5.617   1.475
 1493SOL     OW21620   0.923   4.922   7.268
 1493SOL    HW121621   0.838   4.967   7.275
 1493SOL    HW221622   0.920   4.856   7.337
 1494SOL     OW21623   2.849   3.118   0.598
 1494SOL    HW121624   2.871   3.208   0.623
 1494SOL    HW221625   2.779   3.094   0.658
 1495SOL     OW21626   2.169   3.125   1.318
 1495SOL    HW121627   2.148   3.071   1.394
 1495SOL    HW221628   2.159   3.215   1.349
 1496SOL     OW21629   5.802   1.128   7.751
 1496SOL    HW121630   5.842   1.087   7.829
 1496SOL    HW221631   5.709   1.135   7.773
 1497SOL     OW21632   2.549   0.943   7.329
 1497SOL    HW121633   2.599   0.938   7.247
 1497SOL    HW221634   2.529   1.036   7.338
 1498SOL     OW21635   1.888   1.608   6.831
 1498SOL    HW121636   1.816   1.644   6.779
 1498SOL    HW221637   1.867   1.633   6.921
 1499SOL     OW21638   5.485   0.434   0.175
 1499SOL    HW121639   5.423   0.420   0.246
 1499SOL    HW221640   5.531   0.350   0.166
 1500SOL     OW21641   5.103   5.099   2.172
 1500SOL    HW121642   5.113   5.086   2.266
 1500SOL    HW221643   5.024   5.153   2.164
 1501SOL     OW21644   0.174   3.598   7.814
 1501SOL    HW121645   0.166   3.506   7.788
 1501SOL    HW221646   0.269   3.612   7.820
 1502SOL     OW21647   3.466   3.723   1.076
 1502SOL    HW121648   3.558   3.751   1.072
 1502SOL    HW221649   3.422   3.793   1.125
 1503SOL     OW21650   2.885   4.399   5.964
 1503SOL    HW121651   2.833   4.329   6.004
 1503SOL    HW221652   2.843   4.415   5.880
 1504SOL     OW21653   3.791   5.526   1.658
 1504SOL    HW121654   3.763   5.442   1.620
 1504SOL    HW221655   3.829   5.574   1.585
 1505SOL     OW21656   5.435   6.330   6.541
 1505SOL    HW121657   5.463   6.387   6.612
 1505SOL    HW221658   5.345   6.358   6.521
 1506SOL     OW21659   3.946   4.138   0.614
 1506SOL    HW121660   3.966   4.106   0.702
 1506SOL    HW221661   3.869   4.088   0.586
 1507SOL     OW21662   4.532   2.175   0.132
 1507SOL    HW121663   4.482   2.121   0.193
 1507SOL    HW221664   4.466   2.221   0.081
 1508SOL     OW21665   2.774   3.723   7.784
 1508SOL    HW121666   2.738   3.784   7.848
 1508SOL    HW221667   2.737   3.638   7.808
 1509SOL     OW21668   1.175   2.318   6.738
 1509SOL    HW121669   1.195   2.353   6.651
 1509SOL    HW221670   1.107   2.376   6.772
 1510SOL     OW21671   3.245   4.503   7.309
 1510SOL    HW121672   3.328   4.473   7.272
 1510SOL    HW221673   3.178   4.457   7.258
 1511SOL     OW21674   1.684   6.285   0.138
 1511SOL    HW121675   1.766   6.240   0.160
 1511SOL    HW221676   1.683   6.287   0.043
 1512SOL     OW21677   3.745   5.997   0.445
 1512SOL    HW121678   3.819   5.945   0.414
 1512SOL    HW221679   3.701   5.941   0.509
 1513SOL     OW21680   2.941   0.332   1.146
 1513SOL    HW121681   2.967   0.351   1.237
 1513SOL    HW221682   2.933   0.418   1.106
 1514SOL     OW21683   5.251   0.688   1.121
 1514SOL    HW121684   5.160   0.683   1.095
 1514SOL    HW221685   5.251   0.663   1.213
 1515SOL     OW21686   2.879   6.283   0.508
 1515SOL    HW121687   2.788   6.290   0.482
 1515SOL    HW221688   2.880   6.213   0.573
 1516SOL     OW21689   4.001   5.676   7.825
 1516SOL    HW121690   4.083   5.723   7.808
 1516SOL    HW221691   4.003   5.603   7.763
 1517SOL     OW21692   0.044   4.216   1.832
 1517SOL    HW121693  -0.010   4.138   1.847
 1517SOL    HW221694   0.102   4.220   1.908
 1518SOL     OW21695   2.035   0.563   7.242
 1518SOL    HW121696   1.990   0.611   7.172
 1518SOL    HW221697   2.001   0.474   7.235
 1519SOL     OW21698   0.805   0.914   8.000
 1519SOL    HW121699   0.807   0.822   7.974
 1519SOL    HW221700   0.809   0.963   7.918
 1520SOL     OW21701   3.874   2.389   6.058
 1520SOL    HW121702   3.881   2.366   5.965
 1520SOL    HW221703   3.843   2.480   6.057
 1521SOL     OW21704   5.851   2.332   0.682
 1521SOL    HW121705   5.881   2.420   0.660
 1521SOL    HW221706   5.813   2.341   0.769
 1522SOL     OW21707   3.299   4.401   6.941
 1522SOL    HW121708   3.280   4.365   6.855
 1522SOL    HW221709   3.258   4.339   7.002
 1523SOL     OW21710   3.510   0.184   0.519
 1523SOL    HW121711   3.510   0.154   0.428
 1523SOL    HW221712   3.559   0.117   0.566
 1524SOL     OW21713   5.885   4.719   1.217
 1524SOL    HW121714   5.896   4.807   1.181
 1524SOL    HW221715   5.972   4.680   1.212
 1525SOL     OW21716   6.169   0.384   1.054
 1525SOL    HW121717   6.099   0.419   0.999
 1525SOL    HW221718   6.249   0.410   1.009
 1526SOL     OW21719   3.625   2.479   6.321
 1526SOL    HW121720   3.545   2.428   6.304
 1526SOL    HW221721   3.674   2.474   6.239
 1527SOL     OW21722   3.593   4.933   1.395
 1527SOL    HW121723   3.538   4.964   1.467
 1527SOL    HW221724   3.598   4.838   1.407
 1528SOL     OW21725   5.833   1.554   1.626
 1528SOL    HW121726   5.766   1.621   1.623
 1528SOL    HW221727   5.872   1.562   1.713
 1529SOL     OW21728   3.674   5.047   7.365
 1529SOL    HW121729   3.732   4.986   7.320
 1529SOL    HW221730   3.686   5.028   7.458
 1530SOL     OW21731   3.369   3.462   1.017
 1530SOL    HW121732   3.356   3.443   1.110
 1530SOL    HW221733   3.392   3.554   1.014
 1531SOL     OW21734   3.224   2.847   0.053
 1531SOL    HW121735   3.206   2.937   0.025
 1531SOL    HW221736   3.171   2.835   0.131
 1532SOL     OW21737   1.985   0.298   2.867
 1532SOL    HW121738   2.021   0.354   2.936
 1532SOL    HW221739   2.056   0.239   2.844
 1533SOL     OW21740   0.178   1.370   2.240
 1533SOL    HW121741   0.119   1.422   2.295
 1533SOL    HW221742   0.129   1.290   2.221
 1534SOL     OW21743   2.661   3.483   0.550
 1534SOL    HW121744   2.597   3.554   0.550
 1534SOL    HW221745   2.707   3.493   0.466
 1535SOL     OW21746   0.266   4.520   0.650
 1535SOL    HW121747   0.277   4.425   0.644
 1535SOL    HW221748   0.324   4.547   0.721
 1536SOL     OW21749   2.027   5.151   7.188
 1536SOL    HW121750   2.097   5.088   7.169
 1536SOL    HW221751   1.946   5.104   7.170
 1537SOL     OW21752   1.516   1.400   7.986
 1537SOL    HW121753   1.425   1.383   8.007
 1537SOL    HW221754   1.565   1.331   8.031
 1538SOL     OW21755   5.148   6.004   0.902
 1538SOL    HW121756   5.145   6.096   0.926
 1538SOL    HW221757   5.151   5.957   0.985
 1539SOL     OW21758   0.948   4.515   7.614
 1539SOL    HW121759   1.014   4.447   7.631
 1539SOL    HW221760   0.989   4.596   7.644
 1540SOL     OW21761   3.163   6.055   6.641
 1540SOL    HW121762   3.073   6.063   6.609
 1540SOL    HW221763   3.214   6.110   6.581
 1541SOL     OW21764   1.006   1.654   7.312
 1541SOL    HW121765   1.009   1.592   7.385
 1541SOL    HW221766   1.019   1.601   7.234
 1542SOL     OW21767   5.745   2.586   1.380
 1542SOL    HW121768   5.828   2.605   1.336
 1542SOL    HW221769   5.771   2.545   1.462
 1543SOL     OW21770   2.246   4.956   1.364
 1543SOL    HW121771   2.252   4.995   1.451
 1543SOL    HW221772   2.257   4.862   1.379
 1544SOL     OW21773   3.773   5.984   6.236
 1544SOL    HW121774   3.744   5.958   6.324
 1544SOL    HW221775   3.747   6.075   6.228
 1545SOL     OW21776   5.933   2.338   7.543
 1545SOL    HW121777   5.942   2.276   7.471
 1545SOL    HW221778   5.849   2.316   7.583
 1546SOL     OW21779   3.489   2.492   7.931
 1546SOL    HW121780   3.544   2.424   7.969
 1546SOL    HW221781   3.513   2.572   7.978
 1547SOL     OW21782   0.284   1.344   1.067
 1547SOL    HW121783   0.322   1.278   1.125
 1547SOL    HW221784   0.233   1.401   1.124
 1548SOL     OW21785   4.526   5.239   0.749
 1548SOL    HW121786   4.517   5.231   0.654
 1548SOL    HW221787   4.581   5.164   0.773
 1549SOL     OW21788   0.876   0.023   7.782
 1549SOL    HW121789   0.824   0.009   7.703
 1549SOL    HW221790   0.856  -0.053   7.837
 1550SOL     OW21791   0.664   4.406   6.723
 1550SOL    HW121792   0.730   4.363   6.669
 1550SOL    HW221793   0.690   4.385   6.813
 1551SOL     OW21794   3.769   5.622   7.976
 1551SOL    HW121795   3.692   5.646   7.923
 1551SOL    HW221796   3.843   5.663   7.931
 1552SOL     OW21797   1.957   1.249   6.929
 1552SOL    HW121798   2.024   1.208   6.873
 1552SOL    HW221799   1.962   1.201   7.011
 1553SOL     OW21800   3.877   4.156   0.979
 1553SOL    HW121801   3.851   4.193   1.063
 1553SOL    HW221802   3.856   4.063   0.986
 1554SOL     OW21803   5.363   5.325   7.123
 1554SOL    HW121804   5.276   5.290   7.144
 1554SOL    HW221805   5.381   5.292   7.034
 1555SOL     OW21806   0.413   4.287   6.720
 1555SOL    HW121807   0.497   4.324   6.747
 1555SOL    HW221808   0.349   4.355   6.742
 1556SOL     OW21809   2.059   1.088   2.199
 1556SOL    HW121810   2.117   1.138   2.256
 1556SOL    HW221811   2.025   1.153   2.137
 1557SOL     OW21812   0.246   2.604   0.455
 1557SOL    HW121813   0.295   2.538   0.406
 1557SOL    HW221814   0.185   2.553   0.509
 1558SOL     OW21815   2.572   2.627   2.620
 1558SOL    HW121816   2.553   2.709   2.666
 1558SOL    HW221817   2.668   2.626   2.611
 1559SOL     OW21818   4.805   0.520   1.296
 1559SOL    HW121819   4.899   0.505   1.297
 1559SOL    HW221820   4.790   0.573   1.218
 1560SOL     OW21821   3.140   4.987   0.758
 1560SOL    HW121822   3.113   5.057   0.818
 1560SOL    HW221823   3.235   4.985   0.765
 1561SOL     OW21824   1.423   2.510   1.326
 1561SOL    HW121825   1.475   2.442   1.283
 1561SOL    HW221826   1.352   2.462   1.368
 1562SOL     OW21827   0.685   0.157   0.714
 1562SOL    HW121828   0.724   0.080   0.756
 1562SOL    HW221829   0.758   0.219   0.708
 1563SOL     OW21830   5.719   0.478   2.732
 1563SOL    HW121831   5.687   0.458   2.644
 1563SOL    HW221832   5.646   0.524   2.774
 1564SOL     OW21833   3.327   0.234   6.438
 1564SOL    HW121834   3.368   0.191   6.362
 1564SOL    HW221835   3.240   0.258   6.407
 1565SOL     OW21836   0.285   1.793   0.361
 1565SOL    HW121837   0.338   1.838   0.426
 1565SOL    HW221838   0.346   1.735   0.316
 1566SOL     OW21839   4.667   3.893   2.494
 1566SOL    HW121840   4.733   3.957   2.521
 1566SOL    HW221841   4.587   3.920   2.539
 1567SOL     OW21842   3.487   1.648   0.163
 1567SOL    HW121843   3.419   1.590   0.198
 1567SOL    HW221844   3.441   1.702   0.099
 1568SOL     OW21845   3.560   6.270   0.601
 1568SOL    HW121846   3.471   6.247   0.576
 1568SOL    HW221847   3.615   6.210   0.550
 1569SOL     OW21848   4.735   1.568   6.180
 1569SOL    HW121849   4.771   1.487   6.144
 1569SOL    HW221850   4.649   1.576   6.139
 1570SOL     OW21851   5.179   0.809   6.942
 1570SOL    HW121852   5.208   0.889   6.987
 1570SOL    HW221853   5.179   0.832   6.849
 1571SOL     OW21854   4.347   0.386   6.645
 1571SOL    HW121855   4.263   0.360   6.607
 1571SOL    HW221856   4.398   0.418   6.570
 1572SOL     OW21857   4.223   2.905   6.906
 1572SOL    HW121858   4.205   2.973   6.970
 1572SOL    HW221859   4.318   2.895   6.906
 1573SOL     OW21860   0.971   1.402   0.988
 1573SOL    HW121861   0.910   1.464   0.948
 1573SOL    HW221862   0.916   1.329   1.016
 1574SOL     OW21863   3.351   1.354   1.590
 1574SOL    HW121864   3.282   1.293   1.565
 1574SOL    HW221865   3.393   1.377   1.507
 1575SOL     OW21866   2.234   1.858   0.119
 1575SOL    HW121867   2.282   1.835   0.040
 1575SOL    HW221868   2.142   1.841   0.097
 1576SOL     OW21869   3.195   4.031   0.953
 1576SOL    HW121870   3.220   4.101   1.014
 1576SOL    HW221871   3.208   4.070   0.867
 1577SOL     OW21872   4.315   0.181   7.215
 1577SOL    HW121873   4.407   0.200   7.235
 1577SOL    HW221874   4.315   0.092   7.179
 1578SOL     OW21875   1.216   4.047   0.755
 1578SOL    HW121876   1.156   3.982   0.792
 1578SOL    HW221877   1.222   4.024   0.662
 1579SOL     OW21878   1.491   4.749   0.971
 1579SOL    HW121879   1.556   4.715   0.910
 1579SOL    HW221880   1.409   4.751   0.921
 1580SOL     OW21881   5.645   3.972   7.012
 1580SOL    HW121882   5.614   4.028   7.082
 1580SOL    HW221883   5.735   4.002   6.995
 1581SOL     OW21884   3.856   0.026   2.934
 1581SOL    HW121885   3.805  -0.025   2.871
 1581SOL    HW221886   3.941   0.039   2.892
 1582SOL     OW21887   3.520   1.112   6.561
 1582SOL    HW121888   3.565   1.032   6.535
 1582SOL    HW221889   3.570   1.145   6.636
 1583SOL     OW21890   3.826   3.841   1.092
 1583SOL    HW121891   3.830   3.784   1.015
 1583SOL    HW221892   3.767   3.796   1.152
 1584SOL     OW21893   3.533   4.106   1.362
 1584SOL    HW121894   3.584   4.128   1.284
 1584SOL    HW221895   3.482   4.029   1.337
 1585SOL     OW21896   5.525   0.759   6.169
 1585SOL    HW121897   5.507   0.673   6.134
 1585SOL    HW221898   5.527   0.817   6.093
 1586SOL     OW21899   3.169   2.922   7.488
 1586SOL    HW121900   3.168   2.883   7.401
 1586SOL    HW221901   3.101   2.990   7.484
 1587SOL     OW21902   0.313   3.103   2.016
 1587SOL    HW121903   0.293   3.163   2.087
 1587SOL    HW221904   0.267   3.023   2.039
 1588SOL     OW21905   3.051   0.611   7.421
 1588SOL    HW121906   3.108   0.566   7.358
 1588SOL    HW221907   2.995   0.666   7.366
 1589SOL     OW21908   5.047   4.506   3.024
 1589SOL    HW121909   5.063   4.592   3.064
 1589SOL    HW221910   4.994   4.525   2.947
 1590SOL     OW21911   5.046   4.193   2.182
 1590SOL    HW121912   5.075   4.106   2.209
 1590SOL    HW221913   4.953   4.195   2.202
 1591SOL     OW21914   3.698   3.674   1.275
 1591SOL    HW121915   3.771   3.675   1.338
 1591SOL    HW221916   3.623   3.643   1.326
 1592SOL     OW21917   4.141   2.451   6.747
 1592SOL    HW121918   4.181   2.530   6.709
 1592SOL    HW221919   4.052   2.450   6.711
 1593SOL     OW21920   3.735   0.546   7.393
 1593SOL    HW121921   3.784   0.551   7.311
 1593SOL    HW221922   3.790   0.492   7.450
 1594SOL     OW21923   5.250   1.262   6.538
 1594SOL    HW121924   5.231   1.303   6.453
 1594SOL    HW221925   5.167   1.222   6.564
 1595SOL     OW21926   3.858   4.142   6.612
 1595SOL    HW121927   3.790   4.075   6.613
 1595SOL    HW221928   3.852   4.184   6.698
 1596SOL     OW21929   1.984   2.366   0.613
 1596SOL    HW121930   1.900   2.400   0.645
 1596SOL    HW221931   1.985   2.387   0.520
 1597SOL     OW21932   2.922   1.571   1.478
 1597SOL    HW121933   2.968   1.540   1.556
 1597SOL    HW221934   2.985   1.558   1.406
 1598SOL     OW21935   6.150   4.173   6.714
 1598SOL    HW121936   6.113   4.191   6.628
 1598SOL    HW221937   6.088   4.213   6.776
 1599SOL     OW21938   4.146   1.623   1.089
 1599SOL    HW121939   4.198   1.701   1.078
 1599SOL    HW221940   4.179   1.561   1.023
 1600SOL     OW21941   0.213   0.142   6.937
 1600SOL    HW121942   0.267   0.151   7.016
 1600SOL    HW221943   0.147   0.077   6.961
 1601SOL     OW21944   0.387   3.827   6.521
 1601SOL    HW121945   0.347   3.742   6.501
 1601SOL    HW221946   0.323   3.891   6.489
 1602SOL     OW21947   3.287   4.292   7.755
 1602SOL    HW121948   3.215   4.237   7.785
 1602SOL    HW221949   3.244   4.363   7.706
 1603SOL     OW21950   0.329   3.915   7.991
 1603SOL    HW121951   0.249   3.901   8.041
 1603SOL    HW221952   0.306   3.983   7.927
 1604SOL     OW21953   2.725   3.613   5.734
 1604SOL    HW121954   2.722   3.552   5.661
 1604SOL    HW221955   2.818   3.618   5.757
 1605SOL     OW21956   2.570   0.545   7.161
 1605SOL    HW121957   2.648   0.596   7.184
 1605SOL    HW221958   2.503   0.576   7.222
 1606SOL     OW21959   2.672   2.363   1.053
 1606SOL    HW121960   2.666   2.283   1.106
 1606SOL    HW221961   2.582   2.385   1.033
 1607SOL     OW21962   2.467   0.285   0.970
 1607SOL    HW121963   2.409   0.219   0.931
 1607SOL    HW221964   2.550   0.239   0.983
 1608SOL     OW21965   4.504   4.086   0.449
 1608SOL    HW121966   4.444   4.017   0.421
 1608SOL    HW221967   4.591   4.048   0.437
 1609SOL     OW21968   5.003   4.300   1.087
 1609SOL    HW121969   4.982   4.208   1.073
 1609SOL    HW221970   4.919   4.342   1.103
 1610SOL     OW21971   5.023   5.892   6.722
 1610SOL    HW121972   5.048   5.941   6.644
 1610SOL    HW221973   5.086   5.820   6.726
 1611SOL     OW21974   1.232   1.845   0.306
 1611SOL    HW121975   1.276   1.871   0.386
 1611SOL    HW221976   1.214   1.751   0.317
 1612SOL     OW21977   4.990   1.450   7.548
 1612SOL    HW121978   4.975   1.371   7.496
 1612SOL    HW221979   4.923   1.447   7.616
 1613SOL     OW21980   0.577   0.335   6.731
 1613SOL    HW121981   0.579   0.411   6.674
 1613SOL    HW221982   0.510   0.278   6.693
 1614SOL     OW21983   5.874   5.834   2.054
 1614SOL    HW121984   5.855   5.901   1.989
 1614SOL    HW221985   5.790   5.814   2.094
 1615SOL     OW21986   5.800   2.967   0.980
 1615SOL    HW121987   5.710   2.938   0.968
 1615SOL    HW221988   5.821   3.017   0.901
 1616SOL     OW21989   6.163   0.150   7.283
 1616SOL    HW121990   6.177   0.214   7.353
 1616SOL    HW221991   6.072   0.124   7.292
 1617SOL     OW21992   3.619   2.215   5.372
 1617SOL    HW121993   3.601   2.293   5.425
 1617SOL    HW221994   3.675   2.246   5.301
 1618SOL     OW21995   1.950   0.918   1.335
 1618SOL    HW121996   1.923   0.906   1.244
 1618SOL    HW221997   1.957   1.012   1.346
 1619SOL     OW21998   0.553   1.618   7.703
 1619SOL    HW121999   0.468   1.579   7.719
 1619SOL    HW222000   0.552   1.642   7.611
 1620SOL     OW22001   0.516   3.763   6.758
 1620SOL    HW122002   0.435   3.743   6.804
 1620SOL    HW222003   0.488   3.791   6.671
 1621SOL     OW22004   2.445   4.135   1.425
 1621SOL    HW122005   2.487   4.051   1.439
 1621SOL    HW222006   2.415   4.162   1.512
 1622SOL     OW22007   4.537   0.325   5.869
 1622SOL    HW122008   4.492   0.244   5.845
 1622SOL    HW222009   4.599   0.299   5.937
 1623SOL     OW22010   2.018   5.265   1.716
 1623SOL    HW122011   1.935   5.266   1.668
 1623SOL    HW222012   1.993   5.262   1.808
 1624SOL     OW22013   2.529   6.322   1.995
 1624SOL    HW122014   2.454   6.380   1.985
 1624SOL    HW222015   2.547   6.323   2.089
 1625SOL     OW22016   1.366   4.785   1.716
 1625SOL    HW122017   1.278   4.752   1.695
 1625SOL    HW222018   1.419   4.707   1.727
 1626SOL     OW22019   2.706   2.357   0.250
 1626SOL    HW122020   2.772   2.328   0.187
 1626SOL    HW222021   2.671   2.438   0.213
 1627SOL     OW22022   4.509   1.733   6.532
 1627SOL    HW122023   4.456   1.696   6.602
 1627SOL    HW222024   4.463   1.709   6.452
 1628SOL     OW22025   5.148   3.191   7.146
 1628SOL    HW122026   5.195   3.274   7.145
 1628SOL    HW222027   5.131   3.172   7.054
 1629SOL     OW22028   5.067   4.760   5.515
 1629SOL    HW122029   5.093   4.698   5.584
 1629SOL    HW222030   4.972   4.753   5.512
 1630SOL     OW22031   4.509   4.889   1.131
 1630SOL    HW122032   4.450   4.920   1.062
 1630SOL    HW222033   4.462   4.816   1.172
 1631SOL     OW22034   5.549   4.457   0.423
 1631SOL    HW122035   5.534   4.546   0.390
 1631SOL    HW222036   5.640   4.457   0.453
 1632SOL     OW22037   0.810   2.026   7.403
 1632SOL    HW122038   0.783   2.010   7.312
 1632SOL    HW222039   0.876   2.095   7.396
 1633SOL     OW22040   3.644   2.379   7.706
 1633SOL    HW122041   3.587   2.302   7.697
 1633SOL    HW222042   3.610   2.425   7.783
 1634SOL     OW22043   3.492   3.114   0.192
 1634SOL    HW122044   3.508   3.188   0.133
 1634SOL    HW222045   3.404   3.129   0.226
 1635SOL     OW22046   5.945   2.023   0.021
 1635SOL    HW122047   5.943   2.105   0.071
 1635SOL    HW222048   5.966   2.050  -0.068
 1636SOL     OW22049   5.453   2.778   0.413
 1636SOL    HW122050   5.481   2.720   0.484
 1636SOL    HW222051   5.443   2.720   0.338
 1637SOL     OW22052   4.836   5.500   1.332
 1637SOL    HW122053   4.911   5.540   1.376
 1637SOL    HW222054   4.817   5.422   1.384
 1638SOL     OW22055   5.533   4.452   6.728
 1638SOL    HW122056   5.623   4.473   6.754
 1638SOL    HW222057   5.538   4.444   6.632
 1639SOL     OW22058   4.236   2.566   5.507
 1639SOL    HW122059   4.302   2.507   5.469
 1639SOL    HW222060   4.155   2.514   5.506
 1640SOL     OW22061   0.893   6.100   7.300
 1640SOL    HW122062   0.857   6.188   7.307
 1640SOL    HW222063   0.864   6.056   7.380
 1641SOL     OW22064   2.450   1.658   2.002
 1641SOL    HW122065   2.534   1.653   1.956
 1641SOL    HW222066   2.438   1.751   2.021
 1642SOL     OW22067   3.037   1.538   7.210
 1642SOL    HW122068   3.011   1.498   7.293
 1642SOL    HW222069   3.101   1.477   7.173
 1643SOL     OW22070   5.548   5.768   7.605
 1643SOL    HW122071   5.604   5.747   7.531
 1643SOL    HW222072   5.575   5.708   7.674
 1644SOL     OW22073   6.317   5.287   6.626
 1644SOL    HW122074   6.413   5.293   6.622
 1644SOL    HW222075   6.288   5.296   6.535
 1645SOL     OW22076   0.217   6.153   0.034
 1645SOL    HW122077   0.189   6.075   0.082
 1645SOL    HW222078   0.312   6.156   0.047
 1646SOL     OW22079   3.628   2.788   0.610
 1646SOL    HW122080   3.632   2.879   0.580
 1646SOL    HW222081   3.719   2.760   0.615
 1647SOL     OW22082   6.306   6.106   0.568
 1647SOL    HW122083   6.368   6.153   0.513
 1647SOL    HW222084   6.220   6.140   0.541
 1648SOL     OW22085   0.819   2.854   5.980
 1648SOL    HW122086   0.820   2.758   5.979
 1648SOL    HW222087   0.766   2.877   6.056
 1649SOL     OW22088   1.956   3.664   0.975
 1649SOL    HW122089   1.946   3.602   0.903
 1649SOL    HW222090   1.902   3.630   1.046
 1650SOL     OW22091   4.756   2.151   1.376
 1650SOL    HW122092   4.756   2.113   1.463
 1650SOL    HW222093   4.844   2.137   1.342
 1651SOL     OW22094   1.771   4.001   0.781
 1651SOL    HW122095   1.697   3.992   0.721
 1651SOL    HW222096   1.731   4.009   0.868
 1652SOL     OW22097   0.809   1.239   7.282
 1652SOL    HW122098   0.715   1.250   7.269
 1652SOL    HW222099   0.817   1.193   7.366
 1653SOL     OW22100   5.303   1.696   0.770
 1653SOL    HW122101   5.215   1.733   0.769
 1653SOL    HW222102   5.322   1.677   0.678
 1654SOL     OW22103   2.309   0.436   7.855
 1654SOL    HW122104   2.247   0.364   7.867
 1654SOL    HW222105   2.307   0.453   7.760
 1655SOL     OW22106   5.001   1.307   0.351
 1655SOL    HW122107   4.921   1.358   0.342
 1655SOL    HW222108   5.054   1.358   0.413
 1656SOL     OW22109   5.279   2.453   7.187
 1656SOL    HW122110   5.329   2.520   7.140
 1656SOL    HW222111   5.200   2.442   7.135
 1657SOL     OW22112   6.292   4.716   0.160
 1657SOL    HW122113   6.347   4.655   0.111
 1657SOL    HW222114   6.334   4.801   0.149
 1658SOL     OW22115   5.481   4.528   1.952
 1658SOL    HW122116   5.543   4.571   2.011
 1658SOL    HW222117   5.450   4.452   2.000
 1659SOL     OW22118   0.869   3.367   7.964
 1659SOL    HW122119   0.812   3.291   7.948
 1659SOL    HW222120   0.814   3.428   8.013
 1660SOL     OW22121   5.256   4.307   7.245
 1660SOL    HW122122   5.229   4.330   7.334
 1660SOL    HW222123   5.282   4.390   7.206
 1661SOL     OW22124   3.517   0.026   2.538
 1661SOL    HW122125   3.503  -0.068   2.527
 1661SOL    HW222126   3.451   0.067   2.481
 1662SOL     OW22127   0.893   3.773   6.316
 1662SOL    HW122128   0.971   3.826   6.301
 1662SOL    HW222129   0.833   3.797   6.245
 1663SOL     OW22130   6.017   1.406   1.453
 1663SOL    HW122131   5.960   1.471   1.494
 1663SOL    HW222132   5.956   1.342   1.416
 1664SOL     OW22133   5.395   3.807   7.509
 1664SOL    HW122134   5.479   3.815   7.554
 1664SOL    HW222135   5.331   3.842   7.570
 1665SOL     OW22136   4.965   0.381   7.051
 1665SOL    HW122137   5.059   0.391   7.033
 1665SOL    HW222138   4.923   0.435   6.984
 1666SOL     OW22139   6.058   1.171   6.606
 1666SOL    HW122140   6.115   1.147   6.533
 1666SOL    HW222141   6.099   1.248   6.645
 1667SOL     OW22142   3.184   3.621   6.249
 1667SOL    HW122143   3.164   3.536   6.211
 1667SOL    HW222144   3.184   3.681   6.175
 1668SOL     OW22145   0.442   5.154   0.192
 1668SOL    HW122146   0.390   5.091   0.240
 1668SOL    HW222147   0.521   5.106   0.167
 1669SOL     OW22148   3.788   1.039   0.683
 1669SOL    HW122149   3.822   1.109   0.739
 1669SOL    HW222150   3.752   1.085   0.607
 1670SOL     OW22151   2.765   0.479   0.378
 1670SOL    HW122152   2.730   0.458   0.292
 1670SOL    HW222153   2.739   0.571   0.393
 1671SOL     OW22154   2.586   3.187   1.677
 1671SOL    HW122155   2.681   3.196   1.683
 1671SOL    HW222156   2.573   3.119   1.611
 1672SOL     OW22157   0.559   5.886   0.295
 1672SOL    HW122158   0.573   5.979   0.308
 1672SOL    HW222159   0.516   5.880   0.209
 1673SOL     OW22160   5.433   4.705   0.348
 1673SOL    HW122161   5.484   4.755   0.412
 1673SOL    HW222162   5.354   4.679   0.396
 1674SOL     OW22163   0.767   6.321   0.884
 1674SOL    HW122164   0.756   6.305   0.978
 1674SOL    HW222165   0.831   6.255   0.856
 1675SOL     OW22166   0.024   0.563   6.044
 1675SOL    HW122167   0.085   0.626   6.080
 1675SOL    HW222168  -0.062   0.605   6.052
 1676SOL     OW22169   5.535   0.594   7.147
 1676SOL    HW122170   5.621   0.570   7.113
 1676SOL    HW222171   5.514   0.676   7.104
 1677SOL     OW22172   2.206   5.995   1.678
 1677SOL    HW122173   2.269   5.927   1.703
 1677SOL    HW222174   2.237   6.074   1.723
 1678SOL     OW22175   3.095   1.898   6.421
 1678SOL    HW122176   3.172   1.936   6.379
 1678SOL    HW222177   3.064   1.831   6.360
 1679SOL     OW22178   3.489   2.246   7.181
 1679SOL    HW122179   3.556   2.242   7.248
 1679SOL    HW222180   3.421   2.303   7.217
 1680SOL     OW22181   0.590   0.293   1.644
 1680SOL    HW122182   0.573   0.384   1.670
 1680SOL    HW222183   0.665   0.267   1.697
 1681SOL     OW22184   4.215   0.288   2.017
 1681SOL    HW122185   4.240   0.368   2.062
 1681SOL    HW222186   4.185   0.229   2.087
 1682SOL     OW22187   3.105   5.846   0.898
 1682SOL    HW122188   3.097   5.940   0.877
 1682SOL    HW222189   3.177   5.842   0.961
 1683SOL     OW22190   3.002   4.362   0.689
 1683SOL    HW122191   2.949   4.372   0.610
 1683SOL    HW222192   2.940   4.331   0.755
 1684SOL     OW22193   0.198   1.367   0.800
 1684SOL    HW122194   0.220   1.354   0.893
 1684SOL    HW222195   0.175   1.460   0.794
 1685SOL     OW22196   4.669   4.833   0.746
 1685SOL    HW122197   4.654   4.890   0.671
 1685SOL    HW222198   4.683   4.893   0.819
 1686SOL     OW22199   0.498   2.702   0.161
 1686SOL    HW122200   0.551   2.745   0.228
 1686SOL    HW222201   0.475   2.618   0.200
 1687SOL     OW22202   3.303   1.195   0.377
 1687SOL    HW122203   3.381   1.234   0.415
 1687SOL    HW222204   3.335   1.116   0.332
 1688SOL     OW22205   0.692   3.530   0.030
 1688SOL    HW122206   0.647   3.473   0.093
 1688SOL    HW222207   0.651   3.615   0.042
 1689SOL     OW22208   3.243   3.893   2.301
 1689SOL    HW122209   3.271   3.858   2.386
 1689SOL    HW222210   3.148   3.880   2.300
 1690SOL     OW22211   5.490   1.600   0.560
 1690SOL    HW122212   5.576   1.565   0.536
 1690SOL    HW222213   5.477   1.674   0.501
 1691SOL     OW22214   0.328   6.320   6.207
 1691SOL    HW122215   0.355   6.364   6.126
 1691SOL    HW222216   0.272   6.248   6.177
 1692SOL     OW22217   4.289   6.266   7.127
 1692SOL    HW122218   4.198   6.262   7.157
 1692SOL    HW222219   4.293   6.204   7.054
 1693SOL     OW22220   4.093   0.807   1.799
 1693SOL    HW122221   4.050   0.822   1.883
 1693SOL    HW222222   4.177   0.851   1.806
 1694SOL     OW22223   3.220   4.619   8.057
 1694SOL    HW122224   3.282   4.624   8.130
 1694SOL    HW222225   3.204   4.525   8.046
 1695SOL     OW22226   5.288   2.397   0.674
 1695SOL    HW122227   5.250   2.366   0.756
 1695SOL    HW222228   5.219   2.449   0.634
 1696SOL     OW22229   1.453   4.019   7.874
 1696SOL    HW122230   1.394   4.000   7.948
 1696SOL    HW222231   1.409   3.980   7.798
 1697SOL     OW22232   3.503   3.001   2.247
 1697SOL    HW122233   3.457   3.038   2.172
 1697SOL    HW222234   3.523   2.911   2.221
 1698SOL     OW22235   2.839   1.400   1.968
 1698SOL    HW122236   2.862   1.308   1.955
 1698SOL    HW222237   2.823   1.408   2.062
 1699SOL     OW22238   1.519   4.919   0.235
 1699SOL    HW122239   1.611   4.936   0.255
 1699SOL    HW222240   1.475   5.003   0.249
 1700SOL     OW22241   2.614   4.129   1.664
 1700SOL    HW122242   2.631   4.164   1.751
 1700SOL    HW222243   2.537   4.072   1.676
 1701SOL     OW22244   2.562   3.752   0.592
 1701SOL    HW122245   2.497   3.789   0.532
 1701SOL    HW222246   2.608   3.828   0.628
 1702SOL     OW22247   4.237   3.998   6.211
 1702SOL    HW122248   4.322   3.960   6.187
 1702SOL    HW222249   4.253   4.036   6.298
 1703SOL     OW22250   5.930   0.484   0.928
 1703SOL    HW122251   5.876   0.452   1.000
 1703SOL    HW222252   5.882   0.560   0.894
 1704SOL     OW22253   1.398   0.007   7.950
 1704SOL    HW122254   1.426  -0.084   7.955
 1704SOL    HW222255   1.310   0.007   7.988
 1705SOL     OW22256   4.277   4.241   5.303
 1705SOL    HW122257   4.338   4.296   5.254
 1705SOL    HW222258   4.269   4.284   5.389
 1706SOL     OW22259   0.221   0.750   1.270
 1706SOL    HW122260   0.158   0.730   1.201
 1706SOL    HW222261   0.171   0.747   1.351
 1707SOL     OW22262   4.823   5.315   6.287
 1707SOL    HW122263   4.776   5.299   6.206
 1707SOL    HW222264   4.915   5.313   6.263
 1708SOL     OW22265   4.019   5.244   2.384
 1708SOL    HW122266   3.974   5.327   2.395
 1708SOL    HW222267   4.100   5.253   2.435
 1709SOL     OW22268   3.150   2.378   7.108
 1709SOL    HW122269   3.116   2.297   7.071
 1709SOL    HW222270   3.203   2.416   7.038
 1710SOL     OW22271   2.211   0.050   7.045
 1710SOL    HW122272   2.278   0.105   7.087
 1710SOL    HW222273   2.128   0.082   7.081
 1711SOL     OW22274   1.209   3.994   7.064
 1711SOL    HW122275   1.120   4.002   7.029
 1711SOL    HW222276   1.265   3.992   6.987
 1712SOL     OW22277   1.966   6.280   6.383
 1712SOL    HW122278   1.945   6.206   6.326
 1712SOL    HW222279   2.037   6.249   6.439
 1713SOL     OW22280   3.920   1.682   0.101
 1713SOL    HW122281   3.886   1.610   0.153
 1713SOL    HW222282   3.887   1.761   0.145
 1714SOL     OW22283   0.133   1.300   7.508
 1714SOL    HW122284   0.066   1.333   7.448
 1714SOL    HW222285   0.214   1.341   7.478
 1715SOL     OW22286   2.800   2.718   7.298
 1715SOL    HW122287   2.837   2.704   7.211
 1715SOL    HW222288   2.779   2.631   7.330
 1716SOL     OW22289   3.392   3.908   6.160
 1716SOL    HW122290   3.384   4.001   6.182
 1716SOL    HW222291   3.354   3.863   6.236
 1717SOL     OW22292   1.683   1.484   0.704
 1717SOL    HW122293   1.767   1.529   0.715
 1717SOL    HW222294   1.623   1.553   0.674
 1718SOL     OW22295   5.793   0.398   0.130
 1718SOL    HW122296   5.806   0.373   0.039
 1718SOL    HW222297   5.749   0.323   0.170
 1719SOL     OW22298   2.611   2.665   0.622
 1719SOL    HW122299   2.652   2.578   0.617
 1719SOL    HW222300   2.631   2.695   0.711
 1720SOL     OW22301   2.169   6.137   0.398
 1720SOL    HW122302   2.118   6.218   0.406
 1720SOL    HW222303   2.204   6.122   0.486
 1721SOL     OW22304   2.406   2.850   6.547
 1721SOL    HW122305   2.474   2.798   6.591
 1721SOL    HW222306   2.455   2.922   6.506
 1722SOL     OW22307   3.598   0.693   5.862
 1722SOL    HW122308   3.693   0.702   5.855
 1722SOL    HW222309   3.566   0.784   5.867
 1723SOL     OW22310   2.285   4.470   7.539
 1723SOL    HW122311   2.255   4.557   7.515
 1723SOL    HW222312   2.238   4.450   7.620
 1724SOL     OW22313   5.063   5.272   1.898
 1724SOL    HW122314   5.070   5.183   1.864
 1724SOL    HW222315   5.139   5.282   1.956
 1725SOL     OW22316   2.308   3.605   1.142
 1725SOL    HW122317   2.346   3.579   1.059
 1725SOL    HW222318   2.263   3.687   1.124
 1726SOL     OW22319   5.850   0.047   2.012
 1726SOL    HW122320   5.942   0.024   2.026
 1726SOL    HW222321   5.813  -0.029   1.965
 1727SOL     OW22322   0.415   2.852   7.853
 1727SOL    HW122323   0.484   2.788   7.876
 1727SOL    HW222324   0.360   2.856   7.932
 1728SOL     OW22325   6.184   1.822   8.039
 1728SOL    HW122326   6.148   1.904   8.074
 1728SOL    HW222327   6.148   1.754   8.097
 1729SOL     OW22328   5.381   5.678   0.905
 1729SOL    HW122329   5.436   5.719   0.972
 1729SOL    HW222330   5.320   5.624   0.954
 1730SOL     OW22331   3.108   0.805   1.282
 1730SOL    HW122332   3.046   0.796   1.210
 1730SOL    HW222333   3.066   0.762   1.356
 1731SOL     OW22334   1.774   3.438   0.389
 1731SOL    HW122335   1.850   3.424   0.447
 1731SOL    HW222336   1.715   3.365   0.408
 1732SOL     OW22337   1.306   0.708   7.389
 1732SOL    HW122338   1.243   0.730   7.458
 1732SOL    HW222339   1.359   0.787   7.379
 1733SOL     OW22340   2.590   2.723   7.052
 1733SOL    HW122341   2.494   2.720   7.054
 1733SOL    HW222342   2.611   2.816   7.045
 1734SOL     OW22343   6.271   3.590   0.865
 1734SOL    HW122344   6.184   3.552   0.862
 1734SOL    HW222345   6.277   3.642   0.785
 1735SOL     OW22346   4.409   5.408   7.170
 1735SOL    HW122347   4.330   5.404   7.223
 1735SOL    HW222348   4.451   5.323   7.184
 1736SOL     OW22349   2.944   5.387   7.837
 1736SOL    HW122350   2.908   5.456   7.783
 1736SOL    HW222351   3.026   5.361   7.793
 1737SOL     OW22352   5.586   2.862   7.081
 1737SOL    HW122353   5.563   2.899   7.166
 1737SOL    HW222354   5.607   2.937   7.027
 1738SOL     OW22355   6.202   2.686   6.622
 1738SOL    HW122356   6.122   2.641   6.648
 1738SOL    HW222357   6.268   2.654   6.683
 1739SOL     OW22358   1.584   0.391   2.152
 1739SOL    HW122359   1.588   0.467   2.211
 1739SOL    HW222360   1.534   0.325   2.201
 1740SOL     OW22361   4.789   2.626   5.938
 1740SOL    HW122362   4.710   2.571   5.944
 1740SOL    HW222363   4.861   2.564   5.935
 1741SOL     OW22364   2.152   1.254   0.535
 1741SOL    HW122365   2.073   1.287   0.493
 1741SOL    HW222366   2.223   1.309   0.501
 1742SOL     OW22367   6.317   5.085   0.512
 1742SOL    HW122368   6.317   5.103   0.606
 1742SOL    HW222369   6.394   5.131   0.479
 1743SOL     OW22370   2.436   3.158   0.890
 1743SOL    HW122371   2.355   3.185   0.846
 1743SOL    HW222372   2.418   3.167   0.983
 1744SOL     OW22373   5.338   2.988   1.574
 1744SOL    HW122374   5.357   2.995   1.481
 1744SOL    HW222375   5.423   2.998   1.617
 1745SOL     OW22376   0.383   2.676   0.675
 1745SOL    HW122377   0.444   2.745   0.648
 1745SOL    HW222378   0.351   2.640   0.593
 1746SOL     OW22379   3.880   2.534   0.468
 1746SOL    HW122380   3.900   2.556   0.558
 1746SOL    HW222381   3.790   2.502   0.470
 1747SOL     OW22382   2.724   2.351   7.915
 1747SOL    HW122383   2.802   2.387   7.872
 1747SOL    HW222384   2.756   2.319   7.999
 1748SOL     OW22385   1.591   4.925   6.906
 1748SOL    HW122386   1.606   4.831   6.917
 1748SOL    HW222387   1.534   4.931   6.829
 1749SOL     OW22388   0.609   4.474   7.070
 1749SOL    HW122389   0.674   4.532   7.030
 1749SOL    HW222390   0.525   4.507   7.040
 1750SOL     OW22391   0.369   2.131   0.387
 1750SOL    HW122392   0.331   2.077   0.317
 1750SOL    HW222393   0.412   2.068   0.445
 1751SOL     OW22394   1.435   0.562   7.986
 1751SOL    HW122395   1.439   0.467   7.985
 1751SOL    HW222396   1.471   0.586   8.072
 1752SOL     OW22397   6.067   4.077   1.147
 1752SOL    HW122398   6.079   3.984   1.162
 1752SOL    HW222399   6.116   4.119   1.218
 1753SOL     OW22400   6.271   2.901   1.033
 1753SOL    HW122401   6.193   2.938   1.074
 1753SOL    HW222402   6.241   2.867   0.949
 1754SOL     OW22403   4.510   5.181   0.224
 1754SOL    HW122404   4.492   5.087   0.226
 1754SOL    HW222405   4.493   5.207   0.134
 1755SOL     OW22406   0.787   3.694   1.379
 1755SOL    HW122407   0.843   3.680   1.303
 1755SOL    HW222408   0.842   3.745   1.440
 1756SOL     OW22409   3.684   1.765   7.243
 1756SOL    HW122410   3.731   1.715   7.176
 1756SOL    HW222411   3.736   1.845   7.253
 1757SOL     OW22412   4.719   1.647   7.388
 1757SOL    HW122413   4.719   1.603   7.473
 1757SOL    HW222414   4.716   1.576   7.325
 1758SOL     OW22415   0.541   0.373   6.997
 1758SOL    HW122416   0.623   0.419   7.015
 1758SOL    HW222417   0.540   0.364   6.902
 1759SOL     OW22418   5.925   3.458   6.303
 1759SOL    HW122419   5.970   3.470   6.219
 1759SOL    HW222420   5.841   3.419   6.280
 1760SOL     OW22421   2.593   3.876   6.913
 1760SOL    HW122422   2.586   3.887   7.008
 1760SOL    HW222423   2.673   3.922   6.889
 1761SOL     OW22424   2.412   4.668   7.840
 1761SOL    HW122425   2.331   4.718   7.846
 1761SOL    HW222426   2.390   4.593   7.785
 1762SOL     OW22427   0.845   0.434   1.155
 1762SOL    HW122428   0.881   0.346   1.145
 1762SOL    HW222429   0.801   0.432   1.241
 1763SOL     OW22430   1.902   3.955   0.058
 1763SOL    HW122431   1.935   3.988  -0.026
 1763SOL    HW222432   1.947   3.872   0.070
 1764SOL     OW22433   0.030   1.939   6.985
 1764SOL    HW122434   0.076   2.023   6.978
 1764SOL    HW222435  -0.023   1.934   6.905
 1765SOL     OW22436   4.148   0.566   5.817
 1765SOL    HW122437   4.188   0.652   5.831
 1765SOL    HW222438   4.161   0.520   5.900
 1766SOL     OW22439   4.604   1.146   0.531
 1766SOL    HW122440   4.615   1.106   0.444
 1766SOL    HW222441   4.592   1.239   0.513
 1767SOL     OW22442   1.661   4.661   5.755
 1767SOL    HW122443   1.632   4.603   5.825
 1767SOL    HW222444   1.660   4.748   5.794
 1768SOL     OW22445   0.591   0.040   2.097
 1768SOL    HW122446   0.574  -0.051   2.071
 1768SOL    HW222447   0.512   0.067   2.142
 1769SOL     OW22448   0.542   2.473   6.308
 1769SOL    HW122449   0.578   2.550   6.265
 1769SOL    HW222450   0.528   2.410   6.237
 1770SOL     OW22451   1.067   3.770   8.027
 1770SOL    HW122452   1.029   3.692   7.986
 1770SOL    HW222453   1.045   3.761   8.120
 1771SOL     OW22454   0.208   5.315   7.731
 1771SOL    HW122455   0.199   5.352   7.819
 1771SOL    HW222456   0.133   5.350   7.683
 1772SOL     OW22457   3.813   5.557   0.829
 1772SOL    HW122458   3.878   5.592   0.769
 1772SOL    HW222459   3.856   5.558   0.914
 1773SOL     OW22460   0.877   3.302   7.178
 1773SOL    HW122461   0.797   3.271   7.134
 1773SOL    HW222462   0.911   3.371   7.120
 1774SOL     OW22463   2.073   2.243   2.478
 1774SOL    HW122464   2.167   2.243   2.496
 1774SOL    HW222465   2.063   2.187   2.401
 1775SOL     OW22466   5.967   2.536   6.702
 1775SOL    HW122467   5.894   2.495   6.655
 1775SOL    HW222468   5.930   2.555   6.789
 1776SOL     OW22469   4.648   4.016   1.414
 1776SOL    HW122470   4.650   3.984   1.324
 1776SOL    HW222471   4.556   4.019   1.437
 1777SOL     OW22472   0.215   4.778   1.420
 1777SOL    HW122473   0.182   4.751   1.506
 1777SOL    HW222474   0.221   4.873   1.426
 1778SOL     OW22475   1.126   4.042   2.493
 1778SOL    HW122476   1.185   4.111   2.463
 1778SOL    HW222477   1.096   4.000   2.413
 1779SOL     OW22478   3.562   2.764   5.934
 1779SOL    HW122479   3.583   2.858   5.939
 1779SOL    HW222480   3.477   2.762   5.889
 1780SOL     OW22481   1.865   1.070   6.324
 1780SOL    HW122482   1.771   1.076   6.307
 1780SOL    HW222483   1.872   1.025   6.408
 1781SOL     OW22484   1.387   2.791   0.097
 1781SOL    HW122485   1.438   2.822   0.023
 1781SOL    HW222486   1.333   2.720   0.060
 1782SOL     OW22487   5.341   5.793   6.470
 1782SOL    HW122488   5.389   5.868   6.505
 1782SOL    HW222489   5.279   5.769   6.538
 1783SOL     OW22490   1.277   6.039   7.205
 1783SOL    HW122491   1.336   6.114   7.206
 1783SOL    HW222492   1.275   6.009   7.296
 1784SOL     OW22493   4.203   0.600   6.972
 1784SOL    HW122494   4.167   0.684   6.941
 1784SOL    HW222495   4.145   0.534   6.934
 1785SOL     OW22496   6.351   3.247   1.254
 1785SOL    HW122497   6.260   3.276   1.264
 1785SOL    HW222498   6.371   3.202   1.336
 1786SOL     OW22499   3.995   4.999   1.852
 1786SOL    HW122500   3.993   4.931   1.919
 1786SOL    HW222501   4.087   5.024   1.845
 1787SOL     OW22502   3.916   0.505   7.163
 1787SOL    HW122503   4.006   0.474   7.172
 1787SOL    HW222504   3.872   0.437   7.112
 1788SOL     OW22505   5.557   0.493   6.089
 1788SOL    HW122506   5.552   0.434   6.014
 1788SOL    HW222507   5.636   0.467   6.135
 1789SOL     OW22508   2.105   4.273   6.355
 1789SOL    HW122509   2.103   4.220   6.275
 1789SOL    HW222510   2.175   4.235   6.407
 1790SOL     OW22511   2.716   3.387   2.407
 1790SOL    HW122512   2.727   3.295   2.434
 1790SOL    HW222513   2.747   3.389   2.317
 1791SOL     OW22514   2.193   1.167   1.869
 1791SOL    HW122515   2.235   1.246   1.833
 1791SOL    HW222516   2.102   1.174   1.842
 1792SOL     OW22517   2.101   5.023   1.004
 1792SOL    HW122518   2.030   5.051   0.947
 1792SOL    HW222519   2.094   4.928   1.007
 1793SOL     OW22520   1.972   0.324   0.646
 1793SOL    HW122521   2.063   0.320   0.615
 1793SOL    HW222522   1.929   0.250   0.603
 1794SOL     OW22523   2.870   0.083   2.397
 1794SOL    HW122524   2.866  -0.006   2.430
 1794SOL    HW222525   2.956   0.088   2.354
 1795SOL     OW22526   1.737   0.730   8.063
 1795SOL    HW122527   1.771   0.726   7.974
 1795SOL    HW222528   1.753   0.643   8.099
 1796SOL     OW22529   5.253   0.066   7.286
 1796SOL    HW122530   5.274   0.154   7.253
 1796SOL    HW222531   5.207   0.082   7.369
 1797SOL     OW22532   3.449   1.394   6.729
 1797SOL    HW122533   3.475   1.474   6.683
 1797SOL    HW222534   3.531   1.345   6.741
 1798SOL     OW22535   3.935   5.208   6.886
 1798SOL    HW122536   3.997   5.179   6.953
 1798SOL    HW222537   3.970   5.292   6.855
 1799SOL     OW22538   0.623   6.332   0.489
 1799SOL    HW122539   0.645   6.399   0.554
 1799SOL    HW222540   0.621   6.250   0.538
 1800SOL     OW22541   0.529   1.417   1.773
 1800SOL    HW122542   0.436   1.424   1.750
 1800SOL    HW222543   0.543   1.486   1.837
 1801SOL     OW22544   2.733   5.576   6.277
 1801SOL    HW122545   2.723   5.584   6.182
 1801SOL    HW222546   2.825   5.597   6.294
 1802SOL     OW22547   0.883   4.965   1.279
 1802SOL    HW122548   0.881   5.050   1.323
 1802SOL    HW222549   0.916   4.905   1.345
 1803SOL     OW22550   4.348   4.190   7.098
 1803SOL    HW122551   4.381   4.273   7.062
 1803SOL    HW222552   4.401   4.123   7.056
 1804SOL     OW22553   0.079   3.480   0.270
 1804SOL    HW122554   0.070   3.567   0.307
 1804SOL    HW222555   0.078   3.494   0.175
 1805SOL     OW22556   2.389   1.014   1.464
 1805SOL    HW122557   2.429   1.042   1.546
 1805SOL    HW222558   2.358   0.925   1.482
 1806SOL     OW22559   2.846   5.770   2.734
 1806SOL    HW122560   2.862   5.844   2.675
 1806SOL    HW222561   2.765   5.792   2.779
 1807SOL     OW22562   4.885   4.425   0.793
 1807SOL    HW122563   4.974   4.393   0.782
 1807SOL    HW222564   4.858   4.450   0.705
 1808SOL     OW22565   5.658   3.342   7.424
 1808SOL    HW122566   5.623   3.375   7.507
 1808SOL    HW222567   5.723   3.408   7.398
 1809SOL     OW22568   1.119   2.208   6.095
 1809SOL    HW122569   1.203   2.165   6.113
 1809SOL    HW222570   1.114   2.278   6.160
 1810SOL     OW22571   3.076   0.827   7.058
 1810SOL    HW122572   3.055   0.751   7.004
 1810SOL    HW222573   3.154   0.801   7.107
 1811SOL     OW22574   2.167   2.470   0.015
 1811SOL    HW122575   2.073   2.483   0.006
 1811SOL    HW222576   2.206   2.538  -0.040
 1812SOL     OW22577   2.371   2.574   6.859
 1812SOL    HW122578   2.429   2.504   6.888
 1812SOL    HW222579   2.418   2.615   6.786
 1813SOL     OW22580   5.957   1.604   0.020
 1813SOL    HW122581   5.959   1.631  -0.072
 1813SOL    HW222582   5.886   1.540   0.024
 1814SOL     OW22583   0.546   3.763   1.765
 1814SOL    HW122584   0.632   3.789   1.799
 1814SOL    HW222585   0.546   3.668   1.774
 1815SOL     OW22586   3.275   5.094   6.472
 1815SOL    HW122587   3.321   5.056   6.546
 1815SOL    HW222588   3.296   5.037   6.398
 1816SOL     OW22589   1.993   3.373   0.559
 1816SOL    HW122590   2.056   3.311   0.524
 1816SOL    HW222591   2.040   3.457   0.562
 1817SOL     OW22592   1.015   3.228   6.594
 1817SOL    HW122593   1.041   3.221   6.502
 1817SOL    HW222594   1.082   3.285   6.633
 1818SOL     OW22595   1.272   3.308   2.000
 1818SOL    HW122596   1.200   3.261   1.957
 1818SOL    HW222597   1.239   3.327   2.087
 1819SOL     OW22598   2.175   4.433   1.337
 1819SOL    HW122599   2.087   4.431   1.376
 1819SOL    HW222600   2.168   4.377   1.260
 1820SOL     OW22601   4.007   5.819   1.144
 1820SOL    HW122602   3.992   5.899   1.095
 1820SOL    HW222603   4.101   5.820   1.165
 1821SOL     OW22604   3.004   0.629   7.739
 1821SOL    HW122605   2.923   0.584   7.715
 1821SOL    HW222606   3.053   0.637   7.658
 1822SOL     OW22607   4.695   5.995   6.034
 1822SOL    HW122608   4.717   6.087   6.045
 1822SOL    HW222609   4.759   5.963   5.970
 1823SOL     OW22610   0.143   4.002   1.633
 1823SOL    HW122611   0.103   4.059   1.699
 1823SOL    HW222612   0.082   3.930   1.623
 1824SOL     OW22613   6.014   3.473   0.891
 1824SOL    HW122614   5.955   3.481   0.816
 1824SOL    HW222615   6.034   3.380   0.896
 1825SOL     OW22616   2.689   0.935   0.724
 1825SOL    HW122617   2.628   0.995   0.680
 1825SOL    HW222618   2.772   0.982   0.724
 1826SOL     OW22619   4.141   0.506   7.968
 1826SOL    HW122620   4.072   0.525   8.031
 1826SOL    HW222621   4.187   0.430   8.004
 1827SOL     OW22622   3.317   6.230   2.423
 1827SOL    HW122623   3.324   6.322   2.398
 1827SOL    HW222624   3.242   6.198   2.375
 1828SOL     OW22625   2.608   4.630   1.803
 1828SOL    HW122626   2.657   4.711   1.815
 1828SOL    HW222627   2.647   4.569   1.866
 1829SOL     OW22628   3.260   3.249   6.788
 1829SOL    HW122629   3.288   3.162   6.816
 1829SOL    HW222630   3.334   3.306   6.808
 1830SOL     OW22631   5.081   4.898   7.018
 1830SOL    HW122632   5.072   4.843   6.940
 1830SOL    HW222633   5.157   4.863   7.064
 1831SOL     OW22634   1.142   4.640   2.216
 1831SOL    HW122635   1.074   4.573   2.210
 1831SOL    HW222636   1.125   4.683   2.300
 1832SOL     OW22637   4.086   1.637   7.524
 1832SOL    HW122638   4.131   1.672   7.601
 1832SOL    HW222639   4.036   1.563   7.557
 1833SOL     OW22640   2.325   2.214   2.522
 1833SOL    HW122641   2.348   2.168   2.441
 1833SOL    HW222642   2.409   2.250   2.554
 1834SOL     OW22643   1.821   4.253   6.279
 1834SOL    HW122644   1.896   4.310   6.298
 1834SOL    HW222645   1.855   4.189   6.217
 1835SOL     OW22646   3.576   1.276   0.269
 1835SOL    HW122647   3.489   1.270   0.230
 1835SOL    HW222648   3.618   1.349   0.223
 1836SOL     OW22649   2.029   5.746   0.452
 1836SOL    HW122650   2.042   5.705   0.366
 1836SOL    HW222651   2.117   5.754   0.489
 1837SOL     OW22652   2.575   1.097   1.674
 1837SOL    HW122653   2.581   1.173   1.732
 1837SOL    HW222654   2.644   1.038   1.705
 1838SOL     OW22655   4.830   3.103   0.498
 1838SOL    HW122656   4.863   3.078   0.584
 1838SOL    HW222657   4.739   3.127   0.514
 1839SOL     OW22658   1.214   0.528   7.053
 1839SOL    HW122659   1.187   0.563   6.968
 1839SOL    HW222660   1.216   0.434   7.041
 1840SOL     OW22661   0.385   1.857   0.855
 1840SOL    HW122662   0.408   1.883   0.945
 1840SOL    HW222663   0.290   1.848   0.857
 1841SOL     OW22664   5.753   4.068   1.187
 1841SOL    HW122665   5.801   4.062   1.105
 1841SOL    HW222666   5.818   4.095   1.252
 1842SOL     OW22667   0.563   5.967   1.628
 1842SOL    HW122668   0.499   6.036   1.610
 1842SOL    HW222669   0.515   5.902   1.680
 1843SOL     OW22670   4.332   2.292   7.977
 1843SOL    HW122671   4.294   2.287   8.065
 1843SOL    HW222672   4.377   2.376   7.975
 1844SOL     OW22673   1.062   6.137   7.071
 1844SOL    HW122674   0.997   6.142   7.141
 1844SOL    HW222675   1.139   6.097   7.112
 1845SOL     OW22676   2.930   2.839   5.288
 1845SOL    HW122677   2.956   2.926   5.317
 1845SOL    HW222678   3.011   2.798   5.258
 1846SOL     OW22679   1.084   1.941   0.557
 1846SOL    HW122680   1.036   1.884   0.497
 1846SOL    HW222681   1.094   2.023   0.509
 1847SOL     OW22682   6.148   3.563   7.647
 1847SOL    HW122683   6.159   3.560   7.552
 1847SOL    HW222684   6.234   3.538   7.682
 1848SOL     OW22685   5.852   3.276   1.054
 1848SOL    HW122686   5.770   3.315   1.024
 1848SOL    HW222687   5.871   3.209   0.990
 1849SOL     OW22688   1.118   4.171   6.634
 1849SOL    HW122689   1.028   4.176   6.602
 1849SOL    HW222690   1.115   4.107   6.705
 1850SOL     OW22691   1.082   2.423   2.924
 1850SOL    HW122692   1.140   2.496   2.946
 1850SOL    HW222693   1.039   2.449   2.843
 1851SOL     OW22694   0.876   0.752   1.475
 1851SOL    HW122695   0.788   0.720   1.492
 1851SOL    HW222696   0.889   0.823   1.538
 1852SOL     OW22697   4.646   4.337   7.546
 1852SOL    HW122698   4.628   4.344   7.640
 1852SOL    HW222699   4.564   4.364   7.504
 1853SOL     OW22700   0.108   6.152   6.162
 1853SOL    HW122701   0.028   6.178   6.208
 1853SOL    HW222702   0.085   6.070   6.118
 1854SOL     OW22703   1.433   3.006   7.524
 1854SOL    HW122704   1.403   3.093   7.494
 1854SOL    HW222705   1.444   3.016   7.618
 1855SOL     OW22706   6.013   3.022   2.289
 1855SOL    HW122707   5.932   2.971   2.286
 1855SOL    HW222708   6.036   3.024   2.381
 1856SOL     OW22709   5.578   3.830   7.725
 1856SOL    HW122710   5.566   3.911   7.774
 1856SOL    HW222711   5.528   3.765   7.774
 1857SOL     OW22712   6.025   2.299   0.103
 1857SOL    HW122713   5.977   2.360   0.160
 1857SOL    HW222714   6.014   2.335   0.015
 1858SOL     OW22715   5.731   0.183   7.535
 1858SOL    HW122716   5.804   0.143   7.581
 1858SOL    HW222717   5.655   0.168   7.591
 1859SOL     OW22718   0.754   0.506   1.915
 1859SOL    HW122719   0.781   0.425   1.958
 1859SOL    HW222720   0.660   0.513   1.934
 1860SOL     OW22721   3.791   2.045   0.911
 1860SOL    HW122722   3.828   2.132   0.921
 1860SOL    HW222723   3.817   1.999   0.991
 1861SOL     OW22724   1.463   1.803   1.177
 1861SOL    HW122725   1.462   1.708   1.166
 1861SOL    HW222726   1.494   1.837   1.093
 1862SOL     OW22727   5.766   5.902   0.022
 1862SOL    HW122728   5.680   5.941   0.027
 1862SOL    HW222729   5.814   5.956  -0.040
 1863SOL     OW22730   3.013   3.119   0.357
 1863SOL    HW122731   2.954   3.104   0.431
 1863SOL    HW222732   2.955   3.127   0.281
 1864SOL     OW22733   2.626   5.150   7.644
 1864SOL    HW122734   2.558   5.184   7.702
 1864SOL    HW222735   2.593   5.065   7.616
 1865SOL     OW22736   0.709   0.857   6.672
 1865SOL    HW122737   0.684   0.773   6.634
 1865SOL    HW222738   0.627   0.905   6.679
 1866SOL     OW22739   3.521   2.232   6.147
 1866SOL    HW122740   3.533   2.139   6.166
 1866SOL    HW222741   3.554   2.243   6.058
 1867SOL     OW22742   1.870   0.905   2.846
 1867SOL    HW122743   1.792   0.958   2.831
 1867SOL    HW222744   1.939   0.969   2.866
 1868SOL     OW22745   3.827   3.891   7.378
 1868SOL    HW122746   3.916   3.857   7.383
 1868SOL    HW222747   3.823   3.956   7.448
 1869SOL     OW22748   3.825   4.555   1.070
 1869SOL    HW122749   3.856   4.532   1.158
 1869SOL    HW222750   3.730   4.567   1.080
 1870SOL     OW22751   1.532   2.644   5.802
 1870SOL    HW122752   1.623   2.657   5.778
 1870SOL    HW222753   1.483   2.697   5.739
 1871SOL     OW22754   3.638   2.554   6.592
 1871SOL    HW122755   3.575   2.509   6.648
 1871SOL    HW222756   3.617   2.524   6.504
 1872SOL     OW22757   3.121   5.184   0.217
 1872SOL    HW122758   3.205   5.190   0.263
 1872SOL    HW222759   3.144   5.183   0.124
 1873SOL     OW22760   4.828   4.526   6.351
 1873SOL    HW122761   4.866   4.474   6.281
 1873SOL    HW222762   4.752   4.568   6.311
 1874SOL     OW22763   5.777   6.061   6.211
 1874SOL    HW122764   5.866   6.092   6.196
 1874SOL    HW222765   5.735   6.070   6.125
 1875SOL     OW22766   3.307   1.320   5.788
 1875SOL    HW122767   3.392   1.286   5.761
 1875SOL    HW222768   3.278   1.261   5.857
 1876SOL     OW22769   1.697   0.256   7.959
 1876SOL    HW122770   1.788   0.283   7.955
 1876SOL    HW222771   1.699   0.161   7.948
 1877SOL     OW22772   5.804   1.812   0.134
 1877SOL    HW122773   5.864   1.870   0.088
 1877SOL    HW222774   5.846   1.726   0.130
 1878SOL     OW22775   2.877   3.007   7.303
 1878SOL    HW122776   2.957   2.996   7.251
 1878SOL    HW222777   2.825   2.929   7.282
 1879SOL     OW22778   0.854   6.150   7.957
 1879SOL    HW122779   0.840   6.110   8.043
 1879SOL    HW222780   0.925   6.100   7.918
 1880SOL     OW22781   1.070   0.805   7.900
 1880SOL    HW122782   1.031   0.724   7.931
 1880SOL    HW222783   1.103   0.848   7.979
 1881SOL     OW22784   3.805   0.257   2.060
 1881SOL    HW122785   3.817   0.202   1.982
 1881SOL    HW222786   3.730   0.218   2.105
 1882SOL     OW22787   2.724   6.122   0.119
 1882SOL    HW122788   2.696   6.207   0.150
 1882SOL    HW222789   2.799   6.141   0.061
 1883SOL     OW22790   4.860   0.514   0.589
 1883SOL    HW122791   4.777   0.467   0.596
 1883SOL    HW222792   4.920   0.451   0.548
 1884SOL     OW22793   1.390   2.999   0.760
 1884SOL    HW122794   1.439   3.033   0.685
 1884SOL    HW222795   1.309   3.050   0.761
 1885SOL     OW22796   6.222   5.921   7.667
 1885SOL    HW122797   6.316   5.906   7.658
 1885SOL    HW222798   6.215   6.009   7.702
 1886SOL     OW22799   1.878   1.706   0.324
 1886SOL    HW122800   1.831   1.702   0.407
 1886SOL    HW222801   1.889   1.800   0.308
 1887SOL     OW22802   4.583   1.137   6.796
 1887SOL    HW122803   4.545   1.112   6.880
 1887SOL    HW222804   4.516   1.114   6.731
 1888SOL     OW22805   3.185   1.905   1.436
 1888SOL    HW122806   3.164   1.876   1.525
 1888SOL    HW222807   3.102   1.901   1.389
 1889SOL     OW22808   6.145   1.477   6.156
 1889SOL    HW122809   6.125   1.388   6.183
 1889SOL    HW222810   6.233   1.472   6.120
 1890SOL     OW22811   1.139   3.275   7.709
 1890SOL    HW122812   1.152   3.311   7.797
 1890SOL    HW222813   1.177   3.187   7.713
 1891SOL     OW22814   6.317   0.782   7.524
 1891SOL    HW122815   6.374   0.709   7.547
 1891SOL    HW222816   6.243   0.741   7.479
 1892SOL     OW22817   4.260   3.539   0.629
 1892SOL    HW122818   4.221   3.607   0.684
 1892SOL    HW222819   4.213   3.459   0.651
 1893SOL     OW22820   2.450   3.230   2.296
 1893SOL    HW122821   2.355   3.233   2.281
 1893SOL    HW222822   2.460   3.183   2.379
 1894SOL     OW22823   2.061   1.993   7.653
 1894SOL    HW122824   1.989   2.023   7.709
 1894SOL    HW222825   2.026   1.999   7.564
 1895SOL     OW22826   3.071   5.790   6.940
 1895SOL    HW122827   3.158   5.830   6.940
 1895SOL    HW222828   3.077   5.719   6.876
 1896SOL     OW22829   2.504   3.636   0.192
 1896SOL    HW122830   2.519   3.696   0.119
 1896SOL    HW222831   2.460   3.561   0.153
 1897SOL     OW22832   3.776   5.024   1.700
 1897SOL    HW122833   3.703   5.064   1.747
 1897SOL    HW222834   3.853   5.047   1.753
 1898SOL     OW22835   0.412   4.277   6.442
 1898SOL    HW122836   0.436   4.274   6.534
 1898SOL    HW222837   0.317   4.290   6.442
 1899SOL     OW22838   6.230   5.093   7.140
 1899SOL    HW122839   6.281   5.096   7.221
 1899SOL    HW222840   6.152   5.146   7.159
 1900SOL     OW22841   1.825   0.079   1.623
 1900SOL    HW122842   1.791   0.159   1.583
 1900SOL    HW222843   1.823   0.014   1.553
 1901SOL     OW22844   2.548   4.924   6.627
 1901SOL    HW122845   2.561   5.007   6.582
 1901SOL    HW222846   2.552   4.859   6.557
 1902SOL     OW22847   0.726   5.109   7.258
 1902SOL    HW122848   0.667   5.176   7.223
 1902SOL    HW222849   0.785   5.158   7.316
 1903SOL     OW22850   5.395   1.819   1.640
 1903SOL    HW122851   5.401   1.795   1.548
 1903SOL    HW222852   5.302   1.837   1.655
 1904SOL     OW22853   6.030   5.767   0.874
 1904SOL    HW122854   6.087   5.690   0.883
 1904SOL    HW222855   6.034   5.808   0.960
 1905SOL     OW22856   3.379   0.131   6.181
 1905SOL    HW122857   3.366   0.176   6.097
 1905SOL    HW222858   3.358   0.039   6.162
 1906SOL     OW22859   0.371   4.186   2.447
 1906SOL    HW122860   0.449   4.191   2.502
 1906SOL    HW222861   0.369   4.095   2.416
 1907SOL     OW22862   6.321   4.503   6.645
 1907SOL    HW122863   6.230   4.535   6.649
 1907SOL    HW222864   6.342   4.504   6.551
 1908SOL     OW22865   5.408   0.259   0.962
 1908SOL    HW122866   5.456   0.202   0.902
 1908SOL    HW222867   5.373   0.328   0.906
 1909SOL     OW22868   2.530   3.057   1.907
 1909SOL    HW122869   2.540   3.082   1.815
 1909SOL    HW222870   2.571   3.129   1.956
 1910SOL     OW22871   6.188   3.363   0.371
 1910SOL    HW122872   6.260   3.358   0.434
 1910SOL    HW222873   6.231   3.377   0.286
 1911SOL     OW22874   1.682   0.982   0.914
 1911SOL    HW122875   1.617   1.016   0.853
 1911SOL    HW222876   1.639   0.905   0.954
 1912SOL     OW22877   2.852   1.850   0.556
 1912SOL    HW122878   2.907   1.873   0.631
 1912SOL    HW222879   2.814   1.765   0.580
 1913SOL     OW22880   2.753   1.088   7.046
 1913SOL    HW122881   2.756   1.118   7.137
 1913SOL    HW222882   2.806   1.152   6.998
 1914SOL     OW22883   5.045   2.615   1.089
 1914SOL    HW122884   5.116   2.641   1.149
 1914SOL    HW222885   5.078   2.637   1.002
 1915SOL     OW22886   3.507   4.801   0.544
 1915SOL    HW122887   3.423   4.757   0.555
 1915SOL    HW222888   3.568   4.731   0.523
 1916SOL     OW22889   5.293   1.075   0.731
 1916SOL    HW122890   5.368   1.017   0.724
 1916SOL    HW222891   5.269   1.072   0.824
 1917SOL     OW22892   0.224   5.206   8.047
 1917SOL    HW122893   0.314   5.233   8.064
 1917SOL    HW222894   0.179   5.288   8.025
 1918SOL     OW22895   0.926   4.432   0.430
 1918SOL    HW122896   0.864   4.363   0.456
 1918SOL    HW222897   0.979   4.392   0.361
 1919SOL     OW22898   1.547   4.708   7.436
 1919SOL    HW122899   1.466   4.708   7.488
 1919SOL    HW222900   1.520   4.739   7.350
 1920SOL     OW22901   3.827   1.003   6.521
 1920SOL    HW122902   3.865   0.974   6.604
 1920SOL    HW222903   3.793   0.923   6.481
 1921SOL     OW22904   6.161   1.413   8.013
 1921SOL    HW122905   6.087   1.467   7.985
 1921SOL    HW222906   6.147   1.329   7.970
 1922SOL     OW22907   1.224   3.354   6.750
 1922SOL    HW122908   1.296   3.291   6.741
 1922SOL    HW222909   1.253   3.430   6.699
 1923SOL     OW22910   1.715   1.342   5.833
 1923SOL    HW122911   1.632   1.388   5.842
 1923SOL    HW222912   1.782   1.408   5.853
 1924SOL     OW22913   0.822   6.032   6.606
 1924SOL    HW122914   0.898   5.977   6.588
 1924SOL    HW222915   0.755   6.000   6.545
 1925SOL     OW22916   3.481   4.325   7.934
 1925SOL    HW122917   3.520   4.397   7.885
 1925SOL    HW222918   3.411   4.293   7.878
 1926SOL     OW22919   0.160   3.989   6.498
 1926SOL    HW122920   0.163   3.944   6.583
 1926SOL    HW222921   0.151   4.082   6.522
 1927SOL     OW22922   2.911   5.795   5.481
 1927SOL    HW122923   2.862   5.713   5.476
 1927SOL    HW222924   2.912   5.828   5.391
 1928SOL     OW22925   0.878   1.254   7.858
 1928SOL    HW122926   0.877   1.172   7.809
 1928SOL    HW222927   0.889   1.321   7.790
 1929SOL     OW22928   3.519   2.673   6.968
 1929SOL    HW122929   3.606   2.649   7.001
 1929SOL    HW222930   3.497   2.752   7.017
 1930SOL     OW22931   5.140   2.635   7.919
 1930SOL    HW122932   5.156   2.709   7.978
 1930SOL    HW222933   5.081   2.670   7.853
 1931SOL     OW22934   5.206   3.733   7.295
 1931SOL    HW122935   5.210   3.813   7.348
 1931SOL    HW222936   5.278   3.679   7.327
 1932SOL     OW22937   1.749   3.200   1.171
 1932SOL    HW122938   1.679   3.146   1.136
 1932SOL    HW222939   1.791   3.145   1.238
 1933SOL     OW22940   6.313   1.652   7.427
 1933SOL    HW122941   6.400   1.678   7.458
 1933SOL    HW222942   6.296   1.709   7.353
 1934SOL     OW22943   0.204   4.027   0.259
 1934SOL    HW122944   0.174   4.007   0.171
 1934SOL    HW222945   0.143   4.094   0.291
 1935SOL     OW22946   1.584   5.019   1.799
 1935SOL    HW122947   1.509   4.979   1.755
 1935SOL    HW222948   1.647   5.037   1.729
 1936SOL     OW22949   1.013   1.914   7.065
 1936SOL    HW122950   0.943   1.867   7.112
 1936SOL    HW222951   1.006   2.004   7.097
 1937SOL     OW22952   2.960   4.723   5.740
 1937SOL    HW122953   2.882   4.668   5.734
 1937SOL    HW222954   2.926   4.810   5.759
 1938SOL     OW22955   0.912   5.589   7.094
 1938SOL    HW122956   0.942   5.680   7.101
 1938SOL    HW222957   0.829   5.587   7.142
 1939SOL     OW22958   5.708   3.512   1.702
 1939SOL    HW122959   5.749   3.554   1.626
 1939SOL    HW222960   5.659   3.438   1.665
 1940SOL     OW22961   5.367   4.658   6.809
 1940SOL    HW122962   5.282   4.618   6.792
 1940SOL    HW222963   5.431   4.595   6.777
 1941SOL     OW22964   2.593   3.130   6.821
 1941SOL    HW122965   2.653   3.173   6.761
 1941SOL    HW222966   2.506   3.153   6.788
 1942SOL     OW22967   2.381   1.743   7.966
 1942SOL    HW122968   2.473   1.763   7.947
 1942SOL    HW222969   2.383   1.658   8.009
 1943SOL     OW22970   3.890   2.889   2.277
 1943SOL    HW122971   3.892   2.838   2.196
 1943SOL    HW222972   3.912   2.826   2.345
 1944SOL     OW22973   4.124   2.344   1.804
 1944SOL    HW122974   4.103   2.437   1.798
 1944SOL    HW222975   4.041   2.302   1.826
 1945SOL     OW22976   3.397   2.761   6.658
 1945SOL    HW122977   3.458   2.784   6.588
 1945SOL    HW222978   3.452   2.724   6.726
 1946SOL     OW22979   0.643   3.978   6.470
 1946SOL    HW122980   0.576   3.911   6.486
 1946SOL    HW222981   0.658   3.974   6.376
 1947SOL     OW22982   3.756   5.820   1.510
 1947SOL    HW122983   3.760   5.897   1.566
 1947SOL    HW222984   3.671   5.780   1.529
 1948SOL     OW22985   2.333   0.216   0.649
 1948SOL    HW122986   2.297   0.201   0.736
 1948SOL    HW222987   2.425   0.190   0.657
 1949SOL     OW22988   0.064   5.374   1.585
 1949SOL    HW122989   0.089   5.421   1.664
 1949SOL    HW222990   0.117   5.295   1.585
 1950SOL     OW22991   5.494   0.273   7.969
 1950SOL    HW122992   5.500   0.195   8.022
 1950SOL    HW222993   5.417   0.319   8.002
 1951SOL     OW22994   6.084   2.557   7.567
 1951SOL    HW122995   6.002   2.508   7.558
 1951SOL    HW222996   6.124   2.554   7.480
 1952SOL     OW22997   3.376   3.850   5.830
 1952SOL    HW122998   3.397   3.941   5.808
 1952SOL    HW222999   3.294   3.833   5.783
 1953SOL     OW23000   3.622   3.642   6.886
 1953SOL    HW123001   3.606   3.657   6.793
 1953SOL    HW223002   3.714   3.663   6.900
 1954SOL     OW23003   5.664   0.396   2.476
 1954SOL    HW123004   5.643   0.305   2.455
 1954SOL    HW223005   5.736   0.418   2.416
 1955SOL     OW23006   4.887   3.561   0.139
 1955SOL    HW123007   4.949   3.505   0.093
 1955SOL    HW223008   4.804   3.513   0.134
 1956SOL     OW23009   3.408   5.061   0.442
 1956SOL    HW123010   3.456   4.982   0.467
 1956SOL    HW223011   3.316   5.036   0.448
 1957SOL     OW23012   1.341   3.907   7.628
 1957SOL    HW123013   1.372   3.885   7.540
 1957SOL    HW223014   1.288   3.985   7.616
 1958SOL     OW23015   4.120   5.838   8.068
 1958SOL    HW123016   4.123   5.887   7.987
 1958SOL    HW223017   4.188   5.771   8.059
 1959SOL     OW23018   3.128   1.897   7.903
 1959SOL    HW123019   3.167   1.921   7.818
 1959SOL    HW223020   3.134   1.978   7.955
 1960SOL     OW23021   3.549   4.978   1.088
 1960SOL    HW123022   3.454   4.986   1.079
 1960SOL    HW223023   3.565   4.995   1.181
 1961SOL     OW23024   2.762   0.448   6.894
 1961SOL    HW123025   2.701   0.402   6.953
 1961SOL    HW223026   2.712   0.523   6.862
 1962SOL     OW23027   5.987   2.420   7.887
 1962SOL    HW123028   6.041   2.494   7.915
 1962SOL    HW223029   5.908   2.460   7.850
 1963SOL     OW23030   6.209   0.044   0.318
 1963SOL    HW123031   6.127   0.060   0.366
 1963SOL    HW223032   6.275   0.034   0.387
 1964SOL     OW23033   1.265   0.902   1.317
 1964SOL    HW123034   1.209   0.842   1.268
 1964SOL    HW223035   1.235   0.989   1.292
 1965SOL     OW23036   2.481   5.188   0.834
 1965SOL    HW123037   2.558   5.237   0.808
 1965SOL    HW223038   2.512   5.129   0.903
 1966SOL     OW23039   1.826   5.941   1.324
 1966SOL    HW123040   1.767   5.917   1.253
 1966SOL    HW223041   1.872   5.860   1.346
 1967SOL     OW23042   2.423   6.317   6.881
 1967SOL    HW123043   2.436   6.223   6.867
 1967SOL    HW223044   2.339   6.323   6.925
 1968SOL     OW23045   3.886   1.177   7.970
 1968SOL    HW123046   3.822   1.233   7.925
 1968SOL    HW223047   3.832   1.112   8.015
 1969SOL     OW23048   2.014   0.677   6.142
 1969SOL    HW123049   2.047   0.607   6.199
 1969SOL    HW223050   1.940   0.715   6.191
 1970SOL     OW23051   0.329   1.001   7.961
 1970SOL    HW123052   0.322   1.079   8.016
 1970SOL    HW223053   0.263   1.014   7.893
 1971SOL     OW23054   0.901   4.361   1.375
 1971SOL    HW123055   0.933   4.445   1.344
 1971SOL    HW223056   0.913   4.364   1.470
 1972SOL     OW23057   6.266   4.342   0.056
 1972SOL    HW123058   6.350   4.390   0.060
 1972SOL    HW223059   6.289   4.257   0.019
 1973SOL     OW23060   3.635   3.969   1.931
 1973SOL    HW123061   3.629   4.053   1.886
 1973SOL    HW223062   3.557   3.965   1.986
 1974SOL     OW23063   4.620   0.601   1.656
 1974SOL    HW123064   4.545   0.632   1.607
 1974SOL    HW223065   4.583   0.545   1.725
 1975SOL     OW23066   2.678   0.934   1.961
 1975SOL    HW123067   2.613   1.003   1.975
 1975SOL    HW223068   2.628   0.852   1.966
 1976SOL     OW23069   2.152   2.574   1.640
 1976SOL    HW123070   2.161   2.492   1.688
 1976SOL    HW223071   2.072   2.564   1.589
 1977SOL     OW23072   4.496   4.913   0.222
 1977SOL    HW123073   4.467   4.840   0.276
 1977SOL    HW223074   4.514   4.874   0.137
 1978SOL     OW23075   3.744   5.835   0.711
 1978SOL    HW123076   3.691   5.847   0.790
 1978SOL    HW223077   3.730   5.743   0.686
 1979SOL     OW23078   1.735   0.523   1.966
 1979SOL    HW123079   1.699   0.474   2.040
 1979SOL    HW223080   1.686   0.605   1.966
 1980SOL     OW23081   0.452   4.565   0.845
 1980SOL    HW123082   0.451   4.493   0.909
 1980SOL    HW223083   0.542   4.566   0.813
 1981SOL     OW23084   3.406   3.909   2.089
 1981SOL    HW123085   3.343   3.948   2.028
 1981SOL    HW223086   3.362   3.912   2.174
 1982SOL     OW23087   1.734   4.095   0.245
 1982SOL    HW123088   1.725   4.024   0.309
 1982SOL    HW223089   1.784   4.056   0.173
 1983SOL     OW23090   3.878   1.648   0.393
 1983SOL    HW123091   3.973   1.647   0.397
 1983SOL    HW223092   3.851   1.678   0.480
 1984SOL     OW23093   5.340   0.772   1.906
 1984SOL    HW123094   5.295   0.852   1.879
 1984SOL    HW223095   5.383   0.796   1.988
 1985SOL     OW23096   2.522   5.782   7.519
 1985SOL    HW123097   2.583   5.835   7.468
 1985SOL    HW223098   2.549   5.795   7.610
 1986SOL     OW23099   3.770   1.165   7.444
 1986SOL    HW123100   3.780   1.110   7.366
 1986SOL    HW223101   3.859   1.179   7.475
 1987SOL     OW23102   0.335   1.437   7.765
 1987SOL    HW123103   0.391   1.385   7.707
 1987SOL    HW223104   0.256   1.383   7.776
 1988SOL     OW23105   5.188   4.650   0.466
 1988SOL    HW123106   5.137   4.570   0.457
 1988SOL    HW223107   5.125   4.715   0.497
 1989SOL     OW23108   5.889   1.039   7.993
 1989SOL    HW123109   5.818   0.991   8.035
 1989SOL    HW223110   5.967   1.011   8.039
 1990SOL     OW23111   0.838   1.188   1.112
 1990SOL    HW123112   0.863   1.140   1.191
 1990SOL    HW223113   0.743   1.177   1.105
 1991SOL     OW23114   1.319   5.209   0.685
 1991SOL    HW123115   1.406   5.215   0.644
 1991SOL    HW223116   1.266   5.161   0.621
 1992SOL     OW23117   5.592   5.189   7.197
 1992SOL    HW123118   5.516   5.233   7.157
 1992SOL    HW223119   5.608   5.238   7.277
 1993SOL     OW23120   3.699   4.171   0.171
 1993SOL    HW123121   3.635   4.101   0.185
 1993SOL    HW223122   3.712   4.208   0.258
 1994SOL     OW23123   6.167   0.562   6.754
 1994SOL    HW123124   6.074   0.556   6.733
 1994SOL    HW223125   6.199   0.635   6.701
 1995SOL     OW23126   5.947   0.322   2.068
 1995SOL    HW123127   5.901   0.239   2.057
 1995SOL    HW223128   5.941   0.364   1.982
 1996SOL     OW23129   0.689   4.112   0.879
 1996SOL    HW123130   0.601   4.144   0.858
 1996SOL    HW223131   0.676   4.019   0.899
 1997SOL     OW23132   0.254   2.982   6.985
 1997SOL    HW123133   0.217   3.048   7.044
 1997SOL    HW223134   0.274   3.029   6.904
 1998SOL     OW23135   4.420  -0.004   6.748
 1998SOL    HW123136   4.420   0.038   6.662
 1998SOL    HW223137   4.428   0.068   6.810
 1999SOL     OW23138   4.998   0.358   0.824
 1999SOL    HW123139   4.947   0.333   0.901
 1999SOL    HW223140   4.958   0.439   0.793
 2000SOL     OW23141   5.717   6.121   0.345
 2000SOL    HW123142   5.643   6.161   0.392
 2000SOL    HW223143   5.678   6.048   0.297
 2001SOL     OW23144   1.107   1.865   7.456
 2001SOL    HW123145   1.076   1.792   7.402
 2001SOL    HW223146   1.199   1.876   7.431
 2002SOL     OW23147   2.838   3.791   1.221
 2002SOL    HW123148   2.923   3.834   1.220
 2002SOL    HW223149   2.818   3.780   1.314
 2003SOL     OW23150   1.599   1.962   7.867
 2003SOL    HW123151   1.598   1.867   7.878
 2003SOL    HW223152   1.533   1.979   7.800
 2004SOL     OW23153   5.967   6.057   0.252
 2004SOL    HW123154   5.973   5.967   0.281
 2004SOL    HW223155   5.884   6.089   0.288
 2005SOL     OW23156   2.509   1.237   7.723
 2005SOL    HW123157   2.459   1.303   7.674
 2005SOL    HW223158   2.468   1.235   7.809
 2006SOL     OW23159   3.608   1.941   5.431
 2006SOL    HW123160   3.704   1.945   5.440
 2006SOL    HW223161   3.586   2.021   5.382
 2007SOL     OW23162   3.315   1.642   1.439
 2007SOL    HW123163   3.271   1.574   1.388
 2007SOL    HW223164   3.315   1.719   1.382
 2008SOL     OW23165   2.150   2.302   7.276
 2008SOL    HW123166   2.083   2.263   7.220
 2008SOL    HW223167   2.194   2.227   7.317
 2009SOL     OW23168   4.071   6.285   0.356
 2009SOL    HW123169   3.984   6.247   0.361
 2009SOL    HW223170   4.100   6.292   0.447
 2010SOL     OW23171   2.052   0.856   7.817
 2010SOL    HW123172   2.023   0.773   7.854
 2010SOL    HW223173   1.974   0.893   7.777
 2011SOL     OW23174   4.803   4.764   5.572
 2011SOL    HW123175   4.720   4.721   5.587
 2011SOL    HW223176   4.842   4.774   5.659
 2012SOL     OW23177   5.018   1.028   1.625
 2012SOL    HW123178   5.006   0.994   1.713
 2012SOL    HW223179   5.007   0.952   1.568
 2013SOL     OW23180   2.112   0.939   1.668
 2013SOL    HW123181   2.189   0.892   1.633
 2013SOL    HW223182   2.114   1.024   1.625
 2014SOL     OW23183   5.114   6.183   2.254
 2014SOL    HW123184   5.041   6.243   2.238
 2014SOL    HW223185   5.169   6.228   2.318
 2015SOL     OW23186   6.322   0.700   0.531
 2015SOL    HW123187   6.267   0.699   0.609
 2015SOL    HW223188   6.304   0.785   0.490
 2016SOL     OW23189   6.328   1.596   7.839
 2016SOL    HW123190   6.415   1.631   7.860
 2016SOL    HW223191   6.307   1.539   7.913
 2017SOL     OW23192   5.695   1.024   2.166
 2017SOL    HW123193   5.711   1.108   2.210
 2017SOL    HW223194   5.650   1.047   2.085
 2018SOL     OW23195   5.038   0.045   0.856
 2018SOL    HW123196   4.992  -0.032   0.889
 2018SOL    HW223197   4.970   0.110   0.842
 2019SOL     OW23198   5.704   0.590   7.896
 2019SOL    HW123199   5.796   0.614   7.889
 2019SOL    HW223200   5.701   0.520   7.961
 2020SOL     OW23201   2.021   4.004   0.534
 2020SOL    HW123202   1.933   3.969   0.539
 2020SOL    HW223203   2.010   4.099   0.545
 2021SOL     OW23204   6.025   2.237   1.246
 2021SOL    HW123205   5.936   2.204   1.240
 2021SOL    HW223206   6.028   2.311   1.186
 2022SOL     OW23207   3.438   2.765   1.158
 2022SOL    HW123208   3.500   2.695   1.139
 2022SOL    HW223209   3.433   2.816   1.078
 2023SOL     OW23210   1.220   3.669   6.922
 2023SOL    HW123211   1.228   3.728   6.847
 2023SOL    HW223212   1.126   3.652   6.930
 2024SOL     OW23213   5.009   3.003   6.327
 2024SOL    HW123214   4.966   2.988   6.411
 2024SOL    HW223215   5.087   2.949   6.329
 2025SOL     OW23216   6.224   4.380   0.515
 2025SOL    HW123217   6.179   4.370   0.431
 2025SOL    HW223218   6.312   4.408   0.491
 2026SOL     OW23219   2.473   3.480   7.393
 2026SOL    HW123220   2.518   3.457   7.474
 2026SOL    HW223221   2.380   3.467   7.413
 2027SOL     OW23222   2.872   2.542   7.757
 2027SOL    HW123223   2.893   2.604   7.686
 2027SOL    HW223224   2.874   2.596   7.836
 2028SOL     OW23225   3.784   2.648   7.020
 2028SOL    HW123226   3.865   2.671   6.975
 2028SOL    HW223227   3.809   2.640   7.112
 2029SOL     OW23228   2.126   0.702   0.853
 2029SOL    HW123229   2.174   0.770   0.900
 2029SOL    HW223230   2.185   0.627   0.851
 2030SOL     OW23231   3.094   0.898   0.427
 2030SOL    HW123232   3.082   0.906   0.332
 2030SOL    HW223233   3.021   0.842   0.455
 2031SOL     OW23234   1.132   4.758   1.285
 2031SOL    HW123235   1.156   4.730   1.197
 2031SOL    HW223236   1.178   4.698   1.344
 2032SOL     OW23237   5.722   0.855   2.353
 2032SOL    HW123238   5.815   0.867   2.372
 2032SOL    HW223239   5.704   0.916   2.281
 2033SOL     OW23240   3.566   1.406   1.746
 2033SOL    HW123241   3.571   1.501   1.739
 2033SOL    HW223242   3.487   1.383   1.696
 2034SOL     OW23243   6.251   0.301   6.766
 2034SOL    HW123244   6.226   0.277   6.856
 2034SOL    HW223245   6.238   0.396   6.762
 2035SOL     OW23246   1.791   0.736   6.310
 2035SOL    HW123247   1.727   0.725   6.239
 2035SOL    HW223248   1.738   0.760   6.386
 2036SOL     OW23249   2.640   4.162   7.387
 2036SOL    HW123250   2.570   4.208   7.340
 2036SOL    HW223251   2.692   4.232   7.426
 2037SOL     OW23252   1.184   2.134   0.361
 2037SOL    HW123253   1.236   2.091   0.294
 2037SOL    HW223254   1.102   2.156   0.318
 2038SOL     OW23255   2.169   6.265   7.397
 2038SOL    HW123256   2.089   6.313   7.419
 2038SOL    HW223257   2.240   6.323   7.422
 2039SOL     OW23258   1.003   2.507   6.798
 2039SOL    HW123259   1.049   2.586   6.826
 2039SOL    HW223260   0.930   2.499   6.859
 2040SOL     OW23261   0.833   2.875   2.023
 2040SOL    HW123262   0.852   2.940   2.091
 2040SOL    HW223263   0.912   2.821   2.018
 2041SOL     OW23264   1.810   2.246   2.668
 2041SOL    HW123265   1.900   2.221   2.690
 2041SOL    HW223266   1.813   2.341   2.658
 2042SOL     OW23267   3.353   4.642   0.881
 2042SOL    HW123268   3.344   4.656   0.787
 2042SOL    HW223269   3.321   4.723   0.920
 2043SOL     OW23270   1.725   4.490   7.852
 2043SOL    HW123271   1.785   4.461   7.784
 2043SOL    HW223272   1.640   4.494   7.809
 2044SOL     OW23273   2.685   4.471   2.170
 2044SOL    HW123274   2.623   4.543   2.159
 2044SOL    HW223275   2.654   4.423   2.247
 2045SOL     OW23276   1.935   3.231   7.713
 2045SOL    HW123277   1.846   3.199   7.701
 2045SOL    HW223278   1.925   3.319   7.748
 2046SOL     OW23279   1.367   5.255   2.061
 2046SOL    HW123280   1.451   5.234   2.022
 2046SOL    HW223281   1.360   5.350   2.053
 2047SOL     OW23282   0.588   2.226   0.971
 2047SOL    HW123283   0.551   2.259   0.890
 2047SOL    HW223284   0.631   2.144   0.947
 2048SOL     OW23285   4.852   1.108   2.454
 2048SOL    HW123286   4.853   1.081   2.362
 2048SOL    HW223287   4.887   1.197   2.453
 2049SOL     OW23288   1.387   5.613   1.014
 2049SOL    HW123289   1.461   5.557   1.040
 2049SOL    HW223290   1.355   5.573   0.934
 2050SOL     OW23291   1.987   2.669   7.173
 2050SOL    HW123292   2.014   2.716   7.252
 2050SOL    HW223293   2.053   2.601   7.162
 2051SOL     OW23294   2.166   1.072   0.340
 2051SOL    HW123295   2.171   1.095   0.433
 2051SOL    HW223296   2.077   1.039   0.329
 2052SOL     OW23297   3.312   1.698   0.577
 2052SOL    HW123298   3.313   1.791   0.555
 2052SOL    HW223299   3.241   1.662   0.524
 2053SOL     OW23300   3.180   3.112   8.061
 2053SOL    HW123301   3.144   3.126   7.973
 2053SOL    HW223302   3.173   3.197   8.103
 2054SOL     OW23303   0.940   4.451   2.034
 2054SOL    HW123304   0.869   4.490   1.982
 2054SOL    HW223305   0.895   4.405   2.105
 2055SOL     OW23306   1.080   4.156   7.937
 2055SOL    HW123307   1.027   4.205   8.000
 2055SOL    HW223308   1.167   4.194   7.944
 2056SOL     OW23309   3.009   0.562   6.921
 2056SOL    HW123310   3.077   0.498   6.901
 2056SOL    HW223311   2.927   0.514   6.913
 2057SOL     OW23312   3.749   6.216   0.152
 2057SOL    HW123313   3.747   6.255   0.065
 2057SOL    HW223314   3.794   6.132   0.140
 2058SOL     OW23315   4.972   5.592   2.845
 2058SOL    HW123316   4.939   5.503   2.834
 2058SOL    HW223317   4.897   5.648   2.822
 2059SOL     OW23318   3.830   4.731   0.704
 2059SOL    HW123319   3.755   4.775   0.744
 2059SOL    HW223320   3.883   4.702   0.778
 2060SOL     OW23321   1.044   5.301   0.352
 2060SOL    HW123322   1.062   5.220   0.400
 2060SOL    HW223323   1.041   5.369   0.419
 2061SOL     OW23324   5.841   5.760   6.529
 2061SOL    HW123325   5.882   5.735   6.612
 2061SOL    HW223326   5.750   5.779   6.552
 2062SOL     OW23327   4.405   2.333   0.548
 2062SOL    HW123328   4.369   2.254   0.507
 2062SOL    HW223329   4.410   2.311   0.641
 2063SOL     OW23330   4.419   2.223   6.725
 2063SOL    HW123331   4.433   2.162   6.652
 2063SOL    HW223332   4.507   2.238   6.761
 2064SOL     OW23333   1.717   5.389   6.274
 2064SOL    HW123334   1.720   5.293   6.273
 2064SOL    HW223335   1.684   5.413   6.188
 2065SOL     OW23336   3.016   0.457   6.292
 2065SOL    HW123337   2.942   0.455   6.232
 2065SOL    HW223338   3.066   0.379   6.272
 2066SOL     OW23339   1.759   1.066   1.566
 2066SOL    HW123340   1.825   1.011   1.523
 2066SOL    HW223341   1.711   1.005   1.622
 2067SOL     OW23342   1.499   3.690   2.119
 2067SOL    HW123343   1.528   3.781   2.119
 2067SOL    HW223344   1.463   3.675   2.206
 2068SOL     OW23345   2.595   5.135   1.715
 2068SOL    HW123346   2.661   5.136   1.785
 2068SOL    HW223347   2.615   5.213   1.663
 2069SOL     OW23348   4.880   4.490   7.499
 2069SOL    HW123349   4.811   4.426   7.517
 2069SOL    HW223350   4.836   4.562   7.453
 2070SOL     OW23351   4.545   0.448   1.869
 2070SOL    HW123352   4.465   0.436   1.818
 2070SOL    HW223353   4.519   0.429   1.959
 2071SOL     OW23354   1.772   3.840   0.414
 2071SOL    HW123355   1.765   3.771   0.349
 2071SOL    HW223356   1.781   3.794   0.498
 2072SOL     OW23357   3.383   0.116   0.994
 2072SOL    HW123358   3.346   0.204   1.007
 2072SOL    HW223359   3.447   0.106   1.064
 2073SOL     OW23360   6.150   2.355   0.801
 2073SOL    HW123361   6.066   2.378   0.760
 2073SOL    HW223362   6.186   2.287   0.745
 2074SOL     OW23363   3.317   3.409   2.102
 2074SOL    HW123364   3.224   3.407   2.124
 2074SOL    HW223365   3.331   3.498   2.068
 2075SOL     OW23366   1.135   4.301   0.788
 2075SOL    HW123367   1.141   4.207   0.806
 2075SOL    HW223368   1.052   4.327   0.830
 2076SOL     OW23369   1.950   2.084   0.568
 2076SOL    HW123370   1.984   2.172   0.555
 2076SOL    HW223371   2.025   2.034   0.601
 2077SOL     OW23372   4.685   2.196   7.493
 2077SOL    HW123373   4.779   2.206   7.484
 2077SOL    HW223374   4.670   2.192   7.587
 2078SOL     OW23375   6.047   5.253   7.267
 2078SOL    HW123376   5.989   5.302   7.209
 2078SOL    HW223377   5.991   5.224   7.338
 2079SOL     OW23378   4.544   2.880   7.842
 2079SOL    HW123379   4.538   2.885   7.747
 2079SOL    HW223380   4.626   2.833   7.858
 2080SOL     OW23381   2.661   3.959   7.188
 2080SOL    HW123382   2.756   3.949   7.191
 2080SOL    HW223383   2.641   4.028   7.252
 2081SOL     OW23384   4.111   3.672   5.383
 2081SOL    HW123385   4.071   3.757   5.365
 2081SOL    HW223386   4.204   3.685   5.362
 2082SOL     OW23387   4.077   0.347   6.232
 2082SOL    HW123388   3.991   0.307   6.221
 2082SOL    HW223389   4.111   0.357   6.143
 2083SOL     OW23390   0.326   2.135   7.881
 2083SOL    HW123391   0.341   2.189   7.803
 2083SOL    HW223392   0.238   2.159   7.910
 2084SOL     OW23393   3.163   1.459   1.295
 2084SOL    HW123394   3.164   1.472   1.200
 2084SOL    HW223395   3.178   1.365   1.307
 2085SOL     OW23396   5.850   3.563   1.430
 2085SOL    HW123397   5.926   3.539   1.377
 2085SOL    HW223398   5.866   3.654   1.454
 2086SOL     OW23399   6.302   4.740   1.079
 2086SOL    HW123400   6.383   4.701   1.046
 2086SOL    HW223401   6.330   4.803   1.144
 2087SOL     OW23402   3.920   2.436   2.102
 2087SOL    HW123403   3.962   2.371   2.159
 2087SOL    HW223404   3.982   2.508   2.098
 2088SOL     OW23405   5.224   6.259   1.989
 2088SOL    HW123406   5.215   6.188   1.926
 2088SOL    HW223407   5.201   6.220   2.073
 2089SOL     OW23408   0.437   5.534   7.258
 2089SOL    HW123409   0.394   5.516   7.341
 2089SOL    HW223410   0.367   5.565   7.201
 2090SOL     OW23411   2.819   0.382   0.778
 2090SOL    HW123412   2.853   0.374   0.689
 2090SOL    HW223413   2.834   0.296   0.818
 2091SOL     OW23414   2.934   1.469   6.094
 2091SOL    HW123415   2.909   1.387   6.137
 2091SOL    HW223416   2.859   1.491   6.040
 2092SOL     OW23417   4.359   0.251   6.290
 2092SOL    HW123418   4.393   0.202   6.215
 2092SOL    HW223419   4.269   0.273   6.265
 2093SOL     OW23420   3.355   4.960   1.898
 2093SOL    HW123421   3.417   4.989   1.831
 2093SOL    HW223422   3.269   4.978   1.861
 2094SOL     OW23423   5.702   4.367   7.241
 2094SOL    HW123424   5.797   4.360   7.251
 2094SOL    HW223425   5.675   4.432   7.306
 2095SOL     OW23426   2.795   5.913   6.474
 2095SOL    HW123427   2.728   5.852   6.505
 2095SOL    HW223428   2.763   5.999   6.501
 2096SOL     OW23429   0.690   2.663   1.192
 2096SOL    HW123430   0.606   2.675   1.235
 2096SOL    HW223431   0.700   2.568   1.184
 2097SOL     OW23432   4.577   0.033   1.564
 2097SOL    HW123433   4.543   0.075   1.484
 2097SOL    HW223434   4.671   0.050   1.561
 2098SOL     OW23435   3.045   5.180   0.975
 2098SOL    HW123436   3.071   5.269   0.995
 2098SOL    HW223437   3.117   5.126   1.006
 2099SOL     OW23438   4.171   5.235   6.439
 2099SOL    HW123439   4.090   5.235   6.490
 2099SOL    HW223440   4.234   5.186   6.493
 2100SOL     OW23441   4.850   0.769   6.810
 2100SOL    HW123442   4.774   0.762   6.868
 2100SOL    HW223443   4.893   0.683   6.817
 2101SOL     OW23444   6.113   4.797   1.584
 2101SOL    HW123445   6.146   4.713   1.552
 2101SOL    HW223446   6.035   4.814   1.530
 2102SOL     OW23447   2.240   4.501   0.036
 2102SOL    HW123448   2.330   4.523   0.009
 2102SOL    HW223449   2.251   4.447   0.114
 2103SOL     OW23450   3.225   0.933   7.397
 2103SOL    HW123451   3.301   0.981   7.366
 2103SOL    HW223452   3.229   0.849   7.350
 2104SOL     OW23453   4.866   6.194   0.911
 2104SOL    HW123454   4.797   6.141   0.951
 2104SOL    HW223455   4.885   6.150   0.828
 2105SOL     OW23456   5.992   2.563   0.591
 2105SOL    HW123457   5.975   2.539   0.500
 2105SOL    HW223458   6.078   2.605   0.590
 2106SOL     OW23459   2.620   2.943   5.708
 2106SOL    HW123460   2.610   3.038   5.706
 2106SOL    HW223461   2.691   2.924   5.647
 2107SOL     OW23462   5.706   3.865   1.353
 2107SOL    HW123463   5.723   3.945   1.303
 2107SOL    HW223464   5.611   3.861   1.360
 2108SOL     OW23465   4.237   0.173   5.718
 2108SOL    HW123466   4.179   0.147   5.790
 2108SOL    HW223467   4.325   0.156   5.750
 2109SOL     OW23468   5.784   4.042   7.403
 2109SOL    HW123469   5.702   4.024   7.357
 2109SOL    HW223470   5.793   4.138   7.400
 2110SOL     OW23471   2.568   0.778   7.802
 2110SOL    HW123472   2.541   0.806   7.715
 2110SOL    HW223473   2.489   0.783   7.855
 2111SOL     OW23474   4.725   0.210   6.032
 2111SOL    HW123475   4.693   0.141   5.974
 2111SOL    HW223476   4.712   0.175   6.120
 2112SOL     OW23477   4.234   5.901   0.503
 2112SOL    HW123478   4.159   5.907   0.443
 2112SOL    HW223479   4.194   5.893   0.590
 2113SOL     OW23480   4.846   3.171   7.997
 2113SOL    HW123481   4.769   3.138   8.044
 2113SOL    HW223482   4.897   3.092   7.976
 2114SOL     OW23483   0.994   0.328   0.329
 2114SOL    HW123484   1.053   0.338   0.403
 2114SOL    HW223485   0.924   0.392   0.345
 2115SOL     OW23486   2.713   0.816   7.056
 2115SOL    HW123487   2.736   0.771   6.975
 2115SOL    HW223488   2.740   0.907   7.042
 2116SOL     OW23489   4.457   5.793   0.412
 2116SOL    HW123490   4.522   5.783   0.480
 2116SOL    HW223491   4.383   5.836   0.455
 2117SOL     OW23492   5.962   4.314   7.349
 2117SOL    HW123493   5.993   4.311   7.439
 2117SOL    HW223494   6.041   4.316   7.296
 2118SOL     OW23495   2.686   5.216   7.361
 2118SOL    HW123496   2.705   5.178   7.447
 2118SOL    HW223497   2.770   5.253   7.332
 2119SOL     OW23498   1.028   2.331   1.557
 2119SOL    HW123499   1.035   2.237   1.542
 2119SOL    HW223500   1.078   2.347   1.637
 2120SOL     OW23501   4.633   6.281   2.670
 2120SOL    HW123502   4.590   6.247   2.748
 2120SOL    HW223503   4.564   6.326   2.622
 2121SOL     OW23504   6.288   4.950   6.168
 2121SOL    HW123505   6.256   4.898   6.094
 2121SOL    HW223506   6.382   4.958   6.153
 2122SOL     OW23507   4.081   0.881   0.914
 2122SOL    HW123508   4.162   0.897   0.962
 2122SOL    HW223509   4.102   0.903   0.824
 2123SOL     OW23510   4.468   4.410   0.104
 2123SOL    HW123511   4.529   4.337   0.109
 2123SOL    HW223512   4.523   4.488   0.106
 2124SOL     OW23513   2.996   3.550   0.501
 2124SOL    HW123514   2.958   3.638   0.497
 2124SOL    HW223515   3.011   3.526   0.410
 2125SOL     OW23516   5.021   6.104   0.073
 2125SOL    HW123517   5.079   6.043   0.028
 2125SOL    HW223518   4.935   6.088   0.035
 2126SOL     OW23519   4.635   5.652   1.999
 2126SOL    HW123520   4.557   5.609   1.967
 2126SOL    HW223521   4.603   5.714   2.065
 2127SOL     OW23522   6.155   1.629   6.398
 2127SOL    HW123523   6.095   1.564   6.434
 2127SOL    HW223524   6.170   1.601   6.308
 2128SOL     OW23525   3.082   1.288   6.578
 2128SOL    HW123526   3.034   1.227   6.521
 2128SOL    HW223527   3.173   1.279   6.550
 2129SOL     OW23528   4.234   0.970   1.389
 2129SOL    HW123529   4.197   1.026   1.320
 2129SOL    HW223530   4.275   1.031   1.450
 2130SOL     OW23531   1.792   4.524   7.107
 2130SOL    HW123532   1.881   4.488   7.106
 2130SOL    HW223533   1.738   4.455   7.146
 2131SOL     OW23534   4.740   5.363   7.020
 2131SOL    HW123535   4.645   5.371   7.012
 2131SOL    HW223536   4.774   5.389   6.935
 2132SOL     OW23537   5.555   0.575   0.639
 2132SOL    HW123538   5.465   0.579   0.607
 2132SOL    HW223539   5.577   0.482   0.638
 2133SOL     OW23540   2.455   3.108   7.440
 2133SOL    HW123541   2.363   3.119   7.462
 2133SOL    HW223542   2.464   3.147   7.353
 2134SOL     OW23543   3.343   6.230   0.850
 2134SOL    HW123544   3.316   6.212   0.760
 2134SOL    HW223545   3.370   6.322   0.849
 2135SOL     OW23546   3.038   4.700   0.498
 2135SOL    HW123547   3.027   4.655   0.414
 2135SOL    HW223548   2.979   4.776   0.492
 2136SOL     OW23549   2.820   0.134   2.060
 2136SOL    HW123550   2.763   0.080   2.116
 2136SOL    HW223551   2.904   0.088   2.060
 2137SOL     OW23552   5.749   5.457   0.381
 2137SOL    HW123553   5.713   5.488   0.464
 2137SOL    HW223554   5.761   5.536   0.329
 2138SOL     OW23555   1.698   1.739   6.702
 2138SOL    HW123556   1.632   1.730   6.634
 2138SOL    HW223557   1.654   1.792   6.770
 2139SOL     OW23558   5.325   0.525   1.366
 2139SOL    HW123559   5.321   0.463   1.439
 2139SOL    HW223560   5.390   0.590   1.394
 2140SOL     OW23561   6.121   1.044   1.822
 2140SOL    HW123562   6.185   1.059   1.891
 2140SOL    HW223563   6.073   1.126   1.815
 2141SOL     OW23564   4.508   4.692   1.708
 2141SOL    HW123565   4.591   4.733   1.733
 2141SOL    HW223566   4.462   4.678   1.791
 2142SOL     OW23567   2.756   1.966   7.485
 2142SOL    HW123568   2.721   1.921   7.408
 2142SOL    HW223569   2.762   1.898   7.552
 2143SOL     OW23570   5.851   4.553   0.986
 2143SOL    HW123571   5.917   4.485   0.976
 2143SOL    HW223572   5.837   4.559   1.080
 2144SOL     OW23573   4.312   4.383   1.996
 2144SOL    HW123574   4.285   4.456   2.052
 2144SOL    HW223575   4.372   4.332   2.051
 2145SOL     OW23576   2.786   5.842   2.375
 2145SOL    HW123577   2.828   5.886   2.449
 2145SOL    HW223578   2.787   5.908   2.305
 2146SOL     OW23579   1.262   4.727   0.817
 2146SOL    HW123580   1.181   4.777   0.813
 2146SOL    HW223581   1.280   4.702   0.726
 2147SOL     OW23582   0.083   4.770   0.791
 2147SOL    HW123583  -0.002   4.730   0.773
 2147SOL    HW223584   0.122   4.714   0.859
 2148SOL     OW23585   1.641   1.555   1.086
 2148SOL    HW123586   1.731   1.548   1.118
 2148SOL    HW223587   1.648   1.602   1.003
 2149SOL     OW23588   5.794   2.752   7.238
 2149SOL    HW123589   5.744   2.691   7.292
 2149SOL    HW223590   5.737   2.769   7.163
 2150SOL     OW23591   5.083   5.974   0.447
 2150SOL    HW123592   5.120   6.025   0.519
 2150SOL    HW223593   5.024   5.912   0.490
 2151SOL     OW23594   4.127   4.272   7.276
 2151SOL    HW123595   4.194   4.268   7.208
 2151SOL    HW223596   4.088   4.185   7.277
 2152SOL     OW23597   2.981   3.439   7.494
 2152SOL    HW123598   2.949   3.483   7.415
 2152SOL    HW223599   2.970   3.503   7.564
 2153SOL     OW23600   0.410   4.634   1.675
 2153SOL    HW123601   0.318   4.648   1.650
 2153SOL    HW223602   0.431   4.707   1.733
 2154SOL     OW23603   5.461   0.948   6.624
 2154SOL    HW123604   5.505   0.923   6.542
 2154SOL    HW223605   5.375   0.906   6.619
 2155SOL     OW23606   4.681   4.714   7.705
 2155SOL    HW123607   4.590   4.686   7.696
 2155SOL    HW223608   4.730   4.653   7.650
 2156SOL     OW23609   6.134   5.665   1.404
 2156SOL    HW123610   6.149   5.597   1.470
 2156SOL    HW223611   6.177   5.743   1.439
 2157SOL     OW23612   4.975   2.140   1.221
 2157SOL    HW123613   5.015   2.080   1.285
 2157SOL    HW223614   5.035   2.214   1.217
 2158SOL     OW23615   5.614   4.675   0.971
 2158SOL    HW123616   5.561   4.598   0.953
 2158SOL    HW223617   5.704   4.641   0.976
 2159SOL     OW23618   4.829   5.163   6.714
 2159SOL    HW123619   4.783   5.200   6.639
 2159SOL    HW223620   4.764   5.107   6.756
 2160SOL     OW23621   1.815   1.784   1.356
 2160SOL    HW123622   1.827   1.693   1.331
 2160SOL    HW223623   1.856   1.834   1.285
 2161SOL     OW23624   4.241   4.946   2.042
 2161SOL    HW123625   4.228   5.002   2.119
 2161SOL    HW223626   4.272   5.006   1.975
 2162SOL     OW23627   0.515   4.553   6.216
 2162SOL    HW123628   0.463   4.633   6.207
 2162SOL    HW223629   0.490   4.518   6.302
 2163SOL     OW23630   5.110   5.894   7.150
 2163SOL    HW123631   5.023   5.910   7.187
 2163SOL    HW223632   5.113   5.949   7.072
 2164SOL     OW23633   5.519   5.900   0.305
 2164SOL    HW123634   5.569   5.822   0.329
 2164SOL    HW223635   5.436   5.865   0.272
 2165SOL     OW23636   2.331   3.065   2.546
 2165SOL    HW123637   2.260   3.104   2.494
 2165SOL    HW223638   2.300   3.073   2.637
 2166SOL     OW23639   5.160   3.426   0.882
 2166SOL    HW123640   5.252   3.413   0.862
 2166SOL    HW223641   5.139   3.356   0.944
 2167SOL     OW23642   1.216   3.197   0.838
 2167SOL    HW123643   1.194   3.263   0.773
 2167SOL    HW223644   1.289   3.234   0.888
 2168SOL     OW23645   2.001   1.822   6.589
 2168SOL    HW123646   1.912   1.835   6.557
 2168SOL    HW223647   1.992   1.825   6.685
 2169SOL     OW23648   0.676   1.166   2.112
 2169SOL    HW123649   0.585   1.186   2.136
 2169SOL    HW223650   0.724   1.246   2.132
 2170SOL     OW23651   5.237   0.351   8.030
 2170SOL    HW123652   5.246   0.445   8.012
 2170SOL    HW223653   5.211   0.313   7.946
 2171SOL     OW23654   0.943   3.606   7.846
 2171SOL    HW123655   0.881   3.538   7.873
 2171SOL    HW223656   0.977   3.575   7.762
 2172SOL     OW23657   3.086   4.723   5.506
 2172SOL    HW123658   3.043   4.717   5.591
 2172SOL    HW223659   3.029   4.673   5.447
 2173SOL     OW23660   5.524   3.051   0.790
 2173SOL    HW123661   5.437   3.011   0.793
 2173SOL    HW223662   5.580   2.984   0.749
 2174SOL     OW23663   1.699   0.548   6.855
 2174SOL    HW123664   1.620   0.591   6.823
 2174SOL    HW223665   1.673   0.511   6.940
 2175SOL     OW23666   4.943   1.359   8.067
 2175SOL    HW123667   5.018   1.330   8.120
 2175SOL    HW223668   4.885   1.284   8.065
 2176SOL     OW23669   0.710   5.534   1.132
 2176SOL    HW123670   0.644   5.532   1.201
 2176SOL    HW223671   0.789   5.567   1.176
 2177SOL     OW23672   5.678   2.346   7.357
 2177SOL    HW123673   5.589   2.310   7.362
 2177SOL    HW223674   5.735   2.269   7.356
 2178SOL     OW23675   0.208   2.118   0.633
 2178SOL    HW123676   0.277   2.173   0.670
 2178SOL    HW223677   0.240   2.097   0.545
 2179SOL     OW23678   1.042   0.991   1.034
 2179SOL    HW123679   0.988   1.057   1.078
 2179SOL    HW223680   0.984   0.915   1.026
 2180SOL     OW23681   3.980   1.568   5.939
 2180SOL    HW123682   3.976   1.663   5.949
 2180SOL    HW223683   3.909   1.548   5.877
 2181SOL     OW23684   4.896   0.097   7.145
 2181SOL    HW123685   4.974   0.044   7.129
 2181SOL    HW223686   4.923   0.187   7.124
 2182SOL     OW23687   0.040   5.473   7.607
 2182SOL    HW123688  -0.026   5.461   7.675
 2182SOL    HW223689  -0.004   5.443   7.527
 2183SOL     OW23690   4.099   2.526   1.203
 2183SOL    HW123691   4.185   2.498   1.173
 2183SOL    HW223692   4.070   2.455   1.261
 2184SOL     OW23693   2.256   4.832   6.347
 2184SOL    HW123694   2.308   4.810   6.270
 2184SOL    HW223695   2.234   4.925   6.336
 2185SOL     OW23696   3.085   5.308   0.644
 2185SOL    HW123697   3.155   5.258   0.602
 2185SOL    HW223698   3.010   5.297   0.587
 2186SOL     OW23699   1.320   0.729   1.850
 2186SOL    HW123700   1.225   0.737   1.862
 2186SOL    HW223701   1.330   0.696   1.761
 2187SOL     OW23702   3.158   3.092   1.362
 2187SOL    HW123703   3.101   3.145   1.417
 2187SOL    HW223704   3.179   3.148   1.288
 2188SOL     OW23705   4.986   2.947   1.857
 2188SOL    HW123706   4.895   2.963   1.831
 2188SOL    HW223707   5.014   3.031   1.893
 2189SOL     OW23708   5.371   1.424   7.317
 2189SOL    HW123709   5.452   1.426   7.368
 2189SOL    HW223710   5.304   1.451   7.380
 2190SOL     OW23711   0.533   2.063   0.010
 2190SOL    HW123712   0.597   2.023  -0.049
 2190SOL    HW223713   0.457   2.080  -0.046
 2191SOL     OW23714   0.612   3.061   6.603
 2191SOL    HW123715   0.656   3.047   6.519
 2191SOL    HW223716   0.683   3.078   6.665
 2192SOL     OW23717   5.388   2.609   7.393
 2192SOL    HW123718   5.387   2.552   7.316
 2192SOL    HW223719   5.314   2.668   7.380
 2193SOL     OW23720   2.691   3.456   7.924
 2193SOL    HW123721   2.736   3.374   7.903
 2193SOL    HW223722   2.602   3.443   7.890
 2194SOL     OW23723   3.448   1.445   7.332
 2194SOL    HW123724   3.390   1.400   7.271
 2194SOL    HW223725   3.389   1.484   7.396
 2195SOL     OW23726   5.646   1.655   2.019
 2195SOL    HW123727   5.591   1.597   1.967
 2195SOL    HW223728   5.638   1.622   2.109
 2196SOL     OW23729   2.167   3.808   0.679
 2196SOL    HW123730   2.113   3.861   0.621
 2196SOL    HW223731   2.176   3.724   0.634
 2197SOL     OW23732   1.197   2.840   2.234
 2197SOL    HW123733   1.189   2.935   2.232
 2197SOL    HW223734   1.154   2.811   2.153
 2198SOL     OW23735   1.151   3.459   8.004
 2198SOL    HW123736   1.058   3.435   8.004
 2198SOL    HW223737   1.180   3.442   8.093
 2199SOL     OW23738   0.727   4.057   0.624
 2199SOL    HW123739   0.664   3.987   0.637
 2199SOL    HW223740   0.748   4.088   0.712
 2200SOL     OW23741   6.010   2.442   5.852
 2200SOL    HW123742   5.917   2.455   5.832
 2200SOL    HW223743   6.056   2.500   5.792
 2201SOL     OW23744   5.083   4.266   0.105
 2201SOL    HW123745   5.055   4.219   0.026
 2201SOL    HW223746   5.130   4.200   0.156
 2202SOL     OW23747   0.859   0.460   2.248
 2202SOL    HW123748   0.876   0.408   2.170
 2202SOL    HW223749   0.810   0.402   2.306
 2203SOL     OW23750   5.928   6.113   2.101
 2203SOL    HW123751   5.993   6.174   2.064
 2203SOL    HW223752   5.849   6.129   2.050
 2204SOL     OW23753   4.713   4.125   1.775
 2204SOL    HW123754   4.744   4.084   1.856
 2204SOL    HW223755   4.791   4.132   1.720
 2205SOL     OW23756   0.601   2.715   7.261
 2205SOL    HW123757   0.576   2.746   7.174
 2205SOL    HW223758   0.531   2.654   7.286
 2206SOL     OW23759   4.559   0.036   1.092
 2206SOL    HW123760   4.572   0.129   1.111
 2206SOL    HW223761   4.494   0.007   1.156
 2207SOL     OW23762   6.047   1.688   6.665
 2207SOL    HW123763   6.039   1.781   6.646
 2207SOL    HW223764   6.095   1.653   6.590
 2208SOL     OW23765   6.130   1.023   0.085
 2208SOL    HW123766   6.203   1.060   0.136
 2208SOL    HW223767   6.116   0.936   0.123
 2209SOL     OW23768   3.481   3.392   6.868
 2209SOL    HW123769   3.479   3.488   6.871
 2209SOL    HW223770   3.564   3.371   6.825
 2210SOL     OW23771   2.762   3.587   6.634
 2210SOL    HW123772   2.669   3.607   6.651
 2210SOL    HW223773   2.808   3.665   6.665
 2211SOL     OW23774   0.878   5.315   7.353
 2211SOL    HW123775   0.924   5.339   7.273
 2211SOL    HW223776   0.820   5.389   7.371
 2212SOL     OW23777   3.968   2.647   0.722
 2212SOL    HW123778   4.034   2.598   0.771
 2212SOL    HW223779   3.979   2.738   0.751
 2213SOL     OW23780   5.474   1.512   1.597
 2213SOL    HW123781   5.491   1.528   1.505
 2213SOL    HW223782   5.519   1.583   1.643
 2214SOL     OW23783   1.784   4.705   0.868
 2214SOL    HW123784   1.813   4.733   0.955
 2214SOL    HW223785   1.750   4.785   0.827
 2215SOL     OW23786   5.375   4.105   7.447
 2215SOL    HW123787   5.282   4.087   7.431
 2215SOL    HW223788   5.410   4.129   7.362
 2216SOL     OW23789   5.139   3.137   1.263
 2216SOL    HW123790   5.182   3.175   1.339
 2216SOL    HW223791   5.064   3.089   1.299
 2217SOL     OW23792   0.112   4.297   1.043
 2217SOL    HW123793   0.170   4.266   1.112
 2217SOL    HW223794   0.052   4.224   1.026
 2218SOL     OW23795   2.870   5.500   0.371
 2218SOL    HW123796   2.838   5.467   0.287
 2218SOL    HW223797   2.942   5.559   0.348
 2219SOL     OW23798   4.098   1.446   1.596
 2219SOL    HW123799   4.060   1.502   1.528
 2219SOL    HW223800   4.184   1.485   1.613
 2220SOL     OW23801   5.688   0.183   6.098
 2220SOL    HW123802   5.721   0.261   6.143
 2220SOL    HW223803   5.618   0.150   6.156
 2221SOL     OW23804   0.165   5.357   0.701
 2221SOL    HW123805   0.224   5.433   0.706
 2221SOL    HW223806   0.179   5.321   0.614
 2222SOL     OW23807   2.974   4.811   1.071
 2222SOL    HW123808   2.893   4.768   1.099
 2222SOL    HW223809   2.966   4.818   0.976
 2223SOL     OW23810   1.704   6.058   7.579
 2223SOL    HW123811   1.692   5.980   7.633
 2223SOL    HW223812   1.623   6.065   7.528
 2224SOL     OW23813   1.405   6.222   1.698
 2224SOL    HW123814   1.471   6.282   1.733
 2224SOL    HW223815   1.455   6.153   1.655
 2225SOL     OW23816   6.331   4.041   7.083
 2225SOL    HW123817   6.425   4.055   7.078
 2225SOL    HW223818   6.295   4.096   7.013
 2226SOL     OW23819   1.477   4.475   6.819
 2226SOL    HW123820   1.441   4.535   6.884
 2226SOL    HW223821   1.400   4.435   6.778
 2227SOL     OW23822   0.013   3.526   8.044
 2227SOL    HW123823   0.052   3.536   7.957
 2227SOL    HW223824  -0.040   3.447   8.038
 2228SOL     OW23825   2.756   4.539   5.729
 2228SOL    HW123826   2.723   4.527   5.640
 2228SOL    HW223827   2.677   4.555   5.781
 2229SOL     OW23828   4.149   0.100   2.179
 2229SOL    HW123829   4.128   0.040   2.108
 2229SOL    HW223830   4.198   0.048   2.242
 2230SOL     OW23831   1.025   2.442   2.085
 2230SOL    HW123832   1.084   2.377   2.047
 2230SOL    HW223833   0.979   2.395   2.155
 2231SOL     OW23834   3.575   2.770   2.068
 2231SOL    HW123835   3.556   2.798   1.979
 2231SOL    HW223836   3.671   2.765   2.072
 2232SOL     OW23837   4.057   0.179   0.197
 2232SOL    HW123838   4.069   0.112   0.265
 2232SOL    HW223839   4.023   0.255   0.245
 2233SOL     OW23840   2.999   4.743   0.788
 2233SOL    HW123841   2.961   4.731   0.701
 2233SOL    HW223842   3.063   4.813   0.778
 2234SOL     OW23843   3.679   5.206   1.510
 2234SOL    HW123844   3.625   5.137   1.473
 2234SOL    HW223845   3.756   5.161   1.544
 2235SOL     OW23846   5.911   2.064   6.869
 2235SOL    HW123847   5.911   1.995   6.936
 2235SOL    HW223848   5.848   2.129   6.901
 2236SOL     OW23849   4.191   0.409   5.577
 2236SOL    HW123850   4.251   0.347   5.618
 2236SOL    HW223851   4.157   0.460   5.650
 2237SOL     OW23852   5.921   4.981   6.017
 2237SOL    HW123853   5.946   5.060   5.969
 2237SOL    HW223854   5.983   4.914   5.988
 2238SOL     OW23855   2.640   1.768   7.954
 2238SOL    HW123856   2.696   1.733   8.023
 2238SOL    HW223857   2.647   1.863   7.963
 2239SOL     OW23858   2.594   6.275   0.505
 2239SOL    HW123859   2.524   6.209   0.506
 2239SOL    HW223860   2.593   6.309   0.415
 2240SOL     OW23861   1.735   0.253   7.218
 2240SOL    HW123862   1.828   0.240   7.197
 2240SOL    HW223863   1.717   0.342   7.189
 2241SOL     OW23864   5.561   0.081   1.149
 2241SOL    HW123865   5.526   0.108   1.064
 2241SOL    HW223866   5.499   0.014   1.180
 2242SOL     OW23867   4.404   3.385   7.349
 2242SOL    HW123868   4.460   3.394   7.271
 2242SOL    HW223869   4.464   3.394   7.423
 2243SOL     OW23870   3.655   4.407   6.361
 2243SOL    HW123871   3.691   4.435   6.277
 2243SOL    HW223872   3.588   4.473   6.381
 2244SOL     OW23873   5.159   1.057   7.041
 2244SOL    HW123874   5.122   1.121   6.980
 2244SOL    HW223875   5.206   1.110   7.105
 2245SOL     OW23876   1.084   1.610   6.500
 2245SOL    HW123877   1.167   1.657   6.492
 2245SOL    HW223878   1.105   1.520   6.473
 2246SOL     OW23879   4.147   3.404   6.213
 2246SOL    HW123880   4.148   3.309   6.201
 2246SOL    HW223881   4.151   3.416   6.308
 2247SOL     OW23882   0.602   5.059   1.855
 2247SOL    HW123883   0.512   5.081   1.834
 2247SOL    HW223884   0.597   5.017   1.941
 2248SOL     OW23885   3.188   0.977   1.015
 2248SOL    HW123886   3.211   0.925   1.092
 2248SOL    HW223887   3.182   0.913   0.944
 2249SOL     OW23888   0.316   1.159   1.320
 2249SOL    HW123889   0.222   1.154   1.335
 2249SOL    HW223890   0.342   1.243   1.359
 2250SOL     OW23891   0.218   6.108   1.010
 2250SOL    HW123892   0.314   6.113   1.003
 2250SOL    HW223893   0.191   6.198   1.027
 2251SOL     OW23894   5.215   1.514   1.685
 2251SOL    HW123895   5.306   1.492   1.704
 2251SOL    HW223896   5.179   1.540   1.770
 2252SOL     OW23897   4.519   5.649   7.091
 2252SOL    HW123898   4.538   5.633   6.999
 2252SOL    HW223899   4.485   5.566   7.124
 2253SOL     OW23900   4.525   0.439   0.015
 2253SOL    HW123901   4.449   0.410   0.065
 2253SOL    HW223902   4.561   0.512   0.066
 2254SOL     OW23903   1.587   3.446   1.997
 2254SOL    HW123904   1.607   3.539   1.989
 2254SOL    HW223905   1.546   3.438   2.083
 2255SOL     OW23906   4.210   1.175   7.286
 2255SOL    HW123907   4.134   1.165   7.344
 2255SOL    HW223908   4.174   1.213   7.206
 2256SOL     OW23909   2.531   2.483   1.630
 2256SOL    HW123910   2.495   2.557   1.581
 2256SOL    HW223911   2.607   2.455   1.579
 2257SOL     OW23912   0.975   5.241   6.607
 2257SOL    HW123913   0.942   5.230   6.517
 2257SOL    HW223914   0.971   5.335   6.623
 2258SOL     OW23915   2.023   5.407   7.091
 2258SOL    HW123916   2.095   5.456   7.133
 2258SOL    HW223917   2.039   5.316   7.116
 2259SOL     OW23918   4.794   4.463   1.235
 2259SOL    HW123919   4.873   4.508   1.264
 2259SOL    HW223920   4.724   4.528   1.245
 2260SOL     OW23921   0.914   4.085   1.059
 2260SOL    HW123922   0.945   4.168   1.097
 2260SOL    HW223923   0.857   4.111   0.987
 2261SOL     OW23924   1.108   5.593   2.072
 2261SOL    HW123925   1.105   5.650   2.149
 2261SOL    HW223926   1.200   5.567   2.065
 2262SOL     OW23927   5.504   4.123   0.629
 2262SOL    HW123928   5.453   4.191   0.585
 2262SOL    HW223929   5.576   4.171   0.671
 2263SOL     OW23930   1.370   4.722   6.034
 2263SOL    HW123931   1.324   4.805   6.025
 2263SOL    HW223932   1.454   4.746   6.074
 2264SOL     OW23933   3.181   6.340   6.571
 2264SOL    HW123934   3.226   6.420   6.598
 2264SOL    HW223935   3.099   6.370   6.533
 2265SOL     OW23936   2.191   1.600   1.550
 2265SOL    HW123937   2.257   1.557   1.603
 2265SOL    HW223938   2.240   1.656   1.490
 2266SOL     OW23939   1.162   5.915   0.761
 2266SOL    HW123940   1.173   5.975   0.687
 2266SOL    HW223941   1.228   5.941   0.824
 2267SOL     OW23942   5.275   1.981   1.894
 2267SOL    HW123943   5.278   2.000   1.800
 2267SOL    HW223944   5.251   1.888   1.898
 2268SOL     OW23945   1.966   4.408   0.985
 2268SOL    HW123946   1.924   4.357   0.916
 2268SOL    HW223947   2.055   4.424   0.953
 2269SOL     OW23948   5.591   4.534   0.026
 2269SOL    HW123949   5.592   4.628   0.042
 2269SOL    HW223950   5.675   4.503   0.059
 2270SOL     OW23951   2.652   0.104   1.482
 2270SOL    HW123952   2.676   0.068   1.397
 2270SOL    HW223953   2.597   0.037   1.522
 2271SOL     OW23954   3.663   2.541   0.140
 2271SOL    HW123955   3.617   2.612   0.095
 2271SOL    HW223956   3.596   2.475   0.155
 2272SOL     OW23957   4.943   2.757   6.687
 2272SOL    HW123958   5.027   2.712   6.691
 2272SOL    HW223959   4.888   2.699   6.633
 2273SOL     OW23960   5.009   3.090   5.990
 2273SOL    HW123961   4.964   3.006   5.979
 2273SOL    HW223962   5.070   3.075   6.062
 2274SOL     OW23963   3.081   3.366   7.778
 2274SOL    HW123964   3.044   3.447   7.744
 2274SOL    HW223965   3.174   3.385   7.790
 2275SOL     OW23966   4.588   0.975   0.733
 2275SOL    HW123967   4.586   1.039   0.662
 2275SOL    HW223968   4.496   0.965   0.759
 2276SOL     OW23969   1.461   1.306   0.817
 2276SOL    HW123970   1.519   1.374   0.783
 2276SOL    HW223971   1.383   1.354   0.846
 2277SOL     OW23972   1.621   0.525   7.129
 2277SOL    HW123973   1.548   0.585   7.113
 2277SOL    HW223974   1.669   0.566   7.202
 2278SOL     OW23975   5.091   1.441   7.226
 2278SOL    HW123976   5.098   1.398   7.141
 2278SOL    HW223977   5.031   1.386   7.276
 2279SOL     OW23978   3.107   4.151   7.368
 2279SOL    HW123979   3.128   4.171   7.277
 2279SOL    HW223980   3.057   4.226   7.398
 2280SOL     OW23981   2.578   2.239   6.351
 2280SOL    HW123982   2.493   2.282   6.352
 2280SOL    HW223983   2.625   2.281   6.279
 2281SOL     OW23984   3.642   3.969   6.617
 2281SOL    HW123985   3.597   3.887   6.634
 2281SOL    HW223986   3.581   4.020   6.563
 2282SOL     OW23987   4.636   5.974   7.457
 2282SOL    HW123988   4.618   5.881   7.473
 2282SOL    HW223989   4.595   5.992   7.372
 2283SOL     OW23990   0.953   5.978   0.138
 2283SOL    HW123991   1.019   5.913   0.114
 2283SOL    HW223992   0.870   5.929   0.137
 2284SOL     OW23993   4.436   4.928   7.374
 2284SOL    HW123994   4.470   4.970   7.296
 2284SOL    HW223995   4.490   4.961   7.445
 2285SOL     OW23996   3.498   1.494   2.103
 2285SOL    HW123997   3.514   1.550   2.180
 2285SOL    HW223998   3.473   1.556   2.034
 2286SOL     OW23999   4.970   1.445   6.511
 2286SOL    HW124000   5.064   1.461   6.497
 2286SOL    HW224001   4.951   1.366   6.460
 2287SOL     OW24002   0.548   1.622   1.277
 2287SOL    HW124003   0.565   1.581   1.362
 2287SOL    HW224004   0.618   1.687   1.267
 2288SOL     OW24005   5.511   6.052   7.569
 2288SOL    HW124006   5.491   6.087   7.482
 2288SOL    HW224007   5.532   5.960   7.554
 2289SOL     OW24008   3.404   1.165   1.162
 2289SOL    HW124009   3.395   1.075   1.131
 2289SOL    HW224010   3.485   1.196   1.122
 2290SOL     OW24011   0.410   5.352   1.083
 2290SOL    HW124012   0.414   5.439   1.043
 2290SOL    HW224013   0.399   5.292   1.009
 2291SOL     OW24014   2.967   3.941   0.797
 2291SOL    HW124015   2.886   3.953   0.847
 2291SOL    HW224016   3.037   3.957   0.860
 2292SOL     OW24017   3.505   0.616   2.753
 2292SOL    HW124018   3.499   0.557   2.678
 2292SOL    HW224019   3.424   0.667   2.749
 2293SOL     OW24020   1.610   2.869   1.249
 2293SOL    HW124021   1.692   2.829   1.277
 2293SOL    HW224022   1.627   2.898   1.159
 2294SOL     OW24023   0.802   2.895   7.794
 2294SOL    HW124024   0.817   2.971   7.738
 2294SOL    HW224025   0.821   2.925   7.883
 2295SOL     OW24026   1.321   3.744   2.605
 2295SOL    HW124027   1.389   3.740   2.672
 2295SOL    HW224028   1.247   3.786   2.650
 2296SOL     OW24029   3.517   3.354   1.425
 2296SOL    HW124030   3.498   3.312   1.509
 2296SOL    HW224031   3.584   3.299   1.385
 2297SOL     OW24032   5.748   3.210   0.109
 2297SOL    HW124033   5.753   3.231   0.203
 2297SOL    HW224034   5.780   3.290   0.066
 2298SOL     OW24035   0.826   6.256   1.431
 2298SOL    HW124036   0.861   6.169   1.447
 2298SOL    HW224037   0.765   6.271   1.503
 2299SOL     OW24038   6.007   5.320   6.995
 2299SOL    HW124039   6.045   5.262   6.929
 2299SOL    HW224040   6.064   5.397   6.995
 2300SOL     OW24041   0.094   5.321   1.312
 2300SOL    HW124042   0.090   5.334   1.407
 2300SOL    HW224043   0.146   5.395   1.280
 2301SOL     OW24044   0.096   6.253   0.364
 2301SOL    HW124045   0.191   6.262   0.356
 2301SOL    HW224046   0.061   6.289   0.282
 2302SOL     OW24047   3.372   3.485   5.933
 2302SOL    HW124048   3.397   3.552   5.996
 2302SOL    HW224049   3.450   3.430   5.925
 2303SOL     OW24050   4.530   2.520   8.012
 2303SOL    HW124051   4.544   2.614   8.024
 2303SOL    HW224052   4.589   2.496   7.942
 2304SOL     OW24053   0.876   0.420   1.673
 2304SOL    HW124054   0.913   0.339   1.707
 2304SOL    HW224055   0.839   0.463   1.750
 2305SOL     OW24056   5.316   2.247   0.448
 2305SOL    HW124057   5.309   2.301   0.369
 2305SOL    HW224058   5.305   2.308   0.520
 2306SOL     OW24059   2.359   3.296   6.750
 2306SOL    HW124060   2.312   3.213   6.738
 2306SOL    HW224061   2.326   3.353   6.681
 2307SOL     OW24062   0.573   5.342   0.657
 2307SOL    HW124063   0.633   5.345   0.731
 2307SOL    HW224064   0.630   5.341   0.580
 2308SOL     OW24065   2.933   5.704   1.105
 2308SOL    HW124066   2.984   5.749   1.038
 2308SOL    HW224067   2.891   5.631   1.059
 2309SOL     OW24068   3.880   0.797   5.895
 2309SOL    HW124069   3.963   0.801   5.847
 2309SOL    HW224070   3.827   0.867   5.856
 2310SOL     OW24071   3.330   2.705   0.497
 2310SOL    HW124072   3.360   2.767   0.431
 2310SOL    HW224073   3.283   2.760   0.561
 2311SOL     OW24074   1.085   3.038   6.860
 2311SOL    HW124075   1.121   3.121   6.890
 2311SOL    HW224076   1.161   2.988   6.830
 2312SOL     OW24077   3.962   1.312   0.567
 2312SOL    HW124078   3.885   1.357   0.601
 2312SOL    HW224079   3.939   1.288   0.478
 2313SOL     OW24080   3.722   3.046   6.736
 2313SOL    HW124081   3.726   2.953   6.712
 2313SOL    HW224082   3.707   3.045   6.830
 2314SOL     OW24083   4.610   5.993   1.302
 2314SOL    HW124084   4.623   5.899   1.315
 2314SOL    HW224085   4.689   6.033   1.339
 2315SOL     OW24086   0.443   4.054   6.843
 2315SOL    HW124087   0.430   4.120   6.774
 2315SOL    HW224088   0.491   4.101   6.911
 2316SOL     OW24089   4.465   4.709   0.392
 2316SOL    HW124090   4.544   4.677   0.434
 2316SOL    HW224091   4.406   4.634   0.390
 2317SOL     OW24092   3.293   2.463   6.863
 2317SOL    HW124093   3.344   2.427   6.791
 2317SOL    HW224094   3.332   2.548   6.881
 2318SOL     OW24095   1.803   5.517   7.406
 2318SOL    HW124096   1.807   5.547   7.315
 2318SOL    HW224097   1.773   5.594   7.455
 2319SOL     OW24098   5.188   3.877   1.415
 2319SOL    HW124099   5.259   3.813   1.421
 2319SOL    HW224100   5.207   3.926   1.335
 2320SOL     OW24101   1.148   2.221   0.794
 2320SOL    HW124102   1.063   2.179   0.805
 2320SOL    HW224103   1.137   2.309   0.830
 2321SOL     OW24104   0.309   6.138   6.672
 2321SOL    HW124105   0.305   6.221   6.625
 2321SOL    HW224106   0.381   6.090   6.630
 2322SOL     OW24107   4.888   0.488   6.803
 2322SOL    HW124108   4.980   0.480   6.778
 2322SOL    HW224109   4.840   0.459   6.726
 2323SOL     OW24110   4.478   3.950   0.949
 2323SOL    HW124111   4.489   3.953   0.854
 2323SOL    HW224112   4.386   3.927   0.963
 2324SOL     OW24113   0.419   5.829   7.337
 2324SOL    HW124114   0.510   5.844   7.361
 2324SOL    HW224115   0.406   5.735   7.349
 2325SOL     OW24116   3.376   0.290   1.586
 2325SOL    HW124117   3.299   0.342   1.606
 2325SOL    HW224118   3.435   0.350   1.541
 2326SOL     OW24119   2.619   0.372   2.296
 2326SOL    HW124120   2.540   0.318   2.300
 2326SOL    HW224121   2.611   0.433   2.369
 2327SOL     OW24122   2.366   3.937   6.268
 2327SOL    HW124123   2.282   3.978   6.247
 2327SOL    HW224124   2.431   4.005   6.249
 2328SOL     OW24125   5.070   1.255   1.862
 2328SOL    HW124126   5.086   1.347   1.885
 2328SOL    HW224127   4.990   1.233   1.909
 2329SOL     OW24128   1.131   2.055   6.610
 2329SOL    HW124129   1.144   2.128   6.670
 2329SOL    HW224130   1.051   2.076   6.563
 2330SOL     OW24131   0.208   2.937   1.761
 2330SOL    HW124132   0.214   2.932   1.857
 2330SOL    HW224133   0.113   2.939   1.744
 2331SOL     OW24134   0.705   1.731   7.899
 2331SOL    HW124135   0.774   1.783   7.859
 2331SOL    HW224136   0.645   1.711   7.827
 2332SOL     OW24137   1.906   0.869   0.727
 2332SOL    HW124138   1.829   0.834   0.682
 2332SOL    HW224139   1.873   0.946   0.774
 2333SOL     OW24140   5.055   4.086   6.662
 2333SOL    HW124141   5.110   4.011   6.639
 2333SOL    HW224142   5.008   4.057   6.741
 2334SOL     OW24143   0.455   0.115   6.617
 2334SOL    HW124144   0.478   0.051   6.684
 2334SOL    HW224145   0.379   0.076   6.573
 2335SOL     OW24146   4.638   0.718   6.973
 2335SOL    HW124147   4.601   0.798   7.009
 2335SOL    HW224148   4.570   0.683   6.916
 2336SOL     OW24149   4.679   4.840   2.508
 2336SOL    HW124150   4.761   4.801   2.479
 2336SOL    HW224151   4.680   4.928   2.469
 2337SOL     OW24152   2.673   1.927   1.367
 2337SOL    HW124153   2.584   1.964   1.372
 2337SOL    HW224154   2.684   1.878   1.448
 2338SOL     OW24155   3.718   6.330   1.179
 2338SOL    HW124156   3.669   6.395   1.230
 2338SOL    HW224157   3.736   6.259   1.241
 2339SOL     OW24158   5.197   0.207   1.791
 2339SOL    HW124159   5.176   0.121   1.827
 2339SOL    HW224160   5.113   0.254   1.791
 2340SOL     OW24161   5.078   2.650   1.482
 2340SOL    HW124162   5.117   2.691   1.404
 2340SOL    HW224163   5.098   2.710   1.553
 2341SOL     OW24164   0.021   3.778   6.957
 2341SOL    HW124165   0.078   3.835   6.907
 2341SOL    HW224166  -0.003   3.829   7.035
 2342SOL     OW24167   3.656   3.232   6.212
 2342SOL    HW124168   3.629   3.161   6.270
 2342SOL    HW224169   3.667   3.189   6.126
 2343SOL     OW24170   2.167   0.016   1.413
 2343SOL    HW124171   2.097   0.082   1.421
 2343SOL    HW224172   2.244   0.066   1.389
 2344SOL     OW24173   1.369   2.574   7.136
 2344SOL    HW124174   1.448   2.625   7.118
 2344SOL    HW224175   1.301   2.640   7.151
 2345SOL     OW24176   2.873   3.831   2.069
 2345SOL    HW124177   2.933   3.890   2.023
 2345SOL    HW224178   2.843   3.769   2.002
 2346SOL     OW24179   2.012   1.468   0.892
 2346SOL    HW124180   2.006   1.505   0.804
 2346SOL    HW224181   2.067   1.390   0.880
 2347SOL     OW24182   4.727   0.249   0.687
 2347SOL    HW124183   4.672   0.324   0.664
 2347SOL    HW224184   4.762   0.218   0.603
 2348SOL     OW24185   4.787   2.601   0.126
 2348SOL    HW124186   4.717   2.663   0.103
 2348SOL    HW224187   4.753   2.552   0.200
 2349SOL     OW24188   5.129   5.768   1.454
 2349SOL    HW124189   5.218   5.802   1.467
 2349SOL    HW224190   5.142   5.680   1.418
 2350SOL     OW24191   6.194   2.484   2.103
 2350SOL    HW124192   6.247   2.561   2.080
 2350SOL    HW224193   6.145   2.511   2.180
 2351SOL     OW24194   0.360   6.131   7.026
 2351SOL    HW124195   0.315   6.077   6.961
 2351SOL    HW224196   0.293   6.190   7.059
 2352SOL     OW24197   3.913   5.414   1.420
 2352SOL    HW124198   3.998   5.433   1.379
 2352SOL    HW224199   3.913   5.320   1.433
 2353SOL     OW24200   4.005   3.489   2.333
 2353SOL    HW124201   4.030   3.574   2.297
 2353SOL    HW224202   3.932   3.509   2.392
 2354SOL     OW24203   0.304   3.065   7.535
 2354SOL    HW124204   0.326   3.122   7.461
 2354SOL    HW224205   0.352   2.984   7.518
 2355SOL     OW24206   4.346   5.553   5.599
 2355SOL    HW124207   4.361   5.538   5.693
 2355SOL    HW224208   4.330   5.466   5.563
 2356SOL     OW24209   5.213   4.055   0.937
 2356SOL    HW124210   5.217   4.151   0.934
 2356SOL    HW224211   5.122   4.036   0.963
 2357SOL     OW24212   6.227   0.575   7.025
 2357SOL    HW124213   6.254   0.662   7.054
 2357SOL    HW224214   6.209   0.585   6.932
 2358SOL     OW24215   1.312   1.592   6.841
 2358SOL    HW124216   1.239   1.536   6.817
 2358SOL    HW224217   1.288   1.679   6.808
 2359SOL     OW24218   0.327   3.503   7.544
 2359SOL    HW124219   0.350   3.581   7.493
 2359SOL    HW224220   0.236   3.485   7.520
 2360SOL     OW24221   0.848   2.811   1.379
 2360SOL    HW124222   0.812   2.747   1.318
 2360SOL    HW224223   0.883   2.758   1.451
 2361SOL     OW24224   1.004   1.203   6.203
 2361SOL    HW124225   0.979   1.115   6.173
 2361SOL    HW224226   1.056   1.187   6.282
 2362SOL     OW24227   3.581   0.605   2.394
 2362SOL    HW124228   3.665   0.611   2.348
 2362SOL    HW224229   3.524   0.666   2.347
 2363SOL     OW24230   1.044   3.836   0.769
 2363SOL    HW124231   0.969   3.802   0.817
 2363SOL    HW224232   1.119   3.786   0.802
 2364SOL     OW24233   2.029   4.014   7.457
 2364SOL    HW124234   1.990   3.997   7.371
 2364SOL    HW224235   2.067   4.102   7.449
 2365SOL     OW24236   4.850   1.076   6.832
 2365SOL    HW124237   4.851   0.996   6.885
 2365SOL    HW224238   4.759   1.087   6.806
 2366SOL     OW24239   3.808   5.950   5.987
 2366SOL    HW124240   3.723   5.983   5.958
 2366SOL    HW224241   3.805   5.956   6.083
 2367SOL     OW24242   0.855   3.629   0.877
 2367SOL    HW124243   0.811   3.622   0.793
 2367SOL    HW224244   0.842   3.543   0.918
 2368SOL     OW24245   2.788   4.875   7.302
 2368SOL    HW124246   2.767   4.883   7.395
 2368SOL    HW224247   2.723   4.930   7.258
 2369SOL     OW24248   2.888   3.802   6.711
 2369SOL    HW124249   2.970   3.757   6.730
 2369SOL    HW224250   2.859   3.836   6.796
 2370SOL     OW24251   4.661   3.180   1.906
 2370SOL    HW124252   4.702   3.107   1.860
 2370SOL    HW224253   4.719   3.255   1.887
 2371SOL     OW24254   4.245   3.971   0.020
 2371SOL    HW124255   4.258   3.876   0.023
 2371SOL    HW224256   4.165   3.986   0.069
 2372SOL     OW24257   4.853   3.772   5.749
 2372SOL    HW124258   4.773   3.817   5.722
 2372SOL    HW224259   4.905   3.764   5.668
 2373SOL     OW24260   0.071   0.329   5.896
 2373SOL    HW124261   0.001   0.299   5.839
 2373SOL    HW224262   0.042   0.414   5.928
 2374SOL     OW24263   1.802   5.661   7.184
 2374SOL    HW124264   1.751   5.717   7.126
 2374SOL    HW224265   1.836   5.592   7.127
 2375SOL     OW24266   0.342   3.174   0.083
 2375SOL    HW124267   0.319   3.157   0.174
 2375SOL    HW224268   0.305   3.260   0.064
 2376SOL     OW24269   1.753   4.005   1.104
 2376SOL    HW124270   1.834   4.010   1.155
 2376SOL    HW224271   1.704   4.083   1.130
 2377SOL     OW24272   2.442   0.264   6.545
 2377SOL    HW124273   2.367   0.300   6.498
 2377SOL    HW224274   2.412   0.252   6.635
 2378SOL     OW24275   6.324   3.784   1.545
 2378SOL    HW124276   6.285   3.714   1.493
 2378SOL    HW224277   6.363   3.738   1.620
 2379SOL     OW24278   4.922   0.721   5.920
 2379SOL    HW124279   4.975   0.698   5.844
 2379SOL    HW224280   4.968   0.796   5.958
 2380SOL     OW24281   3.331   0.802   2.663
 2380SOL    HW124282   3.412   0.850   2.645
 2380SOL    HW224283   3.288   0.852   2.732
 2381SOL     OW24284   3.522   1.622   7.834
 2381SOL    HW124285   3.492   1.561   7.902
 2381SOL    HW224286   3.450   1.684   7.824
 2382SOL     OW24287   2.714   1.481   1.052
 2382SOL    HW124288   2.712   1.572   1.022
 2382SOL    HW224289   2.700   1.430   0.972
 2383SOL     OW24290   3.268   5.557   7.940
 2383SOL    HW124291   3.262   5.558   7.845
 2383SOL    HW224292   3.185   5.518   7.969
 2384SOL     OW24293   2.053   5.803   2.342
 2384SOL    HW124294   2.093   5.720   2.316
 2384SOL    HW224295   2.123   5.851   2.386
 2385SOL     OW24296   1.266   0.845   6.853
 2385SOL    HW124297   1.302   0.894   6.927
 2385SOL    HW224298   1.187   0.804   6.887
 2386SOL     OW24299   3.266   4.464   0.284
 2386SOL    HW124300   3.309   4.380   0.270
 2386SOL    HW224301   3.327   4.529   0.248
 2387SOL     OW24302   5.695   6.256   7.280
 2387SOL    HW124303   5.613   6.214   7.301
 2387SOL    HW224304   5.702   6.329   7.341
 2388SOL     OW24305   1.684   0.937   6.692
 2388SOL    HW124306   1.658   0.915   6.781
 2388SOL    HW224307   1.612   0.906   6.637
 2389SOL     OW24308   5.085   2.277   7.736
 2389SOL    HW124309   5.105   2.199   7.788
 2389SOL    HW224310   5.012   2.318   7.782
 2390SOL     OW24311   1.748   5.290   7.093
 2390SOL    HW124312   1.725   5.197   7.093
 2390SOL    HW224313   1.841   5.291   7.070
 2391SOL     OW24314   1.913   3.509   7.760
 2391SOL    HW124315   1.992   3.520   7.707
 2391SOL    HW224316   1.858   3.584   7.737
 2392SOL     OW24317   5.443   0.523   7.691
 2392SOL    HW124318   5.502   0.567   7.752
 2392SOL    HW224319   5.460   0.565   7.607
 2393SOL     OW24320   4.103   4.689   7.857
 2393SOL    HW124321   4.138   4.700   7.945
 2393SOL    HW224322   4.041   4.616   7.864
 2394SOL     OW24323   4.431   1.365   6.556
 2394SOL    HW124324   4.459   1.438   6.500
 2394SOL    HW224325   4.472   1.383   6.640
 2395SOL     OW24326   6.262   2.631   0.472
 2395SOL    HW124327   6.302   2.688   0.407
 2395SOL    HW224328   6.327   2.562   0.488
 2396SOL     OW24329   6.168   6.078   0.025
 2396SOL    HW124330   6.117   6.068   0.105
 2396SOL    HW224331   6.249   6.031   0.042
 2397SOL     OW24332   2.618   4.868   7.899
 2397SOL    HW124333   2.576   4.929   7.958
 2397SOL    HW224334   2.555   4.797   7.888
 2398SOL     OW24335   0.219   4.468   6.814
 2398SOL    HW124336   0.147   4.504   6.762
 2398SOL    HW224337   0.185   4.465   6.903
 2399SOL     OW24338   0.911   5.988   1.374
 2399SOL    HW124339   0.834   5.945   1.336
 2399SOL    HW224340   0.943   6.045   1.304
 2400SOL     OW24341   5.958   4.909   0.004
 2400SOL    HW124342   5.924   4.905   0.094
 2400SOL    HW224343   5.922   4.832  -0.039
 2401SOL     OW24344   3.219   5.172   5.933
 2401SOL    HW124345   3.125   5.167   5.914
 2401SOL    HW224346   3.224   5.205   6.023
 2402SOL     OW24347   6.203   0.724   6.173
 2402SOL    HW124348   6.238   0.753   6.257
 2402SOL    HW224349   6.115   0.761   6.170
 2403SOL     OW24350   0.075   0.459   7.230
 2403SOL    HW124351   0.080   0.540   7.179
 2403SOL    HW224352   0.013   0.479   7.300
 2404SOL     OW24353   2.811   1.891   6.146
 2404SOL    HW124354   2.868   1.823   6.183
 2404SOL    HW224355   2.733   1.888   6.201
 2405SOL     OW24356   4.893   3.493   7.408
 2405SOL    HW124357   4.943   3.490   7.490
 2405SOL    HW224358   4.958   3.478   7.339
 2406SOL     OW24359   6.073   6.168   6.647
 2406SOL    HW124360   6.055   6.124   6.730
 2406SOL    HW224361   6.029   6.114   6.582
 2407SOL     OW24362   5.315   5.040   8.068
 2407SOL    HW124363   5.322   4.948   8.042
 2407SOL    HW224364   5.397   5.059   8.113
 2408SOL     OW24365   1.096   3.318   0.554
 2408SOL    HW124366   1.120   3.404   0.517
 2408SOL    HW224367   1.102   3.258   0.480
 2409SOL     OW24368   2.822   2.587   0.088
 2409SOL    HW124369   2.770   2.652   0.135
 2409SOL    HW224370   2.874   2.639   0.026
 2410SOL     OW24371   2.043   0.314   0.093
 2410SOL    HW124372   2.127   0.269   0.089
 2410SOL    HW224373   2.065   0.406   0.104
 2411SOL     OW24374   3.528   1.900   0.293
 2411SOL    HW124375   3.457   1.929   0.236
 2411SOL    HW224376   3.541   1.808   0.269
 2412SOL     OW24377   5.423   5.065   6.772
 2412SOL    HW124378   5.352   5.005   6.747
 2412SOL    HW224379   5.498   5.007   6.787
 2413SOL     OW24380   2.017   2.001   7.381
 2413SOL    HW124381   2.011   1.961   7.295
 2413SOL    HW224382   1.945   2.064   7.384
 2414SOL     OW24383   4.324   3.975   1.317
 2414SOL    HW124384   4.242   3.945   1.277
 2414SOL    HW224385   4.331   4.066   1.290
 2415SOL     OW24386   2.119   2.440   6.358
 2415SOL    HW124387   2.136   2.437   6.264
 2415SOL    HW224388   2.031   2.478   6.364
 2416SOL     OW24389   6.274   2.779   7.531
 2416SOL    HW124390   6.205   2.841   7.554
 2416SOL    HW224391   6.244   2.695   7.565
 2417SOL     OW24392   5.202   5.541   0.377
 2417SOL    HW124393   5.214   5.635   0.388
 2417SOL    HW224394   5.179   5.530   0.284
 2418SOL     OW24395   0.598   4.175   7.013
 2418SOL    HW124396   0.583   4.269   7.026
 2418SOL    HW224397   0.665   4.152   7.077
 2419SOL     OW24398   1.936   0.501   0.837
 2419SOL    HW124399   1.993   0.576   0.817
 2419SOL    HW224400   1.949   0.441   0.764
 2420SOL     OW24401   3.255   1.651   0.881
 2420SOL    HW124402   3.255   1.668   0.786
 2420SOL    HW224403   3.246   1.738   0.920
 2421SOL     OW24404   1.823   5.602   2.131
 2421SOL    HW124405   1.728   5.590   2.138
 2421SOL    HW224406   1.859   5.552   2.204
 2422SOL     OW24407   0.981   4.870   1.570
 2422SOL    HW124408   1.014   4.780   1.573
 2422SOL    HW224409   0.892   4.865   1.604
 2423SOL     OW24410   2.333   1.752   7.311
 2423SOL    HW124411   2.329   1.764   7.406
 2423SOL    HW224412   2.424   1.769   7.289
 2424SOL     OW24413   4.978   1.936   6.390
 2424SOL    HW124414   4.950   1.847   6.371
 2424SOL    HW224415   5.072   1.936   6.370
 2425SOL     OW24416   1.743   2.544   2.087
 2425SOL    HW124417   1.777   2.525   2.000
 2425SOL    HW224418   1.791   2.622   2.115
 2426SOL     OW24419   4.255   5.446   2.236
 2426SOL    HW124420   4.315   5.383   2.275
 2426SOL    HW224421   4.243   5.512   2.305
 2427SOL     OW24422   4.728   1.475   7.170
 2427SOL    HW124423   4.772   1.541   7.117
 2427SOL    HW224424   4.643   1.462   7.127
 2428SOL     OW24425   4.123   2.915   0.433
 2428SOL    HW124426   4.180   2.990   0.448
 2428SOL    HW224427   4.154   2.877   0.350
 2429SOL     OW24428   4.403   1.172   7.086
 2429SOL    HW124429   4.430   1.264   7.075
 2429SOL    HW224430   4.357   1.170   7.169
 2430SOL     OW24431   2.069   0.191   2.452
 2430SOL    HW124432   1.995   0.218   2.397
 2430SOL    HW224433   2.126   0.141   2.393
 2431SOL     OW24434   4.854   5.900   7.227
 2431SOL    HW124435   4.802   5.896   7.146
 2431SOL    HW224436   4.821   5.829   7.281
 2432SOL     OW24437   3.411   0.833   6.823
 2432SOL    HW124438   3.355   0.909   6.807
 2432SOL    HW224439   3.351   0.758   6.824
 2433SOL     OW24440   0.061   5.903   0.933
 2433SOL    HW124441  -0.001   5.928   1.002
 2433SOL    HW224442   0.130   5.968   0.939
 2434SOL     OW24443   2.534   3.684   5.911
 2434SOL    HW124444   2.607   3.667   5.851
 2434SOL    HW224445   2.461   3.710   5.855
 2435SOL     OW24446   6.221   1.555   0.291
 2435SOL    HW124447   6.289   1.596   0.237
 2435SOL    HW224448   6.229   1.462   0.273
 2436SOL     OW24449   2.155   0.789   6.472
 2436SOL    HW124450   2.078   0.845   6.466
 2436SOL    HW224451   2.218   0.830   6.412
 2437SOL     OW24452   4.855   4.014   6.466
 2437SOL    HW124453   4.912   4.047   6.536
 2437SOL    HW224454   4.878   4.068   6.390
 2438SOL     OW24455   5.631   2.198   8.000
 2438SOL    HW124456   5.717   2.231   7.972
 2438SOL    HW224457   5.629   2.107   7.970
 2439SOL     OW24458   0.575   0.565   6.569
 2439SOL    HW124459   0.649   0.593   6.515
 2439SOL    HW224460   0.525   0.506   6.512
 2440SOL     OW24461   2.894   3.015   5.876
 2440SOL    HW124462   2.854   2.981   5.796
 2440SOL    HW224463   2.973   2.962   5.888
 2441SOL     OW24464   4.109   4.735   6.085
 2441SOL    HW124465   4.186   4.722   6.030
 2441SOL    HW224466   4.051   4.662   6.062
 2442SOL     OW24467   0.842   3.430   2.651
 2442SOL    HW124468   0.842   3.336   2.633
 2442SOL    HW224469   0.754   3.459   2.628
 2443SOL     OW24470   4.445   3.346   6.775
 2443SOL    HW124471   4.528   3.358   6.820
 2443SOL    HW224472   4.394   3.289   6.833
 2444SOL     OW24473   4.541   5.125   1.711
 2444SOL    HW124474   4.575   5.204   1.752
 2444SOL    HW224475   4.619   5.074   1.689
 2445SOL     OW24476   6.027   2.039   2.248
 2445SOL    HW124477   6.048   2.103   2.179
 2445SOL    HW224478   6.095   2.051   2.314
 2446SOL     OW24479   1.694   6.058   0.543
 2446SOL    HW124480   1.751   5.986   0.569
 2446SOL    HW224481   1.747   6.137   0.556
 2447SOL     OW24482   1.308   0.028   7.491
 2447SOL    HW124483   1.237   0.069   7.539
 2447SOL    HW224484   1.361   0.101   7.458
 2448SOL     OW24485   4.378   2.714   0.605
 2448SOL    HW124486   4.338   2.646   0.552
 2448SOL    HW224487   4.384   2.677   0.693
 2449SOL     OW24488   4.225   0.098   7.465
 2449SOL    HW124489   4.304   0.114   7.517
 2449SOL    HW224490   4.251   0.119   7.375
 2450SOL     OW24491   2.733   1.754   1.572
 2450SOL    HW124492   2.774   1.677   1.531
 2450SOL    HW224493   2.750   1.743   1.665
 2451SOL     OW24494   3.834   0.172   1.579
 2451SOL    HW124495   3.908   0.111   1.571
 2451SOL    HW224496   3.867   0.255   1.545
 2452SOL     OW24497   1.978   1.570   1.736
 2452SOL    HW124498   2.019   1.611   1.660
 2452SOL    HW224499   2.052   1.551   1.795
 2453SOL     OW24500   2.621   3.618   0.845
 2453SOL    HW124501   2.629   3.660   0.760
 2453SOL    HW224502   2.711   3.600   0.872
 2454SOL     OW24503   1.772   5.559   1.668
 2454SOL    HW124504   1.803   5.649   1.658
 2454SOL    HW224505   1.732   5.557   1.755
 2455SOL     OW24506   4.272   0.249   0.990
 2455SOL    HW124507   4.298   0.212   0.906
 2455SOL    HW224508   4.339   0.315   1.009
 2456SOL     OW24509   4.083   0.686   0.371
 2456SOL    HW124510   3.997   0.660   0.405
 2456SOL    HW224511   4.071   0.777   0.345
 2457SOL     OW24512   3.983   1.208   1.672
 2457SOL    HW124513   4.069   1.167   1.671
 2457SOL    HW224514   3.995   1.288   1.620
 2458SOL     OW24515   5.442   3.201   6.905
 2458SOL    HW124516   5.372   3.264   6.888
 2458SOL    HW224517   5.456   3.204   6.999
 2459SOL     OW24518   5.963   0.118   0.372
 2459SOL    HW124519   5.920   0.072   0.300
 2459SOL    HW224520   5.893   0.134   0.435
 2460SOL     OW24521   1.859   0.988   0.082
 2460SOL    HW124522   1.821   0.901   0.073
 2460SOL    HW224523   1.889   0.992   0.173
 2461SOL     OW24524   5.994   4.974   2.289
 2461SOL    HW124525   5.973   4.935   2.374
 2461SOL    HW224526   5.931   4.934   2.228
 2462SOL     OW24527   0.563   1.447   1.029
 2462SOL    HW124528   0.480   1.400   1.030
 2462SOL    HW224529   0.559   1.507   1.104
 2463SOL     OW24530   1.530   2.884   1.516
 2463SOL    HW124531   1.558   2.863   1.427
 2463SOL    HW224532   1.592   2.949   1.546
 2464SOL     OW24533   5.882   3.562   7.710
 2464SOL    HW124534   5.848   3.649   7.687
 2464SOL    HW224535   5.976   3.576   7.723
 2465SOL     OW24536   3.552   5.860   6.705
 2465SOL    HW124537   3.630   5.874   6.758
 2465SOL    HW224538   3.493   5.931   6.730
 2466SOL     OW24539   2.487   1.917   2.051
 2466SOL    HW124540   2.421   1.926   2.120
 2466SOL    HW224541   2.569   1.941   2.092
 2467SOL     OW24542   2.802   3.634   2.491
 2467SOL    HW124543   2.748   3.712   2.479
 2467SOL    HW224544   2.750   3.563   2.451
 2468SOL     OW24545   0.811   0.991   0.403
 2468SOL    HW124546   0.755   1.048   0.351
 2468SOL    HW224547   0.869   1.050   0.450
 2469SOL     OW24548   3.855   4.360   7.124
 2469SOL    HW124549   3.815   4.285   7.167
 2469SOL    HW224550   3.783   4.404   7.080
 2470SOL     OW24551   2.147   0.768   1.227
 2470SOL    HW124552   2.195   0.813   1.157
 2470SOL    HW224553   2.072   0.825   1.245
 2471SOL     OW24554   5.472   4.843   7.592
 2471SOL    HW124555   5.503   4.760   7.556
 2471SOL    HW224556   5.382   4.851   7.561
 2472SOL     OW24557   2.176   4.864   7.863
 2472SOL    HW124558   2.105   4.800   7.864
 2472SOL    HW224559   2.145   4.935   7.807
 2473SOL     OW24560   6.030   4.623   0.207
 2473SOL    HW124561   6.121   4.649   0.223
 2473SOL    HW224562   5.979   4.673   0.271
 2474SOL     OW24563   3.006   5.852   7.990
 2474SOL    HW124564   2.974   5.766   8.019
 2474SOL    HW224565   2.965   5.864   7.904
 2475SOL     OW24566   4.718   0.549   6.025
 2475SOL    HW124567   4.783   0.612   5.994
 2475SOL    HW224568   4.656   0.542   5.952
 2476SOL     OW24569   1.824   0.040   0.691
 2476SOL    HW124570   1.729   0.040   0.699
 2476SOL    HW224571   1.854   0.087   0.769
 2477SOL     OW24572   5.455   2.955   7.279
 2477SOL    HW124573   5.469   2.976   7.371
 2477SOL    HW224574   5.374   2.905   7.277
 2478SOL     OW24575   5.550   2.544   0.572
 2478SOL    HW124576   5.604   2.499   0.506
 2478SOL    HW224577   5.498   2.474   0.612
 2479SOL     OW24578   2.123   3.552   8.021
 2479SOL    HW124579   2.149   3.546   7.929
 2479SOL    HW224580   2.035   3.589   8.019
 2480SOL     OW24581   0.529   3.748   8.050
 2480SOL    HW124582   0.456   3.807   8.032
 2480SOL    HW224583   0.598   3.776   7.990
 2481SOL     OW24584   3.363   5.946   0.728
 2481SOL    HW124585   3.414   5.994   0.793
 2481SOL    HW224586   3.364   5.855   0.760
 2482SOL     OW24587   2.520   5.204   1.288
 2482SOL    HW124588   2.606   5.174   1.258
 2482SOL    HW224589   2.458   5.165   1.227
 2483SOL     OW24590   1.808   1.345   1.492
 2483SOL    HW124591   1.783   1.254   1.512
 2483SOL    HW224592   1.725   1.390   1.478
 2484SOL     OW24593   1.239   5.431   0.810
 2484SOL    HW124594   1.184   5.402   0.882
 2484SOL    HW224595   1.269   5.349   0.769
 2485SOL     OW24596   2.368   3.697   6.121
 2485SOL    HW124597   2.363   3.789   6.148
 2485SOL    HW224598   2.428   3.698   6.046
 2486SOL     OW24599   1.271   0.452   0.749
 2486SOL    HW124600   1.222   0.420   0.825
 2486SOL    HW224601   1.280   0.546   0.765
 2487SOL     OW24602   1.754   2.781   0.772
 2487SOL    HW124603   1.777   2.713   0.709
 2487SOL    HW224604   1.685   2.742   0.826
 2488SOL     OW24605   0.523   1.032   6.997
 2488SOL    HW124606   0.535   1.034   6.902
 2488SOL    HW224607   0.565   1.112   7.029
 2489SOL     OW24608   5.817   1.427   1.108
 2489SOL    HW124609   5.824   1.445   1.015
 2489SOL    HW224610   5.901   1.388   1.132
 2490SOL     OW24611   5.622   1.852   7.395
 2490SOL    HW124612   5.583   1.814   7.474
 2490SOL    HW224613   5.547   1.880   7.342
 2491SOL     OW24614   4.099   6.142   1.263
 2491SOL    HW124615   4.147   6.210   1.215
 2491SOL    HW224616   4.038   6.106   1.199
 2492SOL     OW24617   4.903   6.167   7.636
 2492SOL    HW124618   4.940   6.140   7.552
 2492SOL    HW224619   4.839   6.234   7.614
 2493SOL     OW24620   0.408   0.102   5.993
 2493SOL    HW124621   0.484   0.055   5.959
 2493SOL    HW224622   0.381   0.159   5.922
 2494SOL     OW24623   4.554   5.905   7.197
 2494SOL    HW124624   4.550   5.809   7.189
 2494SOL    HW224625   4.562   5.935   7.107
 2495SOL     OW24626   4.855   4.019   2.001
 2495SOL    HW124627   4.834   4.057   2.087
 2495SOL    HW224628   4.938   3.973   2.016
 2496SOL     OW24629   2.801   4.423   7.521
 2496SOL    HW124630   2.848   4.506   7.519
 2496SOL    HW224631   2.711   4.447   7.545
 2497SOL     OW24632   4.169   4.864   6.948
 2497SOL    HW124633   4.215   4.792   6.992
 2497SOL    HW224634   4.115   4.822   6.882
 2498SOL     OW24635   4.367   2.355   5.728
 2498SOL    HW124636   4.354   2.304   5.648
 2498SOL    HW224637   4.279   2.370   5.762
 2499SOL     OW24638   0.742   3.062   7.140
 2499SOL    HW124639   0.690   3.076   7.061
 2499SOL    HW224640   0.802   2.991   7.117
 2500SOL     OW24641   2.626   3.378   7.046
 2500SOL    HW124642   2.643   3.470   7.063
 2500SOL    HW224643   2.557   3.378   6.979
 2501SOL     OW24644   0.431   3.713   7.444
 2501SOL    HW124645   0.526   3.710   7.432
 2501SOL    HW224646   0.419   3.741   7.534
 2502SOL     OW24647   1.866   0.287   2.283
 2502SOL    HW124648   1.836   0.364   2.332
 2502SOL    HW224649   1.792   0.264   2.227
 2503SOL     OW24650   3.386   4.958   0.039
 2503SOL    HW124651   3.342   5.021  -0.018
 2503SOL    HW224652   3.322   4.936   0.106
 2504SOL     OW24653   5.581   5.491   0.084
 2504SOL    HW124654   5.531   5.551   0.029
 2504SOL    HW224655   5.670   5.526   0.084
 2505SOL     OW24656   4.140   3.732   0.353
 2505SOL    HW124657   4.155   3.826   0.359
 2505SOL    HW224658   4.219   3.693   0.392
 2506SOL     OW24659   2.887   0.736   1.128
 2506SOL    HW124660   2.840   0.763   1.049
 2506SOL    HW224661   2.823   0.684   1.177
 2507SOL     OW24662   1.767   0.711   7.287
 2507SOL    HW124663   1.714   0.707   7.366
 2507SOL    HW224664   1.857   0.721   7.318
 2508SOL     OW24665   5.951   1.342   7.793
 2508SOL    HW124666   6.021   1.341   7.727
 2508SOL    HW224667   5.885   1.283   7.759
 2509SOL     OW24668   4.784   2.491   0.712
 2509SOL    HW124669   4.802   2.582   0.738
 2509SOL    HW224670   4.814   2.439   0.787
 2510SOL     OW24671   3.775   4.957   0.019
 2510SOL    HW124672   3.715   4.945   0.093
 2510SOL    HW224673   3.822   4.874   0.012
 2511SOL     OW24674   2.713   3.132   7.503
 2511SOL    HW124675   2.753   3.074   7.438
 2511SOL    HW224676   2.619   3.128   7.484
 2512SOL     OW24677   3.294   0.342   7.573
 2512SOL    HW124678   3.200   0.326   7.569
 2512SOL    HW224679   3.311   0.361   7.666
 2513SOL     OW24680   0.348   2.984   1.443
 2513SOL    HW124681   0.419   2.952   1.498
 2513SOL    HW224682   0.268   2.955   1.487
 2514SOL     OW24683   2.296   0.066   2.961
 2514SOL    HW124684   2.292   0.129   3.033
 2514SOL    HW224685   2.250   0.109   2.888
 2515SOL     OW24686   2.430   3.881   6.552
 2515SOL    HW124687   2.415   3.870   6.459
 2515SOL    HW224688   2.518   3.919   6.558
 2516SOL     OW24689   3.765   5.023   7.062
 2516SOL    HW124690   3.836   5.069   7.015
 2516SOL    HW224691   3.810   4.958   7.115
 2517SOL     OW24692   3.217   5.461   0.443
 2517SOL    HW124693   3.218   5.443   0.537
 2517SOL    HW224694   3.202   5.555   0.436
 2518SOL     OW24695   4.706   3.844   6.661
 2518SOL    HW124696   4.717   3.857   6.756
 2518SOL    HW224697   4.767   3.906   6.621
 2519SOL     OW24698   5.868   2.025   7.696
 2519SOL    HW124699   5.816   1.962   7.747
 2519SOL    HW224700   5.885   2.096   7.757
 2520SOL     OW24701   3.743   0.331   7.014
 2520SOL    HW124702   3.672   0.383   7.051
 2520SOL    HW224703   3.715   0.314   6.924
 2521SOL     OW24704   3.366   2.073   2.091
 2521SOL    HW124705   3.382   2.161   2.056
 2521SOL    HW224706   3.410   2.072   2.176
 2522SOL     OW24707   4.921   5.890   5.859
 2522SOL    HW124708   4.987   5.842   5.808
 2522SOL    HW224709   4.973   5.945   5.919
 2523SOL     OW24710   3.605   4.522   7.807
 2523SOL    HW124711   3.594   4.608   7.849
 2523SOL    HW224712   3.699   4.507   7.807
 2524SOL     OW24713   2.590   0.863   6.627
 2524SOL    HW124714   2.545   0.947   6.617
 2524SOL    HW224715   2.608   0.834   6.538
 2525SOL     OW24716   5.581   0.705   2.164
 2525SOL    HW124717   5.619   0.752   2.238
 2525SOL    HW224718   5.498   0.671   2.197
 2526SOL     OW24719   1.609   4.425   6.224
 2526SOL    HW124720   1.578   4.475   6.299
 2526SOL    HW224721   1.661   4.354   6.261
 2527SOL     OW24722   5.179   6.240   7.656
 2527SOL    HW124723   5.201   6.152   7.686
 2527SOL    HW224724   5.085   6.236   7.638
 2528SOL     OW24725   3.343   0.736   0.464
 2528SOL    HW124726   3.329   0.648   0.429
 2528SOL    HW224727   3.259   0.781   0.451
 2529SOL     OW24728   2.892   5.085   0.287
 2529SOL    HW124729   2.903   5.000   0.246
 2529SOL    HW224730   2.963   5.138   0.252
 2530SOL     OW24731   2.131   2.881   6.889
 2530SOL    HW124732   2.046   2.903   6.928
 2530SOL    HW224733   2.191   2.874   6.964
 2531SOL     OW24734   3.498   0.965   7.334
 2531SOL    HW124735   3.502   0.878   7.375
 2531SOL    HW224736   3.586   1.001   7.345
 2532SOL     OW24737   1.284   2.288   0.565
 2532SOL    HW124738   1.272   2.213   0.508
 2532SOL    HW224739   1.228   2.271   0.641
 2533SOL     OW24740   1.440   2.470   0.712
 2533SOL    HW124741   1.385   2.420   0.652
 2533SOL    HW224742   1.397   2.463   0.797
 2534SOL     OW24743   3.439   0.126   7.468
 2534SOL    HW124744   3.397   0.184   7.531
 2534SOL    HW224745   3.428   0.169   7.384
 2535SOL     OW24746   2.503   2.140   7.249
 2535SOL    HW124747   2.428   2.138   7.309
 2535SOL    HW224748   2.466   2.113   7.165
 2536SOL     OW24749   4.306   5.125   1.838
 2536SOL    HW124750   4.267   5.208   1.810
 2536SOL    HW224751   4.386   5.117   1.785
 2537SOL     OW24752   0.508   4.867   1.342
 2537SOL    HW124753   0.425   4.905   1.372
 2537SOL    HW224754   0.487   4.828   1.257
 2538SOL     OW24755   3.459   5.381   8.015
 2538SOL    HW124756   3.401   5.457   8.010
 2538SOL    HW224757   3.399   5.306   8.025
 2539SOL     OW24758   5.517   1.128   1.940
 2539SOL    HW124759   5.429   1.091   1.934
 2539SOL    HW224760   5.518   1.200   1.877
 2540SOL     OW24761   4.002   5.326   0.438
 2540SOL    HW124762   4.012   5.259   0.506
 2540SOL    HW224763   4.081   5.317   0.384
 2541SOL     OW24764   5.075   3.095   6.887
 2541SOL    HW124765   5.089   3.134   6.801
 2541SOL    HW224766   4.990   3.052   6.881
 2542SOL     OW24767   2.552   1.292   2.122
 2542SOL    HW124768   2.627   1.346   2.147
 2542SOL    HW224769   2.491   1.301   2.195
 2543SOL     OW24770   1.755   1.932   6.476
 2543SOL    HW124771   1.713   2.011   6.511
 2543SOL    HW224772   1.687   1.865   6.478
 2544SOL     OW24773   3.582   1.521   6.501
 2544SOL    HW124774   3.668   1.480   6.510
 2544SOL    HW224775   3.595   1.610   6.535
 2545SOL     OW24776   4.269   2.276   0.181
 2545SOL    HW124777   4.208   2.339   0.219
 2545SOL    HW224778   4.298   2.223   0.256
 2546SOL     OW24779   3.552   2.943   7.054
 2546SOL    HW124780   3.644   2.971   7.049
 2546SOL    HW224781   3.525   2.964   7.143
 2547SOL     OW24782   4.710   0.507   7.470
 2547SOL    HW124783   4.700   0.458   7.388
 2547SOL    HW224784   4.804   0.506   7.488
 2548SOL     OW24785   1.435   3.706   0.129
 2548SOL    HW124786   1.526   3.722   0.152
 2548SOL    HW224787   1.403   3.647   0.197
 2549SOL     OW24788   4.970   4.034   1.089
 2549SOL    HW124789   4.876   4.049   1.079
 2549SOL    HW224790   4.976   3.947   1.128
 2550SOL     OW24791   3.565   4.667   7.153
 2550SOL    HW124792   3.527   4.738   7.205
 2550SOL    HW224793   3.514   4.590   7.177
 2551SOL     OW24794   1.648   0.662   7.560
 2551SOL    HW124795   1.617   0.571   7.559
 2551SOL    HW224796   1.609   0.699   7.639
 2552SOL     OW24797   3.842   0.181   6.529
 2552SOL    HW124798   3.796   0.110   6.484
 2552SOL    HW224799   3.861   0.146   6.616
 2553SOL     OW24800   4.367   2.723   7.421
 2553SOL    HW124801   4.405   2.645   7.460
 2553SOL    HW224802   4.290   2.692   7.375
 2554SOL     OW24803   1.716   4.895   2.434
 2554SOL    HW124804   1.686   4.979   2.467
 2554SOL    HW224805   1.810   4.907   2.420
 2555SOL     OW24806   0.204   5.557   1.218
 2555SOL    HW124807   0.258   5.562   1.139
 2555SOL    HW224808   0.153   5.638   1.218
 2556SOL     OW24809   5.214   5.957   2.179
 2556SOL    HW124810   5.266   5.919   2.249
 2556SOL    HW224811   5.176   6.036   2.217
 2557SOL     OW24812   1.482   5.117   7.208
 2557SOL    HW124813   1.487   5.137   7.115
 2557SOL    HW224814   1.392   5.141   7.233
 2558SOL     OW24815   4.588   0.733   7.575
 2558SOL    HW124816   4.599   0.650   7.529
 2558SOL    HW224817   4.496   0.733   7.603
 2559SOL     OW24818   4.977   5.434   7.694
 2559SOL    HW124819   4.900   5.377   7.697
 2559SOL    HW224820   4.980   5.464   7.603
 2560SOL     OW24821   2.721   2.891   0.416
 2560SOL    HW124822   2.779   2.885   0.492
 2560SOL    HW224823   2.636   2.861   0.447
 2561SOL     OW24824   2.566   5.446   6.487
 2561SOL    HW124825   2.591   5.511   6.421
 2561SOL    HW224826   2.483   5.477   6.522
 2562SOL     OW24827   5.783   3.123   1.487
 2562SOL    HW124828   5.721   3.097   1.555
 2562SOL    HW224829   5.729   3.170   1.423
 2563SOL     OW24830   1.237   4.446   2.441
 2563SOL    HW124831   1.190   4.516   2.487
 2563SOL    HW224832   1.181   4.426   2.366
 2564SOL     OW24833   3.761   0.463   6.093
 2564SOL    HW124834   3.822   0.534   6.111
 2564SOL    HW224835   3.801   0.386   6.134
 2565SOL     OW24836   3.752   1.661   1.738
 2565SOL    HW124837   3.664   1.692   1.717
 2565SOL    HW224838   3.799   1.668   1.655
 2566SOL     OW24839   5.767   5.607   7.511
 2566SOL    HW124840   5.833   5.672   7.534
 2566SOL    HW224841   5.756   5.555   7.590
 2567SOL     OW24842   2.439   1.109   6.679
 2567SOL    HW124843   2.441   1.104   6.775
 2567SOL    HW224844   2.376   1.178   6.660
 2568SOL     OW24845   3.305   1.246   6.431
 2568SOL    HW124846   3.382   1.227   6.486
 2568SOL    HW224847   3.312   1.184   6.359
 2569SOL     OW24848   0.188   4.674   6.114
 2569SOL    HW124849   0.246   4.652   6.042
 2569SOL    HW224850   0.128   4.739   6.078
 2570SOL     OW24851   4.036   4.688   1.449
 2570SOL    HW124852   4.119   4.694   1.401
 2570SOL    HW224853   4.004   4.778   1.452
 2571SOL     OW24854   0.239   4.719   7.254
 2571SOL    HW124855   0.250   4.624   7.244
 2571SOL    HW224856   0.202   4.747   7.170
 2572SOL     OW24857   5.353   2.459   1.039
 2572SOL    HW124858   5.398   2.520   1.098
 2572SOL    HW224859   5.424   2.411   0.995
 2573SOL     OW24860   0.523   1.584   5.753
 2573SOL    HW124861   0.584   1.526   5.798
 2573SOL    HW224862   0.576   1.658   5.724
 2574SOL     OW24863   5.038   2.661   1.920
 2574SOL    HW124864   5.048   2.731   1.856
 2574SOL    HW224865   5.063   2.702   2.003
 2575SOL     OW24866   1.915   0.940   6.568
 2575SOL    HW124867   1.925   0.852   6.605
 2575SOL    HW224868   1.841   0.978   6.616
 2576SOL     OW24869   4.518   4.684   6.873
 2576SOL    HW124870   4.606   4.684   6.911
 2576SOL    HW224871   4.461   4.706   6.947
 2577SOL     OW24872   1.769   0.007   6.580
 2577SOL    HW124873   1.701  -0.060   6.571
 2577SOL    HW224874   1.837  -0.019   6.518
 2578SOL     OW24875   1.589   1.726   0.154
 2578SOL    HW124876   1.619   1.655   0.211
 2578SOL    HW224877   1.498   1.704   0.134
 2579SOL     OW24878   4.357   1.262   0.175
 2579SOL    HW124879   4.283   1.320   0.195
 2579SOL    HW224880   4.339   1.182   0.225
 2580SOL     OW24881   2.211   5.194   7.789
 2580SOL    HW124882   2.172   5.259   7.848
 2580SOL    HW224883   2.136   5.146   7.753
 2581SOL     OW24884   5.697   2.498   7.859
 2581SOL    HW124885   5.604   2.500   7.880
 2581SOL    HW224886   5.717   2.588   7.831
 2582SOL     OW24887   1.115   5.375   8.018
 2582SOL    HW124888   1.089   5.467   8.030
 2582SOL    HW224889   1.200   5.368   8.060
 2583SOL     OW24890   1.564   2.135   6.808
 2583SOL    HW124891   1.489   2.113   6.863
 2583SOL    HW224892   1.536   2.112   6.719
 2584SOL     OW24893   3.974   1.213   6.412
 2584SOL    HW124894   3.927   1.134   6.440
 2584SOL    HW224895   4.065   1.185   6.402
 2585SOL     OW24896   1.347   4.194   1.247
 2585SOL    HW124897   1.416   4.238   1.196
 2585SOL    HW224898   1.347   4.104   1.215
 2586SOL     OW24899   4.690   0.003   7.662
 2586SOL    HW124900   4.651  -0.062   7.721
 2586SOL    HW224901   4.618   0.061   7.639
 2587SOL     OW24902   3.681   4.165   7.970
 2587SOL    HW124903   3.610   4.229   7.971
 2587SOL    HW224904   3.709   4.160   8.061
 2588SOL     OW24905   5.610   1.783   7.085
 2588SOL    HW124906   5.672   1.774   7.156
 2588SOL    HW224907   5.555   1.705   7.090
 2589SOL     OW24908   1.593   1.960   2.252
 2589SOL    HW124909   1.579   1.918   2.337
 2589SOL    HW224910   1.659   2.027   2.268
 2590SOL     OW24911   5.450   5.378   7.675
 2590SOL    HW124912   5.368   5.426   7.683
 2590SOL    HW224913   5.437   5.300   7.729
 2591SOL     OW24914   2.308   0.059   0.288
 2591SOL    HW124915   2.218   0.087   0.303
 2591SOL    HW224916   2.302  -0.034   0.266
 2592SOL     OW24917   0.976   0.419   7.080
 2592SOL    HW124918   1.029   0.496   7.103
 2592SOL    HW224919   1.005   0.352   7.142
 2593SOL     OW24920   2.190   5.725   7.744
 2593SOL    HW124921   2.214   5.773   7.665
 2593SOL    HW224922   2.175   5.635   7.715
 2594SOL     OW24923   2.228   4.021   7.675
 2594SOL    HW124924   2.150   4.064   7.639
 2594SOL    HW224925   2.270   3.980   7.599
 2595SOL     OW24926   3.452   4.986   6.656
 2595SOL    HW124927   3.408   4.920   6.710
 2595SOL    HW224928   3.450   5.066   6.709
 2596SOL     OW24929   4.938   6.317   1.969
 2596SOL    HW124930   4.917   6.344   2.058
 2596SOL    HW224931   5.030   6.293   1.972
 2597SOL     OW24932   4.043   0.875   2.078
 2597SOL    HW124933   4.009   0.918   2.157
 2597SOL    HW224934   4.083   0.794   2.111
 2598SOL     OW24935   0.598   6.266   6.408
 2598SOL    HW124936   0.620   6.226   6.324
 2598SOL    HW224937   0.548   6.199   6.455
 2599SOL     OW24938   3.598   2.248   0.017
 2599SOL    HW124939   3.516   2.263   0.064
 2599SOL    HW224940   3.666   2.266   0.082
 2600SOL     OW24941   1.011   0.728   1.217
 2600SOL    HW124942   0.949   0.783   1.170
 2600SOL    HW224943   0.966   0.706   1.299
 2601SOL     OW24944   4.780   3.274   6.445
 2601SOL    HW124945   4.706   3.319   6.485
 2601SOL    HW224946   4.747   3.245   6.360
 2602SOL     OW24947   3.278   5.917   1.784
 2602SOL    HW124948   3.187   5.905   1.812
 2602SOL    HW224949   3.327   5.854   1.837
 2603SOL     OW24950   4.140   4.535   6.411
 2603SOL    HW124951   4.128   4.441   6.398
 2603SOL    HW224952   4.217   4.557   6.359
 2604SOL     OW24953   3.516   2.058   0.840
 2604SOL    HW124954   3.467   2.064   0.758
 2604SOL    HW224955   3.607   2.047   0.813
 2605SOL     OW24956   4.938   0.734   1.154
 2605SOL    HW124957   4.979   0.820   1.161
 2605SOL    HW224958   4.851   0.751   1.117
 2606SOL     OW24959   4.499   5.634   1.510
 2606SOL    HW124960   4.531   5.651   1.422
 2606SOL    HW224961   4.566   5.671   1.568
 2607SOL     OW24962   1.885   5.097   0.849
 2607SOL    HW124963   1.829   5.119   0.924
 2607SOL    HW224964   1.844   5.019   0.811
 2608SOL     OW24965   1.350   2.059   0.912
 2608SOL    HW124966   1.287   2.096   0.851
 2608SOL    HW224967   1.419   2.023   0.856
 2609SOL     OW24968   4.328   4.271   0.520
 2609SOL    HW124969   4.344   4.265   0.615
 2609SOL    HW224970   4.403   4.226   0.481
 2610SOL     OW24971   4.396   1.249   0.869
 2610SOL    HW124972   4.421   1.332   0.830
 2610SOL    HW224973   4.342   1.273   0.944
 2611SOL     OW24974   2.841   5.269   0.500
 2611SOL    HW124975   2.865   5.207   0.431
 2611SOL    HW224976   2.857   5.355   0.462
 2612SOL     OW24977   0.325   1.462   6.130
 2612SOL    HW124978   0.317   1.370   6.103
 2612SOL    HW224979   0.323   1.511   6.048
 2613SOL     OW24980   3.431   4.576   6.402
 2613SOL    HW124981   3.424   4.608   6.492
 2613SOL    HW224982   3.351   4.527   6.387
 2614SOL     OW24983   2.939   0.833   2.061
 2614SOL    HW124984   3.023   0.789   2.076
 2614SOL    HW224985   2.908   0.798   1.978
 2615SOL     OW24986   0.778   3.591   6.001
 2615SOL    HW124987   0.701   3.641   5.973
 2615SOL    HW224988   0.846   3.615   5.938
 2616SOL     OW24989   2.619   1.715   0.951
 2616SOL    HW124990   2.661   1.801   0.944
 2616SOL    HW224991   2.550   1.716   0.885
 2617SOL     OW24992   0.618   2.862   1.897
 2617SOL    HW124993   0.705   2.877   1.935
 2617SOL    HW224994   0.599   2.943   1.850
 2618SOL     OW24995   4.092   1.166   2.368
 2618SOL    HW124996   4.074   1.236   2.431
 2618SOL    HW224997   4.034   1.185   2.294
 2619SOL     OW24998   1.522   1.512   2.418
 2619SOL    HW124999   1.531   1.480   2.328
 2619SOL    HW225000   1.503   1.434   2.469
 2620SOL     OW25001   5.525   1.486   1.313
 2620SOL    HW125002   5.554   1.485   1.221
 2620SOL    HW225003   5.472   1.407   1.322
 2621SOL     OW25004   1.492   1.450   7.548
 2621SOL    HW125005   1.480   1.355   7.548
 2621SOL    HW225006   1.403   1.485   7.550
 2622SOL     OW25007   2.380   1.387   7.521
 2622SOL    HW125008   2.332   1.402   7.440
 2622SOL    HW225009   2.321   1.416   7.590
 2623SOL     OW25010   3.393   2.688   7.658
 2623SOL    HW125011   3.400   2.612   7.716
 2623SOL    HW225012   3.471   2.684   7.603
 2624SOL     OW25013   1.549   3.922   7.162
 2624SOL    HW125014   1.457   3.944   7.147
 2624SOL    HW225015   1.568   3.855   7.096
 2625SOL     OW25016   6.178   1.501   1.775
 2625SOL    HW125017   6.178   1.489   1.870
 2625SOL    HW225018   6.129   1.426   1.741
 2626SOL     OW25019   0.543   4.010   6.195
 2626SOL    HW125020   0.458   3.974   6.170
 2626SOL    HW225021   0.529   4.105   6.194
 2627SOL     OW25022   1.698   3.565   8.001
 2627SOL    HW125023   1.715   3.482   7.957
 2627SOL    HW225024   1.638   3.611   7.941
 2628SOL     OW25025   5.235   3.822   0.768
 2628SOL    HW125026   5.271   3.774   0.843
 2628SOL    HW225027   5.244   3.915   0.792
 2629SOL     OW25028   0.193   2.004   6.669
 2629SOL    HW125029   0.128   2.012   6.739
 2629SOL    HW225030   0.146   1.959   6.599
 2630SOL     OW25031   3.510   5.232   0.667
 2630SOL    HW125032   3.493   5.203   0.577
 2630SOL    HW225033   3.597   5.271   0.663
 2631SOL     OW25034   2.779   0.574   2.675
 2631SOL    HW125035   2.764   0.510   2.745
 2631SOL    HW225036   2.703   0.563   2.617
 2632SOL     OW25037   3.571   0.747   7.462
 2632SOL    HW125038   3.614   0.677   7.414
 2632SOL    HW225039   3.595   0.732   7.554
 2633SOL     OW25040   3.317   5.114   0.968
 2633SOL    HW125041   3.363   5.060   0.905
 2633SOL    HW225042   3.381   5.180   0.995
 2634SOL     OW25043   6.096   4.576   2.303
 2634SOL    HW125044   6.013   4.612   2.271
 2634SOL    HW225045   6.143   4.550   2.224
 2635SOL     OW25046   5.003   5.395   7.112
 2635SOL    HW125047   4.909   5.387   7.093
 2635SOL    HW225048   5.043   5.323   7.063
 2636SOL     OW25049   5.283   3.365   1.405
 2636SOL    HW125050   5.222   3.417   1.352
 2636SOL    HW225051   5.367   3.373   1.359
 2637SOL     OW25052   0.102   2.221   6.303
 2637SOL    HW125053   0.165   2.238   6.233
 2637SOL    HW225054   0.048   2.149   6.270
 2638SOL     OW25055   5.784   2.086   7.431
 2638SOL    HW125056   5.818   2.093   7.520
 2638SOL    HW225057   5.726   2.010   7.433
 2639SOL     OW25058   4.676   0.763   5.623
 2639SOL    HW125059   4.624   0.717   5.689
 2639SOL    HW225060   4.738   0.698   5.592
 2640SOL     OW25061   4.692   0.135   6.613
 2640SOL    HW125062   4.605   0.097   6.628
 2640SOL    HW225063   4.743   0.108   6.689
 2641SOL     OW25064   6.165   1.665   0.990
 2641SOL    HW125065   6.151   1.596   1.055
 2641SOL    HW225066   6.186   1.743   1.043
 2642SOL     OW25067   1.876   3.440   1.204
 2642SOL    HW125068   1.809   3.375   1.183
 2642SOL    HW225069   1.952   3.413   1.153
 2643SOL     OW25070   3.532   6.178   1.462
 2643SOL    HW125071   3.482   6.259   1.450
 2643SOL    HW225072   3.528   6.162   1.557
 2644SOL     OW25073   1.261   1.183   2.291
 2644SOL    HW125074   1.278   1.114   2.227
 2644SOL    HW225075   1.175   1.217   2.267
 2645SOL     OW25076   2.127   6.175   7.771
 2645SOL    HW125077   2.173   6.146   7.692
 2645SOL    HW225078   2.050   6.222   7.739
 2646SOL     OW25079   3.463   4.394   1.656
 2646SOL    HW125080   3.482   4.301   1.662
 2646SOL    HW225081   3.519   4.434   1.723
 2647SOL     OW25082   3.841   3.186   1.949
 2647SOL    HW125083   3.766   3.231   1.910
 2647SOL    HW225084   3.840   3.213   2.041
 2648SOL     OW25085   3.208   1.911   0.991
 2648SOL    HW125086   3.195   1.958   0.909
 2648SOL    HW225087   3.148   1.955   1.052
 2649SOL     OW25088   0.094   6.046   6.831
 2649SOL    HW125089   0.033   6.094   6.886
 2649SOL    HW225090   0.157   6.112   6.801
 2650SOL     OW25091   4.517   5.226   7.487
 2650SOL    HW125092   4.421   5.221   7.478
 2650SOL    HW225093   4.530   5.260   7.575
 2651SOL     OW25094   1.284   3.139   0.343
 2651SOL    HW125095   1.255   3.048   0.347
 2651SOL    HW225096   1.287   3.160   0.250
 2652SOL     OW25097   3.188   5.273   7.740
 2652SOL    HW125098   3.190   5.364   7.710
 2652SOL    HW225099   3.264   5.233   7.698
 2653SOL     OW25100   4.628   3.903   5.646
 2653SOL    HW125101   4.551   3.911   5.702
 2653SOL    HW225102   4.601   3.939   5.562
 2654SOL     OW25103   1.086   4.597   1.043
 2654SOL    HW125104   1.158   4.589   0.980
 2654SOL    HW225105   1.033   4.519   1.029
 2655SOL     OW25106   3.734   3.572   1.951
 2655SOL    HW125107   3.804   3.635   1.971
 2655SOL    HW225108   3.727   3.519   2.030
 2656SOL     OW25109   5.440   2.627   7.056
 2656SOL    HW125110   5.499   2.702   7.065
 2656SOL    HW225111   5.470   2.583   6.977
 2657SOL     OW25112   0.670   1.981   0.877
 2657SOL    HW125113   0.585   1.939   0.869
 2657SOL    HW225114   0.733   1.917   0.844
 2658SOL     OW25115   0.445   2.753   2.068
 2658SOL    HW125116   0.363   2.799   2.050
 2658SOL    HW225117   0.503   2.778   1.996
 2659SOL     OW25118   1.364   0.448   7.330
 2659SOL    HW125119   1.354   0.533   7.373
 2659SOL    HW225120   1.353   0.466   7.237
 2660SOL     OW25121   2.685   4.695   1.107
 2660SOL    HW125122   2.677   4.653   1.022
 2660SOL    HW225123   2.728   4.629   1.163
 2661SOL     OW25124   1.682   4.455   0.068
 2661SOL    HW125125   1.709   4.462  -0.024
 2661SOL    HW225126   1.646   4.541   0.088
 2662SOL     OW25127   0.896   1.044   6.798
 2662SOL    HW125128   0.895   1.023   6.705
 2662SOL    HW225129   0.862   0.965   6.841
 2663SOL     OW25130   2.901   4.308   1.386
 2663SOL    HW125131   2.822   4.341   1.429
 2663SOL    HW225132   2.904   4.215   1.409
 2664SOL     OW25133   0.738   0.265   7.320
 2664SOL    HW125134   0.814   0.302   7.366
 2664SOL    HW225135   0.715   0.331   7.255
 2665SOL     OW25136   4.995   4.923   0.154
 2665SOL    HW125137   4.923   4.960   0.203
 2665SOL    HW225138   5.063   4.906   0.219
 2666SOL     OW25139   4.894   0.172   0.013
 2666SOL    HW125140   4.830   0.232  -0.024
 2666SOL    HW225141   4.848   0.087   0.016
 2667SOL     OW25142   4.355   2.376   2.352
 2667SOL    HW125143   4.401   2.448   2.396
 2667SOL    HW225144   4.308   2.418   2.280
 2668SOL     OW25145   4.263   0.267   8.065
 2668SOL    HW125146   4.315   0.198   8.024
 2668SOL    HW225147   4.246   0.234   8.154
 2669SOL     OW25148   0.256   5.892   7.140
 2669SOL    HW125149   0.269   5.986   7.128
 2669SOL    HW225150   0.312   5.870   7.215
 2670SOL     OW25151   4.224   1.812   7.239
 2670SOL    HW125152   4.282   1.880   7.270
 2670SOL    HW225153   4.172   1.788   7.316
 2671SOL     OW25154   2.431   2.063   1.423
 2671SOL    HW125155   2.344   2.027   1.445
 2671SOL    HW225156   2.415   2.121   1.349
 2672SOL     OW25157   3.509   2.126   7.853
 2672SOL    HW125158   3.540   2.179   7.926
 2672SOL    HW225159   3.497   2.038   7.890
 2673SOL     OW25160   0.414   4.150   0.929
 2673SOL    HW125161   0.448   4.219   0.985
 2673SOL    HW225162   0.343   4.110   0.981
 2674SOL     OW25163   0.756   2.002   1.780
 2674SOL    HW125164   0.820   2.036   1.842
 2674SOL    HW225165   0.789   1.915   1.758
 2675SOL     OW25166   3.325   0.569   6.841
 2675SOL    HW125167   3.264   0.596   6.772
 2675SOL    HW225168   3.282   0.495   6.883
 2676SOL     OW25169   0.645   2.382   7.025
 2676SOL    HW125170   0.564   2.393   6.975
 2676SOL    HW225171   0.696   2.461   7.006
 2677SOL     OW25172   5.335   0.918   0.370
 2677SOL    HW125173   5.363   0.999   0.413
 2677SOL    HW225174   5.375   0.848   0.421
 2678SOL     OW25175   6.204   3.789   0.168
 2678SOL    HW125176   6.130   3.799   0.229
 2678SOL    HW225177   6.182   3.711   0.117
 2679SOL     OW25178   5.537   0.277   1.797
 2679SOL    HW125179   5.631   0.295   1.797
 2679SOL    HW225180   5.496   0.363   1.809
 2680SOL     OW25181   0.028   5.905   6.040
 2680SOL    HW125182   0.041   5.849   5.964
 2680SOL    HW225183  -0.057   5.878   6.076
 2681SOL     OW25184   6.062   2.947   7.643
 2681SOL    HW125185   5.998   2.930   7.573
 2681SOL    HW225186   6.019   3.011   7.699
 2682SOL     OW25187   5.142   2.086   5.870
 2682SOL    HW125188   5.059   2.118   5.904
 2682SOL    HW225189   5.148   2.120   5.781
 2683SOL     OW25190   2.941   2.316   0.981
 2683SOL    HW125191   2.855   2.325   1.021
 2683SOL    HW225192   2.941   2.227   0.945
 2684SOL     OW25193   0.412   4.660   7.014
 2684SOL    HW125194   0.457   4.742   7.038
 2684SOL    HW225195   0.322   4.688   6.995
 2685SOL     OW25196   6.233   0.765   6.606
 2685SOL    HW125197   6.166   0.831   6.621
 2685SOL    HW225198   6.273   0.789   6.523
 2686SOL     OW25199   3.040   3.151   1.929
 2686SOL    HW125200   3.060   3.145   2.023
 2686SOL    HW225201   2.951   3.186   1.926
 2687SOL     OW25202   5.622   5.891   1.717
 2687SOL    HW125203   5.594   5.837   1.790
 2687SOL    HW225204   5.699   5.938   1.749
 2688SOL     OW25205   4.577   2.385   6.439
 2688SOL    HW125206   4.631   2.311   6.465
 2688SOL    HW225207   4.634   2.461   6.449
 2689SOL     OW25208   1.045   5.465   6.838
 2689SOL    HW125209   1.019   5.494   6.925
 2689SOL    HW225210   1.063   5.546   6.791
 2690SOL     OW25211   3.845   4.335   1.605
 2690SOL    HW125212   3.851   4.430   1.616
 2690SOL    HW225213   3.771   4.309   1.660
 2691SOL     OW25214   3.696   6.235   7.172
 2691SOL    HW125215   3.768   6.247   7.110
 2691SOL    HW225216   3.711   6.300   7.240
 2692SOL     OW25217   6.139   3.826   7.690
 2692SOL    HW125218   6.118   3.742   7.650
 2692SOL    HW225219   6.120   3.891   7.622
 2693SOL     OW25220   0.651   6.342   7.566
 2693SOL    HW125221   0.677   6.413   7.507
 2693SOL    HW225222   0.588   6.382   7.625
 2694SOL     OW25223   5.838   1.860   0.416
 2694SOL    HW125224   5.911   1.801   0.433
 2694SOL    HW225225   5.814   1.842   0.325
 2695SOL     OW25226   1.786   4.840   0.459
 2695SOL    HW125227   1.745   4.754   0.449
 2695SOL    HW225228   1.810   4.866   0.370
 2696SOL     OW25229   3.768   3.760   5.773
 2696SOL    HW125230   3.703   3.791   5.710
 2696SOL    HW225231   3.848   3.750   5.723
 2697SOL     OW25232   5.526   5.291   1.714
 2697SOL    HW125233   5.462   5.349   1.755
 2697SOL    HW225234   5.572   5.346   1.651
 2698SOL     OW25235   0.922   4.104   1.954
 2698SOL    HW125236   0.912   4.138   2.043
 2698SOL    HW225237   0.952   4.014   1.966
 2699SOL     OW25238   1.685   0.599   0.845
 2699SOL    HW125239   1.658   0.551   0.924
 2699SOL    HW225240   1.769   0.560   0.821
 2700SOL     OW25241   3.171   1.686   6.902
 2700SOL    HW125242   3.115   1.701   6.826
 2700SOL    HW225243   3.163   1.592   6.920
 2701SOL     OW25244   3.003   4.776   8.028
 2701SOL    HW125245   3.072   4.713   8.048
 2701SOL    HW225246   2.951   4.733   7.960
 2702SOL     OW25247   2.917   6.307   7.244
 2702SOL    HW125248   2.955   6.283   7.160
 2702SOL    HW225249   2.899   6.223   7.287
 2703SOL     OW25250   5.523   5.651   1.915
 2703SOL    HW125251   5.520   5.674   2.008
 2703SOL    HW225252   5.433   5.627   1.894
 2704SOL     OW25253   1.377   5.274   1.730
 2704SOL    HW125254   1.397   5.206   1.666
 2704SOL    HW225255   1.462   5.296   1.769
 2705SOL     OW25256   5.899   4.589   7.135
 2705SOL    HW125257   5.964   4.625   7.195
 2705SOL    HW225258   5.819   4.639   7.154
 2706SOL     OW25259   6.027   1.166   6.941
 2706SOL    HW125260   5.991   1.185   7.028
 2706SOL    HW225261   5.950   1.151   6.886
 2707SOL     OW25262   5.233   5.941   0.019
 2707SOL    HW125263   5.316   5.988   0.015
 2707SOL    HW225264   5.241   5.885   0.096
 2708SOL     OW25265   1.129   0.133   7.675
 2708SOL    HW125266   1.078   0.103   7.750
 2708SOL    HW225267   1.207   0.173   7.714
 2709SOL     OW25268   4.490   3.750   7.055
 2709SOL    HW125269   4.450   3.664   7.044
 2709SOL    HW225270   4.478   3.771   7.147
 2710SOL     OW25271   1.552   0.873   6.427
 2710SOL    HW125272   1.499   0.875   6.347
 2710SOL    HW225273   1.597   0.958   6.428
 2711SOL     OW25274   1.412   2.159   7.404
 2711SOL    HW125275   1.430   2.180   7.313
 2711SOL    HW225276   1.409   2.244   7.449
 2712SOL     OW25277   5.787   4.388   6.033
 2712SOL    HW125278   5.770   4.294   6.031
 2712SOL    HW225279   5.786   4.415   5.941
 2713SOL     OW25280   3.624   5.357   1.059
 2713SOL    HW125281   3.701   5.301   1.046
 2713SOL    HW225282   3.651   5.420   1.125
 2714SOL     OW25283   1.491   0.140   2.199
 2714SOL    HW125284   1.404   0.136   2.159
 2714SOL    HW225285   1.486   0.079   2.273
 2715SOL     OW25286   3.967   3.266   7.063
 2715SOL    HW125287   3.903   3.308   7.120
 2715SOL    HW225288   3.918   3.197   7.018
 2716SOL     OW25289   5.979   3.804   1.197
 2716SOL    HW125290   5.913   3.758   1.146
 2716SOL    HW225291   5.938   3.819   1.282
 2717SOL     OW25292   4.932   2.193   7.184
 2717SOL    HW125293   5.024   2.180   7.164
 2717SOL    HW225294   4.915   2.136   7.259
 2718SOL     OW25295   0.644   1.811   5.662
 2718SOL    HW125296   0.602   1.847   5.584
 2718SOL    HW225297   0.668   1.887   5.714
 2719SOL     OW25298   0.560   1.883   0.250
 2719SOL    HW125299   0.601   1.812   0.200
 2719SOL    HW225300   0.537   1.948   0.183
 2720SOL     OW25301   3.945   6.095   1.052
 2720SOL    HW125302   3.875   6.151   1.085
 2720SOL    HW225303   3.951   6.116   0.959
 2721SOL     OW25304   5.094   4.440   1.583
 2721SOL    HW125305   5.119   4.382   1.511
 2721SOL    HW225306   5.007   4.471   1.559
 2722SOL     OW25307   3.692   2.768   6.725
 2722SOL    HW125308   3.694   2.692   6.666
 2722SOL    HW225309   3.702   2.730   6.812
 2723SOL     OW25310   2.764   3.585   0.315
 2723SOL    HW125311   2.818   3.533   0.256
 2723SOL    HW225312   2.687   3.608   0.263
 2724SOL     OW25313   6.084   4.334   0.292
 2724SOL    HW125314   6.075   4.259   0.233
 2724SOL    HW225315   6.079   4.410   0.234
 2725SOL     OW25316   0.939   0.983   1.882
 2725SOL    HW125317   0.908   0.955   1.796
 2725SOL    HW225318   0.988   0.909   1.916
 2726SOL     OW25319   2.367   5.629   1.201
 2726SOL    HW125320   2.429   5.557   1.191
 2726SOL    HW225321   2.289   5.588   1.238
 2727SOL     OW25322   0.783   4.540   6.236
 2727SOL    HW125323   0.689   4.526   6.224
 2727SOL    HW225324   0.815   4.561   6.148
 2728SOL     OW25325   3.162   2.004   0.713
 2728SOL    HW125326   3.185   1.966   0.628
 2728SOL    HW225327   3.215   2.084   0.718
 2729SOL     OW25328   2.110   4.427   0.411
 2729SOL    HW125329   2.104   4.464   0.499
 2729SOL    HW225330   2.050   4.479   0.358
 2730SOL     OW25331   1.357   2.261   6.414
 2730SOL    HW125332   1.333   2.348   6.384
 2730SOL    HW225333   1.282   2.206   6.391
 2731SOL     OW25334   0.332   6.061   0.509
 2731SOL    HW125335   0.275   5.988   0.485
 2731SOL    HW225336   0.319   6.125   0.439
 2732SOL     OW25337   1.640   5.055   2.073
 2732SOL    HW125338   1.609   5.043   1.983
 2732SOL    HW225339   1.729   5.021   2.073
 2733SOL     OW25340   3.424   4.451   1.277
 2733SOL    HW125341   3.348   4.508   1.261
 2733SOL    HW225342   3.394   4.388   1.341
 2734SOL     OW25343   4.493   0.759   6.592
 2734SOL    HW125344   4.468   0.687   6.535
 2734SOL    HW225345   4.475   0.726   6.681
 2735SOL     OW25346   3.349   4.401   2.075
 2735SOL    HW125347   3.337   4.327   2.135
 2735SOL    HW225348   3.391   4.362   1.998
 2736SOL     OW25349   2.336   0.949   6.247
 2736SOL    HW125350   2.364   0.994   6.327
 2736SOL    HW225351   2.385   0.866   6.248
 2737SOL     OW25352   2.069   2.135   0.899
 2737SOL    HW125353   2.120   2.140   0.818
 2737SOL    HW225354   2.069   2.225   0.932
 2738SOL     OW25355   4.434   1.459   7.103
 2738SOL    HW125356   4.374   1.530   7.080
 2738SOL    HW225357   4.433   1.458   7.199
 2739SOL     OW25358   1.093   0.047   7.050
 2739SOL    HW125359   1.002   0.078   7.048
 2739SOL    HW225360   1.085  -0.049   7.043
 2740SOL     OW25361   0.696   2.372   2.172
 2740SOL    HW125362   0.789   2.357   2.189
 2740SOL    HW225363   0.675   2.452   2.219
 2741SOL     OW25364   1.882   0.204   0.906
 2741SOL    HW125365   1.934   0.241   0.835
 2741SOL    HW225366   1.942   0.199   0.980
 2742SOL     OW25367   0.560   3.572   1.011
 2742SOL    HW125368   0.508   3.493   0.994
 2742SOL    HW225369   0.588   3.562   1.103
 2743SOL     OW25370   3.294   1.040   6.238
 2743SOL    HW125371   3.385   1.029   6.211
 2743SOL    HW225372   3.245   1.047   6.157
 2744SOL     OW25373   5.804   4.126   6.297
 2744SOL    HW125374   5.859   4.096   6.224
 2744SOL    HW225375   5.731   4.171   6.254
 2745SOL     OW25376   5.240   4.762   7.467
 2745SOL    HW125377   5.148   4.774   7.492
 2745SOL    HW225378   5.237   4.700   7.394
 2746SOL     OW25379   3.470   6.014   2.297
 2746SOL    HW125380   3.395   6.063   2.331
 2746SOL    HW225381   3.546   6.064   2.326
 2747SOL     OW25382   0.587   3.880   0.236
 2747SOL    HW125383   0.556   3.970   0.247
 2747SOL    HW225384   0.569   3.859   0.145
 2748SOL     OW25385   4.643   4.649   1.368
 2748SOL    HW125386   4.630   4.744   1.370
 2748SOL    HW225387   4.559   4.613   1.397
 2749SOL     OW25388   5.787   5.463   2.404
 2749SOL    HW125389   5.792   5.448   2.310
 2749SOL    HW225390   5.875   5.489   2.430
 2750SOL     OW25391   2.046   3.972   1.633
 2750SOL    HW125392   2.059   4.036   1.564
 2750SOL    HW225393   2.081   3.891   1.598
 2751SOL     OW25394   3.293   3.120   2.105
 2751SOL    HW125395   3.209   3.114   2.151
 2751SOL    HW225396   3.311   3.214   2.101
 2752SOL     OW25397   2.892   2.779   1.101
 2752SOL    HW125398   2.937   2.696   1.119
 2752SOL    HW225399   2.962   2.843   1.090
 2753SOL     OW25400   3.249   5.062   1.334
 2753SOL    HW125401   3.273   5.152   1.356
 2753SOL    HW225402   3.248   5.061   1.238
 2754SOL     OW25403   5.690   5.257   5.962
 2754SOL    HW125404   5.689   5.352   5.969
 2754SOL    HW225405   5.777   5.236   5.928
 2755SOL     OW25406   4.377   5.476   5.863
 2755SOL    HW125407   4.311   5.524   5.914
 2755SOL    HW225408   4.435   5.439   5.929
 2756SOL     OW25409   2.145   3.371   1.109
 2756SOL    HW125410   2.209   3.365   1.039
 2756SOL    HW225411   2.154   3.460   1.143
 2757SOL     OW25412   0.117   0.177   7.309
 2757SOL    HW125413   0.087   0.190   7.399
 2757SOL    HW225414   0.109   0.264   7.269
 2758SOL     OW25415   3.279   4.048   0.694
 2758SOL    HW125416   3.292   4.115   0.626
 2758SOL    HW225417   3.213   3.989   0.656
 2759SOL     OW25418   2.953   2.579   0.376
 2759SOL    HW125419   2.876   2.542   0.331
 2759SOL    HW225420   2.999   2.628   0.307
 2760SOL     OW25421   3.893   2.255   1.856
 2760SOL    HW125422   3.888   2.269   1.950
 2760SOL    HW225423   3.874   2.162   1.844
 2761SOL     OW25424   4.904   1.454   6.823
 2761SOL    HW125425   4.906   1.458   6.728
 2761SOL    HW225426   4.812   1.467   6.846
 2762SOL     OW25427   2.490   5.808   6.811
 2762SOL    HW125428   2.404   5.832   6.777
 2762SOL    HW225429   2.471   5.754   6.888
 2763SOL     OW25430   5.771   5.865   1.459
 2763SOL    HW125431   5.796   5.773   1.457
 2763SOL    HW225432   5.740   5.879   1.549
 2764SOL     OW25433   6.335   4.005   7.386
 2764SOL    HW125434   6.336   4.048   7.301
 2764SOL    HW225435   6.243   3.985   7.402
 2765SOL     OW25436   2.407   1.163   6.094
 2765SOL    HW125437   2.494   1.146   6.059
 2765SOL    HW225438   2.389   1.089   6.152
 2766SOL     OW25439   4.100   1.954   0.463
 2766SOL    HW125440   4.025   1.962   0.521
 2766SOL    HW225441   4.114   1.860   0.453
 2767SOL     OW25442   1.436   2.764   0.892
 2767SOL    HW125443   1.352   2.732   0.924
 2767SOL    HW225444   1.418   2.853   0.862
 2768SOL     OW25445   5.828   4.712   7.932
 2768SOL    HW125446   5.735   4.691   7.944
 2768SOL    HW225447   5.833   4.747   7.843
 2769SOL     OW25448   0.466   4.841   7.283
 2769SOL    HW125449   0.496   4.814   7.369
 2769SOL    HW225450   0.386   4.790   7.267
 2770SOL     OW25451   2.567   2.663   6.645
 2770SOL    HW125452   2.662   2.667   6.652
 2770SOL    HW225453   2.550   2.576   6.608
 2771SOL     OW25454   1.224   4.699   7.980
 2771SOL    HW125455   1.247   4.752   8.056
 2771SOL    HW225456   1.228   4.759   7.906
 2772SOL     OW25457   2.372   0.360   1.357
 2772SOL    HW125458   2.345   0.421   1.288
 2772SOL    HW225459   2.359   0.274   1.318
 2773SOL     OW25460   5.859   2.691   6.932
 2773SOL    HW125461   5.902   2.760   6.982
 2773SOL    HW225462   5.866   2.613   6.987
 2774SOL     OW25463   3.784   1.723   0.661
 2774SOL    HW125464   3.695   1.747   0.687
 2774SOL    HW225465   3.839   1.793   0.696
 2775SOL     OW25466   1.728   0.619   1.369
 2775SOL    HW125467   1.742   0.584   1.281
 2775SOL    HW225468   1.815   0.642   1.400
 2776SOL     OW25469   4.521   1.290   1.142
 2776SOL    HW125470   4.551   1.329   1.060
 2776SOL    HW225471   4.433   1.326   1.154
 2777SOL     OW25472   4.090   1.850   1.634
 2777SOL    HW125473   4.129   1.931   1.667
 2777SOL    HW225474   4.008   1.878   1.593
 2778SOL     OW25475   2.096   2.214   6.785
 2778SOL    HW125476   2.022   2.197   6.727
 2778SOL    HW225477   2.173   2.210   6.727
 2779SOL     OW25478   5.897   6.223   7.084
 2779SOL    HW125479   5.925   6.154   7.144
 2779SOL    HW225480   5.836   6.276   7.135
 2780SOL     OW25481   3.009   2.638   1.425
 2780SOL    HW125482   2.953   2.623   1.348
 2780SOL    HW225483   3.076   2.699   1.395
 2781SOL     OW25484   1.181   2.358   7.161
 2781SOL    HW125485   1.260   2.412   7.158
 2781SOL    HW225486   1.196   2.291   7.095
 2782SOL     OW25487   2.687   1.712   7.653
 2782SOL    HW125488   2.780   1.693   7.654
 2782SOL    HW225489   2.661   1.710   7.746
 2783SOL     OW25490   1.600   5.347   1.336
 2783SOL    HW125491   1.610   5.264   1.289
 2783SOL    HW225492   1.619   5.414   1.270
 2784SOL     OW25493   0.686   5.101   0.480
 2784SOL    HW125494   0.751   5.034   0.458
 2784SOL    HW225495   0.701   5.118   0.573
 2785SOL     OW25496   2.823   2.431   2.330
 2785SOL    HW125497   2.889   2.456   2.265
 2785SOL    HW225498   2.788   2.348   2.298
 2786SOL     OW25499   3.490   1.157   8.043
 2786SOL    HW125500   3.546   1.235   8.033
 2786SOL    HW225501   3.405   1.184   8.007
 2787SOL     OW25502   4.114   0.933   0.632
 2787SOL    HW125503   4.170   0.857   0.619
 2787SOL    HW225504   4.173   1.008   0.620
 2788SOL     OW25505   4.804   4.009   7.738
 2788SOL    HW125506   4.709   4.026   7.734
 2788SOL    HW225507   4.826   3.979   7.650
 2789SOL     OW25508   3.932   5.856   7.139
 2789SOL    HW125509   3.949   5.879   7.230
 2789SOL    HW225510   4.013   5.817   7.108
 2790SOL     OW25511   2.384   6.116   6.608
 2790SOL    HW125512   2.338   6.197   6.589
 2790SOL    HW225513   2.328   6.070   6.670
 2791SOL     OW25514   1.172   2.155   2.937
 2791SOL    HW125515   1.122   2.235   2.951
 2791SOL    HW225516   1.117   2.102   2.879
 2792SOL     OW25517   1.470   2.911   5.712
 2792SOL    HW125518   1.406   2.876   5.650
 2792SOL    HW225519   1.425   2.983   5.756
 2793SOL     OW25520   0.702   4.665   1.473
 2793SOL    HW125521   0.770   4.651   1.407
 2793SOL    HW225522   0.630   4.705   1.425
 2794SOL     OW25523   0.646   5.643   7.643
 2794SOL    HW125524   0.669   5.713   7.582
 2794SOL    HW225525   0.717   5.580   7.637
 2795SOL     OW25526   4.761   0.815   1.524
 2795SOL    HW125527   4.855   0.825   1.512
 2795SOL    HW225528   4.749   0.722   1.546
 2796SOL     OW25529   1.290   2.783   1.637
 2796SOL    HW125530   1.364   2.816   1.586
 2796SOL    HW225531   1.319   2.698   1.669
 2797SOL     OW25532   3.376   4.985   1.572
 2797SOL    HW125533   3.375   5.062   1.630
 2797SOL    HW225534   3.332   5.016   1.492
 2798SOL     OW25535   4.775   2.761   7.855
 2798SOL    HW125536   4.841   2.794   7.917
 2798SOL    HW225537   4.825   2.738   7.777
 2799SOL     OW25538   4.314   6.124   6.880
 2799SOL    HW125539   4.347   6.206   6.844
 2799SOL    HW225540   4.365   6.056   6.837
 2800SOL     OW25541   0.518   0.726   7.287
 2800SOL    HW125542   0.451   0.672   7.244
 2800SOL    HW225543   0.476   0.757   7.368
 2801SOL     OW25544   5.362   1.404   0.283
 2801SOL    HW125545   5.310   1.351   0.223
 2801SOL    HW225546   5.430   1.443   0.228
 2802SOL     OW25547   5.655   3.123   6.431
 2802SOL    HW125548   5.682   3.031   6.435
 2802SOL    HW225549   5.657   3.152   6.523
 2803SOL     OW25550   0.457   4.826   0.654
 2803SOL    HW125551   0.442   4.739   0.692
 2803SOL    HW225552   0.498   4.876   0.725
 2804SOL     OW25553   1.395   2.054   3.103
 2804SOL    HW125554   1.381   2.115   3.175
 2804SOL    HW225555   1.322   2.070   3.043
 2805SOL     OW25556   3.681   4.296   0.427
 2805SOL    HW125557   3.679   4.384   0.390
 2805SOL    HW225558   3.626   4.301   0.505
 2806SOL     OW25559   5.814   0.126   6.945
 2806SOL    HW125560   5.730   0.121   6.991
 2806SOL    HW225561   5.861   0.047   6.972
 2807SOL     OW25562   2.999   3.623   7.681
 2807SOL    HW125563   3.065   3.654   7.619
 2807SOL    HW225564   2.938   3.696   7.689
 2808SOL     OW25565   5.482   5.484   0.718
 2808SOL    HW125566   5.454   5.552   0.778
 2808SOL    HW225567   5.407   5.425   0.710
 2809SOL     OW25568   5.187   4.464   7.460
 2809SOL    HW125569   5.111   4.516   7.435
 2809SOL    HW225570   5.159   4.416   7.538
 2810SOL     OW25571   0.370   0.477   7.889
 2810SOL    HW125572   0.372   0.540   7.961
 2810SOL    HW225573   0.433   0.410   7.915
 2811SOL     OW25574   5.135   4.992   5.363
 2811SOL    HW125575   5.048   5.026   5.386
 2811SOL    HW225576   5.146   4.916   5.421
 2812SOL     OW25577   3.935   5.426   7.658
 2812SOL    HW125578   3.922   5.332   7.672
 2812SOL    HW225579   4.026   5.433   7.628
 2813SOL     OW25580   2.401   0.528   0.412
 2813SOL    HW125581   2.482   0.578   0.419
 2813SOL    HW225582   2.370   0.544   0.323
 2814SOL     OW25583   4.513   6.083   0.722
 2814SOL    HW125584   4.553   6.147   0.781
 2814SOL    HW225585   4.553   6.099   0.637
 2815SOL     OW25586   3.009   2.802   0.213
 2815SOL    HW125587   2.952   2.826   0.140
 2815SOL    HW225588   3.003   2.875   0.274
 2816SOL     OW25589   4.426   3.003   1.540
 2816SOL    HW125590   4.462   2.963   1.620
 2816SOL    HW225591   4.480   2.968   1.470
 2817SOL     OW25592   0.831   0.795   1.011
 2817SOL    HW125593   0.746   0.798   1.055
 2817SOL    HW225594   0.836   0.707   0.974
 2818SOL     OW25595   2.412   5.480   7.973
 2818SOL    HW125596   2.482   5.485   8.037
 2818SOL    HW225597   2.332   5.479   8.025
 2819SOL     OW25598   0.445   3.425   0.662
 2819SOL    HW125599   0.411   3.465   0.581
 2819SOL    HW225600   0.390   3.461   0.731
 2820SOL     OW25601   0.624   5.746   1.483
 2820SOL    HW125602   0.613   5.816   1.547
 2820SOL    HW225603   0.535   5.716   1.464
 2821SOL     OW25604   2.264   5.833   7.501
 2821SOL    HW125605   2.246   5.868   7.414
 2821SOL    HW225606   2.360   5.823   7.503
 2822SOL     OW25607   3.989   0.542   1.666
 2822SOL    HW125608   3.966   0.514   1.755
 2822SOL    HW225609   4.014   0.633   1.676
 2823SOL     OW25610   2.899   5.605   2.506
 2823SOL    HW125611   2.832   5.645   2.450
 2823SOL    HW225612   2.899   5.659   2.586
 2824SOL     OW25613   0.857   1.857   0.706
 2824SOL    HW125614   0.792   1.856   0.635
 2824SOL    HW225615   0.931   1.905   0.670
 2825SOL     OW25616   1.885   0.517   1.122
 2825SOL    HW125617   1.895   0.502   1.028
 2825SOL    HW225618   1.895   0.612   1.131
 2826SOL     OW25619   0.787   1.813   7.573
 2826SOL    HW125620   0.711   1.778   7.526
 2826SOL    HW225621   0.828   1.873   7.512
 2827SOL     OW25622   1.086   2.836   0.617
 2827SOL    HW125623   1.165   2.782   0.622
 2827SOL    HW225624   1.094   2.897   0.691
 2828SOL     OW25625   4.836   2.582   7.567
 2828SOL    HW125626   4.908   2.639   7.593
 2828SOL    HW225627   4.873   2.526   7.499
 2829SOL     OW25628   3.724   6.225   6.107
 2829SOL    HW125629   3.766   6.304   6.073
 2829SOL    HW225630   3.650   6.210   6.047
 2830SOL     OW25631   1.806   3.498   7.046
 2830SOL    HW125632   1.713   3.484   7.064
 2830SOL    HW225633   1.808   3.574   6.988
 2831SOL     OW25634   3.277   5.307   5.692
 2831SOL    HW125635   3.291   5.236   5.755
 2831SOL    HW225636   3.351   5.299   5.631
 2832SOL     OW25637   0.667   3.905   7.478
 2832SOL    HW125638   0.636   3.964   7.547
 2832SOL    HW225639   0.619   3.931   7.400
 2833SOL     OW25640   4.407   3.474   7.066
 2833SOL    HW125641   4.313   3.481   7.084
 2833SOL    HW225642   4.418   3.388   7.027
 2834SOL     OW25643   5.490   3.634   6.646
 2834SOL    HW125644   5.516   3.710   6.594
 2834SOL    HW225645   5.560   3.570   6.631
 2835SOL     OW25646   4.440   0.035   8.031
 2835SOL    HW125647   4.465   0.011   8.120
 2835SOL    HW225648   4.508   0.095   8.002
 2836SOL     OW25649   2.913   2.055   7.203
 2836SOL    HW125650   2.992   2.031   7.154
 2836SOL    HW225651   2.856   1.979   7.195
 2837SOL     OW25652   5.170   1.298   6.032
 2837SOL    HW125653   5.233   1.231   6.004
 2837SOL    HW225654   5.085   1.255   6.026
 2838SOL     OW25655   3.675   3.262   1.197
 2838SOL    HW125656   3.738   3.191   1.210
 2838SOL    HW225657   3.611   3.227   1.136
 2839SOL     OW25658   0.653   4.500   0.639
 2839SOL    HW125659   0.610   4.559   0.577
 2839SOL    HW225660   0.669   4.420   0.589
 2840SOL     OW25661   1.172   0.339   0.535
 2840SOL    HW125662   1.210   0.404   0.593
 2840SOL    HW225663   1.137   0.272   0.594
 2841SOL     OW25664   4.433   5.314   1.522
 2841SOL    HW125665   4.478   5.239   1.560
 2841SOL    HW225666   4.458   5.388   1.578
 2842SOL     OW25667   2.766   3.052   1.494
 2842SOL    HW125668   2.690   3.000   1.520
 2842SOL    HW225669   2.776   3.035   1.401
 2843SOL     OW25670   0.814   0.537   0.419
 2843SOL    HW125671   0.857   0.561   0.501
 2843SOL    HW225672   0.778   0.619   0.385
 2844SOL     OW25673   0.167   3.961   6.767
 2844SOL    HW125674   0.139   4.051   6.785
 2844SOL    HW225675   0.262   3.965   6.768
 2845SOL     OW25676   2.440   1.405   1.439
 2845SOL    HW125677   2.534   1.407   1.417
 2845SOL    HW225678   2.397   1.440   1.361
 2846SOL     OW25679   3.086   3.999   1.554
 2846SOL    HW125680   3.030   3.948   1.614
 2846SOL    HW225681   3.175   3.970   1.574
 2847SOL     OW25682   1.004   4.496   7.286
 2847SOL    HW125683   1.004   4.400   7.289
 2847SOL    HW225684   1.038   4.518   7.199
 2848SOL     OW25685   6.217   5.550   6.704
 2848SOL    HW125686   6.227   5.574   6.796
 2848SOL    HW225687   6.248   5.459   6.700
 2849SOL     OW25688   4.672   2.145   7.057
 2849SOL    HW125689   4.677   2.051   7.038
 2849SOL    HW225690   4.763   2.173   7.064
 2850SOL     OW25691   4.228   1.843   2.347
 2850SOL    HW125692   4.216   1.935   2.373
 2850SOL    HW225693   4.139   1.807   2.349
 2851SOL     OW25694   4.991   4.622   7.819
 2851SOL    HW125695   5.081   4.593   7.833
 2851SOL    HW225696   4.969   4.591   7.731
 2852SOL     OW25697   3.101   1.476   2.054
 2852SOL    HW125698   3.019   1.462   2.006
 2852SOL    HW225699   3.079   1.540   2.121
 2853SOL     OW25700   0.036   0.756   1.017
 2853SOL    HW125701   0.077   0.705   0.947
 2853SOL    HW225702   0.057   0.847   0.996
 2854SOL     OW25703   4.916   2.478   0.469
 2854SOL    HW125704   4.887   2.467   0.560
 2854SOL    HW225705   4.846   2.527   0.427
 2855SOL     OW25706   5.157   0.445   6.809
 2855SOL    HW125707   5.181   0.523   6.859
 2855SOL    HW225708   5.236   0.424   6.758
 2856SOL     OW25709   3.753   6.098   2.515
 2856SOL    HW125710   3.764   6.120   2.607
 2856SOL    HW225711   3.817   6.028   2.499
 2857SOL     OW25712   0.757   5.760   0.166
 2857SOL    HW125713   0.689   5.796   0.222
 2857SOL    HW225714   0.718   5.682   0.127
 2858SOL     OW25715   0.695   5.828   7.467
 2858SOL    HW125716   0.789   5.839   7.484
 2858SOL    HW225717   0.662   5.918   7.458
 2859SOL     OW25718   2.286   1.460   2.124
 2859SOL    HW125719   2.332   1.394   2.176
 2859SOL    HW225720   2.356   1.512   2.084
 2860SOL     OW25721   1.354   2.766   1.227
 2860SOL    HW125722   1.381   2.676   1.250
 2860SOL    HW225723   1.434   2.818   1.237
 2861SOL     OW25724   0.265   3.407   8.066
 2861SOL    HW125725   0.173   3.434   8.067
 2861SOL    HW225726   0.297   3.432   7.980
 2862SOL     OW25727   3.169   5.391   6.917
 2862SOL    HW125728   3.198   5.430   7.000
 2862SOL    HW225729   3.167   5.297   6.935
 2863SOL     OW25730   4.522   5.372   6.062
 2863SOL    HW125731   4.568   5.431   6.121
 2863SOL    HW225732   4.587   5.306   6.039
 2864SOL     OW25733   5.101   3.524   1.292
 2864SOL    HW125734   5.030   3.472   1.330
 2864SOL    HW225735   5.058   3.582   1.229
 2865SOL     OW25736   1.611   3.274   6.865
 2865SOL    HW125737   1.690   3.317   6.833
 2865SOL    HW225738   1.572   3.233   6.788
 2866SOL     OW25739   4.209   1.074   6.275
 2866SOL    HW125740   4.158   1.081   6.194
 2866SOL    HW225741   4.193   0.984   6.305
 2867SOL     OW25742   2.254   3.304   7.080
 2867SOL    HW125743   2.300   3.369   7.027
 2867SOL    HW225744   2.166   3.301   7.043
 2868SOL     OW25745   4.908   0.147   7.706
 2868SOL    HW125746   4.934   0.102   7.787
 2868SOL    HW225747   4.832   0.098   7.675
 2869SOL     OW25748   1.544   5.447   7.188
 2869SOL    HW125749   1.615   5.393   7.153
 2869SOL    HW225750   1.562   5.454   7.281
 2870SOL     OW25751   4.923   5.113   7.405
 2870SOL    HW125752   4.986   5.168   7.359
 2870SOL    HW225753   4.847   5.111   7.347
 2871SOL     OW25754   2.163   1.838   0.821
 2871SOL    HW125755   2.194   1.924   0.793
 2871SOL    HW225756   2.224   1.777   0.780
 2872SOL     OW25757   0.977   5.534   6.570
 2872SOL    HW125758   0.938   5.569   6.490
 2872SOL    HW225759   0.998   5.612   6.622
 2873SOL     OW25760   0.581   1.630   0.829
 2873SOL    HW125761   0.569   1.584   0.912
 2873SOL    HW225762   0.509   1.693   0.826
 2874SOL     OW25763   5.901   5.516   7.934
 2874SOL    HW125764   5.921   5.481   8.021
 2874SOL    HW225765   5.940   5.603   7.933
 2875SOL     OW25766   3.220   6.119   7.177
 2875SOL    HW125767   3.304   6.134   7.222
 2875SOL    HW225768   3.159   6.179   7.220
 2876SOL     OW25769   1.842   2.764   1.334
 2876SOL    HW125770   1.859   2.686   1.388
 2876SOL    HW225771   1.874   2.740   1.247
 2877SOL     OW25772   5.184   4.518   1.827
 2877SOL    HW125773   5.151   4.454   1.764
 2877SOL    HW225774   5.166   4.479   1.912
 2878SOL     OW25775   0.886   5.231   6.350
 2878SOL    HW125776   0.896   5.302   6.287
 2878SOL    HW225777   0.797   5.197   6.334
 2879SOL     OW25778   4.410   5.033   6.983
 2879SOL    HW125779   4.416   5.087   7.062
 2879SOL    HW225780   4.316   5.025   6.967
 2880SOL     OW25781   3.840   0.429   7.808
 2880SOL    HW125782   3.907   0.474   7.860
 2880SOL    HW225783   3.889   0.380   7.743
 2881SOL     OW25784   2.147   1.145   1.495
 2881SOL    HW125785   2.213   1.092   1.452
 2881SOL    HW225786   2.172   1.236   1.474
 2882SOL     OW25787   1.539   3.472   7.037
 2882SOL    HW125788   1.553   3.384   7.001
 2882SOL    HW225789   1.456   3.466   7.083
 2883SOL     OW25790   6.041   6.177   7.508
 2883SOL    HW125791   6.024   6.120   7.583
 2883SOL    HW225792   6.024   6.265   7.541
 2884SOL     OW25793   3.605   6.135   6.944
 2884SOL    HW125794   3.673   6.070   6.926
 2884SOL    HW225795   3.626   6.168   7.031
 2885SOL     OW25796   6.301   1.356   1.521
 2885SOL    HW125797   6.206   1.363   1.530
 2885SOL    HW225798   6.333   1.446   1.531
 2886SOL     OW25799   5.668   4.609   7.498
 2886SOL    HW125800   5.733   4.577   7.561
 2886SOL    HW225801   5.593   4.551   7.510
 2887SOL     OW25802   1.474   5.181   6.943
 2887SOL    HW125803   1.494   5.089   6.925
 2887SOL    HW225804   1.396   5.199   6.890
 2888SOL     OW25805   4.293   4.346   6.721
 2888SOL    HW125806   4.327   4.258   6.710
 2888SOL    HW225807   4.202   4.333   6.747
 2889SOL     OW25808   4.713   3.865   6.959
 2889SOL    HW125809   4.658   3.795   6.994
 2889SOL    HW225810   4.655   3.941   6.953
 2890SOL     OW25811   1.956   0.378   7.918
 2890SOL    HW125812   1.959   0.373   8.013
 2890SOL    HW225813   2.031   0.328   7.888
 2891SOL     OW25814   4.532   2.891   7.562
 2891SOL    HW125815   4.596   2.874   7.492
 2891SOL    HW225816   4.455   2.840   7.536
 2892SOL     OW25817   5.776   4.524   6.841
 2892SOL    HW125818   5.721   4.546   6.916
 2892SOL    HW225819   5.837   4.597   6.833
 2893SOL     OW25820   1.121   6.190   1.644
 2893SOL    HW125821   1.211   6.221   1.654
 2893SOL    HW225822   1.128   6.112   1.589
 2894SOL     OW25823   5.165   4.498   8.063
 2894SOL    HW125824   5.239   4.471   8.009
 2894SOL    HW225825   5.142   4.419   8.114
 2895SOL     OW25826   2.396   4.150   7.830
 2895SOL    HW125827   2.337   4.105   7.770
 2895SOL    HW225828   2.479   4.102   7.824
 2896SOL     OW25829   3.674   4.262   1.176
 2896SOL    HW125830   3.767   4.267   1.198
 2896SOL    HW225831   3.631   4.319   1.239
 2897SOL     OW25832   0.424   4.431   7.991
 2897SOL    HW125833   0.488   4.390   8.050
 2897SOL    HW225834   0.465   4.512   7.964
 2898SOL     OW25835   2.688   5.567   0.722
 2898SOL    HW125836   2.635   5.642   0.696
 2898SOL    HW225837   2.771   5.604   0.750
 2899SOL     OW25838   4.586   3.953   0.119
 2899SOL    HW125839   4.578   3.950   0.024
 2899SOL    HW225840   4.615   4.042   0.138
 2900SOL     OW25841   5.176   4.365   0.749
 2900SOL    HW125842   5.250   4.354   0.808
 2900SOL    HW225843   5.213   4.346   0.662
 2901SOL     OW25844   4.085   3.944   1.167
 2901SOL    HW125845   3.993   3.918   1.171
 2901SOL    HW225846   4.114   3.915   1.080
 2902SOL     OW25847   4.357   1.346   2.539
 2902SOL    HW125848   4.275   1.297   2.536
 2902SOL    HW225849   4.331   1.437   2.525
 2903SOL     OW25850   5.903   4.048   0.944
 2903SOL    HW125851   5.972   4.081   1.001
 2903SOL    HW225852   5.929   3.957   0.925
 2904SOL     OW25853   3.872   6.347   6.991
 2904SOL    HW125854   3.872   6.437   7.024
 2904SOL    HW225855   3.951   6.307   7.027
 2905SOL     OW25856   5.601   5.642   0.534
 2905SOL    HW125857   5.670   5.688   0.582
 2905SOL    HW225858   5.564   5.582   0.598
 2906SOL     OW25859   0.725   4.705   1.049
 2906SOL    HW125860   0.734   4.800   1.044
 2906SOL    HW225861   0.772   4.672   0.973
 2907SOL     OW25862   6.152   4.659   7.487
 2907SOL    HW125863   6.176   4.692   7.400
 2907SOL    HW225864   6.219   4.694   7.545
 2908SOL     OW25865   2.397   2.060   6.984
 2908SOL    HW125866   2.302   2.060   6.972
 2908SOL    HW225867   2.424   1.970   6.964
 2909SOL     OW25868   2.245   2.854   0.518
 2909SOL    HW125869   2.201   2.922   0.569
 2909SOL    HW225870   2.338   2.874   0.526
 2910SOL     OW25871   0.136   5.196   7.088
 2910SOL    HW125872   0.150   5.210   7.181
 2910SOL    HW225873   0.049   5.157   7.082
 2911SOL     OW25874   2.645   3.046   0.770
 2911SOL    HW125875   2.578   3.097   0.816
 2911SOL    HW225876   2.654   2.966   0.822
 2912SOL     OW25877   2.918   2.128   6.477
 2912SOL    HW125878   2.979   2.057   6.460
 2912SOL    HW225879   2.832   2.093   6.453
 2913SOL     OW25880   0.982   5.429   1.297
 2913SOL    HW125881   0.943   5.347   1.326
 2913SOL    HW225882   1.027   5.463   1.374
 2914SOL     OW25883   3.980   1.700   6.271
 2914SOL    HW125884   3.945   1.691   6.360
 2914SOL    HW225885   4.018   1.615   6.252
 2915SOL     OW25886   2.852   2.650   6.980
 2915SOL    HW125887   2.832   2.573   6.926
 2915SOL    HW225888   2.766   2.678   7.013
 2916SOL     OW25889   2.096   2.905   7.871
 2916SOL    HW125890   2.021   2.849   7.892
 2916SOL    HW225891   2.169   2.843   7.861
 2917SOL     OW25892   0.325   2.528   1.253
 2917SOL    HW125893   0.342   2.617   1.223
 2917SOL    HW225894   0.377   2.519   1.333
 2918SOL     OW25895   2.162   0.348   6.994
 2918SOL    HW125896   2.139   0.426   6.944
 2918SOL    HW225897   2.256   0.356   7.009
 2919SOL     OW25898   1.729   5.121   6.212
 2919SOL    HW125899   1.764   5.054   6.153
 2919SOL    HW225900   1.634   5.117   6.200
 2920SOL     OW25901   2.634   2.688   0.253
 2920SOL    HW125902   2.680   2.757   0.300
 2920SOL    HW225903   2.559   2.667   0.309
 2921SOL     OW25904   0.484   3.481   0.211
 2921SOL    HW125905   0.439   3.493   0.127
 2921SOL    HW225906   0.436   3.410   0.254
 2922SOL     OW25907   0.188   2.006   0.218
 2922SOL    HW125908   0.228   1.938   0.271
 2922SOL    HW225909   0.176   1.966   0.132
 2923SOL     OW25910   1.079   3.603   6.545
 2923SOL    HW125911   1.049   3.629   6.458
 2923SOL    HW225912   1.158   3.551   6.528
 2924SOL     OW25913   3.186   0.349   0.867
 2924SOL    HW125914   3.137   0.414   0.918
 2924SOL    HW225915   3.245   0.400   0.812
 2925SOL     OW25916   5.592   4.695   6.974
 2925SOL    HW125917   5.617   4.702   7.066
 2925SOL    HW225918   5.497   4.706   6.974
 2926SOL     OW25919   5.712   2.278   7.675
 2926SOL    HW125920   5.716   2.346   7.742
 2926SOL    HW225921   5.624   2.285   7.638
 2927SOL     OW25922   0.636   1.656   0.086
 2927SOL    HW125923   0.656   1.662  -0.007
 2927SOL    HW225924   0.590   1.572   0.095
 2928SOL     OW25925   6.303   0.124   0.953
 2928SOL    HW125926   6.252   0.100   0.876
 2928SOL    HW225927   6.238   0.151   1.018
 2929SOL     OW25928   4.413   0.416   7.809
 2929SOL    HW125929   4.444   0.433   7.899
 2929SOL    HW225930   4.321   0.394   7.819
 2930SOL     OW25931   3.096   2.128   8.037
 2930SOL    HW125932   3.020   2.109   8.092
 2930SOL    HW225933   3.060   2.170   7.959
 2931SOL     OW25934   3.635   5.026   7.840
 2931SOL    HW125935   3.628   5.122   7.838
 2931SOL    HW225936   3.685   5.007   7.919
 2932SOL     OW25937   0.218   2.884   0.896
 2932SOL    HW125938   0.287   2.943   0.926
 2932SOL    HW225939   0.164   2.869   0.973
 2933SOL     OW25940   1.748   5.061   1.329
 2933SOL    HW125941   1.677   5.024   1.275
 2933SOL    HW225942   1.826   5.013   1.301
 2934SOL     OW25943   5.344   1.977   6.911
 2934SOL    HW125944   5.322   1.974   6.818
 2934SOL    HW225945   5.416   2.039   6.917
 2935SOL     OW25946   3.646   1.297   1.160
 2935SOL    HW125947   3.723   1.352   1.176
 2935SOL    HW225948   3.586   1.317   1.232
 2936SOL     OW25949   3.044   2.982   6.759
 2936SOL    HW125950   3.111   2.983   6.691
 2936SOL    HW225951   3.001   3.067   6.751
 2937SOL     OW25952   5.126   3.221   6.235
 2937SOL    HW125953   5.081   3.137   6.249
 2937SOL    HW225954   5.219   3.198   6.236
 2938SOL     OW25955   3.683   3.470   0.350
 2938SOL    HW125956   3.765   3.505   0.314
 2938SOL    HW225957   3.615   3.512   0.297
 2939SOL     OW25958   0.251   1.678   7.918
 2939SOL    HW125959   0.313   1.744   7.888
 2939SOL    HW225960   0.293   1.594   7.900
 2940SOL     OW25961   2.269   0.885   0.634
 2940SOL    HW125962   2.333   0.814   0.625
 2940SOL    HW225963   2.193   0.855   0.585
 2941SOL     OW25964   5.153   5.438   6.686
 2941SOL    HW125965   5.145   5.343   6.691
 2941SOL    HW225966   5.076   5.466   6.637
 2942SOL     OW25967   4.070   3.131   7.803
 2942SOL    HW125968   3.988   3.083   7.789
 2942SOL    HW225969   4.093   3.165   7.717
 2943SOL     OW25970   2.425   5.326   7.377
 2943SOL    HW125971   2.471   5.308   7.295
 2943SOL    HW225972   2.467   5.405   7.412
 2944SOL     OW25973   0.978   2.090   1.932
 2944SOL    HW125974   0.994   2.110   2.024
 2944SOL    HW225975   1.062   2.059   1.898
 2945SOL     OW25976   2.850   5.541   6.635
 2945SOL    HW125977   2.932   5.552   6.683
 2945SOL    HW225978   2.875   5.499   6.553
 2946SOL     OW25979   1.093   4.287   1.184
 2946SOL    HW125980   1.188   4.289   1.171
 2946SOL    HW225981   1.082   4.271   1.278
 2947SOL     OW25982   0.312   1.020   0.783
 2947SOL    HW125983   0.362   1.082   0.836
 2947SOL    HW225984   0.375   0.983   0.721
 2948SOL     OW25985   0.056   1.585   6.509
 2948SOL    HW125986  -0.039   1.588   6.500
 2948SOL    HW225987   0.075   1.494   6.533
 2949SOL     OW25988   1.311   4.567   2.040
 2949SOL    HW125989   1.333   4.476   2.061
 2949SOL    HW225990   1.243   4.590   2.103
 2950SOL     OW25991   3.314   2.275   6.299
 2950SOL    HW125992   3.235   2.278   6.245
 2950SOL    HW225993   3.385   2.265   6.236
 2951SOL     OW25994   0.389   3.135   7.888
 2951SOL    HW125995   0.400   3.046   7.856
 2951SOL    HW225996   0.359   3.124   7.978
 2952SOL     OW25997   1.011   4.056   0.182
 2952SOL    HW125998   0.972   4.019   0.262
 2952SOL    HW225999   1.099   4.018   0.179
 2953SOL     OW26000   4.650   2.916   0.787
 2953SOL    HW126001   4.712   2.848   0.762
 2953SOL    HW226002   4.580   2.911   0.721
 2954SOL     OW26003   0.483   6.158   2.005
 2954SOL    HW126004   0.398   6.151   1.962
 2954SOL    HW226005   0.534   6.084   1.972
 2955SOL     OW26006   3.917   0.782   6.672
 2955SOL    HW126007   3.836   0.767   6.720
 2955SOL    HW226008   3.931   0.701   6.623
 2956SOL     OW26009   2.113   3.909   6.651
 2956SOL    HW126010   2.025   3.920   6.686
 2956SOL    HW226011   2.156   3.851   6.714
 2957SOL     OW26012   2.670   0.059   6.507
 2957SOL    HW126013   2.737   0.110   6.461
 2957SOL    HW226014   2.592   0.114   6.504
 2958SOL     OW26015   4.651   6.181   6.487
 2958SOL    HW126016   4.583   6.212   6.426
 2958SOL    HW226017   4.713   6.134   6.431
 2959SOL     OW26018   1.779   1.140   2.360
 2959SOL    HW126019   1.741   1.180   2.282
 2959SOL    HW226020   1.789   1.047   2.337
 2960SOL     OW26021   2.149   4.072   1.385
 2960SOL    HW126022   2.223   4.133   1.389
 2960SOL    HW226023   2.094   4.106   1.315
 2961SOL     OW26024   1.463   6.069   0.680
 2961SOL    HW126025   1.492   6.011   0.750
 2961SOL    HW226026   1.534   6.067   0.616
 2962SOL     OW26027   0.171   0.245   6.685
 2962SOL    HW126028   0.199   0.208   6.769
 2962SOL    HW226029   0.085   0.284   6.704
 2963SOL     OW26030   3.940   4.810   5.839
 2963SOL    HW126031   3.964   4.802   5.931
 2963SOL    HW226032   3.982   4.735   5.796
 2964SOL     OW26033   4.395   0.074   6.498
 2964SOL    HW126034   4.443   0.006   6.451
 2964SOL    HW226035   4.375   0.140   6.431
 2965SOL     OW26036   3.356   3.895   1.256
 2965SOL    HW126037   3.299   3.855   1.322
 2965SOL    HW226038   3.304   3.968   1.221
 2966SOL     OW26039   3.772   2.190   6.745
 2966SOL    HW126040   3.688   2.190   6.791
 2966SOL    HW226041   3.837   2.210   6.812
 2967SOL     OW26042   3.691   5.512   1.284
 2967SOL    HW126043   3.760   5.473   1.338
 2967SOL    HW226044   3.704   5.607   1.293
 2968SOL     OW26045   1.147   0.708   0.109
 2968SOL    HW126046   1.071   0.748   0.151
 2968SOL    HW226047   1.220   0.763   0.134
 2969SOL     OW26048   1.462   4.232   7.002
 2969SOL    HW126049   1.412   4.170   6.949
 2969SOL    HW226050   1.467   4.311   6.949
 2970SOL     OW26051   5.135   2.241   6.650
 2970SOL    HW126052   5.198   2.233   6.578
 2970SOL    HW226053   5.187   2.273   6.724
 2971SOL     OW26054   1.958   2.243   1.402
 2971SOL    HW126055   1.913   2.196   1.473
 2971SOL    HW226056   1.914   2.213   1.322
 2972SOL     OW26057   1.772   2.023   0.789
 2972SOL    HW126058   1.842   2.045   0.727
 2972SOL    HW226059   1.815   1.971   0.857
 2973SOL     OW26060   2.687   3.944   6.552
 2973SOL    HW126061   2.760   3.900   6.595
 2973SOL    HW226062   2.728   4.011   6.497
 2974SOL     OW26063   0.100   1.616   0.772
 2974SOL    HW126064   0.071   1.701   0.805
 2974SOL    HW226065   0.075   1.617   0.680
 2975SOL     OW26066   4.576   5.451   7.673
 2975SOL    HW126067   4.596   5.536   7.713
 2975SOL    HW226068   4.552   5.395   7.746
 2976SOL     OW26069   3.075   1.413   0.628
 2976SOL    HW126070   3.094   1.332   0.580
 2976SOL    HW226071   3.116   1.400   0.714
 2977SOL     OW26072   0.730   3.112   1.765
 2977SOL    HW126073   0.757   3.160   1.843
 2977SOL    HW226074   0.721   3.179   1.698
 2978SOL     OW26075   4.537   0.937   7.092
 2978SOL    HW126076   4.523   0.893   7.176
 2978SOL    HW226077   4.492   1.021   7.101
 2979SOL     OW26078   5.191   3.872   0.103
 2979SOL    HW126079   5.215   3.799   0.161
 2979SOL    HW226080   5.251   3.942   0.128
 2980SOL     OW26081   2.130   1.863   0.497
 2980SOL    HW126082   2.173   1.784   0.464
 2980SOL    HW226083   2.053   1.873   0.442
 2981SOL     OW26084   4.124   1.287   7.930
 2981SOL    HW126085   4.105   1.373   7.968
 2981SOL    HW226086   4.045   1.236   7.946
 2982SOL     OW26087   0.655   1.182   2.452
 2982SOL    HW126088   0.573   1.231   2.455
 2982SOL    HW226089   0.685   1.190   2.361
 2983SOL     OW26090   1.238   3.387   0.195
 2983SOL    HW126091   1.227   3.446   0.270
 2983SOL    HW226092   1.164   3.327   0.201
 2984SOL     OW26093   2.919   2.759   0.582
 2984SOL    HW126094   2.948   2.696   0.516
 2984SOL    HW226095   2.855   2.710   0.634
 2985SOL     OW26096   1.378   5.368   0.055
 2985SOL    HW126097   1.429   5.418  -0.009
 2985SOL    HW226098   1.414   5.394   0.140
 2986SOL     OW26099   0.948   4.091   6.370
 2986SOL    HW126100   0.970   4.151   6.300
 2986SOL    HW226101   1.013   4.020   6.362
 2987SOL     OW26102   0.295   6.140   1.447
 2987SOL    HW126103   0.262   6.067   1.499
 2987SOL    HW226104   0.328   6.203   1.512
 2988SOL     OW26105   3.558   6.016   5.864
 2988SOL    HW126106   3.537   6.105   5.892
 2988SOL    HW226107   3.481   5.988   5.813
 2989SOL     OW26108   1.278   5.452   7.405
 2989SOL    HW126109   1.312   5.426   7.320
 2989SOL    HW226110   1.238   5.537   7.390
 2990SOL     OW26111   1.896   5.876   7.311
 2990SOL    HW126112   1.911   5.857   7.403
 2990SOL    HW226113   1.857   5.795   7.276
 2991SOL     OW26114   3.457   0.786   0.719
 2991SOL    HW126115   3.520   0.767   0.789
 2991SOL    HW226116   3.493   0.864   0.676
 2992SOL     OW26117   3.098   0.227   6.748
 2992SOL    HW126118   3.016   0.189   6.778
 2992SOL    HW226119   3.074   0.284   6.675
 2993SOL     OW26120   6.194   2.653   7.070
 2993SOL    HW126121   6.157   2.741   7.059
 2993SOL    HW226122   6.287   2.668   7.088
 2994SOL     OW26123   0.832   4.653   7.021
 2994SOL    HW126124   0.909   4.652   7.077
 2994SOL    HW226125   0.791   4.738   7.037
 2995SOL     OW26126   0.691   5.477   0.227
 2995SOL    HW126127   0.669   5.501   0.317
 2995SOL    HW226128   0.775   5.432   0.234
 2996SOL     OW26129   3.328   1.551   7.564
 2996SOL    HW126130   3.269   1.609   7.516
 2996SOL    HW226131   3.399   1.608   7.594
 2997SOL     OW26132   2.907   3.403   6.492
 2997SOL    HW126133   2.959   3.352   6.554
 2997SOL    HW226134   2.880   3.481   6.542
 2998SOL     OW26135   5.027   2.818   0.555
 2998SOL    HW126136   5.013   2.851   0.466
 2998SOL    HW226137   5.078   2.738   0.543
 2999SOL     OW26138   1.666   1.200   7.807
 2999SOL    HW126139   1.716   1.170   7.883
 2999SOL    HW226140   1.639   1.289   7.829
 3000SOL     OW26141   5.625   4.450   0.764
 3000SOL    HW126142   5.664   4.364   0.753
 3000SOL    HW226143   5.684   4.495   0.824
 3001SOL     OW26144   2.293   3.932   0.115
 3001SOL    HW126145   2.366   3.979   0.155
 3001SOL    HW226146   2.215   3.964   0.161
 3002SOL     OW26147   3.332   3.987   7.831
 3002SOL    HW126148   3.287   3.918   7.879
 3002SOL    HW226149   3.387   3.940   7.768
 3003SOL     OW26150   4.863   3.423   1.662
 3003SOL    HW126151   4.863   3.391   1.753
 3003SOL    HW226152   4.931   3.490   1.660
 3004SOL     OW26153   3.077   0.105   0.548
 3004SOL    HW126154   3.001   0.048   0.537
 3004SOL    HW226155   3.121   0.071   0.626
 3005SOL     OW26156   3.668   5.746   1.822
 3005SOL    HW126157   3.581   5.771   1.790
 3005SOL    HW226158   3.695   5.675   1.764
 3006SOL     OW26159   5.829   4.970   0.254
 3006SOL    HW126160   5.880   4.931   0.324
 3006SOL    HW226161   5.826   5.064   0.276
 3007SOL     OW26162   4.727   5.668   7.331
 3007SOL    HW126163   4.665   5.620   7.277
 3007SOL    HW226164   4.673   5.710   7.398
 3008SOL     OW26165   2.407   0.130   7.240
 3008SOL    HW126166   2.451   0.050   7.269
 3008SOL    HW226167   2.375   0.171   7.321
 3009SOL     OW26168   4.415   1.034   6.605
 3009SOL    HW126169   4.456   0.951   6.583
 3009SOL    HW226170   4.326   1.027   6.570
 3010SOL     OW26171   1.339   1.830   0.568
 3010SOL    HW126172   1.400   1.875   0.627
 3010SOL    HW226173   1.253   1.861   0.595
 3011SOL     OW26174   6.122   4.646   1.999
 3011SOL    HW126175   6.152   4.558   2.020
 3011SOL    HW226176   6.040   4.655   2.048
 3012SOL     OW26177   0.620   1.393   0.199
 3012SOL    HW126178   0.664   1.323   0.247
 3012SOL    HW226179   0.576   1.445   0.267
 3013SOL     OW26180   4.596   0.207   2.321
 3013SOL    HW126181   4.685   0.242   2.322
 3013SOL    HW226182   4.546   0.272   2.271
 3014SOL     OW26183   5.223   0.147   7.817
 3014SOL    HW126184   5.235   0.082   7.748
 3014SOL    HW226185   5.198   0.096   7.894
 3015SOL     OW26186   1.685   5.082   7.428
 3015SOL    HW126187   1.654   5.118   7.344
 3015SOL    HW226188   1.780   5.086   7.422
 3016SOL     OW26189   3.414   3.661   7.064
 3016SOL    HW126190   3.457   3.697   7.141
 3016SOL    HW226191   3.480   3.664   6.995
 3017SOL     OW26192   4.366   4.131   7.912
 3017SOL    HW126193   4.409   4.172   7.986
 3017SOL    HW226194   4.330   4.049   7.947
 3018SOL     OW26195   2.729   1.814   7.054
 3018SOL    HW126196   2.695   1.856   6.975
 3018SOL    HW226197   2.817   1.786   7.030
 3019SOL     OW26198   4.614   2.343   1.914
 3019SOL    HW126199   4.523   2.373   1.918
 3019SOL    HW226200   4.638   2.327   2.005
 3020SOL     OW26201   0.944   1.476   1.843
 3020SOL    HW126202   1.038   1.466   1.830
 3020SOL    HW226203   0.922   1.414   1.912
 3021SOL     OW26204   5.375   0.892   1.552
 3021SOL    HW126205   5.431   0.836   1.497
 3021SOL    HW226206   5.328   0.830   1.608
 3022SOL     OW26207   4.914   4.809   1.561
 3022SOL    HW126208   4.960   4.805   1.477
 3022SOL    HW226209   4.888   4.719   1.579
 3023SOL     OW26210   4.392   3.933   5.756
 3023SOL    HW126211   4.332   4.004   5.779
 3023SOL    HW226212   4.334   3.859   5.736
 3024SOL     OW26213   0.470   1.936   1.842
 3024SOL    HW126214   0.565   1.944   1.849
 3024SOL    HW226215   0.435   2.001   1.904
 3025SOL     OW26216   6.190   2.358   6.731
 3025SOL    HW126217   6.123   2.411   6.773
 3025SOL    HW226218   6.146   2.318   6.656
 3026SOL     OW26219   1.492   5.423   0.296
 3026SOL    HW126220   1.427   5.492   0.306
 3026SOL    HW226221   1.559   5.443   0.361
 3027SOL     OW26222   5.311   4.757   8.045
 3027SOL    HW126223   5.244   4.746   7.978
 3027SOL    HW226224   5.273   4.719   8.124
 3028SOL     OW26225   1.212   1.537   0.102
 3028SOL    HW126226   1.225   1.535   0.197
 3028SOL    HW226227   1.126   1.575   0.090
 3029SOL     OW26228   3.364   3.534   7.878
 3029SOL    HW126229   3.393   3.455   7.832
 3029SOL    HW226230   3.440   3.560   7.930
 3030SOL     OW26231   2.447   1.735   0.235
 3030SOL    HW126232   2.445   1.643   0.208
 3030SOL    HW226233   2.376   1.776   0.187
 3031SOL     OW26234   0.105   4.266   1.366
 3031SOL    HW126235   0.166   4.202   1.404
 3031SOL    HW226236   0.162   4.337   1.336
 3032SOL     OW26237   4.414   5.872   1.974
 3032SOL    HW126238   4.407   5.867   1.879
 3032SOL    HW226239   4.325   5.893   2.003
 3033SOL     OW26240   4.323   4.696   5.939
 3033SOL    HW126241   4.340   4.677   5.847
 3033SOL    HW226242   4.407   4.725   5.974
 3034SOL     OW26243   2.718   4.569   0.857
 3034SOL    HW126244   2.813   4.580   0.850
 3034SOL    HW226245   2.682   4.622   0.785
 3035SOL     OW26246   0.064   1.459   0.055
 3035SOL    HW126247  -0.024   1.436   0.027
 3035SOL    HW226248   0.117   1.382   0.033
 3036SOL     OW26249   1.449   0.352   2.582
 3036SOL    HW126250   1.512   0.421   2.561
 3036SOL    HW226251   1.490   0.303   2.653
 3037SOL     OW26252   5.134   5.162   7.001
 3037SOL    HW126253   5.141   5.167   6.906
 3037SOL    HW226254   5.098   5.075   7.017
 3038SOL     OW26255   0.863   1.432   1.342
 3038SOL    HW126256   0.799   1.375   1.300
 3038SOL    HW226257   0.947   1.404   1.305
 3039SOL     OW26258   3.198   1.361   7.716
 3039SOL    HW126259   3.243   1.416   7.652
 3039SOL    HW226260   3.215   1.272   7.686
 3040SOL     OW26261   1.256   2.580   0.374
 3040SOL    HW126262   1.270   2.593   0.468
 3040SOL    HW226263   1.315   2.508   0.351
 3041SOL     OW26264   5.086   3.260   0.650
 3041SOL    HW126265   5.045   3.194   0.707
 3041SOL    HW226266   5.120   3.326   0.711
 3042SOL     OW26267   1.584   1.186   1.118
 3042SOL    HW126268   1.576   1.213   1.026
 3042SOL    HW226269   1.666   1.137   1.122
 3043SOL     OW26270   3.750   0.808   2.028
 3043SOL    HW126271   3.766   0.902   2.034
 3043SOL    HW226272   3.803   0.770   2.098
 3044SOL     OW26273   1.046   5.103   7.534
 3044SOL    HW126274   1.011   5.185   7.499
 3044SOL    HW226275   0.981   5.077   7.600
 3045SOL     OW26276   4.316   2.033   7.546
 3045SOL    HW126277   4.340   2.051   7.637
 3045SOL    HW226278   4.393   1.992   7.508
 3046SOL     OW26279   5.916   6.026   7.671
 3046SOL    HW126280   5.826   6.012   7.640
 3046SOL    HW226281   5.951   5.937   7.683
 3047SOL     OW26282   0.435   2.657   0.941
 3047SOL    HW126283   0.526   2.677   0.917
 3047SOL    HW226284   0.382   2.697   0.872
 3048SOL     OW26285   0.701   0.500   7.204
 3048SOL    HW126286   0.779   0.518   7.151
 3048SOL    HW226287   0.678   0.585   7.241
 3049SOL     OW26288   5.554   2.185   6.857
 3049SOL    HW126289   5.533   2.236   6.779
 3049SOL    HW226290   5.627   2.233   6.898
 3050SOL     OW26291   2.298   4.953   7.113
 3050SOL    HW126292   2.353   5.028   7.137
 3050SOL    HW226293   2.276   4.968   7.021
 3051SOL     OW26294   4.658   1.161   7.466
 3051SOL    HW126295   4.592   1.092   7.478
 3051SOL    HW226296   4.626   1.234   7.518
 3052SOL     OW26297   1.236   5.039   1.015
 3052SOL    HW126298   1.239   5.016   1.108
 3052SOL    HW226299   1.168   4.983   0.978
 3053SOL     OW26300   3.461   6.186   6.728
 3053SOL    HW126301   3.378   6.211   6.767
 3053SOL    HW226302   3.513   6.150   6.800
 3054SOL     OW26303   1.987   3.208   8.059
 3054SOL    HW126304   2.046   3.212   7.983
 3054SOL    HW226305   1.903   3.180   8.022
 3055SOL     OW26306   0.713   2.587   0.013
 3055SOL    HW126307   0.748   2.532   0.083
 3055SOL    HW226308   0.632   2.623   0.049
 3056SOL     OW26309   1.587   0.423   5.792
 3056SOL    HW126310   1.551   0.457   5.710
 3056SOL    HW226311   1.519   0.364   5.825
 3057SOL     OW26312   4.640   5.442   0.032
 3057SOL    HW126313   4.735   5.441   0.027
 3057SOL    HW226314   4.618   5.526   0.072
 3058SOL     OW26315   5.971   0.898   2.475
 3058SOL    HW126316   5.995   0.834   2.542
 3058SOL    HW226317   6.006   0.981   2.508
 3059SOL     OW26318   3.558   0.141   2.164
 3059SOL    HW126319   3.505   0.083   2.109
 3059SOL    HW226320   3.517   0.136   2.250
 3060SOL     OW26321   2.371   3.206   1.150
 3060SOL    HW126322   2.395   3.129   1.200
 3060SOL    HW226323   2.284   3.230   1.181
 3061SOL     OW26324   3.500   0.010   6.526
 3061SOL    HW126325   3.456   0.090   6.554
 3061SOL    HW226326   3.492  -0.050   6.601
 3062SOL     OW26327   4.966   4.475   7.055
 3062SOL    HW126328   5.044   4.514   7.095
 3062SOL    HW226329   5.000   4.399   7.006
 3063SOL     OW26330   1.034   5.786   7.833
 3063SOL    HW126331   1.043   5.785   7.929
 3063SOL    HW226332   0.942   5.765   7.817
 3064SOL     OW26333   1.896   5.640   6.475
 3064SOL    HW126334   1.904   5.726   6.435
 3064SOL    HW226335   1.814   5.644   6.524
 3065SOL     OW26336   4.910   3.732   1.176
 3065SOL    HW126337   4.869   3.758   1.258
 3065SOL    HW226338   4.836   3.709   1.119
 3066SOL     OW26339   2.332   0.584   7.616
 3066SOL    HW126340   2.295   0.578   7.528
 3066SOL    HW226341   2.370   0.672   7.620
 3067SOL     OW26342   2.057   2.377   1.022
 3067SOL    HW126343   2.075   2.462   0.981
 3067SOL    HW226344   2.060   2.394   1.116
 3068SOL     OW26345   5.187   3.145   7.932
 3068SOL    HW126346   5.147   3.222   7.891
 3068SOL    HW226347   5.273   3.137   7.890
 3069SOL     OW26348   2.435   2.177   0.910
 3069SOL    HW126349   2.442   2.174   0.814
 3069SOL    HW226350   2.346   2.209   0.926
 3070SOL     OW26351   1.447   4.981   7.528
 3070SOL    HW126352   1.394   4.965   7.450
 3070SOL    HW226353   1.532   5.009   7.495
 3071SOL     OW26354   0.083   1.645   0.502
 3071SOL    HW126355   0.133   1.713   0.457
 3071SOL    HW226356  -0.008   1.677   0.499
 3072SOL     OW26357   2.492   5.588   5.998
 3072SOL    HW126358   2.534   5.673   5.990
 3072SOL    HW226359   2.481   5.557   5.908
 3073SOL     OW26360   4.723   0.217   2.022
 3073SOL    HW126361   4.658   0.282   2.049
 3073SOL    HW226362   4.776   0.204   2.101
 3074SOL     OW26363   0.027   1.624   1.667
 3074SOL    HW126364  -0.053   1.597   1.711
 3074SOL    HW226365   0.020   1.719   1.659
 3075SOL     OW26366   5.737   0.861   6.717
 3075SOL    HW126367   5.699   0.842   6.803
 3075SOL    HW226368   5.670   0.830   6.655
 3076SOL     OW26369   1.260   4.857   0.140
 3076SOL    HW126370   1.194   4.920   0.109
 3076SOL    HW226371   1.339   4.909   0.150
 3077SOL     OW26372   0.820   2.591   6.070
 3077SOL    HW126373   0.741   2.613   6.119
 3077SOL    HW226374   0.792   2.522   6.010
 3078SOL     OW26375   5.509   0.104   6.768
 3078SOL    HW126376   5.507   0.019   6.811
 3078SOL    HW226377   5.442   0.155   6.814
 3079SOL     OW26378   0.398   3.823   7.687
 3079SOL    HW126379   0.460   3.785   7.749
 3079SOL    HW226380   0.314   3.822   7.733
 3080SOL     OW26381   4.879   3.591   6.563
 3080SOL    HW126382   4.915   3.657   6.623
 3080SOL    HW226383   4.840   3.641   6.492
 3081SOL     OW26384   1.485   5.780   6.410
 3081SOL    HW126385   1.551   5.748   6.471
 3081SOL    HW226386   1.404   5.782   6.461
 3082SOL     OW26387   5.244   3.050   0.568
 3082SOL    HW126388   5.212   3.132   0.606
 3082SOL    HW226389   5.283   3.076   0.485
 3083SOL     OW26390   3.326   5.717   2.051
 3083SOL    HW126391   3.318   5.787   2.116
 3083SOL    HW226392   3.368   5.645   2.098
 3084SOL     OW26393   0.444   3.299   1.634
 3084SOL    HW126394   0.391   3.283   1.713
 3084SOL    HW226395   0.533   3.309   1.667
 3085SOL     OW26396   1.319   4.514   0.153
 3085SOL    HW126397   1.365   4.598   0.150
 3085SOL    HW226398   1.301   4.494   0.061
 3086SOL     OW26399   0.643   6.074   6.813
 3086SOL    HW126400   0.642   6.164   6.846
 3086SOL    HW226401   0.652   6.084   6.718
 3087SOL     OW26402   3.578   0.750   7.130
 3087SOL    HW126403   3.667   0.716   7.125
 3087SOL    HW226404   3.575   0.819   7.063
 3088SOL     OW26405   5.904   4.030   6.898
 3088SOL    HW126406   5.871   4.105   6.848
 3088SOL    HW226407   5.880   3.954   6.845
 3089SOL     OW26408   4.833   3.636   7.066
 3089SOL    HW126409   4.831   3.701   6.996
 3089SOL    HW226410   4.775   3.566   7.036
 3090SOL     OW26411   2.988   5.617   2.017
 3090SOL    HW126412   2.937   5.688   1.977
 3090SOL    HW226413   3.049   5.591   1.948
 3091SOL     OW26414   2.373   3.865   0.865
 3091SOL    HW126415   2.291   3.833   0.828
 3091SOL    HW226416   2.440   3.806   0.830
 3092SOL     OW26417   3.630   1.486   0.955
 3092SOL    HW126418   3.662   1.409   1.003
 3092SOL    HW226419   3.668   1.561   1.001
 3093SOL     OW26420   0.947   3.733   0.206
 3093SOL    HW126421   0.991   3.743   0.290
 3093SOL    HW226422   0.855   3.718   0.229
 3094SOL     OW26423   5.826   3.561   0.439
 3094SOL    HW126424   5.788   3.604   0.516
 3094SOL    HW226425   5.797   3.614   0.365
 3095SOL     OW26426   1.761   2.107   0.172
 3095SOL    HW126427   1.821   2.161   0.121
 3095SOL    HW226428   1.675   2.124   0.134
 3096SOL     OW26429   5.727   5.684   6.946
 3096SOL    HW126430   5.751   5.751   7.010
 3096SOL    HW226431   5.685   5.616   6.998
 3097SOL     OW26432   0.963   4.314   6.222
 3097SOL    HW126433   1.033   4.353   6.274
 3097SOL    HW226434   0.899   4.384   6.210
 3098SOL     OW26435   3.364   5.998   7.869
 3098SOL    HW126436   3.370   5.931   7.937
 3098SOL    HW226437   3.362   6.081   7.917
 3099SOL     OW26438   3.599   2.856   7.464
 3099SOL    HW126439   3.561   2.803   7.394
 3099SOL    HW226440   3.649   2.793   7.516
 3100SOL     OW26441   6.327   1.290   1.090
 3100SOL    HW126442   6.383   1.240   1.150
 3100SOL    HW226443   6.367   1.278   1.004
 3101SOL     OW26444   3.388   2.371   2.050
 3101SOL    HW126445   3.466   2.418   2.022
 3101SOL    HW226446   3.332   2.438   2.089
 3102SOL     OW26447   4.087   5.819   6.267
 3102SOL    HW126448   4.099   5.797   6.359
 3102SOL    HW226449   3.997   5.793   6.248
 3103SOL     OW26450   4.091   5.790   6.537
 3103SOL    HW126451   4.095   5.837   6.621
 3103SOL    HW226452   4.134   5.706   6.555
 3104SOL     OW26453   3.865   4.711   7.693
 3104SOL    HW126454   3.872   4.633   7.748
 3104SOL    HW226455   3.920   4.692   7.617
 3105SOL     OW26456   4.501   5.828   6.447
 3105SOL    HW126457   4.580   5.860   6.403
 3105SOL    HW226458   4.507   5.733   6.442
 3106SOL     OW26459   0.275   2.033   1.270
 3106SOL    HW126460   0.304   2.124   1.273
 3106SOL    HW226461   0.183   2.036   1.296
 3107SOL     OW26462   5.298   4.685   6.505
 3107SOL    HW126463   5.326   4.634   6.581
 3107SOL    HW226464   5.301   4.623   6.432
 3108SOL     OW26465   5.079   5.735   2.367
 3108SOL    HW126466   5.102   5.775   2.283
 3108SOL    HW226467   5.054   5.808   2.423
 3109SOL     OW26468   2.804   0.663   7.291
 3109SOL    HW126469   2.769   0.704   7.370
 3109SOL    HW226470   2.798   0.731   7.224
 3110SOL     OW26471   4.438   4.345   6.313
 3110SOL    HW126472   4.497   4.354   6.387
 3110SOL    HW226473   4.397   4.260   6.325
 3111SOL     OW26474   3.895   4.734   0.092
 3111SOL    HW126475   3.941   4.651   0.078
 3111SOL    HW226476   3.836   4.717   0.165
 3112SOL     OW26477   4.695   1.522   7.613
 3112SOL    HW126478   4.702   1.558   7.701
 3112SOL    HW226479   4.606   1.487   7.608
 3113SOL     OW26480   3.193   0.234   5.993
 3113SOL    HW126481   3.232   0.156   5.954
 3113SOL    HW226482   3.110   0.203   6.029
 3114SOL     OW26483   2.509   4.913   7.600
 3114SOL    HW126484   2.475   4.847   7.661
 3114SOL    HW226485   2.430   4.952   7.561
 3115SOL     OW26486   3.130   2.557   7.404
 3115SOL    HW126487   3.054   2.498   7.403
 3115SOL    HW226488   3.114   2.617   7.331
 3116SOL     OW26489   5.198   4.685   0.906
 3116SOL    HW126490   5.107   4.694   0.880
 3116SOL    HW226491   5.242   4.649   0.830
 3117SOL     OW26492   4.388   0.626   1.174
 3117SOL    HW126493   4.401   0.537   1.208
 3117SOL    HW226494   4.350   0.674   1.248
 3118SOL     OW26495   1.833   0.987   7.703
 3118SOL    HW126496   1.831   1.078   7.731
 3118SOL    HW226497   1.755   0.977   7.648
 3119SOL     OW26498   0.076   2.402   0.570
 3119SOL    HW126499   0.014   2.329   0.574
 3119SOL    HW226500   0.149   2.374   0.625
 3120SOL     OW26501   3.872   1.791   7.551
 3120SOL    HW126502   3.901   1.880   7.529
 3120SOL    HW226503   3.948   1.736   7.533
 3121SOL     OW26504   5.239   4.795   1.742
 3121SOL    HW126505   5.201   4.707   1.745
 3121SOL    HW226506   5.334   4.780   1.744
 3122SOL     OW26507   3.358   2.255   2.465
 3122SOL    HW126508   3.333   2.207   2.544
 3122SOL    HW226509   3.275   2.276   2.422
 3123SOL     OW26510   5.037   4.726   6.789
 3123SOL    HW126511   4.944   4.700   6.790
 3123SOL    HW226512   5.084   4.646   6.812
 3124SOL     OW26513   3.967   0.117   7.293
 3124SOL    HW126514   3.880   0.109   7.332
 3124SOL    HW226515   4.027   0.108   7.367
 3125SOL     OW26516   0.890   5.276   0.114
 3125SOL    HW126517   0.934   5.285   0.199
 3125SOL    HW226518   0.957   5.303   0.051
 3126SOL     OW26519   0.764   5.961   0.973
 3126SOL    HW126520   0.831   6.012   1.019
 3126SOL    HW226521   0.809   5.883   0.943
 3127SOL     OW26522   3.476   0.818   6.514
 3127SOL    HW126523   3.385   0.834   6.489
 3127SOL    HW226524   3.474   0.815   6.610
 3128SOL     OW26525   6.222   6.139   7.818
 3128SOL    HW126526   6.202   6.136   7.912
 3128SOL    HW226527   6.306   6.185   7.813
 3129SOL     OW26528   1.787   3.634   0.192
 3129SOL    HW126529   1.744   3.612   0.109
 3129SOL    HW226530   1.764   3.563   0.251
 3130SOL     OW26531   3.579   5.243   5.715
 3130SOL    HW126532   3.614   5.331   5.728
 3130SOL    HW226533   3.617   5.213   5.633
 3131SOL     OW26534   1.054   2.590   7.077
 3131SOL    HW126535   0.977   2.598   7.133
 3131SOL    HW226536   1.097   2.509   7.106
 3132SOL     OW26537   1.253   4.522   1.426
 3132SOL    HW126538   1.348   4.508   1.424
 3132SOL    HW226539   1.217   4.449   1.377
 3133SOL     OW26540   5.488   6.074   0.992
 3133SOL    HW126541   5.465   6.015   1.063
 3133SOL    HW226542   5.414   6.134   0.985
 3134SOL     OW26543   1.216   1.186   7.289
 3134SOL    HW126544   1.197   1.162   7.380
 3134SOL    HW226545   1.143   1.149   7.239
 3135SOL     OW26546   4.370   4.462   1.028
 3135SOL    HW126547   4.394   4.518   1.102
 3135SOL    HW226548   4.333   4.522   0.963
 3136SOL     OW26549   2.875   5.057   7.689
 3136SOL    HW126550   2.900   5.059   7.782
 3136SOL    HW226551   2.779   5.066   7.691
 3137SOL     OW26552   1.535   2.969   7.268
 3137SOL    HW126553   1.601   3.038   7.272
 3137SOL    HW226554   1.525   2.940   7.358
 3138SOL     OW26555   2.669   1.546   7.350
 3138SOL    HW126556   2.658   1.564   7.257
 3138SOL    HW226557   2.586   1.575   7.390
 3139SOL     OW26558   1.813   2.477   1.847
 3139SOL    HW126559   1.769   2.509   1.768
 3139SOL    HW226560   1.790   2.384   1.851
 3140SOL     OW26561   4.286   2.957   0.832
 3140SOL    HW126562   4.286   2.949   0.737
 3140SOL    HW226563   4.322   3.044   0.849
 3141SOL     OW26564   2.164   1.801   6.127
 3141SOL    HW126565   2.090   1.855   6.153
 3141SOL    HW226566   2.225   1.807   6.201
 3142SOL     OW26567   5.426   2.982   1.325
 3142SOL    HW126568   5.492   2.917   1.303
 3142SOL    HW226569   5.399   3.018   1.241
 3143SOL     OW26570   5.056   6.192   1.161
 3143SOL    HW126571   4.978   6.248   1.171
 3143SOL    HW226572   5.023   6.104   1.175
 3144SOL     OW26573   2.285   5.846   7.993
 3144SOL    HW126574   2.314   5.778   8.054
 3144SOL    HW226575   2.249   5.798   7.919
 3145SOL     OW26576   4.791   4.846   7.056
 3145SOL    HW126577   4.887   4.853   7.049
 3145SOL    HW226578   4.772   4.756   7.032
 3146SOL     OW26579   3.448   4.113   1.631
 3146SOL    HW126580   3.404   4.029   1.640
 3146SOL    HW226581   3.500   4.105   1.551
 3147SOL     OW26582   3.062   2.987   1.065
 3147SOL    HW126583   3.072   3.066   1.119
 3147SOL    HW226584   3.136   2.991   1.005
 3148SOL     OW26585   4.242   5.587   0.521
 3148SOL    HW126586   4.327   5.594   0.479
 3148SOL    HW226587   4.211   5.499   0.498
 3149SOL     OW26588   2.267   3.946   2.482
 3149SOL    HW126589   2.188   3.948   2.428
 3149SOL    HW226590   2.304   3.859   2.467
 3150SOL     OW26591   2.814   5.164   6.312
 3150SOL    HW126592   2.854   5.160   6.399
 3150SOL    HW226593   2.761   5.084   6.307
 3151SOL     OW26594   0.285   4.411   2.327
 3151SOL    HW126595   0.371   4.453   2.329
 3151SOL    HW226596   0.301   4.321   2.355
 3152SOL     OW26597   5.595   5.806   6.662
 3152SOL    HW126598   5.605   5.795   6.756
 3152SOL    HW226599   5.545   5.887   6.653
 3153SOL     OW26600   3.478   1.771   5.964
 3153SOL    HW126601   3.475   1.679   5.937
 3153SOL    HW226602   3.414   1.814   5.907
 3154SOL     OW26603   5.752   0.612   6.448
 3154SOL    HW126604   5.812   0.597   6.375
 3154SOL    HW226605   5.681   0.550   6.434
 3155SOL     OW26606   4.540   3.224   6.116
 3155SOL    HW126607   4.475   3.176   6.065
 3155SOL    HW226608   4.621   3.176   6.104
 3156SOL     OW26609   3.809   0.158   0.465
 3156SOL    HW126610   3.799   0.063   0.459
 3156SOL    HW226611   3.727   0.194   0.431
 3157SOL     OW26612   0.365   5.531   0.695
 3157SOL    HW126613   0.434   5.464   0.690
 3157SOL    HW226614   0.399   5.604   0.643
 3158SOL     OW26615   5.284   6.203   2.441
 3158SOL    HW126616   5.283   6.107   2.435
 3158SOL    HW226617   5.338   6.222   2.518
 3159SOL     OW26618   5.539   3.284   1.634
 3159SOL    HW126619   5.561   3.191   1.634
 3159SOL    HW226620   5.447   3.287   1.657
 3160SOL     OW26621   5.921   6.072   7.948
 3160SOL    HW126622   5.944   6.080   7.855
 3160SOL    HW226623   5.990   6.121   7.993
 3161SOL     OW26624   4.664   1.151   1.385
 3161SOL    HW126625   4.642   1.207   1.311
 3161SOL    HW226626   4.758   1.160   1.395
 3162SOL     OW26627   3.814   6.290   6.717
 3162SOL    HW126628   3.814   6.315   6.809
 3162SOL    HW226629   3.757   6.213   6.713
 3163SOL     OW26630   5.662   6.055   0.747
 3163SOL    HW126631   5.666   6.025   0.838
 3163SOL    HW226632   5.587   6.114   0.744
 3164SOL     OW26633   3.407   1.443   0.507
 3164SOL    HW126634   3.499   1.438   0.534
 3164SOL    HW226635   3.374   1.522   0.551
 3165SOL     OW26636   1.034   4.921   7.012
 3165SOL    HW126637   1.011   4.928   7.105
 3165SOL    HW226638   0.977   4.986   6.969
 3166SOL     OW26639   2.996   5.389   2.374
 3166SOL    HW126640   2.984   5.320   2.439
 3166SOL    HW226641   2.975   5.470   2.422
 3167SOL     OW26642   2.140   0.201   7.854
 3167SOL    HW126643   2.168   0.113   7.878
 3167SOL    HW226644   2.088   0.189   7.775
 3168SOL     OW26645   2.872   6.328   1.718
 3168SOL    HW126646   2.809   6.401   1.718
 3168SOL    HW226647   2.945   6.360   1.771
 3169SOL     OW26648   2.491   2.169   1.687
 3169SOL    HW126649   2.502   2.134   1.598
 3169SOL    HW226650   2.499   2.263   1.677
 3170SOL     OW26651   1.147   3.908   6.343
 3170SOL    HW126652   1.179   3.824   6.311
 3170SOL    HW226653   1.216   3.971   6.318
 3171SOL     OW26654   2.134   0.193   6.663
 3171SOL    HW126655   2.197   0.190   6.735
 3171SOL    HW226656   2.166   0.263   6.606
 3172SOL     OW26657   5.097   6.001   6.491
 3172SOL    HW126658   5.043   6.079   6.504
 3172SOL    HW226659   5.158   6.026   6.422
 3173SOL     OW26660   3.458   3.245   0.682
 3173SOL    HW126661   3.381   3.238   0.738
 3173SOL    HW226662   3.435   3.313   0.619
 3174SOL     OW26663   5.600   0.832   6.418
 3174SOL    HW126664   5.647   0.752   6.441
 3174SOL    HW226665   5.574   0.818   6.327
 3175SOL     OW26666   1.913   2.434   6.835
 3175SOL    HW126667   1.979   2.503   6.830
 3175SOL    HW226668   1.949   2.362   6.783
 3176SOL     OW26669   3.892   1.074   0.955
 3176SOL    HW126670   3.810   1.027   0.971
 3176SOL    HW226671   3.954   1.006   0.928
 3177SOL     OW26672   3.117   2.104   7.019
 3177SOL    HW126673   3.191   2.044   7.032
 3177SOL    HW226674   3.127   2.135   6.929
 3178SOL     OW26675   4.456   0.988   1.137
 3178SOL    HW126676   4.460   1.084   1.138
 3178SOL    HW226677   4.531   0.960   1.190
 3179SOL     OW26678   1.765   6.076   6.645
 3179SOL    HW126679   1.672   6.073   6.671
 3179SOL    HW226680   1.773   6.006   6.581
 3180SOL     OW26681   3.424   4.990   5.991
 3180SOL    HW126682   3.390   5.078   5.979
 3180SOL    HW226683   3.481   4.976   5.915
 3181SOL     OW26684   1.158   0.986   2.613
 3181SOL    HW126685   1.104   1.055   2.574
 3181SOL    HW226686   1.121   0.972   2.700
 3182SOL     OW26687   4.165   3.506   7.376
 3182SOL    HW126688   4.256   3.479   7.375
 3182SOL    HW226689   4.118   3.432   7.415
 3183SOL     OW26690   1.332   2.925   6.834
 3183SOL    HW126691   1.382   2.964   6.763
 3183SOL    HW226692   1.346   2.984   6.908
 3184SOL     OW26693   4.015   4.395   0.590
 3184SOL    HW126694   3.964   4.428   0.664
 3184SOL    HW226695   3.999   4.300   0.590
 3185SOL     OW26696   2.929   2.349   0.048
 3185SOL    HW126697   2.880   2.426   0.075
 3185SOL    HW226698   2.970   2.375  -0.035
 3186SOL     OW26699   4.054   1.781   6.642
 3186SOL    HW126700   4.059   1.870   6.610
 3186SOL    HW226701   4.111   1.780   6.719
 3187SOL     OW26702   3.229   1.200   1.372
 3187SOL    HW126703   3.202   1.115   1.406
 3187SOL    HW226704   3.291   1.179   1.302
 3188SOL     OW26705   2.201   2.981   7.142
 3188SOL    HW126706   2.276   3.041   7.145
 3188SOL    HW226707   2.239   2.895   7.126
 3189SOL     OW26708   1.599   4.847   6.051
 3189SOL    HW126709   1.548   4.924   6.076
 3189SOL    HW226710   1.688   4.881   6.040
 3190SOL     OW26711   4.916   6.053   6.919
 3190SOL    HW126712   4.853   6.117   6.886
 3190SOL    HW226713   4.942   6.002   6.842
 3191SOL     OW26714   2.261   5.970   0.201
 3191SOL    HW126715   2.231   6.018   0.278
 3191SOL    HW226716   2.212   6.008   0.129
 3192SOL     OW26717   3.400   1.008   0.195
 3192SOL    HW126718   3.308   0.991   0.175
 3192SOL    HW226719   3.443   1.012   0.109
 3193SOL     OW26720   2.196   3.332   0.829
 3193SOL    HW126721   2.204   3.285   0.746
 3193SOL    HW226722   2.105   3.362   0.832
 3194SOL     OW26723   3.055   1.904   0.264
 3194SOL    HW126724   3.055   1.832   0.201
 3194SOL    HW226725   2.970   1.947   0.251
 3195SOL     OW26726   0.562   0.589   6.040
 3195SOL    HW126727   0.628   0.613   5.974
 3195SOL    HW226728   0.576   0.652   6.111
 3196SOL     OW26729   4.264   1.847   1.023
 3196SOL    HW126730   4.258   1.926   1.077
 3196SOL    HW226731   4.237   1.877   0.936
 3197SOL     OW26732   2.785   0.388   2.004
 3197SOL    HW126733   2.789   0.295   2.027
 3197SOL    HW226734   2.730   0.428   2.071
 3198SOL     OW26735   0.979   1.522   0.510
 3198SOL    HW126736   0.987   1.484   0.598
 3198SOL    HW226737   0.898   1.573   0.513
 3199SOL     OW26738   2.461   4.046   2.180
 3199SOL    HW126739   2.410   4.094   2.245
 3199SOL    HW226740   2.419   3.960   2.175
 3200SOL     OW26741   3.473   3.557   0.646
 3200SOL    HW126742   3.484   3.644   0.607
 3200SOL    HW226743   3.399   3.567   0.706
 3201SOL     OW26744   4.556   1.930   7.485
 3201SOL    HW126745   4.623   1.874   7.445
 3201SOL    HW226746   4.597   2.017   7.487
 3202SOL     OW26747   3.089   1.101   7.133
 3202SOL    HW126748   3.072   1.008   7.116
 3202SOL    HW226749   3.034   1.122   7.208
 3203SOL     OW26750   0.058   1.250   6.253
 3203SOL    HW126751   0.078   1.158   6.242
 3203SOL    HW226752   0.133   1.285   6.302
 3204SOL     OW26753   1.527   0.238   0.125
 3204SOL    HW126754   1.544   0.170   0.060
 3204SOL    HW226755   1.561   0.318   0.086
 3205SOL     OW26756   3.334   1.441   1.045
 3205SOL    HW126757   3.305   1.531   1.029
 3205SOL    HW226758   3.428   1.442   1.024
 3206SOL     OW26759   4.042   4.382   0.304
 3206SOL    HW126760   4.131   4.415   0.315
 3206SOL    HW226761   4.011   4.367   0.393
 3207SOL     OW26762   3.293   5.811   8.047
 3207SOL    HW126763   3.208   5.853   8.061
 3207SOL    HW226764   3.272   5.721   8.022
 3208SOL     OW26765   2.349   3.420   0.062
 3208SOL    HW126766   2.283   3.484   0.035
 3208SOL    HW226767   2.299   3.347   0.099
 3209SOL     OW26768   1.769   5.506   0.907
 3209SOL    HW126769   1.750   5.598   0.888
 3209SOL    HW226770   1.852   5.489   0.861
 3210SOL     OW26771   1.847   2.627   0.203
 3210SOL    HW126772   1.790   2.698   0.174
 3210SOL    HW226773   1.935   2.664   0.201
 3211SOL     OW26774   3.144   3.686   6.769
 3211SOL    HW126775   3.202   3.617   6.736
 3211SOL    HW226776   3.174   3.765   6.725
 3212SOL     OW26777   4.384   1.631   6.792
 3212SOL    HW126778   4.360   1.721   6.767
 3212SOL    HW226779   4.325   1.610   6.864
 3213SOL     OW26780   1.587   2.801   6.630
 3213SOL    HW126781   1.594   2.737   6.559
 3213SOL    HW226782   1.635   2.761   6.703
 3214SOL     OW26783   4.394   4.386   7.371
 3214SOL    HW126784   4.352   4.472   7.363
 3214SOL    HW226785   4.334   4.326   7.328
 3215SOL     OW26786   2.373   0.213   6.807
 3215SOL    HW126787   2.403   0.262   6.883
 3215SOL    HW226788   2.391   0.121   6.829
 3216SOL     OW26789   1.015   4.505   7.907
 3216SOL    HW126790   1.093   4.545   7.948
 3216SOL    HW226791   1.050   4.446   7.841
 3217SOL     OW26792   2.091   1.063   8.007
 3217SOL    HW126793   2.098   0.989   7.946
 3217SOL    HW226794   2.010   1.047   8.055
 3218SOL     OW26795   4.386   5.348   0.931
 3218SOL    HW126796   4.337   5.420   0.890
 3218SOL    HW226797   4.438   5.311   0.860
 3219SOL     OW26798   5.053   4.903   7.957
 3219SOL    HW126799   5.033   4.811   7.942
 3219SOL    HW226800   5.031   4.918   8.048
 3220SOL     OW26801   0.183   2.487   7.920
 3220SOL    HW126802   0.155   2.520   8.006
 3220SOL    HW226803   0.104   2.451   7.881
 3221SOL     OW26804   5.236   5.615   1.247
 3221SOL    HW126805   5.254   5.574   1.162
 3221SOL    HW226806   5.283   5.561   1.310
 3222SOL     OW26807   3.047   1.532   6.494
 3222SOL    HW126808   3.138   1.552   6.471
 3222SOL    HW226809   3.048   1.439   6.518
 3223SOL     OW26810   6.030   5.808   1.172
 3223SOL    HW126811   6.073   5.773   1.250
 3223SOL    HW226812   5.973   5.878   1.205
 3224SOL     OW26813   0.327   3.053   1.146
 3224SOL    HW126814   0.259   3.118   1.129
 3224SOL    HW226815   0.320   3.035   1.240
 3225SOL     OW26816   5.036   1.124   6.632
 3225SOL    HW126817   4.989   1.117   6.716
 3225SOL    HW226818   4.970   1.153   6.570
 3226SOL     OW26819   2.499   5.726   7.234
 3226SOL    HW126820   2.504   5.705   7.327
 3226SOL    HW226821   2.527   5.818   7.228
 3227SOL     OW26822   5.093   0.622   2.087
 3227SOL    HW126823   5.088   0.717   2.086
 3227SOL    HW226824   5.005   0.593   2.112
 3228SOL     OW26825   5.646   1.989   0.588
 3228SOL    HW126826   5.711   2.022   0.650
 3228SOL    HW226827   5.692   1.921   0.538
 3229SOL     OW26828   5.877   5.527   6.229
 3229SOL    HW126829   5.933   5.492   6.298
 3229SOL    HW226830   5.898   5.620   6.226
 3230SOL     OW26831   3.671   4.664   6.893
 3230SOL    HW126832   3.646   4.572   6.897
 3230SOL    HW226833   3.652   4.699   6.980
 3231SOL     OW26834   5.014   2.467   0.057
 3231SOL    HW126835   4.930   2.511   0.072
 3231SOL    HW226836   5.061   2.526  -0.001
 3232SOL     OW26837   4.067   1.616   1.379
 3232SOL    HW126838   3.979   1.649   1.397
 3232SOL    HW226839   4.092   1.659   1.297
 3233SOL     OW26840   2.796   1.758   0.116
 3233SOL    HW126841   2.781   1.690   0.182
 3233SOL    HW226842   2.883   1.740   0.082
 3234SOL     OW26843   5.583   0.171   7.094
 3234SOL    HW126844   5.543   0.084   7.089
 3234SOL    HW226845   5.513   0.228   7.126
 3235SOL     OW26846   5.551   6.208   7.781
 3235SOL    HW126847   5.532   6.146   7.711
 3235SOL    HW226848   5.513   6.291   7.751
 3236SOL     OW26849   5.995   3.658   6.080
 3236SOL    HW126850   5.942   3.640   6.002
 3236SOL    HW226851   6.082   3.678   6.046
 3237SOL     OW26852   4.161   4.167   0.939
 3237SOL    HW126853   4.068   4.160   0.957
 3237SOL    HW226854   4.172   4.254   0.902
 3238SOL     OW26855   4.279   3.966   5.365
 3238SOL    HW126856   4.244   4.050   5.336
 3238SOL    HW226857   4.371   3.983   5.382
 3239SOL     OW26858   6.313   6.239   6.510
 3239SOL    HW126859   6.289   6.224   6.419
 3239SOL    HW226860   6.245   6.194   6.560
 3240SOL     OW26861   0.853   5.242   0.969
 3240SOL    HW126862   0.937   5.278   0.996
 3240SOL    HW226863   0.794   5.318   0.968
 3241SOL     OW26864   4.880   4.257   1.406
 3241SOL    HW126865   4.835   4.314   1.343
 3241SOL    HW226866   4.830   4.176   1.405
 3242SOL     OW26867   6.261   3.942   0.553
 3242SOL    HW126868   6.284   3.961   0.462
 3242SOL    HW226869   6.331   3.982   0.605
 3243SOL     OW26870   3.435   1.839   6.853
 3243SOL    HW126871   3.359   1.783   6.868
 3243SOL    HW226872   3.417   1.917   6.906
 3244SOL     OW26873   0.920   1.807   1.116
 3244SOL    HW126874   0.901   1.748   1.043
 3244SOL    HW226875   0.996   1.768   1.158
 3245SOL     OW26876   4.508   5.486   0.535
 3245SOL    HW126877   4.561   5.413   0.501
 3245SOL    HW226878   4.429   5.444   0.568
 3246SOL     OW26879   1.111   2.970   7.834
 3246SOL    HW126880   1.089   2.931   7.749
 3246SOL    HW226881   1.026   2.990   7.874
 3247SOL     OW26882   3.655   4.579   0.541
 3247SOL    HW126883   3.728   4.593   0.602
 3247SOL    HW226884   3.607   4.505   0.577
 3248SOL     OW26885   6.063   0.237   7.839
 3248SOL    HW126886   6.125   0.188   7.785
 3248SOL    HW226887   6.005   0.170   7.875
 3249SOL     OW26888   1.527   1.665   7.151
 3249SOL    HW126889   1.460   1.598   7.163
 3249SOL    HW226890   1.561   1.681   7.239
 3250SOL     OW26891   0.356   3.536   5.944
 3250SOL    HW126892   0.285   3.549   6.006
 3250SOL    HW226893   0.317   3.483   5.874
 3251SOL     OW26894   1.333   1.554   1.511
 3251SOL    HW126895   1.359   1.581   1.423
 3251SOL    HW226896   1.239   1.543   1.506
 3252SOL     OW26897   4.971   1.860   7.983
 3252SOL    HW126898   5.050   1.912   7.973
 3252SOL    HW226899   4.907   1.902   7.925
 3253SOL     OW26900   4.879   1.834   7.563
 3253SOL    HW126901   4.957   1.863   7.514
 3253SOL    HW226902   4.860   1.747   7.529
 3254SOL     OW26903   6.197   5.070   1.629
 3254SOL    HW126904   6.203   4.975   1.620
 3254SOL    HW226905   6.172   5.101   1.542
 3255SOL     OW26906   1.524   6.276   6.465
 3255SOL    HW126907   1.483   6.323   6.393
 3255SOL    HW226908   1.544   6.189   6.429
 3256SOL     OW26909   6.345   6.207   7.025
 3256SOL    HW126910   6.345   6.264   6.948
 3256SOL    HW226911   6.417   6.240   7.080
 3257SOL     OW26912   3.027   6.142   5.275
 3257SOL    HW126913   3.102   6.100   5.316
 3257SOL    HW226914   2.993   6.201   5.342
 3258SOL     OW26915   1.487   4.224   7.395
 3258SOL    HW126916   1.541   4.186   7.464
 3258SOL    HW226917   1.538   4.213   7.315
 3259SOL     OW26918   4.896   2.416   0.945
 3259SOL    HW126919   4.979   2.373   0.926
 3259SOL    HW226920   4.918   2.481   1.012
 3260SOL     OW26921   1.823   3.709   0.654
 3260SOL    HW126922   1.789   3.762   0.725
 3260SOL    HW226923   1.780   3.624   0.666
 3261SOL     OW26924   3.846   2.256   0.560
 3261SOL    HW126925   3.929   2.277   0.518
 3261SOL    HW226926   3.812   2.341   0.589
 3262SOL     OW26927   4.580   1.587   1.342
 3262SOL    HW126928   4.510   1.543   1.294
 3262SOL    HW226929   4.650   1.600   1.277
 3263SOL     OW26930   0.897   3.364   6.106
 3263SOL    HW126931   0.852   3.436   6.062
 3263SOL    HW226932   0.844   3.287   6.087
 3264SOL     OW26933   1.340   3.516   6.535
 3264SOL    HW126934   1.337   3.439   6.479
 3264SOL    HW226935   1.362   3.588   6.476
 3265SOL     OW26936   2.721   0.884   6.317
 3265SOL    HW126937   2.802   0.859   6.361
 3265SOL    HW226938   2.721   0.980   6.318
 3266SOL     OW26939   5.187   0.561   7.071
 3266SOL    HW126940   5.147   0.567   7.158
 3266SOL    HW226941   5.195   0.652   7.042
 3267SOL     OW26942   6.200   1.537   1.241
 3267SOL    HW126943   6.203   1.449   1.202
 3267SOL    HW226944   6.132   1.530   1.309
 3268SOL     OW26945   2.983   2.519   6.105
 3268SOL    HW126946   2.985   2.470   6.187
 3268SOL    HW226947   2.891   2.519   6.078
 3269SOL     OW26948   1.439   4.521   1.807
 3269SOL    HW126949   1.398   4.441   1.774
 3269SOL    HW226950   1.395   4.538   1.890
 3270SOL     OW26951   4.721   6.060   0.141
 3270SOL    HW126952   4.767   5.984   0.177
 3270SOL    HW226953   4.653   6.023   0.086
 3271SOL     OW26954   1.541   4.269   1.051
 3271SOL    HW126955   1.588   4.351   1.065
 3271SOL    HW226956   1.495   4.282   0.968
 3272SOL     OW26957   2.447   2.995   1.517
 3272SOL    HW126958   2.395   2.923   1.554
 3272SOL    HW226959   2.442   2.982   1.422
 3273SOL     OW26960   0.538   1.071   6.711
 3273SOL    HW126961   0.452   1.091   6.747
 3273SOL    HW226962   0.567   1.154   6.673
 3274SOL     OW26963   4.519   5.178   7.213
 3274SOL    HW126964   4.512   5.193   7.307
 3274SOL    HW226965   4.613   5.167   7.197
 3275SOL     OW26966   3.960   2.950   1.901
 3275SOL    HW126967   3.920   3.033   1.925
 3275SOL    HW226968   3.916   2.925   1.820
 3276SOL     OW26969   2.845   4.957   6.698
 3276SOL    HW126970   2.765   5.008   6.716
 3276SOL    HW226971   2.898   5.015   6.643
 3277SOL     OW26972   0.225   5.631   7.068
 3277SOL    HW126973   0.138   5.625   7.029
 3277SOL    HW226974   0.243   5.725   7.073
 3278SOL     OW26975   1.907   0.614   7.611
 3278SOL    HW126976   1.965   0.682   7.576
 3278SOL    HW226977   1.820   0.642   7.585
 3279SOL     OW26978   2.085   2.771   0.303
 3279SOL    HW126979   2.163   2.773   0.359
 3279SOL    HW226980   2.093   2.848   0.248
 3280SOL     OW26981   0.997   2.055   1.533
 3280SOL    HW126982   1.053   2.018   1.601
 3280SOL    HW226983   1.019   2.007   1.454
 3281SOL     OW26984   3.936   4.635   6.909
 3281SOL    HW126985   3.984   4.691   6.848
 3281SOL    HW226986   3.844   4.653   6.891
 3282SOL     OW26987   0.093   2.832   0.354
 3282SOL    HW126988   0.079   2.891   0.428
 3282SOL    HW226989   0.154   2.766   0.388
 3283SOL     OW26990   2.992   3.894   7.404
 3283SOL    HW126991   3.055   3.834   7.446
 3283SOL    HW226992   3.029   3.981   7.418
 3284SOL     OW26993   0.203   0.646   0.770
 3284SOL    HW126994   0.267   0.575   0.768
 3284SOL    HW226995   0.166   0.648   0.682
 3285SOL     OW26996   0.115   4.435   1.686
 3285SOL    HW126997   0.081   4.358   1.730
 3285SOL    HW226998   0.119   4.410   1.594
 3286SOL     OW26999   0.310   2.289   1.665
 3286SOL    HW127000   0.286   2.255   1.751
 3286SOL    HW227001   0.376   2.226   1.633
 3287SOL     OW27002   1.714   6.327   7.923
 3287SOL    HW127003   1.670   6.320   7.838
 3287SOL    HW227004   1.766   6.247   7.930
 3288SOL     OW27005   3.493   2.354   6.679
 3288SOL    HW127006   3.488   2.294   6.754
 3288SOL    HW227007   3.487   2.296   6.602
 3289SOL     OW27008   0.818   5.980   2.125
 3289SOL    HW127009   0.758   5.984   2.199
 3289SOL    HW227010   0.764   6.005   2.050
 3290SOL     OW27011   0.393   2.273   1.216
 3290SOL    HW127012   0.365   2.364   1.227
 3290SOL    HW227013   0.425   2.268   1.126
 3291SOL     OW27014   0.686   0.814   7.655
 3291SOL    HW127015   0.729   0.807   7.570
 3291SOL    HW227016   0.609   0.758   7.647
 3292SOL     OW27017   2.653   0.399   0.130
 3292SOL    HW127018   2.613   0.326   0.178
 3292SOL    HW227019   2.642   0.376   0.038
 3293SOL     OW27020   1.096   2.727   1.126
 3293SOL    HW127021   1.183   2.749   1.160
 3293SOL    HW227022   1.062   2.662   1.187
 3294SOL     OW27023   0.542   0.199   7.697
 3294SOL    HW127024   0.467   0.246   7.659
 3294SOL    HW227025   0.553   0.237   7.784
 3295SOL     OW27026   2.857   6.109   0.739
 3295SOL    HW127027   2.810   6.184   0.775
 3295SOL    HW227028   2.933   6.098   0.797
 3296SOL     OW27029   4.931   3.783   7.263
 3296SOL    HW127030   4.882   3.714   7.218
 3296SOL    HW227031   5.021   3.751   7.266
 3297SOL     OW27032   5.870   2.073   0.712
 3297SOL    HW127033   5.881   2.162   0.680
 3297SOL    HW227034   5.885   2.080   0.807
 3298SOL     OW27035   0.779   1.720   1.834
 3298SOL    HW127036   0.745   1.757   1.915
 3298SOL    HW227037   0.808   1.632   1.857
 3299SOL     OW27038   5.642   4.788   0.147
 3299SOL    HW127039   5.700   4.855   0.183
 3299SOL    HW227040   5.581   4.768   0.218
 3300SOL     OW27041   1.288   4.129   2.121
 3300SOL    HW127042   1.357   4.170   2.070
 3300SOL    HW227043   1.281   4.041   2.085
 3301SOL     OW27044   5.396   3.618   6.905
 3301SOL    HW127045   5.445   3.643   6.826
 3301SOL    HW227046   5.450   3.649   6.978
 3302SOL     OW27047   2.227   0.444   1.131
 3302SOL    HW127048   2.212   0.467   1.039
 3302SOL    HW227049   2.183   0.514   1.180
 3303SOL     OW27050   3.650   2.878   0.110
 3303SOL    HW127051   3.605   2.949   0.157
 3303SOL    HW227052   3.715   2.846   0.172
 3304SOL     OW27053   5.904   4.102   1.423
 3304SOL    HW127054   5.876   4.075   1.510
 3304SOL    HW227055   6.000   4.096   1.426
 3305SOL     OW27056   0.494   5.746   7.825
 3305SOL    HW127057   0.511   5.840   7.814
 3305SOL    HW227058   0.531   5.705   7.747
 3306SOL     OW27059   2.269   2.152   5.988
 3306SOL    HW127060   2.348   2.099   5.999
 3306SOL    HW227061   2.302   2.241   5.980
 3307SOL     OW27062   1.302   1.918   7.051
 3307SOL    HW127063   1.319   1.908   7.145
 3307SOL    HW227064   1.232   1.856   7.032
 3308SOL     OW27065   4.737   5.954   6.305
 3308SOL    HW127066   4.713   5.964   6.213
 3308SOL    HW227067   4.813   5.895   6.303
 3309SOL     OW27068   2.327   1.728   6.812
 3309SOL    HW127069   2.307   1.754   6.902
 3309SOL    HW227070   2.332   1.811   6.764
 3310SOL     OW27071   1.937   6.205   1.177
 3310SOL    HW127072   1.997   6.196   1.103
 3310SOL    HW227073   1.919   6.114   1.204
 3311SOL     OW27074   3.444   1.720   1.964
 3311SOL    HW127075   3.369   1.780   1.970
 3311SOL    HW227076   3.482   1.737   1.878
 3312SOL     OW27077   5.335   4.562   1.431
 3312SOL    HW127078   5.351   4.641   1.380
 3312SOL    HW227079   5.255   4.581   1.481
 3313SOL     OW27080   6.083   5.621   2.234
 3313SOL    HW127081   6.169   5.659   2.252
 3313SOL    HW227082   6.048   5.599   2.320
 3314SOL     OW27083   4.731   6.194   6.749
 3314SOL    HW127084   4.716   6.265   6.811
 3314SOL    HW227085   4.662   6.205   6.683
 3315SOL     OW27086   0.316   1.472   7.380
 3315SOL    HW127087   0.395   1.494   7.331
 3315SOL    HW227088   0.266   1.553   7.381
 3316SOL     OW27089   2.748   2.943   7.732
 3316SOL    HW127090   2.721   2.986   7.651
 3316SOL    HW227091   2.796   2.865   7.704
 3317SOL     OW27092   1.147   1.157   6.913
 3317SOL    HW127093   1.070   1.132   6.965
 3317SOL    HW227094   1.217   1.101   6.947
 3318SOL     OW27095   2.845   5.080   1.436
 3318SOL    HW127096   2.803   5.118   1.359
 3318SOL    HW227097   2.802   5.123   1.510
 3319SOL     OW27098   6.100   1.037   0.735
 3319SOL    HW127099   6.111   1.133   0.735
 3319SOL    HW227100   6.137   1.009   0.651
 3320SOL     OW27101   3.938   4.247   1.252
 3320SOL    HW127102   4.019   4.275   1.210
 3320SOL    HW227103   3.966   4.205   1.333
 3321SOL     OW27104   5.455   0.407   6.730
 3321SOL    HW127105   5.414   0.381   6.648
 3321SOL    HW227106   5.506   0.331   6.757
 3322SOL     OW27107   3.990   2.743   6.836
 3322SOL    HW127108   4.006   2.750   6.742
 3322SOL    HW227109   4.070   2.776   6.876
 3323SOL     OW27110   0.899   4.076   1.350
 3323SOL    HW127111   0.907   4.170   1.334
 3323SOL    HW227112   0.942   4.035   1.275
 3324SOL     OW27113   3.606   5.789   7.827
 3324SOL    HW127114   3.587   5.743   7.746
 3324SOL    HW227115   3.533   5.850   7.838
 3325SOL     OW27116   5.118   6.254   7.105
 3325SOL    HW127117   5.168   6.192   7.051
 3325SOL    HW227118   5.179   6.280   7.174
 3326SOL     OW27119   0.047   1.163   1.328
 3326SOL    HW127120   0.002   1.230   1.380
 3326SOL    HW227121   0.030   1.081   1.376
 3327SOL     OW27122   2.940   5.302   7.326
 3327SOL    HW127123   3.006   5.251   7.371
 3327SOL    HW227124   2.951   5.391   7.360
 3328SOL     OW27125   4.678   3.490   1.479
 3328SOL    HW127126   4.717   3.575   1.461
 3328SOL    HW227127   4.736   3.450   1.545
 3329SOL     OW27128   3.353   1.523   8.007
 3329SOL    HW127129   3.292   1.544   8.078
 3329SOL    HW227130   3.358   1.427   8.007
 3330SOL     OW27131   1.894   3.459   1.931
 3330SOL    HW127132   1.902   3.454   1.836
 3330SOL    HW227133   1.808   3.423   1.950
 3331SOL     OW27134   5.150   1.194   7.522
 3331SOL    HW127135   5.129   1.106   7.493
 3331SOL    HW227136   5.074   1.220   7.575
 3332SOL     OW27137   5.286   0.637   2.534
 3332SOL    HW127138   5.245   0.690   2.602
 3332SOL    HW227139   5.380   0.649   2.547
 3333SOL     OW27140   1.701   4.950   7.741
 3333SOL    HW127141   1.651   4.896   7.802
 3333SOL    HW227142   1.651   5.031   7.734
 3334SOL     OW27143   2.620   3.257   2.079
 3334SOL    HW127144   2.704   3.268   2.123
 3334SOL    HW227145   2.558   3.240   2.149
 3335SOL     OW27146   2.493   2.777   7.647
 3335SOL    HW127147   2.519   2.694   7.688
 3335SOL    HW227148   2.515   2.844   7.712
 3336SOL     OW27149   0.016   1.227   2.491
 3336SOL    HW127150   0.033   1.320   2.473
 3336SOL    HW227151   0.043   1.182   2.411
 3337SOL     OW27152   3.562   3.938   0.228
 3337SOL    HW127153   3.613   3.866   0.267
 3337SOL    HW227154   3.558   3.916   0.135
 3338SOL     OW27155   1.763   4.263   1.481
 3338SOL    HW127156   1.680   4.303   1.457
 3338SOL    HW227157   1.759   4.174   1.445
 3339SOL     OW27158   2.706   5.298   0.747
 3339SOL    HW127159   2.693   5.392   0.741
 3339SOL    HW227160   2.753   5.275   0.667
 3340SOL     OW27161   4.144   1.117   6.901
 3340SOL    HW127162   4.146   1.164   6.818
 3340SOL    HW227163   4.178   1.180   6.965
 3341SOL     OW27164   0.653   3.031   0.182
 3341SOL    HW127165   0.575   3.039   0.127
 3341SOL    HW227166   0.640   2.948   0.229
 3342SOL     OW27167   3.623   3.346   2.404
 3342SOL    HW127168   3.676   3.267   2.400
 3342SOL    HW227169   3.541   3.318   2.444
 3343SOL     OW27170   5.202   6.031   2.678
 3343SOL    HW127171   5.244   6.111   2.708
 3343SOL    HW227172   5.255   6.002   2.604
 3344SOL     OW27173   5.091   1.920   7.401
 3344SOL    HW127174   5.092   1.850   7.336
 3344SOL    HW227175   5.132   1.995   7.358
 3345SOL     OW27176   3.086   4.165   0.272
 3345SOL    HW127177   3.040   4.176   0.356
 3345SOL    HW227178   3.087   4.070   0.257
 3346SOL     OW27179   1.090   3.652   1.294
 3346SOL    HW127180   1.119   3.613   1.211
 3346SOL    HW227181   1.095   3.746   1.279
 3347SOL     OW27182   1.990   4.743   6.878
 3347SOL    HW127183   1.906   4.752   6.924
 3347SOL    HW227184   2.017   4.834   6.862
 3348SOL     OW27185   4.656   1.420   0.953
 3348SOL    HW127186   4.726   1.465   1.000
 3348SOL    HW227187   4.700   1.351   0.903
 3349SOL     OW27188   3.570   1.939   7.568
 3349SOL    HW127189   3.654   1.976   7.541
 3349SOL    HW227190   3.581   1.845   7.557
 3350SOL     OW27191   4.807   3.382   7.818
 3350SOL    HW127192   4.713   3.399   7.829
 3350SOL    HW227193   4.824   3.305   7.872
 3351SOL     OW27194   4.010   6.022   1.854
 3351SOL    HW127195   4.067   5.988   1.923
 3351SOL    HW227196   4.018   5.959   1.783
 3352SOL     OW27197   3.236   3.852   6.970
 3352SOL    HW127198   3.181   3.793   6.918
 3352SOL    HW227199   3.285   3.794   7.027
 3353SOL     OW27200   1.732   5.978   1.039
 3353SOL    HW127201   1.708   5.899   0.991
 3353SOL    HW227202   1.737   6.046   0.971
 3354SOL     OW27203   1.518   0.768   0.409
 3354SOL    HW127204   1.475   0.854   0.412
 3354SOL    HW227205   1.504   0.731   0.497
 3355SOL     OW27206   0.773   3.869   6.063
 3355SOL    HW127207   0.723   3.943   6.097
 3355SOL    HW227208   0.707   3.813   6.022
 3356SOL     OW27209   1.731   2.901   5.795
 3356SOL    HW127210   1.641   2.911   5.762
 3356SOL    HW227211   1.744   2.807   5.800
 3357SOL     OW27212   0.631   3.263   7.740
 3357SOL    HW127213   0.614   3.255   7.646
 3357SOL    HW227214   0.594   3.184   7.778
 3358SOL     OW27215   1.558   0.045   7.694
 3358SOL    HW127216   1.501   0.035   7.770
 3358SOL    HW227217   1.502   0.024   7.619
 3359SOL     OW27218   4.915   2.993   6.559
 3359SOL    HW127219   4.847   3.035   6.612
 3359SOL    HW227220   4.935   2.912   6.606
 3360SOL     OW27221   2.551   3.231   0.569
 3360SOL    HW127222   2.586   3.320   0.574
 3360SOL    HW227223   2.591   3.185   0.642
 3361SOL     OW27224   3.796   1.666   1.462
 3361SOL    HW127225   3.742   1.640   1.387
 3361SOL    HW227226   3.790   1.762   1.464
 3362SOL     OW27227   4.011   5.293   2.695
 3362SOL    HW127228   4.094   5.304   2.649
 3362SOL    HW227229   3.948   5.344   2.644
 3363SOL     OW27230   0.589   4.516   7.354
 3363SOL    HW127231   0.629   4.521   7.267
 3363SOL    HW227232   0.621   4.433   7.390
 3364SOL     OW27233   5.824   3.353   7.874
 3364SOL    HW127234   5.816   3.401   7.956
 3364SOL    HW227235   5.830   3.421   7.807
 3365SOL     OW27236   2.014   6.211   6.054
 3365SOL    HW127237   1.992   6.158   6.130
 3365SOL    HW227238   1.961   6.176   5.983
 3366SOL     OW27239   3.421   1.891   7.983
 3366SOL    HW127240   3.344   1.846   7.948
 3366SOL    HW227241   3.388   1.939   8.059
 3367SOL     OW27242   4.453   3.342   0.311
 3367SOL    HW127243   4.437   3.328   0.405
 3367SOL    HW227244   4.366   3.335   0.271
 3368SOL     OW27245   4.908   1.187   7.618
 3368SOL    HW127246   4.869   1.235   7.691
 3368SOL    HW227247   4.833   1.146   7.575
 3369SOL     OW27248   0.532   2.342   0.151
 3369SOL    HW127249   0.492   2.401   0.087
 3369SOL    HW227250   0.550   2.262   0.103
 3370SOL     OW27251   1.427   2.640   7.746
 3370SOL    HW127252   1.493   2.610   7.684
 3370SOL    HW227253   1.373   2.701   7.696
 3371SOL     OW27254   0.570   6.013   7.861
 3371SOL    HW127255   0.663   6.038   7.866
 3371SOL    HW227256   0.524   6.097   7.850
 3372SOL     OW27257   2.627   0.515   0.920
 3372SOL    HW127258   2.576   0.442   0.956
 3372SOL    HW227259   2.683   0.474   0.854
 3373SOL     OW27260   6.053   3.953   7.423
 3373SOL    HW127261   5.974   3.942   7.475
 3373SOL    HW227262   6.026   4.010   7.351
 3374SOL     OW27263   1.100   4.306   2.230
 3374SOL    HW127264   1.022   4.250   2.233
 3374SOL    HW227265   1.164   4.255   2.180
 3375SOL     OW27266   4.283   6.220   0.558
 3375SOL    HW127267   4.362   6.272   0.547
 3375SOL    HW227268   4.314   6.129   0.561
 3376SOL     OW27269   4.680   4.217   0.056
 3376SOL    HW127270   4.697   4.235  -0.036
 3376SOL    HW227271   4.743   4.271   0.104
 3377SOL     OW27272   5.571   5.833   7.300
 3377SOL    HW127273   5.506   5.903   7.297
 3377SOL    HW227274   5.520   5.752   7.294
 3378SOL     OW27275   1.572   0.239   2.812
 3378SOL    HW127276   1.605   0.177   2.747
 3378SOL    HW227277   1.649   0.268   2.859
 3379SOL     OW27278   0.471   4.381   1.040
 3379SOL    HW127279   0.414   4.388   1.117
 3379SOL    HW227280   0.556   4.357   1.075
 3380SOL     OW27281   4.776   0.397   1.008
 3380SOL    HW127282   4.683   0.393   0.983
 3380SOL    HW227283   4.791   0.490   1.028
 3381SOL     OW27284   4.791   1.947   7.782
 3381SOL    HW127285   4.726   1.882   7.808
 3381SOL    HW227286   4.822   1.918   7.696
 3382SOL     OW27287   1.751   2.203   1.854
 3382SOL    HW127288   1.656   2.202   1.854
 3382SOL    HW227289   1.775   2.186   1.946
 3383SOL     OW27290   1.437   6.096   7.974
 3383SOL    HW127291   1.403   6.069   7.889
 3383SOL    HW227292   1.426   6.020   8.030
 3384SOL     OW27293   2.130   6.266   6.678
 3384SOL    HW127294   2.123   6.260   6.773
 3384SOL    HW227295   2.100   6.355   6.657
 3385SOL     OW27296   4.847   4.797   5.835
 3385SOL    HW127297   4.820   4.870   5.891
 3385SOL    HW227298   4.919   4.756   5.884
 3386SOL     OW27299   4.576   1.450   6.766
 3386SOL    HW127300   4.550   1.372   6.815
 3386SOL    HW227301   4.501   1.508   6.770
 3387SOL     OW27302   0.557   6.139   7.227
 3387SOL    HW127303   0.607   6.220   7.214
 3387SOL    HW227304   0.492   6.138   7.156
 3388SOL     OW27305   1.553   4.686   0.109
 3388SOL    HW127306   1.535   4.702   0.016
 3388SOL    HW227307   1.531   4.768   0.152
 3389SOL     OW27308   0.083   1.050   0.919
 3389SOL    HW127309   0.161   1.036   0.865
 3389SOL    HW227310   0.011   1.054   0.856
 3390SOL     OW27311   0.750   3.663   7.512
 3390SOL    HW127312   0.705   3.744   7.485
 3390SOL    HW227313   0.821   3.653   7.449
 3391SOL     OW27314   1.988   2.118   5.929
 3391SOL    HW127315   2.082   2.134   5.919
 3391SOL    HW227316   1.977   2.027   5.901
 3392SOL     OW27317   1.544   3.968   2.465
 3392SOL    HW127318   1.453   3.995   2.456
 3392SOL    HW227319   1.546   3.911   2.541
 3393SOL     OW27320   0.865   2.356   1.092
 3393SOL    HW127321   0.787   2.328   1.044
 3393SOL    HW227322   0.872   2.295   1.165
 3394SOL     OW27323   3.939   5.277   6.553
 3394SOL    HW127324   3.918   5.273   6.459
 3394SOL    HW227325   3.854   5.290   6.595
 3395SOL     OW27326   3.668   2.118   1.279
 3395SOL    HW127327   3.604   2.153   1.217
 3395SOL    HW227328   3.733   2.188   1.287
 3396SOL     OW27329   3.281   0.688   7.601
 3396SOL    HW127330   3.273   0.608   7.550
 3396SOL    HW227331   3.333   0.747   7.546
 3397SOL     OW27332   1.138   3.315   1.223
 3397SOL    HW127333   1.122   3.253   1.152
 3397SOL    HW227334   1.137   3.262   1.302
 3398SOL     OW27335   0.195   6.307   7.173
 3398SOL    HW127336   0.171   6.392   7.210
 3398SOL    HW227337   0.229   6.257   7.247
 3399SOL     OW27338   0.134   1.759   6.037
 3399SOL    HW127339   0.090   1.819   5.977
 3399SOL    HW227340   0.184   1.701   5.979
 3400SOL     OW27341   0.467   1.897   1.103
 3400SOL    HW127342   0.401   1.937   1.159
 3400SOL    HW227343   0.545   1.889   1.158
 3401SOL     OW27344   6.200   5.360   2.554
 3401SOL    HW127345   6.193   5.293   2.621
 3401SOL    HW227346   6.246   5.317   2.482
 3402SOL     OW27347   4.446   3.742   1.354
 3402SOL    HW127348   4.379   3.692   1.306
 3402SOL    HW227349   4.410   3.831   1.359
 3403SOL     OW27350   4.144   0.984   6.545
 3403SOL    HW127351   4.133   0.947   6.633
 3403SOL    HW227352   4.107   0.919   6.486
 3404SOL     OW27353   2.836   1.909   5.834
 3404SOL    HW127354   2.900   1.856   5.882
 3404SOL    HW227355   2.826   1.988   5.887
 3405SOL     OW27356   4.468   0.180   7.584
 3405SOL    HW127357   4.453   0.269   7.616
 3405SOL    HW227358   4.479   0.190   7.489
 3406SOL     OW27359   2.266   4.553   0.942
 3406SOL    HW127360   2.299   4.517   0.860
 3406SOL    HW227361   2.324   4.518   1.009
 3407SOL     OW27362   1.495   0.647   0.189
 3407SOL    HW127363   1.442   0.581   0.233
 3407SOL    HW227364   1.531   0.700   0.260
 3408SOL     OW27365   5.663   2.618   7.451
 3408SOL    HW127366   5.573   2.642   7.430
 3408SOL    HW227367   5.668   2.524   7.434
 3409SOL     OW27368   5.512   0.788   7.991
 3409SOL    HW127369   5.523   0.869   7.940
 3409SOL    HW227370   5.590   0.737   7.971
 3410SOL     OW27371   2.981   2.143   7.545
 3410SOL    HW127372   2.917   2.072   7.552
 3410SOL    HW227373   2.950   2.198   7.473
 3411SOL     OW27374   0.079   6.321   1.131
 3411SOL    HW127375   0.095   6.394   1.190
 3411SOL    HW227376   0.050   6.362   1.049
 3412SOL     OW27377   4.425   0.609   6.801
 3412SOL    HW127378   4.341   0.612   6.846
 3412SOL    HW227379   4.424   0.525   6.755
 3413SOL     OW27380   2.557   5.911   0.926
 3413SOL    HW127381   2.556   6.006   0.911
 3413SOL    HW227382   2.600   5.900   1.011
 3414SOL     OW27383   2.421   3.428   1.344
 3414SOL    HW127384   2.378   3.490   1.284
 3414SOL    HW227385   2.436   3.350   1.291
 3415SOL     OW27386   4.843   4.827   2.300
 3415SOL    HW127387   4.854   4.910   2.347
 3415SOL    HW227388   4.912   4.828   2.233
 3416SOL     OW27389   0.336   4.890   0.223
 3416SOL    HW127390   0.317   4.873   0.315
 3416SOL    HW227391   0.251   4.888   0.180
 3417SOL     OW27392   4.143   5.569   2.456
 3417SOL    HW127393   4.048   5.562   2.449
 3417SOL    HW227394   4.168   5.495   2.512
 3418SOL     OW27395   6.168   1.855   1.415
 3418SOL    HW127396   6.210   1.837   1.331
 3418SOL    HW227397   6.224   1.921   1.456
 3419SOL     OW27398   3.660   5.307   0.138
 3419SOL    HW127399   3.600   5.355   0.082
 3419SOL    HW227400   3.607   5.280   0.213
 3420SOL     OW27401   1.189   5.672   7.336
 3420SOL    HW127402   1.189   5.678   7.240
 3420SOL    HW227403   1.203   5.762   7.365
 3421SOL     OW27404   4.739   2.232   1.073
 3421SOL    HW127405   4.781   2.306   1.028
 3421SOL    HW227406   4.809   2.194   1.126
 3422SOL     OW27407   4.195   0.385   0.463
 3422SOL    HW127408   4.136   0.325   0.509
 3422SOL    HW227409   4.206   0.459   0.523
 3423SOL     OW27410   5.098   5.842   7.870
 3423SOL    HW127411   5.163   5.856   7.939
 3423SOL    HW227412   5.028   5.904   7.890
 3424SOL     OW27413   3.304   1.606   6.541
 3424SOL    HW127414   3.385   1.560   6.519
 3424SOL    HW227415   3.320   1.697   6.514
 3425SOL     OW27416   1.059   1.018   0.029
 3425SOL    HW127417   0.968   1.016  -0.002
 3425SOL    HW227418   1.102   1.084  -0.026
 3426SOL     OW27419   0.043   1.151   0.163
 3426SOL    HW127420   0.079   1.134   0.250
 3426SOL    HW227421   0.116   1.136   0.103
 3427SOL     OW27422   6.272   0.953   7.718
 3427SOL    HW127423   6.239   0.899   7.646
 3427SOL    HW227424   6.292   0.890   7.787
 3428SOL     OW27425   1.113   4.584   7.056
 3428SOL    HW127426   1.064   4.582   6.973
 3428SOL    HW227427   1.203   4.604   7.030
 3429SOL     OW27428   5.211   1.339   7.778
 3429SOL    HW127429   5.134   1.387   7.747
 3429SOL    HW227430   5.248   1.300   7.699
 3430SOL     OW27431   2.697   0.383   6.613
 3430SOL    HW127432   2.705   0.383   6.708
 3430SOL    HW227433   2.617   0.334   6.595
 3431SOL     OW27434   5.343   0.668   2.263
 3431SOL    HW127435   5.266   0.699   2.216
 3431SOL    HW227436   5.317   0.669   2.355
 3432SOL     OW27437   2.427   1.352   6.327
 3432SOL    HW127438   2.402   1.292   6.256
 3432SOL    HW227439   2.440   1.436   6.283
 3433SOL     OW27440   0.920   0.698   7.181
 3433SOL    HW127441   1.010   0.719   7.207
 3433SOL    HW227442   0.869   0.713   7.260
 3434SOL     OW27443   6.277   1.921   0.289
 3434SOL    HW127444   6.372   1.918   0.275
 3434SOL    HW227445   6.248   1.995   0.237
 3435SOL     OW27446   4.665   1.940   1.272
 3435SOL    HW127447   4.741   1.904   1.227
 3435SOL    HW227448   4.699   2.011   1.326
 3436SOL     OW27449   4.403   6.055   0.315
 3436SOL    HW127450   4.379   5.971   0.355
 3436SOL    HW227451   4.326   6.081   0.264
 3437SOL     OW27452   1.708   4.004   1.433
 3437SOL    HW127453   1.646   3.949   1.386
 3437SOL    HW227454   1.763   3.941   1.481
 3438SOL     OW27455   0.721   4.629   1.902
 3438SOL    HW127456   0.696   4.631   1.994
 3438SOL    HW227457   0.696   4.715   1.868
 3439SOL     OW27458   2.174   1.633   0.284
 3439SOL    HW127459   2.194   1.716   0.241
 3439SOL    HW227460   2.084   1.642   0.314
 3440SOL     OW27461   6.004   0.012   8.026
 3440SOL    HW127462   5.948   0.012   8.104
 3440SOL    HW227463   6.093   0.013   8.061
 3441SOL     OW27464   6.094   3.264   1.307
 3441SOL    HW127465   6.068   3.354   1.287
 3441SOL    HW227466   6.021   3.210   1.278
 3442SOL     OW27467   3.356   6.200   6.105
 3442SOL    HW127468   3.271   6.234   6.076
 3442SOL    HW227469   3.416   6.226   6.035
 3443SOL     OW27470   0.951   1.318   0.163
 3443SOL    HW127471   1.003   1.260   0.107
 3443SOL    HW227472   0.938   1.397   0.110
 3444SOL     OW27473   1.323   1.003   2.091
 3444SOL    HW127474   1.384   0.960   2.151
 3444SOL    HW227475   1.362   0.989   2.004
 3445SOL     OW27476   5.657   3.282   0.627
 3445SOL    HW127477   5.615   3.354   0.579
 3445SOL    HW227478   5.584   3.235   0.668
 3446SOL     OW27479   0.086   4.569   6.403
 3446SOL    HW127480   0.067   4.662   6.391
 3446SOL    HW227481   0.061   4.528   6.320
 3447SOL     OW27482   5.287   0.216   6.924
 3447SOL    HW127483   5.233   0.280   6.877
 3447SOL    HW227484   5.290   0.249   7.014
 3448SOL     OW27485   3.291   4.280   6.608
 3448SOL    HW127486   3.350   4.237   6.545
 3448SOL    HW227487   3.270   4.364   6.567
 3449SOL     OW27488   6.238   4.581   0.692
 3449SOL    HW127489   6.255   4.627   0.610
 3449SOL    HW227490   6.249   4.488   0.670
 3450SOL     OW27491   0.170   5.087   6.416
 3450SOL    HW127492   0.259   5.097   6.380
 3450SOL    HW227493   0.127   5.169   6.392
 3451SOL     OW27494   5.220   4.088   7.071
 3451SOL    HW127495   5.149   4.051   7.125
 3451SOL    HW227496   5.255   4.159   7.124
 3452SOL     OW27497   0.697   2.477   0.450
 3452SOL    HW127498   0.726   2.562   0.483
 3452SOL    HW227499   0.611   2.464   0.491
 3453SOL     OW27500   5.032   3.448   5.718
 3453SOL    HW127501   5.108   3.488   5.761
 3453SOL    HW227502   5.024   3.495   5.635
 3454SOL     OW27503   3.782   5.569   7.348
 3454SOL    HW127504   3.729   5.626   7.293
 3454SOL    HW227505   3.734   5.565   7.431
 3455SOL     OW27506   4.207   0.562   0.696
 3455SOL    HW127507   4.280   0.581   0.756
 3455SOL    HW227508   4.206   0.636   0.635
 3456SOL     OW27509   3.955   2.543   7.761
 3456SOL    HW127510   3.961   2.463   7.813
 3456SOL    HW227511   4.024   2.534   7.696
 3457SOL     OW27512   5.411   4.338   0.217
 3457SOL    HW127513   5.486   4.356   0.273
 3457SOL    HW227514   5.400   4.418   0.165
 3458SOL     OW27515   4.205   4.732   7.600
 3458SOL    HW127516   4.237   4.822   7.607
 3458SOL    HW227517   4.195   4.703   7.691
 3459SOL     OW27518   2.642   2.660   6.263
 3459SOL    HW127519   2.709   2.639   6.328
 3459SOL    HW227520   2.567   2.689   6.316
 3460SOL     OW27521   0.327   3.707   7.197
 3460SOL    HW127522   0.237   3.678   7.206
 3460SOL    HW227523   0.366   3.692   7.283
 3461SOL     OW27524   0.441   1.055   0.412
 3461SOL    HW127525   0.481   0.998   0.478
 3461SOL    HW227526   0.416   1.134   0.460
 3462SOL     OW27527   1.489   2.018   2.000
 3462SOL    HW127528   1.433   2.089   2.031
 3462SOL    HW227529   1.533   1.986   2.079
 3463SOL     OW27530   6.096   1.059   5.989
 3463SOL    HW127531   6.173   1.024   5.943
 3463SOL    HW227532   6.073   1.138   5.940
 3464SOL     OW27533   5.927   5.642   6.760
 3464SOL    HW127534   5.855   5.629   6.821
 3464SOL    HW227535   6.005   5.618   6.810
 3465SOL     OW27536   3.365   5.472   1.862
 3465SOL    HW127537   3.384   5.430   1.946
 3465SOL    HW227538   3.355   5.565   1.883
 3466SOL     OW27539   4.015   1.161   7.572
 3466SOL    HW127540   4.097   1.178   7.618
 3466SOL    HW227541   4.021   1.069   7.547
 3467SOL     OW27542   0.526   1.683   2.241
 3467SOL    HW127543   0.524   1.602   2.191
 3467SOL    HW227544   0.466   1.668   2.314
 3468SOL     OW27545   4.986   3.490   7.648
 3468SOL    HW127546   4.917   3.469   7.711
 3468SOL    HW227547   5.067   3.457   7.688
 3469SOL     OW27548   4.395   5.558   1.851
 3469SOL    HW127549   4.338   5.539   1.776
 3469SOL    HW227550   4.335   5.587   1.919
 3470SOL     OW27551   4.203   5.604   2.022
 3470SOL    HW127552   4.136   5.668   2.046
 3470SOL    HW227553   4.213   5.549   2.100
 3471SOL     OW27554   5.111   0.189   0.632
 3471SOL    HW127555   5.069   0.246   0.696
 3471SOL    HW227556   5.136   0.111   0.683
 3472SOL     OW27557   0.467   5.872   0.055
 3472SOL    HW127558   0.483   5.915  -0.029
 3472SOL    HW227559   0.384   5.825   0.043
 3473SOL     OW27560   0.342   2.273   7.265
 3473SOL    HW127561   0.356   2.288   7.358
 3473SOL    HW227562   0.248   2.283   7.253
 3474SOL     OW27563   2.984   6.173   6.288
 3474SOL    HW127564   2.932   6.100   6.255
 3474SOL    HW227565   2.942   6.198   6.370
 3475SOL     OW27566   3.567   0.956   2.633
 3475SOL    HW127567   3.603   0.954   2.545
 3475SOL    HW227568   3.642   0.943   2.690
 3476SOL     OW27569   0.094   0.526   0.165
 3476SOL    HW127570   0.039   0.491   0.235
 3476SOL    HW227571   0.183   0.521   0.200
 3477SOL     OW27572   5.312   4.470   6.333
 3477SOL    HW127573   5.263   4.496   6.255
 3477SOL    HW227574   5.268   4.390   6.362
 3478SOL     OW27575   5.115   1.820   1.632
 3478SOL    HW127576   5.133   1.784   1.719
 3478SOL    HW227577   5.029   1.862   1.641
 3479SOL     OW27578   5.880   4.546   7.651
 3479SOL    HW127579   5.916   4.537   7.739
 3479SOL    HW227580   5.947   4.594   7.602
 3480SOL     OW27581   0.372   2.732   1.692
 3480SOL    HW127582   0.447   2.782   1.661
 3480SOL    HW227583   0.318   2.795   1.740
 3481SOL     OW27584   1.339   2.724   0.585
 3481SOL    HW127585   1.404   2.794   0.580
 3481SOL    HW227586   1.366   2.671   0.659
 3482SOL     OW27587   1.990   6.002   7.031
 3482SOL    HW127588   1.940   6.066   6.982
 3482SOL    HW227589   1.926   5.961   7.089
 3483SOL     OW27590   6.202   3.684   1.319
 3483SOL    HW127591   6.262   3.688   1.244
 3483SOL    HW227592   6.116   3.707   1.282
 3484SOL     OW27593   0.790   1.738   7.173
 3484SOL    HW127594   0.738   1.658   7.164
 3484SOL    HW227595   0.858   1.715   7.237
 3485SOL     OW27596   4.160   2.379   6.057
 3485SOL    HW127597   4.066   2.364   6.068
 3485SOL    HW227598   4.174   2.375   5.962
 3486SOL     OW27599   3.525   5.448   1.504
 3486SOL    HW127600   3.599   5.412   1.454
 3486SOL    HW227601   3.515   5.388   1.578
 3487SOL     OW27602   1.539   5.540   7.974
 3487SOL    HW127603   1.560   5.522   7.882
 3487SOL    HW227604   1.598   5.484   8.024
 3488SOL     OW27605   0.461   4.257   6.196
 3488SOL    HW127606   0.448   4.269   6.290
 3488SOL    HW227607   0.499   4.339   6.166
 3489SOL     OW27608   5.791   2.311   6.934
 3489SOL    HW127609   5.841   2.389   6.955
 3489SOL    HW227610   5.800   2.255   7.011
 3490SOL     OW27611   1.926   3.327   0.824
 3490SOL    HW127612   1.871   3.249   0.836
 3490SOL    HW227613   1.920   3.345   0.730
 3491SOL     OW27614   2.431   0.809   2.711
 3491SOL    HW127615   2.413   0.847   2.797
 3491SOL    HW227616   2.431   0.714   2.727
 3492SOL     OW27617   3.274   2.100   1.694
 3492SOL    HW127618   3.213   2.029   1.715
 3492SOL    HW227619   3.360   2.058   1.693
 3493SOL     OW27620   5.039   5.116   0.531
 3493SOL    HW127621   5.114   5.109   0.472
 3493SOL    HW227622   4.970   5.156   0.477
 3494SOL     OW27623   3.832   2.982   7.016
 3494SOL    HW127624   3.883   2.908   6.983
 3494SOL    HW227625   3.856   2.987   7.109
 3495SOL     OW27626   3.806   1.794   6.993
 3495SOL    HW127627   3.759   1.877   6.988
 3495SOL    HW227628   3.772   1.743   6.919
 3496SOL     OW27629   3.012   2.540   1.117
 3496SOL    HW127630   3.085   2.504   1.169
 3496SOL    HW227631   2.985   2.468   1.060
 3497SOL     OW27632   4.280   4.988   7.673
 3497SOL    HW127633   4.352   5.011   7.732
 3497SOL    HW227634   4.201   5.010   7.723
 3498SOL     OW27635   4.860   2.351   6.556
 3498SOL    HW127636   4.944   2.344   6.602
 3498SOL    HW227637   4.882   2.333   6.464
 3499SOL     OW27638   3.320   5.556   5.804
 3499SOL    HW127639   3.326   5.462   5.787
 3499SOL    HW227640   3.258   5.587   5.738
 3500SOL     OW27641   2.060   3.609   0.261
 3500SOL    HW127642   1.965   3.618   0.252
 3500SOL    HW227643   2.094   3.623   0.172
 3501SOL     OW27644   3.688   3.693   7.838
 3501SOL    HW127645   3.663   3.785   7.823
 3501SOL    HW227646   3.729   3.693   7.924
 3502SOL     OW27647   1.696   4.618   1.408
 3502SOL    HW127648   1.663   4.592   1.494
 3502SOL    HW227649   1.782   4.656   1.426
 3503SOL     OW27650   4.414   1.169   1.943
 3503SOL    HW127651   4.464   1.249   1.926
 3503SOL    HW227652   4.424   1.153   2.037
 3504SOL     OW27653   2.227   5.103   1.589
 3504SOL    HW127654   2.257   5.174   1.532
 3504SOL    HW227655   2.150   5.139   1.634
 3505SOL     OW27656   0.016   1.323   6.598
 3505SOL    HW127657   0.034   1.239   6.557
 3505SOL    HW227658  -0.039   1.303   6.673
 3506SOL     OW27659   0.892   4.624   1.293
 3506SOL    HW127660   0.839   4.632   1.214
 3506SOL    HW227661   0.966   4.684   1.277
 3507SOL     OW27662   4.244   4.079   7.556
 3507SOL    HW127663   4.256   4.035   7.472
 3507SOL    HW227664   4.235   4.009   7.620
 3508SOL     OW27665   2.840   3.233   6.940
 3508SOL    HW127666   2.761   3.278   6.970
 3508SOL    HW227667   2.883   3.205   7.020
 3509SOL     OW27668   3.684   0.341   6.726
 3509SOL    HW127669   3.599   0.365   6.688
 3509SOL    HW227670   3.735   0.309   6.652
 3510SOL     OW27671   0.985   5.299   7.787
 3510SOL    HW127672   0.900   5.330   7.819
 3510SOL    HW227673   1.048   5.340   7.846
 3511SOL     OW27674   4.640   5.119   1.393
 3511SOL    HW127675   4.599   5.040   1.427
 3511SOL    HW227676   4.582   5.147   1.321
 3512SOL     OW27677   6.244   4.809   1.815
 3512SOL    HW127678   6.187   4.818   1.739
 3512SOL    HW227679   6.202   4.743   1.870
 3513SOL     OW27680   2.173   4.232   7.432
 3513SOL    HW127681   2.159   4.299   7.366
 3513SOL    HW227682   2.234   4.272   7.494
 3514SOL     OW27683   2.397   3.979   1.689
 3514SOL    HW127684   2.336   3.969   1.762
 3514SOL    HW227685   2.367   3.916   1.623
 3515SOL     OW27686   3.351   4.364   0.951
 3515SOL    HW127687   3.287   4.434   0.934
 3515SOL    HW227688   3.312   4.312   1.021
 3516SOL     OW27689   6.165   2.601   0.169
 3516SOL    HW127690   6.146   2.689   0.202
 3516SOL    HW227691   6.108   2.544   0.220
 3517SOL     OW27692   2.277   2.468   0.285
 3517SOL    HW127693   2.281   2.469   0.189
 3517SOL    HW227694   2.347   2.527   0.313
 3518SOL     OW27695   5.717   3.021   6.867
 3518SOL    HW127696   5.798   2.993   6.824
 3518SOL    HW227697   5.688   3.098   6.818
 3519SOL     OW27698   5.004   4.419   6.524
 3519SOL    HW127699   4.968   4.443   6.439
 3519SOL    HW227700   5.041   4.332   6.510
 3520SOL     OW27701   1.522   1.988   0.702
 3520SOL    HW127702   1.599   2.000   0.758
 3520SOL    HW227703   1.554   2.010   0.614
 3521SOL     OW27704   2.901   2.104   0.784
 3521SOL    HW127705   2.899   2.174   0.718
 3521SOL    HW227706   2.984   2.059   0.769
 3522SOL     OW27707   0.141   1.835   1.071
 3522SOL    HW127708   0.225   1.875   1.096
 3522SOL    HW227709   0.117   1.879   0.990
 3523SOL     OW27710   2.973   6.001   7.080
 3523SOL    HW127711   3.047   6.061   7.089
 3523SOL    HW227712   2.996   5.947   7.004
 3524SOL     OW27713   5.319   5.619   7.994
 3524SOL    HW127714   5.320   5.692   7.933
 3524SOL    HW227715   5.278   5.548   7.946
 3525SOL     OW27716   2.579   5.157   6.490
 3525SOL    HW127717   2.611   5.247   6.496
 3525SOL    HW227718   2.484   5.165   6.491
 3526SOL     OW27719   1.003   3.932   7.772
 3526SOL    HW127720   1.031   3.863   7.832
 3526SOL    HW227721   1.011   4.013   7.823
 3527SOL     OW27722   3.661   6.309   7.954
 3527SOL    HW127723   3.662   6.223   7.912
 3527SOL    HW227724   3.699   6.368   7.890
 3528SOL     OW27725   3.707   0.248   2.962
 3528SOL    HW127726   3.657   0.248   2.880
 3528SOL    HW227727   3.729   0.156   2.977
 3529SOL     OW27728   6.034   1.278   2.169
 3529SOL    HW127729   5.939   1.287   2.180
 3529SOL    HW227730   6.062   1.364   2.138
 3530SOL     OW27731   2.335   2.054   6.340
 3530SOL    HW127732   2.401   2.080   6.275
 3530SOL    HW227733   2.328   1.959   6.331
 3531SOL     OW27734   5.908   0.359   7.039
 3531SOL    HW127735   6.002   0.350   7.025
 3531SOL    HW227736   5.870   0.282   6.998
 3532SOL     OW27737   5.409   4.332   0.862
 3532SOL    HW127738   5.461   4.292   0.932
 3532SOL    HW227739   5.465   4.402   0.828
 3533SOL     OW27740   3.675   6.197   2.286
 3533SOL    HW127741   3.758   6.199   2.238
 3533SOL    HW227742   3.699   6.171   2.374
 3534SOL     OW27743   4.515   3.683   0.103
 3534SOL    HW127744   4.557   3.639   0.177
 3534SOL    HW227745   4.552   3.771   0.104
 3535SOL     OW27746   5.323   5.376   2.010
 3535SOL    HW127747   5.288   5.434   2.078
 3535SOL    HW227748   5.401   5.338   2.050
 3536SOL     OW27749   4.939   2.793   0.283
 3536SOL    HW127750   4.885   2.718   0.260
 3536SOL    HW227751   4.895   2.868   0.241
 3537SOL     OW27752   2.446   0.383   1.972
 3537SOL    HW127753   2.489   0.402   1.888
 3537SOL    HW227754   2.450   0.288   1.980
 3538SOL     OW27755   4.516   4.292   5.558
 3538SOL    HW127756   4.573   4.360   5.594
 3538SOL    HW227757   4.428   4.316   5.585
 3539SOL     OW27758   1.303   1.887   1.380
 3539SOL    HW127759   1.242   1.941   1.329
 3539SOL    HW227760   1.373   1.866   1.318
 3540SOL     OW27761   2.563   6.003   2.006
 3540SOL    HW127762   2.647   6.049   2.005
 3540SOL    HW227763   2.501   6.068   2.039
 3541SOL     OW27764   4.739   0.140   6.294
 3541SOL    HW127765   4.720   0.151   6.387
 3541SOL    HW227766   4.804   0.069   6.291
 3542SOL     OW27767   6.157   0.574   7.414
 3542SOL    HW127768   6.084   0.599   7.358
 3542SOL    HW227769   6.121   0.508   7.474
 3543SOL     OW27770   3.560   4.264   6.036
 3543SOL    HW127771   3.638   4.314   6.060
 3543SOL    HW227772   3.500   4.275   6.110
 3544SOL     OW27773   5.931   4.827   7.463
 3544SOL    HW127774   5.988   4.753   7.482
 3544SOL    HW227775   5.875   4.835   7.540
 3545SOL     OW27776   0.173   4.278   7.122
 3545SOL    HW127777   0.233   4.352   7.130
 3545SOL    HW227778   0.230   4.201   7.127
 3546SOL     OW27779   6.046   2.234   6.084
 3546SOL    HW127780   6.123   2.196   6.042
 3546SOL    HW227781   6.010   2.294   6.019
 3547SOL     OW27782   4.906   5.649   7.835
 3547SOL    HW127783   4.968   5.722   7.828
 3547SOL    HW227784   4.947   5.578   7.786
 3548SOL     OW27785   4.659   5.723   1.281
 3548SOL    HW127786   4.725   5.655   1.292
 3548SOL    HW227787   4.620   5.704   1.195
 3549SOL     OW27788   2.181   6.016   7.285
 3549SOL    HW127789   2.186   6.104   7.323
 3549SOL    HW227790   2.088   6.002   7.269
 3550SOL     OW27791   0.037   4.846   6.409
 3550SOL    HW127792   0.102   4.909   6.440
 3550SOL    HW227793  -0.011   4.893   6.342
 3551SOL     OW27794   3.792   1.097   2.064
 3551SOL    HW127795   3.788   1.109   1.969
 3551SOL    HW227796   3.748   1.175   2.099
 3552SOL     OW27797   4.954   0.751   6.396
 3552SOL    HW127798   5.017   0.822   6.382
 3552SOL    HW227799   4.889   0.788   6.456
 3553SOL     OW27800   5.541   1.254   6.944
 3553SOL    HW127801   5.483   1.317   6.902
 3553SOL    HW227802   5.488   1.175   6.954
 3554SOL     OW27803   1.947   2.945   7.324
 3554SOL    HW127804   2.014   2.986   7.270
 3554SOL    HW227805   1.990   2.928   7.408
 3555SOL     OW27806   0.870   5.089   6.815
 3555SOL    HW127807   0.890   5.003   6.777
 3555SOL    HW227808   0.925   5.150   6.766
 3556SOL     OW27809   5.455   4.589   2.266
 3556SOL    HW127810   5.534   4.616   2.218
 3556SOL    HW227811   5.434   4.503   2.230
 3557SOL     OW27812   4.586   1.025   5.575
 3557SOL    HW127813   4.527   0.995   5.506
 3557SOL    HW227814   4.617   0.944   5.617
 3558SOL     OW27815   0.842   2.579   7.265
 3558SOL    HW127816   0.783   2.653   7.277
 3558SOL    HW227817   0.785   2.502   7.270
 3559SOL     OW27818   5.955   4.893   7.158
 3559SOL    HW127819   5.918   4.882   7.246
 3559SOL    HW227820   5.889   4.941   7.110
 3560SOL     OW27821   0.515   2.071   1.603
 3560SOL    HW127822   0.447   2.005   1.600
 3560SOL    HW227823   0.575   2.041   1.672
 3561SOL     OW27824   6.124   5.632   0.273
 3561SOL    HW127825   6.136   5.723   0.247
 3561SOL    HW227826   6.063   5.597   0.209
 3562SOL     OW27827   2.420   4.515   1.599
 3562SOL    HW127828   2.394   4.587   1.540
 3562SOL    HW227829   2.467   4.559   1.670
 3563SOL     OW27830   2.171   0.915   7.293
 3563SOL    HW127831   2.120   0.914   7.212
 3563SOL    HW227832   2.239   0.980   7.277
 3564SOL     OW27833   0.572   1.128   1.202
 3564SOL    HW127834   0.533   1.045   1.176
 3564SOL    HW227835   0.527   1.151   1.284
 3565SOL     OW27836   4.968   4.153   1.655
 3565SOL    HW127837   4.970   4.214   1.582
 3565SOL    HW227838   5.013   4.198   1.727
 3566SOL     OW27839   1.442   4.846   7.191
 3566SOL    HW127840   1.492   4.927   7.187
 3566SOL    HW227841   1.375   4.862   7.257
 3567SOL     OW27842   2.308   2.763   1.633
 3567SOL    HW127843   2.282   2.804   1.715
 3567SOL    HW227844   2.259   2.680   1.631
 3568SOL     OW27845   4.046   6.276   1.971
 3568SOL    HW127846   3.985   6.344   1.942
 3568SOL    HW227847   4.017   6.197   1.925
 3569SOL     OW27848   5.947   2.403   0.346
 3569SOL    HW127849   5.959   2.317   0.386
 3569SOL    HW227850   5.853   2.412   0.335
 3570SOL     OW27851   0.043   5.423   0.001
 3570SOL    HW127852   0.012   5.510  -0.024
 3570SOL    HW227853  -0.020   5.392   0.067
 3571SOL     OW27854   4.917   1.240   6.338
 3571SOL    HW127855   4.881   1.268   6.254
 3571SOL    HW227856   4.841   1.207   6.387
 3572SOL     OW27857   4.921   5.653   2.006
 3572SOL    HW127858   4.828   5.662   1.989
 3572SOL    HW227859   4.943   5.726   2.063
 3573SOL     OW27860   2.121   0.930   6.089
 3573SOL    HW127861   2.196   0.947   6.146
 3573SOL    HW227862   2.107   0.835   6.094
 3574SOL     OW27863   1.726   1.856   7.538
 3574SOL    HW127864   1.728   1.952   7.535
 3574SOL    HW227865   1.770   1.834   7.620
 3575SOL     OW27866   1.231   1.807   6.735
 3575SOL    HW127867   1.227   1.903   6.733
 3575SOL    HW227868   1.263   1.783   6.647
 3576SOL     OW27869   4.274   5.063   0.058
 3576SOL    HW127870   4.202   5.117   0.024
 3576SOL    HW227871   4.232   5.009   0.125
 3577SOL     OW27872   4.710   4.881   8.020
 3577SOL    HW127873   4.718   4.960   8.073
 3577SOL    HW227874   4.695   4.914   7.931
 3578SOL     OW27875   3.891   4.221   7.788
 3578SOL    HW127876   3.831   4.196   7.858
 3578SOL    HW227877   3.974   4.180   7.812
 3579SOL     OW27878   4.540   4.916   1.500
 3579SOL    HW127879   4.541   4.947   1.591
 3579SOL    HW227880   4.504   4.827   1.506
 3580SOL     OW27881   6.122   0.966   7.348
 3580SOL    HW127882   6.064   0.975   7.423
 3580SOL    HW227883   6.197   0.916   7.381
 3581SOL     OW27884   3.092   0.306   7.821
 3581SOL    HW127885   3.158   0.361   7.863
 3581SOL    HW227886   3.125   0.217   7.831
 3582SOL     OW27887   5.801   0.438   1.850
 3582SOL    HW127888   5.888   0.471   1.827
 3582SOL    HW227889   5.753   0.516   1.879
 3583SOL     OW27890   3.505   3.048   6.547
 3583SOL    HW127891   3.585   3.071   6.595
 3583SOL    HW227892   3.533   3.042   6.456
 3584SOL     OW27893   2.407   3.798   7.556
 3584SOL    HW127894   2.495   3.767   7.536
 3584SOL    HW227895   2.362   3.799   7.472
 3585SOL     OW27896   1.229   4.400   0.531
 3585SOL    HW127897   1.158   4.424   0.472
 3585SOL    HW227898   1.186   4.373   0.612
 3586SOL     OW27899   3.063   6.119   0.926
 3586SOL    HW127900   3.039   6.125   1.019
 3586SOL    HW227901   3.150   6.158   0.921
 3587SOL     OW27902   0.456   0.465   0.131
 3587SOL    HW127903   0.521   0.426   0.190
 3587SOL    HW227904   0.453   0.557   0.157
 3588SOL     OW27905   0.443   2.444   7.976
 3588SOL    HW127906   0.486   2.480   7.899
 3588SOL    HW227907   0.349   2.458   7.960
 3589SOL     OW27908   1.823   3.641   6.791
 3589SOL    HW127909   1.758   3.584   6.751
 3589SOL    HW227910   1.794   3.730   6.770
 3590SOL     OW27911   5.357   3.036   1.074
 3590SOL    HW127912   5.270   3.072   1.092
 3590SOL    HW227913   5.351   2.999   0.986
 3591SOL     OW27914   4.601   4.151   6.989
 3591SOL    HW127915   4.623   4.174   6.899
 3591SOL    HW227916   4.606   4.234   7.037
 3592SOL     OW27917   5.327   3.206   7.548
 3592SOL    HW127918   5.374   3.212   7.632
 3592SOL    HW227919   5.356   3.283   7.500
 3593SOL     OW27920   3.467   4.611   2.223
 3593SOL    HW127921   3.422   4.538   2.182
 3593SOL    HW227922   3.477   4.677   2.154
 3594SOL     OW27923   3.573   2.092   1.773
 3594SOL    HW127924   3.653   2.047   1.744
 3594SOL    HW227925   3.585   2.102   1.867
 3595SOL     OW27926   6.104   1.566   6.911
 3595SOL    HW127927   6.102   1.621   6.832
 3595SOL    HW227928   6.056   1.617   6.977
 3596SOL     OW27929   5.356   1.264   1.208
 3596SOL    HW127930   5.307   1.295   1.132
 3596SOL    HW227931   5.372   1.171   1.190
 3597SOL     OW27932   5.325   3.661   1.391
 3597SOL    HW127933   5.365   3.631   1.474
 3597SOL    HW227934   5.243   3.612   1.385
 3598SOL     OW27935   6.335   4.085   8.030
 3598SOL    HW127936   6.282   4.078   7.951
 3598SOL    HW227937   6.384   4.002   8.033
 3599SOL     OW27938   1.290   1.739   7.870
 3599SOL    HW127939   1.369   1.750   7.923
 3599SOL    HW227940   1.290   1.815   7.811
 3600SOL     OW27941   1.197   3.531   0.433
 3600SOL    HW127942   1.279   3.534   0.481
 3600SOL    HW227943   1.167   3.623   0.431
 3601SOL     OW27944   5.636   5.455   1.526
 3601SOL    HW127945   5.696   5.486   1.459
 3601SOL    HW227946   5.649   5.514   1.600
 3602SOL     OW27947   0.779   4.201   6.548
 3602SOL    HW127948   0.724   4.125   6.530
 3602SOL    HW227949   0.842   4.202   6.475
 3603SOL     OW27950   0.574   2.326   6.536
 3603SOL    HW127951   0.569   2.380   6.457
 3603SOL    HW227952   0.502   2.356   6.591
 3604SOL     OW27953   4.504   0.760   7.892
 3604SOL    HW127954   4.491   0.666   7.885
 3604SOL    HW227955   4.594   0.775   7.861
 3605SOL     OW27956   0.808   6.041   6.231
 3605SOL    HW127957   0.748   5.989   6.284
 3605SOL    HW227958   0.759   6.061   6.151
 3606SOL     OW27959   5.217   5.670   2.951
 3606SOL    HW127960   5.133   5.651   2.910
 3606SOL    HW227961   5.212   5.762   2.976
 3607SOL     OW27962   1.378   3.998   6.833
 3607SOL    HW127963   1.308   3.972   6.772
 3607SOL    HW227964   1.450   3.938   6.813
 3608SOL     OW27965   3.589   5.316   7.776
 3608SOL    HW127966   3.676   5.316   7.816
 3608SOL    HW227967   3.534   5.365   7.837
 3609SOL     OW27968   5.460   1.740   1.392
 3609SOL    HW127969   5.521   1.806   1.359
 3609SOL    HW227970   5.487   1.659   1.349
 3610SOL     OW27971   2.722   6.194   6.883
 3610SOL    HW127972   2.650   6.199   6.946
 3610SOL    HW227973   2.742   6.101   6.877
 3611SOL     OW27974   1.052   3.746   7.561
 3611SOL    HW127975   0.992   3.683   7.601
 3611SOL    HW227976   1.045   3.824   7.616
 3612SOL     OW27977   2.029   5.976   6.619
 3612SOL    HW127978   1.984   5.958   6.536
 3612SOL    HW227979   2.040   6.071   6.620
 3613SOL     OW27980   0.387   5.118   7.250
 3613SOL    HW127981   0.312   5.151   7.299
 3613SOL    HW227982   0.404   5.032   7.286
 3614SOL     OW27983   2.975   1.748   7.660
 3614SOL    HW127984   3.002   1.697   7.737
 3614SOL    HW227985   3.052   1.802   7.639
 3615SOL     OW27986   2.090   5.769   6.939
 3615SOL    HW127987   2.054   5.846   6.984
 3615SOL    HW227988   2.135   5.720   7.007
 3616SOL     OW27989   5.944   4.974   0.903
 3616SOL    HW127990   5.987   4.889   0.897
 3616SOL    HW227991   6.015   5.037   0.898
 3617SOL     OW27992   5.555   0.461   1.196
 3617SOL    HW127993   5.533   0.510   1.116
 3617SOL    HW227994   5.470   0.447   1.239
 3618SOL     OW27995   3.175   4.595   1.213
 3618SOL    HW127996   3.163   4.671   1.270
 3618SOL    HW227997   3.163   4.629   1.125
 3619SOL     OW27998   0.740   3.346   6.891
 3619SOL    HW127999   0.797   3.414   6.858
 3619SOL    HW228000   0.749   3.274   6.828
 3620SOL     OW28001   3.168   5.680   0.635
 3620SOL    HW128002   3.183   5.769   0.667
 3620SOL    HW228003   3.211   5.624   0.700
 3621SOL     OW28004   1.875   1.482   0.188
 3621SOL    HW128005   1.884   1.569   0.226
 3621SOL    HW228006   1.781   1.463   0.194
 3622SOL     OW28007   3.681   2.703   1.528
 3622SOL    HW128008   3.713   2.627   1.479
 3622SOL    HW228009   3.663   2.768   1.461
 3623SOL     OW28010   5.583   3.289   0.963
 3623SOL    HW128011   5.540   3.349   0.902
 3623SOL    HW228012   5.576   3.203   0.922
 3624SOL     OW28013   0.748   2.230   6.116
 3624SOL    HW128014   0.656   2.226   6.088
 3624SOL    HW228015   0.750   2.299   6.183
 3625SOL     OW28016   1.304   5.672   6.775
 3625SOL    HW128017   1.282   5.735   6.705
 3625SOL    HW228018   1.234   5.682   6.839
 3626SOL     OW28019   3.420   5.899   7.155
 3626SOL    HW128020   3.366   5.933   7.084
 3626SOL    HW228021   3.358   5.853   7.211
 3627SOL     OW28022   3.476   5.658   0.793
 3627SOL    HW128023   3.523   5.647   0.710
 3627SOL    HW228024   3.488   5.575   0.839
 3628SOL     OW28025   2.980   4.911   6.121
 3628SOL    HW128026   2.891   4.917   6.155
 3628SOL    HW228027   2.976   4.957   6.037
 3629SOL     OW28028   2.319   4.713   0.290
 3629SOL    HW128029   2.252   4.780   0.303
 3629SOL    HW228030   2.393   4.760   0.251
 3630SOL     OW28031   1.256   1.105   1.663
 3630SOL    HW128032   1.243   1.123   1.756
 3630SOL    HW228033   1.342   1.143   1.643
 3631SOL     OW28034   1.727   2.133   2.431
 3631SOL    HW128035   1.741   2.148   2.524
 3631SOL    HW228036   1.744   2.217   2.389
 3632SOL     OW28037   2.941   0.645   0.772
 3632SOL    HW128038   2.873   0.698   0.813
 3632SOL    HW228039   2.919   0.555   0.795
 3633SOL     OW28040   0.669   4.867   7.116
 3633SOL    HW128041   0.610   4.836   7.185
 3633SOL    HW228042   0.689   4.957   7.139
 3634SOL     OW28043   4.643   3.198   1.173
 3634SOL    HW128044   4.569   3.237   1.219
 3634SOL    HW228045   4.688   3.273   1.132
 3635SOL     OW28046   0.010   3.673   1.099
 3635SOL    HW128047   0.106   3.674   1.093
 3635SOL    HW228048  -0.018   3.624   1.022
 3636SOL     OW28049   4.193   0.863   2.486
 3636SOL    HW128050   4.155   0.801   2.424
 3636SOL    HW228051   4.162   0.948   2.457
 3637SOL     OW28052   3.242   2.171   5.827
 3637SOL    HW128053   3.222   2.213   5.910
 3637SOL    HW228054   3.267   2.243   5.769
 3638SOL     OW28055   1.441   4.446   7.740
 3638SOL    HW128056   1.362   4.437   7.686
 3638SOL    HW228057   1.495   4.371   7.716
 3639SOL     OW28058   4.397   1.720   0.315
 3639SOL    HW128059   4.391   1.719   0.220
 3639SOL    HW228060   4.465   1.655   0.336
 3640SOL     OW28061   1.592   2.730   2.380
 3640SOL    HW128062   1.663   2.775   2.334
 3640SOL    HW228063   1.616   2.735   2.473
 3641SOL     OW28064   3.563   5.216   7.008
 3641SOL    HW128065   3.620   5.143   7.032
 3641SOL    HW228066   3.552   5.266   7.089
 3642SOL     OW28067   3.116   5.623   5.624
 3642SOL    HW128068   3.061   5.695   5.595
 3642SOL    HW228069   3.141   5.577   5.544
 3643SOL     OW28070   2.421   2.738   0.096
 3643SOL    HW128071   2.499   2.706   0.143
 3643SOL    HW228072   2.422   2.833   0.112
 3644SOL     OW28073   5.035   0.803   1.442
 3644SOL    HW128074   5.071   0.735   1.498
 3644SOL    HW228075   4.987   0.755   1.374
 3645SOL     OW28076   4.224   1.900   0.750
 3645SOL    HW128077   4.312   1.931   0.729
 3645SOL    HW228078   4.217   1.815   0.707
 3646SOL     OW28079   3.140   4.355   8.065
 3646SOL    HW128080   3.144   4.307   7.983
 3646SOL    HW228081   3.086   4.301   8.123
 3647SOL     OW28082   5.741   5.594   1.759
 3647SOL    HW128083   5.661   5.629   1.798
 3647SOL    HW228084   5.790   5.559   1.834
 3648SOL     OW28085   5.690   3.819   6.516
 3648SOL    HW128086   5.753   3.836   6.445
 3648SOL    HW228087   5.604   3.828   6.474
 3649SOL     OW28088   5.817   0.399   1.221
 3649SOL    HW128089   5.724   0.410   1.200
 3649SOL    HW228090   5.830   0.304   1.222
 3650SOL     OW28091   5.949   6.284   1.323
 3650SOL    HW128092   6.030   6.258   1.281
 3650SOL    HW228093   5.976   6.330   1.403
 3651SOL     OW28094   5.155   5.942   7.643
 3651SOL    HW128095   5.194   5.874   7.589
 3651SOL    HW228096   5.116   5.895   7.717
 3652SOL     OW28097   4.376   1.603   5.466
 3652SOL    HW128098   4.361   1.653   5.386
 3652SOL    HW228099   4.393   1.669   5.533
 3653SOL     OW28100   3.052   0.091   1.501
 3653SOL    HW128101   3.026  -0.001   1.497
 3653SOL    HW228102   2.991   0.130   1.565
 3654SOL     OW28103   2.382   5.540   6.710
 3654SOL    HW128104   2.306   5.572   6.663
 3654SOL    HW228105   2.367   5.567   6.801
 3655SOL     OW28106   0.955   0.176   1.161
 3655SOL    HW128107   0.908   0.094   1.149
 3655SOL    HW228108   1.047   0.150   1.170
 3656SOL     OW28109   3.761   4.941   7.602
 3656SOL    HW128110   3.799   4.859   7.633
 3656SOL    HW228111   3.719   4.979   7.679
 3657SOL     OW28112   3.466   5.909   1.344
 3657SOL    HW128113   3.466   5.907   1.248
 3657SOL    HW228114   3.500   5.995   1.367
 3658SOL     OW28115   2.209   5.781   2.106
 3658SOL    HW128116   2.269   5.719   2.148
 3658SOL    HW228117   2.138   5.793   2.168
 3659SOL     OW28118   4.996   0.350   0.420
 3659SOL    HW128119   5.020   0.334   0.329
 3659SOL    HW228120   5.049   0.288   0.470
 3660SOL     OW28121   0.307   5.107   7.576
 3660SOL    HW128122   0.401   5.086   7.580
 3660SOL    HW228123   0.291   5.164   7.650
 3661SOL     OW28124   5.173   2.301   1.163
 3661SOL    HW128125   5.245   2.349   1.121
 3661SOL    HW228126   5.209   2.274   1.247
 3662SOL     OW28127   4.496   4.094   2.621
 3662SOL    HW128128   4.405   4.122   2.633
 3662SOL    HW228129   4.531   4.154   2.556
 3663SOL     OW28130   4.071   2.401   0.345
 3663SOL    HW128131   4.010   2.341   0.301
 3663SOL    HW228132   4.014   2.468   0.384
 3664SOL     OW28133   3.477   0.902   7.944
 3664SOL    HW128134   3.419   0.869   7.875
 3664SOL    HW228135   3.461   0.996   7.946
 3665SOL     OW28136   0.184   5.014   5.886
 3665SOL    HW128137   0.198   5.048   5.975
 3665SOL    HW228138   0.264   5.039   5.839
 3666SOL     OW28139   1.072   3.389   6.981
 3666SOL    HW128140   1.006   3.428   6.923
 3666SOL    HW228141   1.144   3.365   6.923
 3667SOL     OW28142   6.012   1.818   2.065
 3667SOL    HW128143   6.022   1.902   2.110
 3667SOL    HW228144   5.934   1.829   2.011
 3668SOL     OW28145   2.174   2.160   0.208
 3668SOL    HW128146   2.210   2.173   0.295
 3668SOL    HW228147   2.203   2.073   0.181
 3669SOL     OW28148   5.393   5.636   7.285
 3669SOL    HW128149   5.312   5.657   7.239
 3669SOL    HW228150   5.446   5.588   7.221
 3670SOL     OW28151   0.965   6.175   0.773
 3670SOL    HW128152   1.050   6.137   0.795
 3670SOL    HW228153   0.950   6.150   0.682
 3671SOL     OW28154   0.828   0.275   6.707
 3671SOL    HW128155   0.733   0.284   6.699
 3671SOL    HW228156   0.855   0.233   6.625
 3672SOL     OW28157   2.600   2.044   7.983
 3672SOL    HW128158   2.509   2.053   8.009
 3672SOL    HW228159   2.625   2.132   7.954
 3673SOL     OW28160   4.639   1.700   5.867
 3673SOL    HW128161   4.587   1.645   5.925
 3673SOL    HW228162   4.579   1.722   5.796
 3674SOL     OW28163   4.306   4.477   0.357
 3674SOL    HW128164   4.390   4.474   0.312
 3674SOL    HW228165   4.315   4.416   0.430
 3675SOL     OW28166   3.962   2.313   8.031
 3675SOL    HW128167   3.969   2.405   8.055
 3675SOL    HW228168   3.906   2.275   8.098
 3676SOL     OW28169   2.382   1.408   6.960
 3676SOL    HW128170   2.313   1.346   6.983
 3676SOL    HW228171   2.340   1.472   6.902
 3677SOL     OW28172   4.321   5.628   8.013
 3677SOL    HW128173   4.324   5.553   8.074
 3677SOL    HW228174   4.403   5.675   8.029
 3678SOL     OW28175   2.602   1.856   7.275
 3678SOL    HW128176   2.630   1.832   7.186
 3678SOL    HW228177   2.586   1.951   7.270
 3679SOL     OW28178   1.427   5.940   0.369
 3679SOL    HW128179   1.396   5.938   0.460
 3679SOL    HW228180   1.507   5.888   0.370
 3680SOL     OW28181   4.323   5.531   7.479
 3680SOL    HW128182   4.332   5.438   7.498
 3680SOL    HW228183   4.253   5.536   7.414
 3681SOL     OW28184   6.156   5.833   0.617
 3681SOL    HW128185   6.119   5.794   0.696
 3681SOL    HW228186   6.251   5.834   0.634
 3682SOL     OW28187   1.189   4.038   0.488
 3682SOL    HW128188   1.274   4.040   0.444
 3682SOL    HW228189   1.146   4.120   0.462
 3683SOL     OW28190   6.266   1.154   2.062
 3683SOL    HW128191   6.191   1.191   2.107
 3683SOL    HW228192   6.325   1.126   2.132
 3684SOL     OW28193   2.335   5.758   0.497
 3684SOL    HW128194   2.387   5.765   0.577
 3684SOL    HW228195   2.316   5.665   0.489
 3685SOL     OW28196   4.950   4.828   0.579
 3685SOL    HW128197   4.915   4.806   0.666
 3685SOL    HW228198   5.010   4.901   0.595
 3686SOL     OW28199   0.181   5.639   0.111
 3686SOL    HW128200   0.166   5.550   0.080
 3686SOL    HW228201   0.167   5.634   0.206
 3687SOL     OW28202   1.244   1.986   6.354
 3687SOL    HW128203   1.305   1.912   6.363
 3687SOL    HW228204   1.199   1.991   6.439
 3688SOL     OW28205   0.301   2.865   0.024
 3688SOL    HW128206   0.213   2.840   0.052
 3688SOL    HW228207   0.356   2.848   0.100
 3689SOL     OW28208   1.899   1.700   7.371
 3689SOL    HW128209   1.960   1.771   7.392
 3689SOL    HW228210   1.828   1.711   7.433
 3690SOL     OW28211   3.217   4.704   7.067
 3690SOL    HW128212   3.206   4.611   7.045
 3690SOL    HW228213   3.134   4.744   7.042
 3691SOL     OW28214   5.859   2.142   7.160
 3691SOL    HW128215   5.822   2.093   7.233
 3691SOL    HW228216   5.922   2.201   7.200
 3692SOL     OW28217   4.759   2.583   6.834
 3692SOL    HW128218   4.780   2.570   6.741
 3692SOL    HW228219   4.709   2.505   6.858
 3693SOL     OW28220   0.089   1.853   8.038
 3693SOL    HW128221   0.131   1.769   8.019
 3693SOL    HW228222  -0.005   1.836   8.025
 3694SOL     OW28223   3.304   0.897   3.032
 3694SOL    HW128224   3.375   0.832   3.042
 3694SOL    HW228225   3.225   0.844   3.025
 3695SOL     OW28226   5.484   1.542   7.107
 3695SOL    HW128227   5.423   1.586   7.047
 3695SOL    HW228228   5.432   1.520   7.183
 3696SOL     OW28229   5.941   5.562   7.225
 3696SOL    HW128230   5.934   5.582   7.319
 3696SOL    HW228231   5.899   5.637   7.183
 3697SOL     OW28232   0.062   3.721   7.345
 3697SOL    HW128233   0.054   3.668   7.425
 3697SOL    HW228234   0.026   3.806   7.369
 3698SOL     OW28235   1.207   1.474   1.785
 3698SOL    HW128236   1.253   1.415   1.844
 3698SOL    HW228237   1.240   1.453   1.698
 3699SOL     OW28238   5.634   1.956   1.349
 3699SOL    HW128239   5.644   2.013   1.273
 3699SOL    HW228240   5.722   1.923   1.367
 3700SOL     OW28241   3.458   1.517   7.033
 3700SOL    HW128242   3.376   1.507   6.985
 3700SOL    HW228243   3.520   1.553   6.969
 3701SOL     OW28244   1.513   4.230   0.076
 3701SOL    HW128245   1.560   4.314   0.080
 3701SOL    HW228246   1.567   4.171   0.128
 3702SOL     OW28247   5.045   1.010   1.261
 3702SOL    HW128248   5.047   1.100   1.291
 3702SOL    HW228249   5.048   0.957   1.341
 3703SOL     OW28250   1.819   4.770   7.231
 3703SOL    HW128251   1.805   4.679   7.206
 3703SOL    HW228252   1.829   4.768   7.326
 3704SOL     OW28253   1.001   4.063   1.702
 3704SOL    HW128254   0.946   4.089   1.776
 3704SOL    HW228255   1.070   4.010   1.741
 3705SOL     OW28256   3.865   4.425   0.825
 3705SOL    HW128257   3.820   4.351   0.864
 3705SOL    HW228258   3.841   4.500   0.880
 3706SOL     OW28259   2.979   5.272   6.102
 3706SOL    HW128260   2.952   5.223   6.180
 3706SOL    HW228261   2.944   5.222   6.028
 3707SOL     OW28262   4.079   3.741   1.786
 3707SOL    HW128263   4.027   3.738   1.867
 3707SOL    HW228264   4.113   3.652   1.776
 3708SOL     OW28265   5.670   3.675   0.662
 3708SOL    HW128266   5.684   3.630   0.746
 3708SOL    HW228267   5.632   3.759   0.686
 3709SOL     OW28268   3.500   3.076   7.334
 3709SOL    HW128269   3.525   2.995   7.380
 3709SOL    HW228270   3.409   3.091   7.361
 3710SOL     OW28271   1.611   4.249   7.725
 3710SOL    HW128272   1.580   4.211   7.807
 3710SOL    HW228273   1.695   4.205   7.709
 3711SOL     OW28274   3.106   0.575   1.031
 3711SOL    HW128275   3.026   0.616   1.065
 3711SOL    HW228276   3.134   0.632   0.960
 3712SOL     OW28277   2.439   5.454   1.822
 3712SOL    HW128278   2.353   5.493   1.813
 3712SOL    HW228279   2.494   5.500   1.758
 3713SOL     OW28280   1.349   1.405   0.544
 3713SOL    HW128281   1.311   1.418   0.631
 3713SOL    HW228282   1.314   1.321   0.515
 3714SOL     OW28283   1.775   3.214   6.110
 3714SOL    HW128284   1.823   3.167   6.042
 3714SOL    HW228285   1.807   3.304   6.105
 3715SOL     OW28286   4.864   1.399   7.803
 3715SOL    HW128287   4.926   1.390   7.876
 3715SOL    HW228288   4.778   1.396   7.844
 3716SOL     OW28289   3.212   5.483   7.213
 3716SOL    HW128290   3.195   5.396   7.249
 3716SOL    HW228291   3.303   5.479   7.182
 3717SOL     OW28292   0.476   0.596   7.670
 3717SOL    HW128293   0.537   0.529   7.638
 3717SOL    HW228294   0.436   0.558   7.748
 3718SOL     OW28295   1.905   3.440   1.656
 3718SOL    HW128296   1.952   3.390   1.589
 3718SOL    HW228297   1.830   3.477   1.611
 3719SOL     OW28298   0.603   0.337   0.328
 3719SOL    HW128299   0.666   0.395   0.371
 3719SOL    HW228300   0.552   0.299   0.399
 3720SOL     OW28301   2.158   2.692   0.713
 3720SOL    HW128302   2.184   2.756   0.648
 3720SOL    HW228303   2.132   2.743   0.789
 3721SOL     OW28304   5.317   2.854   7.837
 3721SOL    HW128305   5.271   2.849   7.921
 3721SOL    HW228306   5.368   2.774   7.832
 3722SOL     OW28307   1.794   0.710   0.466
 3722SOL    HW128308   1.708   0.744   0.442
 3722SOL    HW228309   1.777   0.620   0.495
 3723SOL     OW28310   2.267   2.093   7.400
 3723SOL    HW128311   2.185   2.045   7.390
 3723SOL    HW228312   2.295   2.073   7.489
 3724SOL     OW28313   3.908   0.481   1.924
 3724SOL    HW128314   3.849   0.427   1.976
 3724SOL    HW228315   3.965   0.523   1.988
 3725SOL     OW28316   2.231   4.745   7.601
 3725SOL    HW128317   2.215   4.804   7.527
 3725SOL    HW228318   2.144   4.713   7.625
 3726SOL     OW28319   4.032   2.058   1.300
 3726SOL    HW128320   4.123   2.026   1.296
 3726SOL    HW228321   4.039   2.143   1.343
 3727SOL     OW28322   3.388   2.551   1.757
 3727SOL    HW128323   3.439   2.472   1.739
 3727SOL    HW228324   3.319   2.523   1.816
 3728SOL     OW28325   4.029   3.586   7.664
 3728SOL    HW128326   3.991   3.530   7.732
 3728SOL    HW228327   4.121   3.562   7.661
 3729SOL     OW28328   1.218   4.272   7.206
 3729SOL    HW128329   1.280   4.203   7.184
 3729SOL    HW228330   1.271   4.351   7.216
 3730SOL     OW28331   2.927   1.682   6.286
 3730SOL    HW128332   2.940   1.641   6.371
 3730SOL    HW228333   2.911   1.609   6.226
 3731SOL     OW28334   2.244   0.886   2.198
 3731SOL    HW128335   2.288   0.947   2.139
 3731SOL    HW228336   2.170   0.936   2.232
 3732SOL     OW28337   2.341   3.536   6.334
 3732SOL    HW128338   2.350   3.604   6.266
 3732SOL    HW228339   2.366   3.455   6.290
 3733SOL     OW28340   3.286   4.635   0.611
 3733SOL    HW128341   3.200   4.665   0.580
 3733SOL    HW228342   3.289   4.543   0.585
 3734SOL     OW28343   4.257   1.240   7.689
 3734SOL    HW128344   4.221   1.258   7.776
 3734SOL    HW228345   4.310   1.161   7.701
 3735SOL     OW28346   5.980   1.001   1.253
 3735SOL    HW128347   6.052   0.940   1.263
 3735SOL    HW228348   5.904   0.946   1.232
 3736SOL     OW28349   3.847   5.678   6.472
 3736SOL    HW128350   3.923   5.714   6.519
 3736SOL    HW228351   3.883   5.606   6.421
 3737SOL     OW28352   0.217   2.744   7.087
 3737SOL    HW128353   0.194   2.754   7.179
 3737SOL    HW228354   0.207   2.831   7.049
 3738SOL     OW28355   0.967   1.214   0.443
 3738SOL    HW128356   0.960   1.297   0.491
 3738SOL    HW228357   0.940   1.236   0.353
 3739SOL     OW28358   4.734   3.765   0.959
 3739SOL    HW128359   4.801   3.711   0.917
 3739SOL    HW228360   4.655   3.711   0.960
 3740SOL     OW28361   3.468   1.885   2.527
 3740SOL    HW128362   3.496   1.923   2.610
 3740SOL    HW228363   3.469   1.958   2.465
 3741SOL     OW28364   0.926   0.457   7.707
 3741SOL    HW128365   0.906   0.396   7.777
 3741SOL    HW228366   1.020   0.446   7.691
 3742SOL     OW28367   4.577   2.956   7.029
 3742SOL    HW128368   4.508   2.912   7.079
 3742SOL    HW228369   4.599   3.032   7.082
 3743SOL     OW28370   4.147   5.505   1.327
 3743SOL    HW128371   4.150   5.586   1.378
 3743SOL    HW228372   4.236   5.496   1.292
 3744SOL     OW28373   3.239   2.773   1.362
 3744SOL    HW128374   3.304   2.779   1.291
 3744SOL    HW228375   3.194   2.858   1.361
 3745SOL     OW28376   3.877   3.618   0.553
 3745SOL    HW128377   3.903   3.533   0.519
 3745SOL    HW228378   3.794   3.601   0.598
 3746SOL     OW28379   0.283   0.273   0.411
 3746SOL    HW128380   0.309   0.365   0.420
 3746SOL    HW228381   0.353   0.224   0.455
 3747SOL     OW28382   6.321   6.347   6.814
 3747SOL    HW128383   6.308   6.328   6.722
 3747SOL    HW228384   6.293   6.438   6.825
 3748SOL     OW28385   2.579   5.026   7.174
 3748SOL    HW128386   2.569   5.089   7.246
 3748SOL    HW228387   2.661   5.051   7.133
 3749SOL     OW28388   1.645   0.329   1.009
 3749SOL    HW128389   1.584   0.320   0.935
 3749SOL    HW228390   1.725   0.286   0.979
 3750SOL     OW28391   1.878   3.224   6.748
 3750SOL    HW128392   1.941   3.225   6.676
 3750SOL    HW228393   1.799   3.186   6.709
 3751SOL     OW28394   0.525   4.757   7.537
 3751SOL    HW128395   0.465   4.736   7.610
 3751SOL    HW228396   0.561   4.672   7.511
 3752SOL     OW28397   4.604   6.240   7.037
 3752SOL    HW128398   4.597   6.244   7.132
 3752SOL    HW228399   4.559   6.160   7.012
 3753SOL     OW28400   4.209   2.112   0.944
 3753SOL    HW128401   4.208   2.052   0.869
 3753SOL    HW228402   4.260   2.187   0.914
 3754SOL     OW28403   2.448   1.776   0.708
 3754SOL    HW128404   2.443   1.868   0.736
 3754SOL    HW228405   2.508   1.777   0.633
 3755SOL     OW28406   1.208   5.093   7.161
 3755SOL    HW128407   1.204   5.032   7.087
 3755SOL    HW228408   1.156   5.168   7.132
 3756SOL     OW28409   5.499   4.167   7.696
 3756SOL    HW128410   5.583   4.213   7.691
 3756SOL    HW228411   5.477   4.149   7.605
 3757SOL     OW28412   2.107   2.622   6.808
 3757SOL    HW128413   2.190   2.574   6.803
 3757SOL    HW228414   2.127   2.698   6.864
 3758SOL     OW28415   1.829   0.372   5.913
 3758SOL    HW128416   1.743   0.352   5.876
 3758SOL    HW228417   1.884   0.297   5.888
 3759SOL     OW28418   5.986   4.700   6.898
 3759SOL    HW128419   6.048   4.772   6.908
 3759SOL    HW228420   5.989   4.654   6.982
 3760SOL     OW28421   4.162   5.527   6.561
 3760SOL    HW128422   4.248   5.491   6.584
 3760SOL    HW228423   4.122   5.458   6.507
 3761SOL     OW28424   4.832   2.099   0.417
 3761SOL    HW128425   4.867   2.136   0.336
 3761SOL    HW228426   4.803   2.174   0.468
 3762SOL     OW28427   1.808   1.246   0.806
 3762SOL    HW128428   1.813   1.218   0.898
 3762SOL    HW228429   1.746   1.318   0.806
 3763SOL     OW28430   3.329   0.049   1.447
 3763SOL    HW128431   3.242   0.025   1.477
 3763SOL    HW228432   3.347   0.133   1.489
 3764SOL     OW28433   4.673   2.290   0.548
 3764SOL    HW128434   4.579   2.288   0.531
 3764SOL    HW228435   4.686   2.367   0.604
 3765SOL     OW28436   4.323   4.274   1.520
 3765SOL    HW128437   4.230   4.255   1.521
 3765SOL    HW228438   4.354   4.237   1.437
 3766SOL     OW28439   1.507   6.053   6.333
 3766SOL    HW128440   1.480   5.970   6.373
 3766SOL    HW228441   1.434   6.078   6.276
 3767SOL     OW28442   1.311   0.451   1.427
 3767SOL    HW128443   1.273   0.364   1.415
 3767SOL    HW228444   1.245   0.499   1.477
 3768SOL     OW28445   2.744   3.650   1.896
 3768SOL    HW128446   2.669   3.663   1.838
 3768SOL    HW228447   2.706   3.645   1.983
 3769SOL     OW28448   3.422   0.237   7.870
 3769SOL    HW128449   3.378   0.154   7.892
 3769SOL    HW228450   3.392   0.298   7.937
 3770SOL     OW28451   4.285   1.066   0.356
 3770SOL    HW128452   4.293   1.099   0.446
 3770SOL    HW228453   4.193   1.045   0.346
 3771SOL     OW28454   2.696   1.412   1.328
 3771SOL    HW128455   2.778   1.401   1.376
 3771SOL    HW228456   2.723   1.448   1.244
 3772SOL     OW28457   0.604   6.138   6.078
 3772SOL    HW128458   0.583   6.071   6.012
 3772SOL    HW228459   0.591   6.221   6.033
 3773SOL     OW28460   4.716   4.361   7.142
 3773SOL    HW128461   4.806   4.395   7.137
 3773SOL    HW228462   4.663   4.438   7.162
 3774SOL     OW28463   4.623  -0.003   0.838
 3774SOL    HW128464   4.620  -0.002   0.933
 3774SOL    HW228465   4.681   0.069   0.814
 3775SOL     OW28466   5.415   5.803   1.551
 3775SOL    HW128467   5.421   5.708   1.562
 3775SOL    HW228468   5.481   5.838   1.612
 3776SOL     OW28469   5.010   1.277   6.998
 3776SOL    HW128470   4.973   1.332   6.929
 3776SOL    HW228471   4.952   1.201   7.002
 3777SOL     OW28472   2.288   4.242   6.094
 3777SOL    HW128473   2.239   4.170   6.133
 3777SOL    HW228474   2.380   4.217   6.102
 3778SOL     OW28475   3.081   1.131   1.875
 3778SOL    HW128476   3.006   1.125   1.933
 3778SOL    HW228477   3.150   1.170   1.929
 3779SOL     OW28478   2.254   3.900   7.002
 3779SOL    HW128479   2.333   3.921   6.952
 3779SOL    HW228480   2.208   3.837   6.947
 3780SOL     OW28481   2.431   5.545   5.711
 3780SOL    HW128482   2.382   5.463   5.699
 3780SOL    HW228483   2.521   5.517   5.723
 3781SOL     OW28484   5.814   1.383   7.414
 3781SOL    HW128485   5.899   1.341   7.402
 3781SOL    HW228486   5.780   1.394   7.325
 3782SOL     OW28487   1.908   3.098   5.921
 3782SOL    HW128488   1.903   3.021   5.866
 3782SOL    HW228489   1.934   3.065   6.007
 3783SOL     OW28490   5.697   5.284   0.779
 3783SOL    HW128491   5.655   5.200   0.762
 3783SOL    HW228492   5.634   5.349   0.749
 3784SOL     OW28493   2.532   1.243   0.813
 3784SOL    HW128494   2.493   1.280   0.893
 3784SOL    HW228495   2.623   1.226   0.836
 3785SOL     OW28496   6.331   5.423   0.915
 3785SOL    HW128497   6.373   5.409   0.999
 3785SOL    HW228498   6.403   5.430   0.852
 3786SOL     OW28499   4.490   5.321   7.891
 3786SOL    HW128500   4.545   5.356   7.962
 3786SOL    HW228501   4.505   5.226   7.894
 3787SOL     OW28502   0.625   0.772   0.397
 3787SOL    HW128503   0.635   0.750   0.490
 3787SOL    HW228504   0.692   0.838   0.381
 3788SOL     OW28505   0.467   4.358   7.656
 3788SOL    HW128506   0.515   4.275   7.668
 3788SOL    HW228507   0.535   4.423   7.638
 3789SOL     OW28508   1.346   4.260   6.509
 3789SOL    HW128509   1.333   4.210   6.429
 3789SOL    HW228510   1.273   4.234   6.566
 3790SOL     OW28511   5.499   1.671   7.562
 3790SOL    HW128512   5.506   1.639   7.652
 3790SOL    HW228513   5.419   1.631   7.528
 3791SOL     OW28514   2.020   6.189   0.871
 3791SOL    HW128515   2.092   6.190   0.808
 3791SOL    HW228516   1.949   6.145   0.826
 3792SOL     OW28517   2.157   0.863   6.742
 3792SOL    HW128518   2.129   0.850   6.652
 3792SOL    HW228519   2.250   0.839   6.742
 3793SOL     OW28520   5.625   4.168   1.532
 3793SOL    HW128521   5.678   4.095   1.566
 3793SOL    HW228522   5.601   4.140   1.443
 3794SOL     OW28523   2.218   1.436   7.297
 3794SOL    HW128524   2.288   1.489   7.261
 3794SOL    HW228525   2.146   1.444   7.233
 3795SOL     OW28526   3.959   2.626   8.025
 3795SOL    HW128527   3.886   2.686   8.008
 3795SOL    HW228528   3.995   2.608   7.938
 3796SOL     OW28529   3.610   5.541   6.521
 3796SOL    HW128530   3.701   5.569   6.506
 3796SOL    HW228531   3.612   5.498   6.607
 3797SOL     OW28532   0.276   1.346   1.563
 3797SOL    HW128533   0.276   1.403   1.640
 3797SOL    HW228534   0.273   1.406   1.489
 3798SOL     OW28535   4.653   4.197   6.731
 3798SOL    HW128536   4.689   4.207   6.643
 3798SOL    HW228537   4.714   4.245   6.787
 3799SOL     OW28538   0.269   5.366   6.551
 3799SOL    HW128539   0.360   5.365   6.522
 3799SOL    HW228540   0.218   5.356   6.471
 3800SOL     OW28541   0.812   3.842   1.641
 3800SOL    HW128542   0.800   3.839   1.736
 3800SOL    HW228543   0.881   3.907   1.627
 3801SOL     OW28544   2.295   0.654   7.313
 3801SOL    HW128545   2.282   0.747   7.333
 3801SOL    HW228546   2.223   0.632   7.254
 3802SOL     OW28547   3.063   1.662   0.452
 3802SOL    HW128548   3.039   1.586   0.505
 3802SOL    HW228549   2.982   1.714   0.448
 3803SOL     OW28550   2.036   4.355   7.202
 3803SOL    HW128551   2.075   4.425   7.149
 3803SOL    HW228552   2.087   4.277   7.180
 3804SOL     OW28553   3.274   0.478   7.961
 3804SOL    HW128554   3.310   0.566   7.960
 3804SOL    HW228555   3.292   0.445   8.049
 3805SOL     OW28556   5.164   1.251   0.137
 3805SOL    HW128557   5.106   1.276   0.208
 3805SOL    HW228558   5.158   1.156   0.132
 3806SOL     OW28559   5.397   6.048   5.823
 3806SOL    HW128560   5.338   6.096   5.765
 3806SOL    HW228561   5.462   6.009   5.764
 3807SOL     OW28562   5.948   5.455   0.180
 3807SOL    HW128563   5.899   5.455   0.262
 3807SOL    HW228564   5.946   5.364   0.151
 3808SOL     OW28565   5.939   5.722   0.450
 3808SOL    HW128566   6.018   5.673   0.426
 3808SOL    HW228567   5.962   5.765   0.532
 3809SOL     OW28568   5.513   1.969   6.224
 3809SOL    HW128569   5.520   1.874   6.210
 3809SOL    HW228570   5.435   1.994   6.173
 3810SOL     OW28571   1.529   2.850   7.940
 3810SOL    HW128572   1.515   2.774   7.884
 3810SOL    HW228573   1.530   2.925   7.881
 3811SOL     OW28574   5.115   2.018   0.167
 3811SOL    HW128575   5.074   2.104   0.172
 3811SOL    HW228576   5.117   1.987   0.257
 3812SOL     OW28577   0.648   5.694   0.751
 3812SOL    HW128578   0.572   5.730   0.798
 3812SOL    HW228579   0.682   5.768   0.701
 3813SOL     OW28580   4.394   3.208   7.778
 3813SOL    HW128581   4.479   3.244   7.751
 3813SOL    HW228582   4.356   3.174   7.697
 3814SOL     OW28583   4.372   0.383   1.306
 3814SOL    HW128584   4.353   0.441   1.380
 3814SOL    HW228585   4.288   0.345   1.282
 3815SOL     OW28586   5.665   0.664   1.895
 3815SOL    HW128587   5.628   0.667   1.983
 3815SOL    HW228588   5.669   0.755   1.867
 3816SOL     OW28589   1.111   6.153   7.786
 3816SOL    HW128590   1.100   6.181   7.695
 3816SOL    HW228591   1.095   6.232   7.838
 3817SOL     OW28592   3.751   4.004   0.479
 3817SOL    HW128593   3.668   4.022   0.523
 3817SOL    HW228594   3.771   4.085   0.432
 3818SOL     OW28595   4.199   3.480   8.002
 3818SOL    HW128596   4.285   3.484   7.960
 3818SOL    HW228597   4.205   3.543   8.073
 3819SOL     OW28598   6.206   4.938   6.903
 3819SOL    HW128599   6.147   4.988   6.846
 3819SOL    HW228600   6.220   4.995   6.979
 3820SOL     OW28601   3.236   5.563   7.692
 3820SOL    HW128602   3.302   5.618   7.651
 3820SOL    HW228603   3.152   5.597   7.660
 3821SOL     OW28604   0.132   6.240   7.601
 3821SOL    HW128605   0.056   6.257   7.545
 3821SOL    HW228606   0.115   6.292   7.680
 3822SOL     OW28607   2.362   3.793   0.396
 3822SOL    HW128608   2.403   3.758   0.317
 3822SOL    HW228609   2.279   3.831   0.366
 3823SOL     OW28610   2.978   0.734   6.427
 3823SOL    HW128611   3.001   0.663   6.368
 3823SOL    HW228612   2.888   0.715   6.453
 3824SOL     OW28613   2.390   5.634   7.012
 3824SOL    HW128614   2.307   5.605   7.047
 3824SOL    HW228615   2.440   5.664   7.088
 3825SOL     OW28616   4.022   0.255   0.611
 3825SOL    HW128617   3.966   0.333   0.609
 3825SOL    HW228618   3.964   0.183   0.586
 3826SOL     OW28619   0.554   6.097   0.661
 3826SOL    HW128620   0.534   6.063   0.748
 3826SOL    HW228621   0.472   6.086   0.612
 3827SOL     OW28622   3.171   2.942   6.054
 3827SOL    HW128623   3.179   2.915   5.962
 3827SOL    HW228624   3.208   2.868   6.103
 3828SOL     OW28625   3.957   3.145   0.894
 3828SOL    HW128626   3.867   3.151   0.862
 3828SOL    HW228627   3.973   3.229   0.938
 3829SOL     OW28628   5.494   4.646   1.714
 3829SOL    HW128629   5.480   4.590   1.790
 3829SOL    HW228630   5.481   4.589   1.639
 3830SOL     OW28631   1.370   1.966   7.734
 3830SOL    HW128632   1.318   1.983   7.655
 3830SOL    HW228633   1.351   2.040   7.791
 3831SOL     OW28634   0.324   4.456   7.257
 3831SOL    HW128635   0.284   4.403   7.327
 3831SOL    HW228636   0.405   4.489   7.295
 3832SOL     OW28637   5.115   4.126   0.391
 3832SOL    HW128638   5.065   4.101   0.469
 3832SOL    HW228639   5.191   4.069   0.391
 3833SOL     OW28640   4.170   6.134   0.809
 3833SOL    HW128641   4.110   6.206   0.828
 3833SOL    HW228642   4.180   6.135   0.714
 3834SOL     OW28643   2.028   3.961   0.868
 3834SOL    HW128644   2.056   3.894   0.805
 3834SOL    HW228645   1.935   3.973   0.851
 3835SOL     OW28646   5.620   5.388   7.408
 3835SOL    HW128647   5.659   5.468   7.443
 3835SOL    HW228648   5.588   5.341   7.485
 3836SOL     OW28649   4.417   0.005   1.317
 3836SOL    HW128650   4.327   0.024   1.291
 3836SOL    HW228651   4.409  -0.062   1.385
 3837SOL     OW28652   3.514   5.723   1.541
 3837SOL    HW128653   3.506   5.769   1.458
 3837SOL    HW228654   3.510   5.630   1.518
 3838SOL     OW28655   0.629   3.257   8.029
 3838SOL    HW128656   0.639   3.336   7.975
 3838SOL    HW228657   0.542   3.224   8.007
 3839SOL     OW28658   4.180   0.754   7.875
 3839SOL    HW128659   4.152   0.671   7.914
 3839SOL    HW228660   4.238   0.792   7.941
 3840SOL     OW28661   4.814   4.005   0.802
 3840SOL    HW128662   4.782   3.958   0.880
 3840SOL    HW228663   4.746   3.992   0.736
 3841SOL     OW28664   0.739   5.829   1.248
 3841SOL    HW128665   0.702   5.769   1.183
 3841SOL    HW228666   0.686   5.815   1.326
 3842SOL     OW28667   3.130   5.424   0.884
 3842SOL    HW128668   3.110   5.367   0.810
 3842SOL    HW228669   3.226   5.432   0.883
 3843SOL     OW28670   5.160   5.616   7.160
 3843SOL    HW128671   5.095   5.549   7.140
 3843SOL    HW228672   5.127   5.695   7.116
 3844SOL     OW28673   1.585   5.695   1.844
 3844SOL    HW128674   1.598   5.643   1.923
 3844SOL    HW228675   1.504   5.660   1.806
 3845SOL     OW28676   2.218   3.139   6.325
 3845SOL    HW128677   2.296   3.159   6.274
 3845SOL    HW228678   2.227   3.047   6.349
 3846SOL     OW28679   5.511   0.997   0.138
 3846SOL    HW128680   5.495   0.922   0.081
 3846SOL    HW228681   5.456   0.981   0.215
 3847SOL     OW28682   2.828   5.706   7.071
 3847SOL    HW128683   2.782   5.789   7.064
 3847SOL    HW228684   2.900   5.713   7.007
 3848SOL     OW28685   5.048   3.247   1.041
 3848SOL    HW128686   4.955   3.266   1.037
 3848SOL    HW228687   5.062   3.214   1.130
 3849SOL     OW28688   1.397   1.517   1.229
 3849SOL    HW128689   1.475   1.520   1.175
 3849SOL    HW228690   1.386   1.424   1.250
 3850SOL     OW28691   5.479   1.624   7.816
 3850SOL    HW128692   5.392   1.585   7.827
 3850SOL    HW228693   5.512   1.633   7.905
 3851SOL     OW28694   4.528   5.813   2.201
 3851SOL    HW128695   4.463   5.826   2.271
 3851SOL    HW228696   4.480   5.834   2.121
 3852SOL     OW28697   3.966   2.764   1.106
 3852SOL    HW128698   3.972   2.827   1.034
 3852SOL    HW228699   3.997   2.812   1.183
 3853SOL     OW28700   3.028   5.334   1.231
 3853SOL    HW128701   2.976   5.414   1.236
 3853SOL    HW228702   2.963   5.263   1.232
 3854SOL     OW28703   5.761   0.281   7.960
 3854SOL    HW128704   5.665   0.279   7.962
 3854SOL    HW228705   5.784   0.222   7.888
 3855SOL     OW28706   0.238   4.088   1.177
 3855SOL    HW128707   0.300   4.136   1.232
 3855SOL    HW228708   0.211   4.014   1.230
 3856SOL     OW28709   0.497   5.852   0.959
 3856SOL    HW128710   0.588   5.874   0.975
 3856SOL    HW228711   0.448   5.928   0.989
 3857SOL     OW28712   3.102   5.554   1.759
 3857SOL    HW128713   3.117   5.593   1.673
 3857SOL    HW228714   3.185   5.510   1.780
 3858SOL     OW28715   4.039   3.071   0.071
 3858SOL    HW128716   4.071   2.989   0.110
 3858SOL    HW228717   4.119   3.120   0.050
 3859SOL     OW28718   3.725   1.934   2.072
 3859SOL    HW128719   3.702   2.021   2.106
 3859SOL    HW228720   3.692   1.873   2.139
 3860SOL     OW28721   5.847   3.130   0.755
 3860SOL    HW128722   5.781   3.180   0.709
 3860SOL    HW228723   5.930   3.157   0.716
 3861SOL     OW28724   4.751   3.881   7.474
 3861SOL    HW128725   4.708   3.956   7.433
 3861SOL    HW228726   4.791   3.833   7.401
 3862SOL     OW28727   1.821   2.533   2.618
 3862SOL    HW128728   1.863   2.530   2.533
 3862SOL    HW228729   1.786   2.622   2.626
 3863SOL     OW28730   5.183   2.096   7.174
 3863SOL    HW128731   5.279   2.089   7.171
 3863SOL    HW228732   5.152   2.028   7.114
 3864SOL     OW28733   4.315   3.085   2.537
 3864SOL    HW128734   4.240   3.112   2.485
 3864SOL    HW228735   4.370   3.163   2.543
 3865SOL     OW28736   4.653   4.631   0.015
 3865SOL    HW128737   4.674   4.714  -0.027
 3865SOL    HW228738   4.699   4.633   0.098
 3866SOL     OW28739   0.446   1.449   8.000
 3866SOL    HW128740   0.523   1.393   7.989
 3866SOL    HW228741   0.394   1.434   7.921
 3867SOL     OW28742   3.170   4.469   7.580
 3867SOL    HW128743   3.097   4.531   7.577
 3867SOL    HW228744   3.190   4.451   7.488
 3868SOL     OW28745   0.959   2.656   7.494
 3868SOL    HW128746   0.916   2.630   7.413
 3868SOL    HW228747   1.051   2.665   7.471
 3869SOL     OW28748   5.775   3.694   1.034
 3869SOL    HW128749   5.788   3.610   1.077
 3869SOL    HW228750   5.706   3.737   1.085
 3870SOL     OW28751   0.981   0.053   7.447
 3870SOL    HW128752   1.014   0.089   7.365
 3870SOL    HW228753   1.029   0.099   7.515
 3871SOL     OW28754   2.968   3.546   5.859
 3871SOL    HW128755   2.944   3.462   5.897
 3871SOL    HW228756   3.053   3.530   5.818
 3872SOL     OW28757   5.831   2.968   0.364
 3872SOL    HW128758   5.866   3.052   0.393
 3872SOL    HW228759   5.739   2.970   0.392
 3873SOL     OW28760   1.652   3.410   0.975
 3873SOL    HW128761   1.703   3.348   1.028
 3873SOL    HW228762   1.651   3.490   1.027
 3874SOL     OW28763   1.444   2.405   7.464
 3874SOL    HW128764   1.515   2.446   7.514
 3874SOL    HW228765   1.448   2.446   7.378
 3875SOL     OW28766   0.940   1.711   0.131
 3875SOL    HW128767   0.872   1.667   0.080
 3875SOL    HW228768   0.986   1.766   0.068
 3876SOL     OW28769   4.755   5.175   2.563
 3876SOL    HW128770   4.696   5.149   2.492
 3876SOL    HW228771   4.840   5.138   2.539
 3877SOL     OW28772   4.975   0.553   1.846
 3877SOL    HW128773   5.011   0.562   1.934
 3877SOL    HW228774   4.982   0.459   1.827
 3878SOL     OW28775   5.290   2.919   0.829
 3878SOL    HW128776   5.234   2.936   0.753
 3878SOL    HW228777   5.282   2.825   0.844
 3879SOL     OW28778   3.748   5.788   1.245
 3879SOL    HW128779   3.835   5.786   1.207
 3879SOL    HW228780   3.762   5.806   1.338
 3880SOL     OW28781   2.528   1.108   6.431
 3880SOL    HW128782   2.491   1.117   6.519
 3880SOL    HW228783   2.497   1.186   6.384
 3881SOL     OW28784   2.869   1.214   2.290
 3881SOL    HW128785   2.821   1.292   2.262
 3881SOL    HW228786   2.840   1.198   2.380
 3882SOL     OW28787   2.086   3.207   6.555
 3882SOL    HW128788   2.114   3.124   6.595
 3882SOL    HW228789   2.136   3.212   6.473
 3883SOL     OW28790   0.817   0.665   7.852
 3883SOL    HW128791   0.829   0.579   7.811
 3883SOL    HW228792   0.775   0.718   7.785
 3884SOL     OW28793   4.012   1.284   5.931
 3884SOL    HW128794   4.031   1.366   5.975
 3884SOL    HW228795   3.993   1.309   5.841
 3885SOL     OW28796   3.966   5.125   7.641
 3885SOL    HW128797   3.880   5.084   7.631
 3885SOL    HW228798   4.010   5.074   7.708
 3886SOL     OW28799   5.054   4.402   0.419
 3886SOL    HW128800   4.961   4.393   0.439
 3886SOL    HW228801   5.078   4.320   0.376
 3887SOL     OW28802   3.940   0.083   1.084
 3887SOL    HW128803   3.934   0.178   1.087
 3887SOL    HW228804   3.864   0.052   1.134
 3888SOL     OW28805   1.304   3.727   1.436
 3888SOL    HW128806   1.247   3.798   1.466
 3888SOL    HW228807   1.248   3.672   1.382
 3889SOL     OW28808   0.095   4.498   0.431
 3889SOL    HW128809   0.144   4.537   0.503
 3889SOL    HW228810   0.161   4.477   0.365
 3890SOL     OW28811   6.139   4.542   1.187
 3890SOL    HW128812   6.195   4.606   1.143
 3890SOL    HW228813   6.149   4.462   1.135
 3891SOL     OW28814   5.796   1.261   1.365
 3891SOL    HW128815   5.744   1.341   1.374
 3891SOL    HW228816   5.751   1.210   1.298
 3892SOL     OW28817   4.574   0.463   0.625
 3892SOL    HW128818   4.498   0.450   0.568
 3892SOL    HW228819   4.604   0.552   0.606
 3893SOL     OW28820   1.235   4.916   7.369
 3893SOL    HW128821   1.213   4.963   7.289
 3893SOL    HW228822   1.193   4.965   7.439
 3894SOL     OW28823   3.038   6.135   1.426
 3894SOL    HW128824   3.086   6.076   1.484
 3894SOL    HW228825   3.064   6.108   1.338
 3895SOL     OW28826   4.535   4.064   7.705
 3895SOL    HW128827   4.485   4.049   7.624
 3895SOL    HW228828   4.469   4.067   7.774
 3896SOL     OW28829   5.716   2.232   1.469
 3896SOL    HW128830   5.730   2.318   1.509
 3896SOL    HW228831   5.650   2.190   1.525
 3897SOL     OW28832   0.212   3.521   0.805
 3897SOL    HW128833   0.201   3.599   0.750
 3897SOL    HW228834   0.127   3.479   0.804
 3898SOL     OW28835   2.308   1.548   0.643
 3898SOL    HW128836   2.369   1.607   0.687
 3898SOL    HW228837   2.361   1.501   0.579
 3899SOL     OW28838   3.675   1.124   0.463
 3899SOL    HW128839   3.649   1.199   0.410
 3899SOL    HW228840   3.595   1.074   0.476
 3900SOL     OW28841   4.243   4.421   8.024
 3900SOL    HW128842   4.320   4.448   8.074
 3900SOL    HW228843   4.266   4.335   7.989
 3901SOL     OW28844   1.513   1.781   2.457
 3901SOL    HW128845   1.517   1.686   2.468
 3901SOL    HW228846   1.437   1.809   2.508
 3902SOL     OW28847   3.113   1.814   2.197
 3902SOL    HW128848   3.191   1.772   2.232
 3902SOL    HW228849   3.046   1.746   2.199
 3903SOL     OW28850   3.876   4.753   7.242
 3903SOL    HW128851   3.922   4.686   7.292
 3903SOL    HW228852   3.798   4.710   7.209
 3904SOL     OW28853   2.845   0.105   6.740
 3904SOL    HW128854   2.803   0.115   6.825
 3904SOL    HW228855   2.774   0.111   6.676
 3905SOL     OW28856   2.870   0.153   0.132
 3905SOL    HW128857   2.845   0.104   0.054
 3905SOL    HW228858   2.909   0.233   0.098
 3906SOL     OW28859   4.805   3.558   5.905
 3906SOL    HW128860   4.822   3.496   5.834
 3906SOL    HW228861   4.793   3.642   5.861
 3907SOL     OW28862   2.099   3.591   7.333
 3907SOL    HW128863   2.160   3.643   7.281
 3907SOL    HW228864   2.088   3.642   7.414
 3908SOL     OW28865   4.479   1.980   0.716
 3908SOL    HW128866   4.554   2.000   0.772
 3908SOL    HW228867   4.517   1.957   0.631
 3909SOL     OW28868   1.918   1.750   0.891
 3909SOL    HW128869   1.997   1.796   0.864
 3909SOL    HW228870   1.949   1.664   0.920
 3910SOL     OW28871   2.396   0.105   1.259
 3910SOL    HW128872   2.357   0.042   1.198
 3910SOL    HW228873   2.468   0.059   1.300
 3911SOL     OW28874   1.818   1.039   7.159
 3911SOL    HW128875   1.868   1.064   7.237
 3911SOL    HW228876   1.884   1.003   7.099
 3912SOL     OW28877   1.445   4.431   0.366
 3912SOL    HW128878   1.424   4.473   0.283
 3912SOL    HW228879   1.361   4.423   0.411
 3913SOL     OW28880   3.679   2.701   1.071
 3913SOL    HW128881   3.672   2.771   1.006
 3913SOL    HW228882   3.772   2.701   1.096
 3914SOL     OW28883   3.376   5.298   0.277
 3914SOL    HW128884   3.311   5.351   0.324
 3914SOL    HW228885   3.393   5.224   0.335
 3915SOL     OW28886   5.152   1.482   0.504
 3915SOL    HW128887   5.247   1.490   0.507
 3915SOL    HW228888   5.126   1.535   0.428
 3916SOL     OW28889   3.127   3.912   0.190
 3916SOL    HW128890   3.083   3.829   0.172
 3916SOL    HW228891   3.219   3.888   0.199
 3917SOL     OW28892   1.908   6.192   6.845
 3917SOL    HW128893   1.893   6.287   6.843
 3917SOL    HW228894   1.852   6.158   6.775
 3918SOL     OW28895   5.013   2.437   7.084
 3918SOL    HW128896   4.962   2.365   7.121
 3918SOL    HW228897   4.960   2.515   7.099
 3919SOL     OW28898   5.142   4.365   7.721
 3919SOL    HW128899   5.079   4.299   7.751
 3919SOL    HW228900   5.213   4.362   7.785
 3920SOL     OW28901   6.104   0.334   0.005
 3920SOL    HW128902   6.124   0.251   0.049
 3920SOL    HW228903   6.083   0.309  -0.085
 3921SOL     OW28904   0.086   3.464   7.161
 3921SOL    HW128905   0.035   3.521   7.219
 3921SOL    HW228906   0.080   3.507   7.075
 3922SOL     OW28907   2.564   4.389   2.396
 3922SOL    HW128908   2.476   4.352   2.394
 3922SOL    HW228909   2.571   4.432   2.481
 3923SOL     OW28910   3.169   4.765   7.392
 3923SOL    HW128911   3.213   4.837   7.347
 3923SOL    HW228912   3.205   4.686   7.350
 3924SOL     OW28913   3.521   1.829   5.662
 3924SOL    HW128914   3.441   1.860   5.706
 3924SOL    HW228915   3.541   1.896   5.597
 3925SOL     OW28916   0.583   2.942   1.552
 3925SOL    HW128917   0.634   2.986   1.621
 3925SOL    HW228918   0.649   2.906   1.493
 3926SOL     OW28919   0.213   5.226   0.465
 3926SOL    HW128920   0.283   5.163   0.480
 3926SOL    HW228921   0.242   5.277   0.389
 3927SOL     OW28922   0.417   0.715   0.237
 3927SOL    HW128923   0.483   0.755   0.293
 3927SOL    HW228924   0.434   0.749   0.150
 3928SOL     OW28925   5.803   4.418   0.118
 3928SOL    HW128926   5.800   4.436   0.212
 3928SOL    HW228927   5.891   4.444   0.092
 3929SOL     OW28928   0.476   6.178   1.000
 3929SOL    HW128929   0.533   6.206   0.928
 3929SOL    HW228930   0.523   6.206   1.079
 3930SOL     OW28931   5.233   2.484   0.264
 3930SOL    HW128932   5.157   2.522   0.222
 3930SOL    HW228933   5.308   2.527   0.223
 3931SOL     OW28934   6.181   2.209   6.976
 3931SOL    HW128935   6.229   2.220   6.894
 3931SOL    HW228936   6.114   2.144   6.955
 3932SOL     OW28937   3.481   2.183   6.481
 3932SOL    HW128938   3.522   2.100   6.456
 3932SOL    HW228939   3.414   2.197   6.414
 3933SOL     OW28940   4.811   4.416   0.183
 3933SOL    HW128941   4.901   4.382   0.184
 3933SOL    HW228942   4.819   4.504   0.222
 3934SOL     OW28943   2.507   5.424   0.472
 3934SOL    HW128944   2.585   5.454   0.520
 3934SOL    HW228945   2.437   5.425   0.536
 3935SOL     OW28946   0.199   4.541   7.794
 3935SOL    HW128947   0.209   4.453   7.829
 3935SOL    HW228948   0.107   4.547   7.768
 3936SOL     OW28949   6.048   5.321   2.219
 3936SOL    HW128950   6.023   5.392   2.159
 3936SOL    HW228951   6.139   5.339   2.240
 3937SOL     OW28952   4.811   3.360   0.741
 3937SOL    HW128953   4.826   3.432   0.802
 3937SOL    HW228954   4.825   3.399   0.655
 3938SOL     OW28955   6.111   6.212   0.933
 3938SOL    HW128956   6.180   6.197   0.997
 3938SOL    HW228957   6.046   6.143   0.951
 3939SOL     OW28958   4.580   1.932   0.442
 3939SOL    HW128959   4.591   1.842   0.412
 3939SOL    HW228960   4.646   1.981   0.393
 3940SOL     OW28961   0.588   1.146   1.609
 3940SOL    HW128962   0.670   1.195   1.613
 3940SOL    HW228963   0.520   1.212   1.620
 3941SOL     OW28964   0.031   6.013   7.322
 3941SOL    HW128965   0.123   6.025   7.300
 3941SOL    HW228966   0.000   6.100   7.345
 3942SOL     OW28967   5.940   5.228   0.655
 3942SOL    HW128968   6.004   5.200   0.721
 3942SOL    HW228969   5.862   5.251   0.705
 3943SOL     OW28970   4.058   4.969   7.854
 3943SOL    HW128971   4.000   4.997   7.924
 3943SOL    HW228972   4.051   4.873   7.853
 3944SOL     OW28973   4.533   3.766   7.324
 3944SOL    HW128974   4.443   3.790   7.343
 3944SOL    HW228975   4.584   3.800   7.398
 3945SOL     OW28976   4.049   1.506   6.624
 3945SOL    HW128977   4.090   1.590   6.600
 3945SOL    HW228978   4.123   1.446   6.635
 3946SOL     OW28979   5.805   6.334   0.164
 3946SOL    HW128980   5.789   6.257   0.218
 3946SOL    HW228981   5.718   6.370   0.148
 3947SOL     OW28982   0.340   3.280   7.286
 3947SOL    HW128983   0.265   3.224   7.267
 3947SOL    HW228984   0.324   3.360   7.236
 3948SOL     OW28985   3.565   3.476   2.174
 3948SOL    HW128986   3.597   3.432   2.253
 3948SOL    HW228987   3.480   3.436   2.157
 3949SOL     OW28988   4.370   4.590   6.233
 3949SOL    HW128989   4.391   4.500   6.260
 3949SOL    HW228990   4.318   4.580   6.154
 3950SOL     OW28991   6.171   0.306   7.022
 3950SOL    HW128992   6.158   0.257   7.103
 3950SOL    HW228993   6.193   0.395   7.050
 3951SOL     OW28994   2.230   1.501   7.717
 3951SOL    HW128995   2.187   1.525   7.799
 3951SOL    HW228996   2.159   1.493   7.653
 3952SOL     OW28997   1.270   6.335   0.402
 3952SOL    HW128998   1.353   6.369   0.436
 3952SOL    HW228999   1.293   6.290   0.321
 3953SOL     OW29000   2.760   1.191   0.922
 3953SOL    HW129001   2.808   1.234   0.993
 3953SOL    HW229002   2.824   1.131   0.883
 3954SOL     OW29003   5.490   3.074   0.078
 3954SOL    HW129004   5.502   3.014   0.004
 3954SOL    HW229005   5.573   3.121   0.085
 3955SOL     OW29006   1.243   3.686   0.895
 3955SOL    HW129007   1.292   3.649   0.822
 3955SOL    HW229008   1.246   3.619   0.964
 3956SOL     OW29009   0.065   4.090   2.311
 3956SOL    HW129010   0.074   4.023   2.379
 3956SOL    HW229011   0.063   4.040   2.229
 3957SOL     OW29012   1.556   1.427   1.638
 3957SOL    HW129013   1.589   1.500   1.691
 3957SOL    HW229014   1.486   1.465   1.585
 3958SOL     OW29015   4.804   6.046   2.723
 3958SOL    HW129016   4.756   6.113   2.674
 3958SOL    HW229017   4.854   6.095   2.788
 3959SOL     OW29018   4.682   0.661   0.167
 3959SOL    HW129019   4.714   0.744   0.131
 3959SOL    HW229020   4.718   0.658   0.256
 3960SOL     OW29021   1.651   5.265   7.949
 3960SOL    HW129022   1.713   5.308   7.890
 3960SOL    HW229023   1.581   5.233   7.892
 3961SOL     OW29024   2.225   5.493   7.232
 3961SOL    HW129025   2.235   5.581   7.267
 3961SOL    HW229026   2.294   5.442   7.274
 3962SOL     OW29027   0.986   3.951   2.268
 3962SOL    HW129028   0.939   4.033   2.255
 3962SOL    HW229029   0.976   3.905   2.184
 3963SOL     OW29030   5.996   5.512   1.190
 3963SOL    HW129031   6.059   5.564   1.240
 3963SOL    HW229032   6.016   5.531   1.098
 3964SOL     OW29033   2.361   4.422   0.306
 3964SOL    HW129034   2.280   4.397   0.350
 3964SOL    HW229035   2.352   4.516   0.291
 3965SOL     OW29036   0.590   2.122   1.324
 3965SOL    HW129037   0.522   2.170   1.277
 3965SOL    HW229038   0.554   2.109   1.412
 3966SOL     OW29039   0.985   1.153   2.466
 3966SOL    HW129040   0.999   1.199   2.383
 3966SOL    HW229041   0.891   1.160   2.481
 3967SOL     OW29042   4.862   0.768   7.201
 3967SOL    HW129043   4.868   0.856   7.163
 3967SOL    HW229044   4.792   0.726   7.151
 3968SOL     OW29045   3.550   6.260   2.017
 3968SOL    HW129046   3.556   6.165   2.018
 3968SOL    HW229047   3.597   6.287   2.096
 3969SOL     OW29048   1.311   2.623   2.764
 3969SOL    HW129049   1.256   2.663   2.697
 3969SOL    HW229050   1.348   2.696   2.813
 3970SOL     OW29051   5.524   5.176   0.108
 3970SOL    HW129052   5.539   5.264   0.140
 3970SOL    HW229053   5.535   5.120   0.185
 3971SOL     OW29054   2.506   2.016   6.109
 3971SOL    HW129055   2.551   1.987   6.030
 3971SOL    HW229056   2.527   1.950   6.174
 3972SOL     OW29057   1.413   0.285   5.944
 3972SOL    HW129058   1.476   0.212   5.939
 3972SOL    HW229059   1.366   0.271   6.026
 3973SOL     OW29060   0.413   1.208   2.157
 3973SOL    HW129061   0.375   1.272   2.216
 3973SOL    HW229062   0.354   1.132   2.163
 3974SOL     OW29063   5.452   2.643   0.163
 3974SOL    HW129064   5.467   2.570   0.102
 3974SOL    HW229065   5.534   2.692   0.161
 3975SOL     OW29066   4.890   3.036   1.315
 3975SOL    HW129067   4.842   3.043   1.397
 3975SOL    HW229068   4.822   3.032   1.247
 3976SOL     OW29069   3.656   1.774   2.296
 3976SOL    HW129070   3.582   1.832   2.315
 3976SOL    HW229071   3.627   1.687   2.324
 3977SOL     OW29072   6.111   2.645   7.974
 3977SOL    HW129073   6.151   2.621   8.058
 3977SOL    HW229074   6.174   2.705   7.934
 3978SOL     OW29075   2.254   5.019   5.864
 3978SOL    HW129076   2.180   5.006   5.923
 3978SOL    HW229077   2.302   4.936   5.867
 3979SOL     OW29078   6.156   4.781   5.984
 3979SOL    HW129079   6.109   4.732   5.916
 3979SOL    HW229080   6.247   4.780   5.955
 3980SOL     OW29081   2.674   2.783   0.913
 3980SOL    HW129082   2.608   2.760   0.979
 3980SOL    HW229083   2.756   2.784   0.962
 3981SOL     OW29084   3.888   1.289   0.281
 3981SOL    HW129085   3.825   1.361   0.276
 3981SOL    HW229086   3.847   1.218   0.232
 3982SOL     OW29087   2.055   1.469   7.085
 3982SOL    HW129088   2.018   1.557   7.076
 3982SOL    HW229089   2.016   1.419   7.013
 3983SOL     OW29090   5.721   2.658   6.654
 3983SOL    HW129091   5.740   2.657   6.561
 3983SOL    HW229092   5.796   2.701   6.694
 3984SOL     OW29093   0.364   0.900   1.437
 3984SOL    HW129094   0.327   0.825   1.389
 3984SOL    HW229095   0.324   0.977   1.396
 3985SOL     OW29096   5.882   0.178   7.300
 3985SOL    HW129097   5.811   0.196   7.361
 3985SOL    HW229098   5.863   0.235   7.225
 3986SOL     OW29099   3.683   3.424   7.910
 3986SOL    HW129100   3.682   3.513   7.877
 3986SOL    HW229101   3.776   3.400   7.913
 3987SOL     OW29102   4.357   3.575   6.652
 3987SOL    HW129103   4.443   3.608   6.628
 3987SOL    HW229104   4.374   3.503   6.713
 3988SOL     OW29105   1.121   3.396   7.363
 3988SOL    HW129106   1.071   3.447   7.299
 3988SOL    HW229107   1.084   3.423   7.448
 3989SOL     OW29108   1.534   3.738   7.765
 3989SOL    HW129109   1.476   3.796   7.716
 3989SOL    HW229110   1.475   3.681   7.814
 3990SOL     OW29111   5.769   5.006   6.554
 3990SOL    HW129112   5.745   5.004   6.647
 3990SOL    HW229113   5.700   4.955   6.511
 3991SOL     OW29114   0.370   3.138   6.740
 3991SOL    HW129115   0.443   3.101   6.690
 3991SOL    HW229116   0.323   3.192   6.676
 3992SOL     OW29117   6.050   4.466   8.061
 3992SOL    HW129118   6.136   4.434   8.087
 3992SOL    HW229119   6.034   4.540   8.120
 3993SOL     OW29120   4.731   1.900   5.600
 3993SOL    HW129121   4.657   1.922   5.543
 3993SOL    HW229122   4.693   1.845   5.668
 3994SOL     OW29123   0.288   3.568   6.487
 3994SOL    HW129124   0.248   3.517   6.416
 3994SOL    HW229125   0.265   3.519   6.567
 3995SOL     OW29126   4.114   4.880   0.210
 3995SOL    HW129127   4.041   4.826   0.181
 3995SOL    HW229128   4.119   4.866   0.304
 3996SOL     OW29129   6.297   1.474   7.077
 3996SOL    HW129130   6.364   1.532   7.042
 3996SOL    HW229131   6.214   1.512   7.048
 3997SOL     OW29132   5.944   0.623   1.282
 3997SOL    HW129133   5.929   0.618   1.376
 3997SOL    HW229134   5.890   0.553   1.245
 3998SOL     OW29135   4.779   6.172   1.429
 3998SOL    HW129136   4.770   6.228   1.352
 3998SOL    HW229137   4.762   6.230   1.503
 3999SOL     OW29138   3.385   5.777   7.620
 3999SOL    HW129139   3.339   5.855   7.648
 3999SOL    HW229140   3.434   5.804   7.542
 4000SOL     OW29141   1.097   4.623   1.616
 4000SOL    HW129142   1.161   4.590   1.553
 4000SOL    HW229143   1.027   4.558   1.616
 4001SOL     OW29144   4.054   2.227   6.829
 4001SOL    HW129145   4.091   2.309   6.798
 4001SOL    HW229146   4.058   2.232   6.924
 4002SOL     OW29147   1.216   5.981   1.219
 4002SOL    HW129148   1.310   5.990   1.236
 4002SOL    HW229149   1.201   5.887   1.218
 4003SOL     OW29150   4.799   5.237   2.228
 4003SOL    HW129151   4.791   5.266   2.137
 4003SOL    HW229152   4.729   5.173   2.240
 4004SOL     OW29153   0.058   2.528   0.096
 4004SOL    HW129154  -0.033   2.545   0.120
 4004SOL    HW229155   0.088   2.463   0.160
 4005SOL     OW29156   5.773   5.295   6.809
 4005SOL    HW129157   5.817   5.262   6.730
 4005SOL    HW229158   5.843   5.310   6.872
 4006SOL     OW29159   1.996   0.057   0.218
 4006SOL    HW129160   1.954  -0.004   0.158
 4006SOL    HW229161   1.994   0.141   0.172
 4007SOL     OW29162   4.737   0.400   7.223
 4007SOL    HW129163   4.829   0.402   7.197
 4007SOL    HW229164   4.689   0.408   7.141
 4008SOL     OW29165   6.130   2.018   7.627
 4008SOL    HW129166   6.037   2.032   7.645
 4008SOL    HW229167   6.143   1.924   7.638
 4009SOL     OW29168   3.886   2.014   0.641
 4009SOL    HW129169   3.851   2.015   0.730
 4009SOL    HW229170   3.865   2.101   0.607
 4010SOL     OW29171   2.640   2.981   7.052
 4010SOL    HW129172   2.575   3.041   7.089
 4010SOL    HW229173   2.677   3.027   6.977
 4011SOL     OW29174   0.004   2.036   1.616
 4011SOL    HW129175   0.079   1.978   1.627
 4011SOL    HW229176   0.014   2.073   1.529
 4012SOL     OW29177   1.646   5.511   1.137
 4012SOL    HW129178   1.699   5.574   1.185
 4012SOL    HW229179   1.695   5.494   1.057
 4013SOL     OW29180   5.082   1.707   7.204
 4013SOL    HW129181   5.095   1.612   7.204
 4013SOL    HW229182   5.151   1.740   7.146
 4014SOL     OW29183   4.858   3.111   0.788
 4014SOL    HW129184   4.831   3.202   0.779
 4014SOL    HW229185   4.775   3.062   0.793
 4015SOL     OW29186   1.108   5.001   8.040
 4015SOL    HW129187   1.016   4.974   8.035
 4015SOL    HW229188   1.117   5.069   7.974
 4016SOL     OW29189   3.508   4.916   5.544
 4016SOL    HW129190   3.513   4.822   5.527
 4016SOL    HW229191   3.559   4.928   5.624
 4017SOL     OW29192   2.744   2.418   2.006
 4017SOL    HW129193   2.719   2.352   2.070
 4017SOL    HW229194   2.828   2.451   2.036
 4018SOL     OW29195   5.251   5.445   1.677
 4018SOL    HW129196   5.240   5.520   1.737
 4018SOL    HW229197   5.217   5.370   1.726
 4019SOL     OW29198   3.068   1.168   0.490
 4019SOL    HW129199   3.054   1.074   0.480
 4019SOL    HW229200   3.150   1.185   0.443
 4020SOL     OW29201   4.451   2.967   0.601
 4020SOL    HW129202   4.414   2.880   0.586
 4020SOL    HW229203   4.477   2.997   0.514
 4021SOL     OW29204   4.229   0.591   6.303
 4021SOL    HW129205   4.176   0.514   6.321
 4021SOL    HW229206   4.214   0.609   6.210
 4022SOL     OW29207   2.308   0.222   3.184
 4022SOL    HW129208   2.284   0.213   3.277
 4022SOL    HW229209   2.240   0.279   3.148
 4023SOL     OW29210   3.231   0.718   2.384
 4023SOL    HW129211   3.144   0.685   2.406
 4023SOL    HW229212   3.282   0.709   2.465
 4024SOL     OW29213   3.841   2.734   0.294
 4024SOL    HW129214   3.827   2.656   0.242
 4024SOL    HW229215   3.873   2.702   0.378
 4025SOL     OW29216   1.904   2.788   1.874
 4025SOL    HW129217   1.913   2.772   1.968
 4025SOL    HW229218   1.951   2.715   1.833
 4026SOL     OW29219   1.273   2.183   6.982
 4026SOL    HW129220   1.264   2.089   6.997
 4026SOL    HW229221   1.239   2.196   6.894
 4027SOL     OW29222   5.818   1.284   0.483
 4027SOL    HW129223   5.760   1.211   0.501
 4027SOL    HW229224   5.840   1.276   0.390
 4028SOL     OW29225   2.066   1.372   6.431
 4028SOL    HW129226   2.075   1.343   6.340
 4028SOL    HW229227   2.087   1.465   6.429
 4029SOL     OW29228   5.549   0.993   0.795
 4029SOL    HW129229   5.643   0.977   0.808
 4029SOL    HW229230   5.506   0.929   0.851
 4030SOL     OW29231   1.369   1.016   7.066
 4030SOL    HW129232   1.363   0.949   7.134
 4030SOL    HW229233   1.428   1.082   7.102
 4031SOL     OW29234   1.312   0.818   1.573
 4031SOL    HW129235   1.303   0.848   1.483
 4031SOL    HW229236   1.302   0.898   1.626
 4032SOL     OW29237   4.881   2.722   6.248
 4032SOL    HW129238   4.923   2.706   6.164
 4032SOL    HW229239   4.890   2.817   6.261
 4033SOL     OW29240   0.077   5.043   7.790
 4033SOL    HW129241   0.010   5.089   7.738
 4033SOL    HW229242   0.156   5.050   7.736
 4034SOL     OW29243   1.668   4.485   0.734
 4034SOL    HW129244   1.725   4.409   0.739
 4034SOL    HW229245   1.701   4.545   0.800
 4035SOL     OW29246   4.594   6.089   1.040
 4035SOL    HW129247   4.581   6.067   1.132
 4035SOL    HW229248   4.512   6.132   1.014
 4036SOL     OW29249   5.813   5.603   1.392
 4036SOL    HW129250   5.830   5.562   1.307
 4036SOL    HW229251   5.886   5.574   1.447
 4037SOL     OW29252   4.214   3.870   0.914
 4037SOL    HW129253   4.178   3.814   0.845
 4037SOL    HW229254   4.177   3.957   0.896
 4038SOL     OW29255   2.477   3.468   6.550
 4038SOL    HW129256   2.424   3.496   6.475
 4038SOL    HW229257   2.495   3.548   6.598
 4039SOL     OW29258   3.365   0.012   7.064
 4039SOL    HW129259   3.295  -0.003   7.000
 4039SOL    HW229260   3.446   0.009   7.013
 4040SOL     OW29261   2.448   5.002   0.574
 4040SOL    HW129262   2.528   5.004   0.522
 4040SOL    HW229263   2.478   5.003   0.665
 4041SOL     OW29264   5.988   1.434   6.493
 4041SOL    HW129265   5.905   1.478   6.513
 4041SOL    HW229266   5.978   1.346   6.529
 4042SOL     OW29267   5.797   0.617   7.458
 4042SOL    HW129268   5.705   0.607   7.485
 4042SOL    HW229269   5.796   0.688   7.395
 4043SOL     OW29270   4.169   0.427   7.274
 4043SOL    HW129271   4.189   0.334   7.261
 4043SOL    HW229272   4.254   0.469   7.284
 4044SOL     OW29273   4.146   2.170   2.060
 4044SOL    HW129274   4.169   2.257   2.092
 4044SOL    HW229275   4.095   2.131   2.131
 4045SOL     OW29276   5.947   6.037   6.471
 4045SOL    HW129277   5.891   5.959   6.458
 4045SOL    HW229278   5.951   6.077   6.384
 4046SOL     OW29279   0.960   2.981   1.667
 4046SOL    HW129280   0.993   3.037   1.597
 4046SOL    HW229281   0.892   3.033   1.710
 4047SOL     OW29282   5.373   4.857   1.373
 4047SOL    HW129283   5.372   4.934   1.429
 4047SOL    HW229284   5.461   4.853   1.338
 4048SOL     OW29285   3.932   3.553   0.280
 4048SOL    HW129286   3.996   3.623   0.295
 4048SOL    HW229287   3.970   3.501   0.210
 4049SOL     OW29288   4.546   3.619   0.720
 4049SOL    HW129289   4.459   3.610   0.681
 4049SOL    HW229290   4.550   3.552   0.788
 4050SOL     OW29291   2.625   3.364   7.627
 4050SOL    HW129292   2.562   3.323   7.686
 4050SOL    HW229293   2.678   3.291   7.595
 4051SOL     OW29294   0.219   0.244   1.532
 4051SOL    HW129295   0.283   0.200   1.588
 4051SOL    HW229296   0.234   0.337   1.546
 4052SOL     OW29297   6.332   4.718   7.798
 4052SOL    HW129298   6.338   4.779   7.725
 4052SOL    HW229299   6.404   4.742   7.855
 4053SOL     OW29300   5.519   0.948   6.870
 4053SOL    HW129301   5.505   0.949   6.776
 4053SOL    HW229302   5.504   0.857   6.896
 4054SOL     OW29303   1.366   3.042   7.793
 4054SOL    HW129304   1.382   3.122   7.841
 4054SOL    HW229305   1.279   3.013   7.822
 4055SOL     OW29306   6.084   0.538   2.461
 4055SOL    HW129307   6.142   0.545   2.537
 4055SOL    HW229308   6.134   0.485   2.398
 4056SOL     OW29309   1.179   0.607   1.048
 4056SOL    HW129310   1.124   0.645   1.116
 4056SOL    HW229311   1.260   0.583   1.093
 4057SOL     OW29312   2.393   3.034   0.098
 4057SOL    HW129313   2.420   3.028   0.190
 4057SOL    HW229314   2.475   3.051   0.051
 4058SOL     OW29315   1.519   1.611   0.507
 4058SOL    HW129316   1.464   1.536   0.529
 4058SOL    HW229317   1.459   1.674   0.467
 4059SOL     OW29318   0.255   3.565   1.661
 4059SOL    HW129319   0.182   3.561   1.723
 4059SOL    HW229320   0.282   3.474   1.649
 4060SOL     OW29321   2.272   2.456   0.796
 4060SOL    HW129322   2.238   2.393   0.733
 4060SOL    HW229323   2.240   2.541   0.764
 4061SOL     OW29324   3.718   0.069   7.379
 4061SOL    HW129325   3.722   0.027   7.465
 4061SOL    HW229326   3.662   0.146   7.393
 4062SOL     OW29327   1.056   5.791   2.242
 4062SOL    HW129328   0.984   5.825   2.188
 4062SOL    HW229329   1.074   5.861   2.305
 4063SOL     OW29330   1.222   1.036   6.227
 4063SOL    HW129331   1.270   0.954   6.211
 4063SOL    HW229332   1.286   1.092   6.270
 4064SOL     OW29333   5.524   2.682   1.035
 4064SOL    HW129334   5.513   2.729   0.952
 4064SOL    HW229335   5.550   2.750   1.098
 4065SOL     OW29336   2.356   3.823   1.327
 4065SOL    HW129337   2.369   3.749   1.268
 4065SOL    HW229338   2.297   3.881   1.280
 4066SOL     OW29339   2.726   5.385   7.979
 4066SOL    HW129340   2.809   5.388   7.932
 4066SOL    HW229341   2.671   5.328   7.924
 4067SOL     OW29342   0.041   1.300   0.581
 4067SOL    HW129343   0.098   1.317   0.656
 4067SOL    HW229344  -0.046   1.328   0.610
 4068SOL     OW29345   5.065   0.022   6.846
 4068SOL    HW129346   5.071  -0.035   6.923
 4068SOL    HW229347   5.149   0.069   6.844
 4069SOL     OW29348   3.287   5.244   6.177
 4069SOL    HW129349   3.234   5.238   6.257
 4069SOL    HW229350   3.375   5.265   6.208
 4070SOL     OW29351   0.742   3.287   0.189
 4070SOL    HW129352   0.732   3.226   0.262
 4070SOL    HW229353   0.700   3.243   0.115
 4071SOL     OW29354   2.628   5.964   7.303
 4071SOL    HW129355   2.713   6.007   7.311
 4071SOL    HW229356   2.566   6.036   7.292
 4072SOL     OW29357   5.732   1.310   2.224
 4072SOL    HW129358   5.641   1.339   2.228
 4072SOL    HW229359   5.764   1.319   2.314
 4073SOL     OW29360   4.263   1.892   6.819
 4073SOL    HW129361   4.285   1.985   6.822
 4073SOL    HW229362   4.217   1.875   6.901
 4074SOL     OW29363   5.461   5.580   2.204
 4074SOL    HW129364   5.365   5.573   2.206
 4074SOL    HW229365   5.478   5.671   2.228
 4075SOL     OW29366   2.310   6.329   7.958
 4075SOL    HW129367   2.252   6.263   7.997
 4075SOL    HW229368   2.366   6.279   7.898
 4076SOL     OW29369   1.694   5.915   1.697
 4076SOL    HW129370   1.786   5.897   1.678
 4076SOL    HW229371   1.660   5.833   1.732
 4077SOL     OW29372   5.766   1.984   0.996
 4077SOL    HW129373   5.766   2.046   1.070
 4077SOL    HW229374   5.790   1.901   1.036
 4078SOL     OW29375   5.001   5.084   0.818
 4078SOL    HW129376   5.075   5.059   0.872
 4078SOL    HW229377   5.037   5.091   0.730
 4079SOL     OW29378   0.966   2.509   2.689
 4079SOL    HW129379   0.886   2.459   2.674
 4079SOL    HW229380   0.989   2.546   2.604
 4080SOL     OW29381   1.825   1.783   7.796
 4080SOL    HW129382   1.907   1.744   7.826
 4080SOL    HW229383   1.817   1.864   7.845
 4081SOL     OW29384   3.625   2.460   5.533
 4081SOL    HW129385   3.653   2.460   5.625
 4081SOL    HW229386   3.668   2.537   5.495
 4082SOL     OW29387   4.773   0.093   6.873
 4082SOL    HW129388   4.745   0.087   6.965
 4082SOL    HW229389   4.869   0.095   6.878
 4083SOL     OW29390   1.321   4.795   6.435
 4083SOL    HW129391   1.253   4.811   6.501
 4083SOL    HW229392   1.343   4.882   6.402
 4084SOL     OW29393   5.403   2.352   1.442
 4084SOL    HW129394   5.308   2.339   1.439
 4084SOL    HW229395   5.439   2.264   1.435
 4085SOL     OW29396   6.145   1.023   6.398
 4085SOL    HW129397   6.150   1.096   6.335
 4085SOL    HW229398   6.196   0.953   6.357
 4086SOL     OW29399   0.275   1.591   5.881
 4086SOL    HW129400   0.363   1.586   5.844
 4086SOL    HW229401   0.218   1.612   5.807
 4087SOL     OW29402   0.828   4.721   7.413
 4087SOL    HW129403   0.880   4.653   7.457
 4087SOL    HW229404   0.758   4.672   7.369
 4088SOL     OW29405   2.922   1.515   7.496
 4088SOL    HW129406   2.957   1.599   7.523
 4088SOL    HW229407   2.831   1.534   7.470
 4089SOL     OW29408   3.763   2.388   1.036
 4089SOL    HW129409   3.796   2.476   1.021
 4089SOL    HW229410   3.841   2.336   1.054
 4090SOL     OW29411   3.093   0.096   0.818
 4090SOL    HW129412   3.148   0.060   0.887
 4090SOL    HW229413   3.105   0.191   0.825
 4091SOL     OW29414   3.216   6.315   6.838
 4091SOL    HW129415   3.201   6.296   6.746
 4091SOL    HW229416   3.128   6.313   6.877
 4092SOL     OW29417   3.480   4.380   7.200
 4092SOL    HW129418   3.512   4.294   7.173
 4092SOL    HW229419   3.553   4.421   7.246
 4093SOL     OW29420   6.150   1.213   6.193
 4093SOL    HW129421   6.243   1.233   6.194
 4093SOL    HW229422   6.138   1.157   6.116
 4094SOL     OW29423   1.168   0.918   0.278
 4094SOL    HW129424   1.101   0.861   0.316
 4094SOL    HW229425   1.124   0.961   0.205
 4095SOL     OW29426   4.775   6.357   0.424
 4095SOL    HW129427   4.866   6.342   0.398
 4095SOL    HW229428   4.752   6.279   0.474
 4096SOL     OW29429   1.824   3.555   7.317
 4096SOL    HW129430   1.831   3.514   7.231
 4096SOL    HW229431   1.915   3.566   7.346
 4097SOL     OW29432   4.273   5.330   0.609
 4097SOL    HW129433   4.237   5.299   0.526
 4097SOL    HW229434   4.250   5.261   0.672
 4098SOL     OW29435   2.669   1.066   0.400
 4098SOL    HW129436   2.594   1.048   0.458
 4098SOL    HW229437   2.699   1.153   0.428
 4099SOL     OW29438   2.641   3.132   2.525
 4099SOL    HW129439   2.604   3.183   2.596
 4099SOL    HW229440   2.684   3.057   2.567
 4100SOL     OW29441   2.243   5.854   1.118
 4100SOL    HW129442   2.205   5.887   1.199
 4100SOL    HW229443   2.290   5.775   1.145
 4101SOL     OW29444   4.007   0.956   0.344
 4101SOL    HW129445   3.954   1.023   0.302
 4101SOL    HW229446   3.974   0.952   0.434
 4102SOL     OW29447   1.478   2.248   7.161
 4102SOL    HW129448   1.413   2.241   7.091
 4102SOL    HW229449   1.562   2.254   7.116
 4103SOL     OW29450   5.523   3.284   1.247
 4103SOL    HW129451   5.490   3.194   1.254
 4103SOL    HW229452   5.548   3.293   1.156
 4104SOL     OW29453   5.224   0.103   1.361
 4104SOL    HW129454   5.139   0.129   1.397
 4104SOL    HW229455   5.244   0.169   1.295
 4105SOL     OW29456   4.436   3.179   0.905
 4105SOL    HW129457   4.389   3.237   0.965
 4105SOL    HW229458   4.490   3.125   0.962
 4106SOL     OW29459   1.318   2.523   8.063
 4106SOL    HW129460   1.305   2.458   8.132
 4106SOL    HW229461   1.241   2.516   8.008
 4107SOL     OW29462   1.006   0.090   0.457
 4107SOL    HW129463   1.097   0.064   0.443
 4107SOL    HW229464   1.000   0.177   0.419
 4108SOL     OW29465   4.272   0.169   0.744
 4108SOL    HW129466   4.185   0.197   0.715
 4108SOL    HW229467   4.318   0.149   0.662
 4109SOL     OW29468   1.270   5.563   0.350
 4109SOL    HW129469   1.239   5.619   0.421
 4109SOL    HW229470   1.192   5.513   0.324
 4110SOL     OW29471   3.590   3.018   1.660
 4110SOL    HW129472   3.538   3.008   1.740
 4110SOL    HW229473   3.528   3.050   1.595
 4111SOL     OW29474   4.183   5.780   7.124
 4111SOL    HW129475   4.212   5.692   7.147
 4111SOL    HW229476   4.255   5.837   7.151
 4112SOL     OW29477   5.226   4.972   0.378
 4112SOL    HW129478   5.252   4.932   0.462
 4112SOL    HW229479   5.308   4.983   0.331
 4113SOL     OW29480   4.294   4.114   6.454
 4113SOL    HW129481   4.209   4.158   6.456
 4113SOL    HW229482   4.339   4.147   6.531
 4114SOL     OW29483   2.661   5.852   1.647
 4114SOL    HW129484   2.707   5.936   1.637
 4114SOL    HW229485   2.568   5.875   1.641
 4115SOL     OW29486   5.739   5.099   7.992
 4115SOL    HW129487   5.792   5.032   8.036
 4115SOL    HW229488   5.679   5.129   8.060
 4116SOL     OW29489   3.765   1.151   2.485
 4116SOL    HW129490   3.718   1.082   2.438
 4116SOL    HW229491   3.739   1.232   2.441
 4117SOL     OW29492   4.691   4.665   0.529
 4117SOL    HW129493   4.702   4.685   0.622
 4117SOL    HW229494   4.729   4.740   0.483
 4118SOL     OW29495   3.856   2.052   5.868
 4118SOL    HW129496   3.910   2.130   5.861
 4118SOL    HW229497   3.769   2.080   5.842
 4119SOL     OW29498   4.380   4.077   6.746
 4119SOL    HW129499   4.374   3.984   6.765
 4119SOL    HW229500   4.474   4.094   6.738
 4120SOL     OW29501   4.095   3.751   0.701
 4120SOL    HW129502   4.017   3.708   0.737
 4120SOL    HW229503   4.072   3.769   0.610
 4121SOL     OW29504   0.178   4.792   0.450
 4121SOL    HW129505   0.082   4.786   0.443
 4121SOL    HW229506   0.192   4.837   0.533
 4122SOL     OW29507   2.047   4.683   0.144
 4122SOL    HW129508   2.128   4.641   0.116
 4122SOL    HW229509   1.985   4.611   0.155
 4123SOL     OW29510   4.878   2.398   6.257
 4123SOL    HW129511   4.886   2.475   6.200
 4123SOL    HW229512   4.852   2.327   6.198
 4124SOL     OW29513   6.238   5.352   7.795
 4124SOL    HW129514   6.234   5.299   7.874
 4124SOL    HW229515   6.149   5.385   7.783
 4125SOL     OW29516   1.787   2.145   7.458
 4125SOL    HW129517   1.695   2.162   7.437
 4125SOL    HW229518   1.794   2.162   7.552
 4126SOL     OW29519   5.052   2.511   7.363
 4126SOL    HW129520   5.097   2.592   7.389
 4126SOL    HW229521   5.086   2.492   7.276
 4127SOL     OW29522   6.324   0.022   1.560
 4127SOL    HW129523   6.400   0.056   1.512
 4127SOL    HW229524   6.344   0.039   1.652
 4128SOL     OW29525   5.425   5.852   6.937
 4128SOL    HW129526   5.400   5.765   6.970
 4128SOL    HW229527   5.517   5.861   6.963
 4129SOL     OW29528   0.955   3.695   6.988
 4129SOL    HW129529   0.948   3.789   7.004
 4129SOL    HW229530   0.889   3.677   6.921
 4130SOL     OW29531   0.274   2.598   6.864
 4130SOL    HW129532   0.257   2.639   6.949
 4130SOL    HW229533   0.188   2.568   6.834
 4131SOL     OW29534   3.886   1.453   1.162
 4131SOL    HW129535   3.908   1.526   1.220
 4131SOL    HW229536   3.962   1.444   1.105
 4132SOL     OW29537   5.423   6.206   7.345
 4132SOL    HW129538   5.383   6.293   7.341
 4132SOL    HW229539   5.348   6.146   7.351
 4133SOL     OW29540   2.267   4.062   1.041
 4133SOL    HW129541   2.297   3.977   1.007
 4133SOL    HW229542   2.209   4.096   0.973
 4134SOL     OW29543   3.552   5.992   2.024
 4134SOL    HW129544   3.539   6.007   2.118
 4134SOL    HW229545   3.640   5.953   2.018
 4135SOL     OW29546   3.483   2.744   6.332
 4135SOL    HW129547   3.546   2.675   6.314
 4135SOL    HW229548   3.402   2.699   6.352
 4136SOL     OW29549   4.984   4.864   7.492
 4136SOL    HW129550   4.941   4.875   7.577
 4136SOL    HW229551   4.985   4.952   7.455
 4137SOL     OW29552   0.652   1.069   7.740
 4137SOL    HW129553   0.621   0.996   7.688
 4137SOL    HW229554   0.579   1.092   7.797
 4138SOL     OW29555   2.533   1.912   5.836
 4138SOL    HW129556   2.502   1.825   5.810
 4138SOL    HW229557   2.626   1.911   5.814
 4139SOL     OW29558   6.301   4.096   0.322
 4139SOL    HW129559   6.280   4.186   0.347
 4139SOL    HW229560   6.222   4.064   0.279
 4140SOL     OW29561   1.631   0.398   6.616
 4140SOL    HW129562   1.647   0.422   6.707
 4140SOL    HW229563   1.565   0.330   6.620
 4141SOL     OW29564   0.561   3.082   7.356
 4141SOL    HW129565   0.572   2.996   7.395
 4141SOL    HW229566   0.637   3.092   7.298
 4142SOL     OW29567   4.886   2.984   1.022
 4142SOL    HW129568   4.971   3.003   1.061
 4142SOL    HW229569   4.885   3.034   0.941
 4143SOL     OW29570   4.882   1.636   0.090
 4143SOL    HW129571   4.937   1.702   0.047
 4143SOL    HW229572   4.907   1.554   0.049
 4144SOL     OW29573   1.983   3.881   1.317
 4144SOL    HW129574   2.029   3.851   1.239
 4144SOL    HW229575   2.048   3.931   1.366
 4145SOL     OW29576   1.637   2.436   6.705
 4145SOL    HW129577   1.576   2.468   6.771
 4145SOL    HW229578   1.723   2.438   6.747
 4146SOL     OW29579   3.789   0.320   5.279
 4146SOL    HW129580   3.763   0.228   5.286
 4146SOL    HW229581   3.884   0.318   5.275
 4147SOL     OW29582   2.995   3.339   0.920
 4147SOL    HW129583   2.964   3.282   0.849
 4147SOL    HW229584   2.943   3.418   0.912
 4148SOL     OW29585   1.038   2.712   1.726
 4148SOL    HW129586   1.000   2.799   1.738
 4148SOL    HW229587   1.109   2.726   1.663
 4149SOL     OW29588   0.501   4.639   0.450
 4149SOL    HW129589   0.540   4.703   0.391
 4149SOL    HW229590   0.433   4.687   0.496
 4150SOL     OW29591   3.894   3.045   0.541
 4150SOL    HW129592   3.864   3.081   0.458
 4150SOL    HW229593   3.945   2.968   0.517
 4151SOL     OW29594   1.615   0.349   7.704
 4151SOL    HW129595   1.638   0.338   7.796
 4151SOL    HW229596   1.636   0.264   7.664
 4152SOL     OW29597   1.841   4.380   7.404
 4152SOL    HW129598   1.773   4.346   7.346
 4152SOL    HW229599   1.923   4.360   7.359
 4153SOL     OW29600   6.029   2.086   0.459
 4153SOL    HW129601   5.989   2.101   0.373
 4153SOL    HW229602   5.957   2.061   0.516
 4154SOL     OW29603   4.241   4.823   0.608
 4154SOL    HW129604   4.251   4.734   0.642
 4154SOL    HW229605   4.162   4.820   0.555
 4155SOL     OW29606   5.974   5.242   1.228
 4155SOL    HW129607   6.058   5.212   1.261
 4155SOL    HW229608   5.986   5.336   1.214
 4156SOL     OW29609   2.698   2.739   1.553
 4156SOL    HW129610   2.624   2.705   1.503
 4156SOL    HW229611   2.776   2.710   1.505
 4157SOL     OW29612   3.165   6.036   1.178
 4157SOL    HW129613   3.233   5.977   1.148
 4157SOL    HW229614   3.209   6.121   1.187
 4158SOL     OW29615   3.848   1.938   1.156
 4158SOL    HW129616   3.781   1.989   1.202
 4158SOL    HW229617   3.930   1.961   1.201
 4159SOL     OW29618   0.887   3.959   7.065
 4159SOL    HW129619   0.796   3.944   7.039
 4159SOL    HW229620   0.882   4.007   7.147
 4160SOL     OW29621   3.416   2.659   7.328
 4160SOL    HW129622   3.465   2.579   7.308
 4160SOL    HW229623   3.355   2.633   7.398
 4161SOL     OW29624   3.423   2.318   1.473
 4161SOL    HW129625   3.432   2.412   1.461
 4161SOL    HW229626   3.442   2.303   1.565
 4162SOL     OW29627   2.621   1.399   0.223
 4162SOL    HW129628   2.530   1.382   0.244
 4162SOL    HW229629   2.627   1.390   0.128
 4163SOL     OW29630   2.914   0.196   7.020
 4163SOL    HW129631   2.937   0.251   7.094
 4163SOL    HW229632   2.821   0.214   7.004
 4164SOL     OW29633   1.608   5.352   1.874
 4164SOL    HW129634   1.601   5.423   1.939
 4164SOL    HW229635   1.700   5.353   1.849
 4165SOL     OW29636   5.464   2.264   2.110
 4165SOL    HW129637   5.389   2.318   2.089
 4165SOL    HW229638   5.436   2.212   2.186
 4166SOL     OW29639   5.378   5.178   7.841
 4166SOL    HW129640   5.294   5.148   7.877
 4166SOL    HW229641   5.443   5.150   7.905
 4167SOL     OW29642   4.742   3.676   7.664
 4167SOL    HW129643   4.736   3.755   7.610
 4167SOL    HW229644   4.823   3.688   7.714
 4168SOL     OW29645   5.020   3.196   1.953
 4168SOL    HW129646   4.943   3.243   1.921
 4168SOL    HW229647   5.071   3.263   1.998
 4169SOL     OW29648   5.175   5.483   0.119
 4169SOL    HW129649   5.163   5.402   0.068
 4169SOL    HW229650   5.251   5.525   0.080
 4170SOL     OW29651   2.826   5.066   0.874
 4170SOL    HW129652   2.788   5.130   0.813
 4170SOL    HW229653   2.915   5.097   0.889
 4171SOL     OW29654   4.939   4.673   0.894
 4171SOL    HW129655   4.860   4.696   0.942
 4171SOL    HW229656   4.923   4.584   0.861
 4172SOL     OW29657   2.640   2.244   6.057
 4172SOL    HW129658   2.575   2.181   6.088
 4172SOL    HW229659   2.593   2.294   5.989
 4173SOL     OW29660   5.783   5.197   0.416
 4173SOL    HW129661   5.851   5.214   0.480
 4173SOL    HW229662   5.754   5.283   0.388
 4174SOL     OW29663   3.431   4.980   0.778
 4174SOL    HW129664   3.472   5.063   0.755
 4174SOL    HW229665   3.488   4.913   0.740
 4175SOL     OW29666   5.071   1.653   0.306
 4175SOL    HW129667   5.031   1.735   0.335
 4175SOL    HW229668   5.021   1.629   0.227
 4176SOL     OW29669   3.665   4.118   6.887
 4176SOL    HW129670   3.666   4.076   6.801
 4176SOL    HW229671   3.730   4.069   6.938
 4177SOL     OW29672   5.891   5.549   1.996
 4177SOL    HW129673   5.906   5.641   2.021
 4177SOL    HW229674   5.815   5.522   2.049
 4178SOL     OW29675   4.491   3.501   2.267
 4178SOL    HW129676   4.574   3.550   2.269
 4178SOL    HW229677   4.431   3.559   2.220
 4179SOL     OW29678   1.200   0.335   6.542
 4179SOL    HW129679   1.159   0.307   6.460
 4179SOL    HW229680   1.294   0.321   6.528
 4180SOL     OW29681   3.827   1.473   5.737
 4180SOL    HW129682   3.751   1.526   5.716
 4180SOL    HW229683   3.897   1.508   5.683
 4181SOL     OW29684   2.311   5.773   1.867
 4181SOL    HW129685   2.263   5.785   1.949
 4181SOL    HW229686   2.403   5.775   1.894
 4182SOL     OW29687   2.655   0.019   0.240
 4182SOL    HW129688   2.729   0.064   0.200
 4182SOL    HW229689   2.597   0.090   0.269
 4183SOL     OW29690   0.154   1.230   7.781
 4183SOL    HW129691   0.144   1.243   7.687
 4183SOL    HW229692   0.065   1.238   7.816
 4184SOL     OW29693   3.533   2.902   0.864
 4184SOL    HW129694   3.439   2.902   0.844
 4184SOL    HW229695   3.572   2.847   0.796
 4185SOL     OW29696   2.282   0.485   0.882
 4185SOL    HW129697   2.354   0.449   0.932
 4185SOL    HW229698   2.318   0.501   0.795
 4186SOL     OW29699   3.995   4.477   0.047
 4186SOL    HW129700   4.077   4.445   0.008
 4186SOL    HW229701   3.998   4.446   0.137
 4187SOL     OW29702   2.306   2.690   7.936
 4187SOL    HW129703   2.385   2.649   7.901
 4187SOL    HW229704   2.330   2.720   8.023
 4188SOL     OW29705   5.002   5.983   2.483
 4188SOL    HW129706   5.005   6.011   2.575
 4188SOL    HW229707   5.061   6.043   2.437
 4189SOL     OW29708   0.785   5.937   0.580
 4189SOL    HW129709   0.694   5.969   0.578
 4189SOL    HW229710   0.835   6.006   0.536
 4190SOL     OW29711   2.884   3.579   0.972
 4190SOL    HW129712   2.836   3.588   1.054
 4190SOL    HW229713   2.963   3.633   0.984
 4191SOL     OW29714   2.562   0.405   7.502
 4191SOL    HW129715   2.518   0.490   7.513
 4191SOL    HW229716   2.526   0.370   7.421
 4192SOL     OW29717   5.563   0.678   6.845
 4192SOL    HW129718   5.637   0.645   6.896
 4192SOL    HW229719   5.515   0.599   6.818
 4193SOL     OW29720   0.994   5.600   0.322
 4193SOL    HW129721   0.905   5.596   0.285
 4193SOL    HW229722   1.009   5.694   0.337
 4194SOL     OW29723   2.221   4.415   7.842
 4194SOL    HW129724   2.218   4.447   7.932
 4194SOL    HW229725   2.242   4.322   7.850
 4195SOL     OW29726   2.760   4.056   1.455
 4195SOL    HW129727   2.754   3.962   1.475
 4195SOL    HW229728   2.718   4.099   1.530
 4196SOL     OW29729   4.721   3.369   6.876
 4196SOL    HW129730   4.794   3.350   6.818
 4196SOL    HW229731   4.721   3.298   6.939
 4197SOL     OW29732   1.502   3.251   1.498
 4197SOL    HW129733   1.483   3.291   1.582
 4197SOL    HW229734   1.566   3.182   1.518
 4198SOL     OW29735   6.176   5.128   7.614
 4198SOL    HW129736   6.161   5.170   7.699
 4198SOL    HW229737   6.115   5.172   7.555
 4199SOL     OW29738   5.731   0.907   7.591
 4199SOL    HW129739   5.691   0.945   7.513
 4199SOL    HW229740   5.659   0.904   7.655
 4200SOL     OW29741   3.579   5.170   1.823
 4200SOL    HW129742   3.528   5.206   1.750
 4200SOL    HW229743   3.545   5.215   1.900
 4201SOL     OW29744   5.785   3.812   7.561
 4201SOL    HW129745   5.713   3.843   7.615
 4201SOL    HW229746   5.798   3.881   7.496
 4202SOL     OW29747   4.473   4.887   6.402
 4202SOL    HW129748   4.393   4.868   6.352
 4202SOL    HW229749   4.520   4.951   6.349
 4203SOL     OW29750   3.882   4.986   0.906
 4203SOL    HW129751   3.798   4.945   0.925
 4203SOL    HW229752   3.885   5.062   0.964
 4204SOL     OW29753   2.734   5.913   0.588
 4204SOL    HW129754   2.760   5.988   0.642
 4204SOL    HW229755   2.787   5.841   0.621
 4205SOL     OW29756   2.582   0.168   8.011
 4205SOL    HW129757   2.660   0.113   8.008
 4205SOL    HW229758   2.512   0.109   8.040
 4206SOL     OW29759   2.089   1.744   7.853
 4206SOL    HW129760   2.179   1.715   7.837
 4206SOL    HW229761   2.090   1.837   7.833
 4207SOL     OW29762   6.206   4.129   7.762
 4207SOL    HW129763   6.253   4.097   7.685
 4207SOL    HW229764   6.230   4.221   7.769
 4208SOL     OW29765   0.718   5.464   0.867
 4208SOL    HW129766   0.697   5.492   0.956
 4208SOL    HW229767   0.700   5.540   0.813
 4209SOL     OW29768   0.542   3.345   7.474
 4209SOL    HW129769   0.468   3.402   7.493
 4209SOL    HW229770   0.505   3.274   7.420
 4210SOL     OW29771   5.866   1.784   7.289
 4210SOL    HW129772   5.914   1.720   7.341
 4210SOL    HW229773   5.802   1.822   7.349
 4211SOL     OW29774   0.042   0.832   7.105
 4211SOL    HW129775  -0.005   0.897   7.053
 4211SOL    HW229776   0.134   0.858   7.097
 4212SOL     OW29777   1.881   3.717   1.594
 4212SOL    HW129778   1.794   3.692   1.563
 4212SOL    HW229779   1.863   3.768   1.673
 4213SOL     OW29780   5.131   2.298   0.877
 4213SOL    HW129781   5.159   2.214   0.841
 4213SOL    HW229782   5.151   2.292   0.971
 4214SOL     OW29783   1.736   0.924   1.934
 4214SOL    HW129784   1.663   0.862   1.937
 4214SOL    HW229785   1.794   0.897   2.006
 4215SOL     OW29786   4.661   0.406   7.781
 4215SOL    HW129787   4.687   0.406   7.689
 4215SOL    HW229788   4.567   0.423   7.779
 4216SOL     OW29789   4.089   4.366   7.535
 4216SOL    HW129790   4.103   4.340   7.444
 4216SOL    HW229791   4.143   4.306   7.586
 4217SOL     OW29792   1.890   3.031   1.350
 4217SOL    HW129793   1.878   2.940   1.375
 4217SOL    HW229794   1.983   3.038   1.327
 4218SOL     OW29795   0.626   3.549   1.553
 4218SOL    HW129796   0.667   3.601   1.485
 4218SOL    HW229797   0.562   3.607   1.593
 4219SOL     OW29798   2.524   4.122   0.039
 4219SOL    HW129799   2.466   4.166  -0.023
 4219SOL    HW229800   2.563   4.193   0.090
 4220SOL     OW29801   0.542   5.367   6.460
 4220SOL    HW129802   0.564   5.299   6.398
 4220SOL    HW229803   0.624   5.383   6.509
 4221SOL     OW29804   4.478   3.873   2.256
 4221SOL    HW129805   4.505   3.953   2.209
 4221SOL    HW229806   4.532   3.872   2.335
 4222SOL     OW29807   0.514   0.843   0.008
 4222SOL    HW129808   0.605   0.870  -0.004
 4222SOL    HW229809   0.463   0.921  -0.014
 4223SOL     OW29810   5.498   4.272   6.934
 4223SOL    HW129811   5.420   4.232   6.896
 4223SOL    HW229812   5.525   4.337   6.869
 4224SOL     OW29813   0.299   3.700   6.909
 4224SOL    HW129814   0.209   3.688   6.937
 4224SOL    HW229815   0.351   3.694   6.989
 4225SOL     OW29816   3.258   5.750   7.334
 4225SOL    HW129817   3.212   5.684   7.282
 4225SOL    HW229818   3.335   5.705   7.367
 4226SOL     OW29819   4.263   0.563   1.491
 4226SOL    HW129820   4.242   0.539   1.581
 4226SOL    HW229821   4.188   0.614   1.461
 4227SOL     OW29822   2.798   5.520   1.793
 4227SOL    HW129823   2.889   5.547   1.799
 4227SOL    HW229824   2.750   5.582   1.848
 4228SOL     OW29825   1.332   5.140   0.265
 4228SOL    HW129826   1.276   5.161   0.340
 4228SOL    HW229827   1.324   5.216   0.207
 4229SOL     OW29828   2.785   2.152   6.941
 4229SOL    HW129829   2.801   2.129   7.032
 4229SOL    HW229830   2.871   2.169   6.904
 4230SOL     OW29831   1.309   3.406   7.155
 4230SOL    HW129832   1.231   3.427   7.104
 4230SOL    HW229833   1.280   3.408   7.246
 4231SOL     OW29834   3.361   5.573   6.648
 4231SOL    HW129835   3.433   5.609   6.597
 4231SOL    HW229836   3.343   5.488   6.608
 4232SOL     OW29837   5.866   0.441   2.298
 4232SOL    HW129838   5.901   0.396   2.221
 4232SOL    HW229839   5.943   0.469   2.347
 4233SOL     OW29840   2.361   3.502   6.902
 4233SOL    HW129841   2.389   3.574   6.845
 4233SOL    HW229842   2.351   3.427   6.842
 4234SOL     OW29843   2.428   2.499   1.026
 4234SOL    HW129844   2.370   2.473   0.955
 4234SOL    HW229845   2.400   2.589   1.047
 4235SOL     OW29846   3.882   3.196   0.291
 4235SOL    HW129847   3.792   3.221   0.310
 4235SOL    HW229848   3.885   3.184   0.196
 4236SOL     OW29849   1.913   0.626   7.878
 4236SOL    HW129850   1.942   0.539   7.906
 4236SOL    HW229851   1.878   0.612   7.790
 4237SOL     OW29852   3.720   6.209   2.760
 4237SOL    HW129853   3.630   6.240   2.768
 4237SOL    HW229854   3.725   6.135   2.820
 4238SOL     OW29855   5.420   3.334   0.277
 4238SOL    HW129856   5.338   3.342   0.326
 4238SOL    HW229857   5.428   3.240   0.258
 4239SOL     OW29858   3.815   5.303   7.254
 4239SOL    HW129859   3.767   5.242   7.310
 4239SOL    HW229860   3.773   5.387   7.269
 4240SOL     OW29861   2.394   3.781   7.825
 4240SOL    HW129862   2.299   3.774   7.838
 4240SOL    HW229863   2.405   3.785   7.730
 4241SOL     OW29864   1.811   4.029   1.752
 4241SOL    HW129865   1.892   4.036   1.700
 4241SOL    HW229866   1.822   3.948   1.802
 4242SOL     OW29867   4.807   3.792   1.417
 4242SOL    HW129868   4.882   3.791   1.477
 4242SOL    HW229869   4.753   3.865   1.447
 4243SOL     OW29870   2.421   6.263   5.681
 4243SOL    HW129871   2.401   6.170   5.680
 4243SOL    HW229872   2.336   6.307   5.683
 4244SOL     OW29873   3.806   3.205   7.626
 4244SOL    HW129874   3.719   3.240   7.640
 4244SOL    HW229875   3.855   3.277   7.584
 4245SOL     OW29876   4.378   4.222   2.301
 4245SOL    HW129877   4.457   4.210   2.354
 4245SOL    HW229878   4.328   4.289   2.348
 4246SOL     OW29879   5.990   2.116   6.334
 4246SOL    HW129880   5.988   2.178   6.406
 4246SOL    HW229881   5.994   2.170   6.255
 4247SOL     OW29882   3.573   3.679   1.705
 4247SOL    HW129883   3.593   3.646   1.793
 4247SOL    HW229884   3.634   3.752   1.693
 4248SOL     OW29885   2.961   0.374   0.544
 4248SOL    HW129886   2.894   0.377   0.476
 4248SOL    HW229887   3.005   0.290   0.531
 4249SOL     OW29888   1.573   6.286   0.423
 4249SOL    HW129889   1.594   6.199   0.458
 4249SOL    HW229890   1.581   6.276   0.329
 4250SOL     OW29891   0.567   0.629   0.872
 4250SOL    HW129892   0.549   0.535   0.864
 4250SOL    HW229893   0.547   0.650   0.963
 4251SOL     OW29894   2.894   6.274   5.478
 4251SOL    HW129895   2.808   6.313   5.494
 4251SOL    HW229896   2.953   6.321   5.537
 4252SOL     OW29897   1.767   5.000   7.122
 4252SOL    HW129898   1.775   4.917   7.169
 4252SOL    HW229899   1.694   4.986   7.062
 4253SOL     OW29900   5.664   2.759   0.769
 4253SOL    HW129901   5.633   2.715   0.690
 4253SOL    HW229902   5.750   2.719   0.786
 4254SOL     OW29903   1.991   4.955   2.378
 4254SOL    HW129904   2.047   4.921   2.308
 4254SOL    HW229905   2.036   5.034   2.408
 4255SOL     OW29906   4.019   3.693   5.638
 4255SOL    HW129907   4.043   3.693   5.545
 4255SOL    HW229908   4.102   3.683   5.684
 4256SOL     OW29909   1.982   4.688   7.748
 4256SOL    HW129910   1.916   4.722   7.688
 4256SOL    HW229911   1.970   4.593   7.745
 4257SOL     OW29912   3.208   3.941   6.583
 4257SOL    HW129913   3.141   3.977   6.526
 4257SOL    HW229914   3.256   4.018   6.615
 4258SOL     OW29915   4.716   0.895   8.054
 4258SOL    HW129916   4.622   0.886   8.040
 4258SOL    HW229917   4.754   0.896   7.966
 4259SOL     OW29918   2.710   6.095   1.278
 4259SOL    HW129919   2.788   6.040   1.282
 4259SOL    HW229920   2.637   6.033   1.269
 4260SOL     OW29921   0.430   0.620   1.152
 4260SOL    HW129922   0.356   0.676   1.176
 4260SOL    HW229923   0.401   0.532   1.175
 4261SOL     OW29924   0.308   3.294   0.354
 4261SOL    HW129925   0.225   3.339   0.337
 4261SOL    HW229926   0.303   3.269   0.446
 4262SOL     OW29927   5.538   1.866   0.179
 4262SOL    HW129928   5.494   1.856   0.263
 4262SOL    HW229929   5.623   1.823   0.191
 4263SOL     OW29930   5.466   0.166   0.709
 4263SOL    HW129931   5.547   0.217   0.710
 4263SOL    HW229932   5.421   0.194   0.629
 4264SOL     OW29933   5.548   4.793   7.894
 4264SOL    HW129934   5.484   4.783   7.964
 4264SOL    HW229935   5.503   4.846   7.827
 4265SOL     OW29936   4.705   1.870   7.210
 4265SOL    HW129937   4.689   1.798   7.270
 4265SOL    HW229938   4.732   1.827   7.128
 4266SOL     OW29939   2.903   4.786   6.463
 4266SOL    HW129940   2.894   4.867   6.413
 4266SOL    HW229941   2.858   4.804   6.546
 4267SOL     OW29942   3.963   1.758   2.323
 4267SOL    HW129943   3.876   1.773   2.285
 4267SOL    HW229944   3.953   1.680   2.377
 4268SOL     OW29945   3.987   1.834   6.006
 4268SOL    HW129946   3.915   1.880   5.965
 4268SOL    HW229947   3.962   1.827   6.098
 4269SOL     OW29948   4.920   3.571   0.903
 4269SOL    HW129949   5.009   3.576   0.868
 4269SOL    HW229950   4.930   3.527   0.987
 4270SOL     OW29951   3.258   3.260   0.883
 4270SOL    HW129952   3.170   3.297   0.875
 4270SOL    HW229953   3.311   3.331   0.920
 4271SOL     OW29954   4.995   3.868   1.594
 4271SOL    HW129955   4.987   3.961   1.618
 4271SOL    HW229956   5.053   3.868   1.517
 4272SOL     OW29957   0.524   4.963   0.876
 4272SOL    HW129958   0.469   5.038   0.898
 4272SOL    HW229959   0.583   4.955   0.951
 4273SOL     OW29960   0.701   5.644   7.254
 4273SOL    HW129961   0.616   5.601   7.245
 4273SOL    HW229962   0.695   5.691   7.337
 4274SOL     OW29963   3.831   3.032   1.237
 4274SOL    HW129964   3.822   3.072   1.323
 4274SOL    HW229965   3.917   2.991   1.238
 4275SOL     OW29966   4.717   3.469   5.648
 4275SOL    HW129967   4.646   3.516   5.692
 4275SOL    HW229968   4.721   3.385   5.693
 4276SOL     OW29969   2.726   4.903   6.230
 4276SOL    HW129970   2.682   4.856   6.301
 4276SOL    HW229971   2.709   4.851   6.152
 4277SOL     OW29972   3.830   5.272   7.977
 4277SOL    HW129973   3.788   5.252   8.061
 4277SOL    HW229974   3.922   5.246   7.990
 4278SOL     OW29975   2.769   3.021   1.206
 4278SOL    HW129976   2.799   2.941   1.165
 4278SOL    HW229977   2.817   3.091   1.160
 4279SOL     OW29978   3.786   6.112   1.341
 4279SOL    HW129979   3.707   6.099   1.393
 4279SOL    HW229980   3.858   6.095   1.401
 4280SOL     OW29981   5.717   3.463   6.596
 4280SOL    HW129982   5.761   3.500   6.519
 4280SOL    HW229983   5.788   3.442   6.656
 4281SOL     OW29984   0.824   4.631   0.807
 4281SOL    HW129985   0.775   4.576   0.745
 4281SOL    HW229986   0.896   4.667   0.754
 4282SOL     OW29987   1.752   5.325   0.596
 4282SOL    HW129988   1.816   5.261   0.563
 4282SOL    HW229989   1.758   5.319   0.691
 4283SOL     OW29990   3.148   2.913   0.640
 4283SOL    HW129991   3.077   2.851   0.623
 4283SOL    HW229992   3.112   2.998   0.614
 4284SOL     OW29993   6.024   1.678   0.438
 4284SOL    HW129994   6.048   1.661   0.529
 4284SOL    HW229995   6.104   1.662   0.388
 4285SOL     OW29996   1.233   0.118   2.278
 4285SOL    HW129997   1.238   0.212   2.296
 4285SOL    HW229998   1.140   0.097   2.282
 4286SOL     OW29999   1.356   1.070   7.911
 4286SOL    HW130000   1.312   1.143   7.955
 4286SOL    HW230001   1.409   1.029   7.980
 4287SOL     OW30002   3.021   5.247   1.727
 4287SOL    HW130003   3.077   5.284   1.658
 4287SOL    HW230004   3.077   5.244   1.804
 4288SOL     OW30005   0.368   0.359   1.179
 4288SOL    HW130006   0.366   0.300   1.255
 4288SOL    HW230007   0.413   0.308   1.111
 4289SOL     OW30008   0.155   0.804   0.256
 4289SOL    HW130009   0.236   0.758   0.276
 4289SOL    HW230010   0.153   0.878   0.317
 4290SOL     OW30011   0.003   0.769   7.895
 4290SOL    HW130012  -0.070   0.729   7.943
 4290SOL    HW230013   0.082   0.734   7.938
 4291SOL     OW30014   5.323   5.924   0.729
 4291SOL    HW130015   5.383   5.883   0.792
 4291SOL    HW230016   5.256   5.964   0.784
 4292SOL     OW30017   4.576   1.139   2.502
 4292SOL    HW130018   4.669   1.151   2.484
 4292SOL    HW230019   4.550   1.221   2.545
 4293SOL     OW30020   3.529   3.951   8.014
 4293SOL    HW130021   3.574   4.035   8.014
 4293SOL    HW230022   3.470   3.956   7.938
 4294SOL     OW30023   3.353   1.219   0.671
 4294SOL    HW130024   3.361   1.311   0.646
 4294SOL    HW230025   3.336   1.221   0.766
 4295SOL     OW30026   5.488   4.922   0.865
 4295SOL    HW130027   5.572   4.953   0.829
 4295SOL    HW230028   5.505   4.831   0.890
 4296SOL     OW30029   4.608   2.485   7.713
 4296SOL    HW130030   4.638   2.398   7.739
 4296SOL    HW230031   4.686   2.526   7.675
 4297SOL     OW30032   1.590   0.009   5.982
 4297SOL    HW130033   1.628  -0.029   6.061
 4297SOL    HW230034   1.568  -0.066   5.927
 4298SOL     OW30035   5.666   4.837   1.638
 4298SOL    HW130036   5.611   4.909   1.606
 4298SOL    HW230037   5.606   4.762   1.643
 4299SOL     OW30038   4.576   3.424   0.937
 4299SOL    HW130039   4.559   3.452   1.027
 4299SOL    HW230040   4.510   3.357   0.919
 4300SOL     OW30041   3.583   4.275   0.890
 4300SOL    HW130042   3.508   4.328   0.918
 4300SOL    HW230043   3.629   4.254   0.971
 4301SOL     OW30044   2.506   0.543   6.818
 4301SOL    HW130045   2.439   0.507   6.877
 4301SOL    HW230046   2.470   0.627   6.790
 4302SOL     OW30047   5.226   4.301   1.346
 4302SOL    HW130048   5.136   4.310   1.316
 4302SOL    HW230049   5.270   4.378   1.311
 4303SOL     OW30050   2.962   5.640   7.573
 4303SOL    HW130051   2.927   5.635   7.484
 4303SOL    HW230052   3.009   5.723   7.576
 4304SOL     OW30053   1.229   0.201   1.353
 4304SOL    HW130054   1.230   0.147   1.274
 4304SOL    HW230055   1.154   0.170   1.403
 4305SOL     OW30056   2.990   1.031   6.480
 4305SOL    HW130057   2.988   0.952   6.426
 4305SOL    HW230058   2.983   0.999   6.570
 4306SOL     OW30059   4.273   5.891   1.213
 4306SOL    HW130060   4.282   5.979   1.176
 4306SOL    HW230061   4.336   5.838   1.164
 4307SOL     OW30062   4.097   5.512   5.970
 4307SOL    HW130063   4.124   5.603   5.960
 4307SOL    HW230064   4.006   5.516   5.998
 4308SOL     OW30065   0.988   0.252   0.067
 4308SOL    HW130066   1.040   0.332   0.061
 4308SOL    HW230067   0.972   0.240   0.160
 4309SOL     OW30068   2.378   3.514   0.897
 4309SOL    HW130069   2.467   3.536   0.870
 4309SOL    HW230070   2.346   3.454   0.830
 4310SOL     OW30071   4.794   3.383   0.459
 4310SOL    HW130072   4.710   3.337   0.469
 4310SOL    HW230073   4.854   3.317   0.426
 4311SOL     OW30074   5.470   3.498   0.561
 4311SOL    HW130075   5.551   3.541   0.533
 4311SOL    HW230076   5.400   3.551   0.523
 4312SOL     OW30077   4.373   6.235   7.628
 4312SOL    HW130078   4.293   6.185   7.640
 4312SOL    HW230079   4.372   6.262   7.536
 4313SOL     OW30080   2.637   5.554   1.141
 4313SOL    HW130081   2.671   5.548   1.231
 4313SOL    HW230082   2.715   5.546   1.086
 4314SOL     OW30083   5.237   1.927   6.660
 4314SOL    HW130084   5.228   1.959   6.570
 4314SOL    HW230085   5.148   1.924   6.693
 4315SOL     OW30086   1.955   5.988   0.272
 4315SOL    HW130087   1.962   5.906   0.321
 4315SOL    HW230088   2.033   6.038   0.298
 4316SOL     OW30089   2.550   5.736   2.016
 4316SOL    HW130090   2.557   5.825   2.051
 4316SOL    HW230091   2.516   5.684   2.089
 4317SOL     OW30092   2.078   0.247   5.787
 4317SOL    HW130093   2.109   0.220   5.873
 4317SOL    HW230094   2.108   0.338   5.777
 4318SOL     OW30095   1.750   4.758   7.991
 4318SOL    HW130096   1.818   4.725   7.933
 4318SOL    HW230097   1.668   4.723   7.955
 4319SOL     OW30098   5.176   0.558   0.263
 4319SOL    HW130099   5.231   0.600   0.196
 4319SOL    HW230100   5.148   0.476   0.223
 4320SOL     OW30101   2.819   1.212   7.291
 4320SOL    HW130102   2.862   1.289   7.328
 4320SOL    HW230103   2.856   1.138   7.339
 4321SOL     OW30104   6.262   0.440   2.284
 4321SOL    HW130105   6.300   0.447   2.197
 4321SOL    HW230106   6.326   0.391   2.335
 4322SOL     OW30107   4.297   2.541   0.417
 4322SOL    HW130108   4.225   2.519   0.358
 4322SOL    HW230109   4.317   2.458   0.462
 4323SOL     OW30110   3.716   5.247   2.468
 4323SOL    HW130111   3.660   5.282   2.399
 4323SOL    HW230112   3.784   5.314   2.480
 4324SOL     OW30113   4.111   3.512   7.087
 4324SOL    HW130114   4.060   3.434   7.067
 4324SOL    HW230115   4.115   3.514   7.182
 4325SOL     OW30116   2.263   2.746   1.323
 4325SOL    HW130117   2.194   2.799   1.283
 4325SOL    HW230118   2.283   2.790   1.405
 4326SOL     OW30119   0.691   3.280   0.518
 4326SOL    HW130120   0.689   3.361   0.467
 4326SOL    HW230121   0.767   3.290   0.575
 4327SOL     OW30122   2.025   3.010   6.173
 4327SOL    HW130123   2.048   2.928   6.216
 4327SOL    HW230124   2.092   3.072   6.203
 4328SOL     OW30125   3.175   4.460   6.424
 4328SOL    HW130126   3.134   4.534   6.379
 4328SOL    HW230127   3.159   4.385   6.366
 4329SOL     OW30128   1.654   2.516   1.578
 4329SOL    HW130129   1.592   2.556   1.518
 4329SOL    HW230130   1.617   2.430   1.598
 4330SOL     OW30131   2.210   2.083   0.661
 4330SOL    HW130132   2.209   1.999   0.615
 4330SOL    HW230133   2.259   2.142   0.602
 4331SOL     OW30134   2.357   2.141   8.060
 4331SOL    HW130135   2.274   2.189   8.060
 4331SOL    HW230136   2.386   2.143   8.151
 4332SOL     OW30137   2.640   1.962   6.792
 4332SOL    HW130138   2.696   2.029   6.831
 4332SOL    HW230139   2.653   1.970   6.698
 4333SOL     OW30140   4.649   2.824   1.052
 4333SOL    HW130141   4.740   2.850   1.069
 4333SOL    HW230142   4.629   2.862   0.966
 4334SOL     OW30143   0.202   4.040   7.537
 4334SOL    HW130144   0.234   3.952   7.558
 4334SOL    HW230145   0.117   4.026   7.497
 4335SOL     OW30146   2.149   1.534   6.746
 4335SOL    HW130147   2.209   1.602   6.777
 4335SOL    HW230148   2.065   1.556   6.788
 4336SOL     OW30149   4.385   5.371   6.629
 4336SOL    HW130150   4.471   5.374   6.588
 4336SOL    HW230151   4.366   5.277   6.638
 4337SOL     OW30152   0.866   1.511   7.989
 4337SOL    HW130153   0.826   1.575   7.931
 4337SOL    HW230154   0.847   1.426   7.948
 4338SOL     OW30155   2.261   1.170   1.055
 4338SOL    HW130156   2.239   1.212   0.972
 4338SOL    HW230157   2.328   1.227   1.093
 4339SOL     OW30158   2.513   5.573   0.197
 4339SOL    HW130159   2.593   5.622   0.214
 4339SOL    HW230160   2.511   5.506   0.265
 4340SOL     OW30161   5.935   0.730   7.727
 4340SOL    HW130162   5.860   0.789   7.730
 4340SOL    HW230163   5.934   0.693   7.639
 4341SOL     OW30164   0.672   3.525   7.741
 4341SOL    HW130165   0.704   3.569   7.662
 4341SOL    HW230166   0.664   3.433   7.714
 4342SOL     OW30167   3.895   0.891   7.857
 4342SOL    HW130168   3.900   0.986   7.864
 4342SOL    HW230169   3.986   0.862   7.857
 4343SOL     OW30170   1.454   0.177   6.578
 4343SOL    HW130171   1.487   0.091   6.553
 4343SOL    HW230172   1.450   0.226   6.496
 4344SOL     OW30173   4.335   2.424   1.086
 4344SOL    HW130174   4.401   2.449   1.021
 4344SOL    HW230175   4.365   2.340   1.120
 4345SOL     OW30176   4.832   1.113   1.034
 4345SOL    HW130177   4.813   1.019   1.039
 4345SOL    HW230178   4.790   1.142   0.953
 4346SOL     OW30179   5.728   4.829   7.690
 4346SOL    HW130180   5.659   4.820   7.625
 4346SOL    HW230181   5.685   4.817   7.774
 4347SOL     OW30182   1.278   2.644   6.762
 4347SOL    HW130183   1.308   2.729   6.795
 4347SOL    HW230184   1.332   2.580   6.808
 4348SOL     OW30185   5.217   1.699   8.012
 4348SOL    HW130186   5.294   1.662   8.055
 4348SOL    HW230187   5.226   1.794   8.026
 4349SOL     OW30188   4.198   4.645   6.698
 4349SOL    HW130189   4.245   4.574   6.741
 4349SOL    HW230190   4.162   4.606   6.619
 4350SOL     OW30191   5.843   4.981   1.187
 4350SOL    HW130192   5.864   5.062   1.234
 4350SOL    HW230193   5.886   4.991   1.103
 4351SOL     OW30194   2.406   5.925   1.463
 4351SOL    HW130195   2.462   5.890   1.394
 4351SOL    HW230196   2.354   5.851   1.493
 4352SOL     OW30197   4.212   4.844   6.312
 4352SOL    HW130198   4.245   4.765   6.355
 4352SOL    HW230199   4.179   4.813   6.227
 4353SOL     OW30200   2.831   4.153   0.047
 4353SOL    HW130201   2.884   4.175   0.124
 4353SOL    HW230202   2.803   4.063   0.062
 4354SOL     OW30203   4.571   1.314   6.234
 4354SOL    HW130204   4.646   1.335   6.179
 4354SOL    HW230205   4.608   1.301   6.321
 4355SOL     OW30206   4.279   3.558   1.238
 4355SOL    HW130207   4.331   3.478   1.239
 4355SOL    HW230208   4.189   3.529   1.228
 4356SOL     OW30209   3.861   5.996   0.045
 4356SOL    HW130210   3.901   5.945   0.115
 4356SOL    HW230211   3.917   5.982  -0.031
 4357SOL     OW30212   3.766   3.719   0.027
 4357SOL    HW130213   3.671   3.713   0.036
 4357SOL    HW230214   3.797   3.750   0.112
 4358SOL     OW30215   4.478   1.582   7.992
 4358SOL    HW130216   4.395   1.626   8.012
 4358SOL    HW230217   4.515   1.632   7.920
 4359SOL     OW30218   1.899   2.691   0.510
 4359SOL    HW130219   1.851   2.610   0.495
 4359SOL    HW230220   1.966   2.692   0.441
 4360SOL     OW30221   4.249   4.397   5.565
 4360SOL    HW130222   4.270   4.488   5.584
 4360SOL    HW230223   4.203   4.365   5.643
 4361SOL     OW30224   3.775   2.042   7.300
 4361SOL    HW130225   3.792   2.046   7.206
 4361SOL    HW230226   3.860   2.024   7.339
 4362SOL     OW30227   3.194   2.673   6.109
 4362SOL    HW130228   3.228   2.682   6.020
 4362SOL    HW230229   3.110   2.629   6.098
 4363SOL     OW30230   5.986   2.265   6.574
 4363SOL    HW130231   5.940   2.333   6.525
 4363SOL    HW230232   5.926   2.242   6.646
 4364SOL     OW30233   1.578   5.495   6.789
 4364SOL    HW130234   1.622   5.432   6.846
 4364SOL    HW230235   1.517   5.542   6.846
 4365SOL     OW30236   2.927   2.392   6.399
 4365SOL    HW130237   2.866   2.318   6.393
 4365SOL    HW230238   2.941   2.404   6.493
 4366SOL     OW30239   4.279   1.478   7.328
 4366SOL    HW130240   4.184   1.478   7.342
 4366SOL    HW230241   4.308   1.560   7.369
 4367SOL     OW30242   4.530   3.237   0.623
 4367SOL    HW130243   4.495   3.295   0.691
 4367SOL    HW230244   4.511   3.149   0.655
 4368SOL     OW30245   5.709   1.896   7.909
 4368SOL    HW130246   5.795   1.873   7.945
 4368SOL    HW230247   5.647   1.865   7.975
 4369SOL     OW30248   0.143   4.562   0.995
 4369SOL    HW130249   0.217   4.574   1.055
 4369SOL    HW230250   0.119   4.470   1.005
 4370SOL     OW30251   2.758   4.821   1.895
 4370SOL    HW130252   2.783   4.910   1.869
 4370SOL    HW230253   2.725   4.830   1.984
 4371SOL     OW30254   5.523   2.319   0.883
 4371SOL    HW130255   5.492   2.294   0.796
 4371SOL    HW230256   5.605   2.365   0.867
 4372SOL     OW30257   6.103   4.551   7.795
 4372SOL    HW130258   6.165   4.621   7.815
 4372SOL    HW230259   6.062   4.531   7.879
 4373SOL     OW30260   4.295   4.967   0.897
 4373SOL    HW130261   4.280   4.875   0.878
 4373SOL    HW230262   4.320   5.006   0.813
 4374SOL     OW30263   2.844   1.036   0.150
 4374SOL    HW130264   2.810   1.059   0.236
 4374SOL    HW230265   2.774   0.985   0.109
 4375SOL     OW30266   3.282   0.426   1.179
 4375SOL    HW130267   3.213   0.379   1.226
 4375SOL    HW230268   3.235   0.484   1.120
 4376SOL     OW30269   2.142   5.284   0.291
 4376SOL    HW130270   2.158   5.217   0.357
 4376SOL    HW230271   2.055   5.264   0.257
 4377SOL     OW30272   2.043   3.377   1.420
 4377SOL    HW130273   2.070   3.467   1.434
 4377SOL    HW230274   1.967   3.383   1.363
 4378SOL     OW30275   0.461   2.409   6.834
 4378SOL    HW130276   0.431   2.499   6.845
 4378SOL    HW230277   0.381   2.359   6.819
 4379SOL     OW30278   0.610   2.052   6.586
 4379SOL    HW130279   0.584   2.143   6.579
 4379SOL    HW230280   0.558   2.017   6.658
 4380SOL     OW30281   1.478   3.174   1.230
 4380SOL    HW130282   1.385   3.150   1.230
 4380SOL    HW230283   1.505   3.166   1.321
 4381SOL     OW30284   0.482   2.360   7.487
 4381SOL    HW130285   0.532   2.423   7.539
 4381SOL    HW230286   0.397   2.355   7.531
 4382SOL     OW30287   5.782   1.898   1.972
 4382SOL    HW130288   5.717   1.827   1.978
 4382SOL    HW230289   5.732   1.977   1.991
 4383SOL     OW30290   3.894   4.987   0.427
 4383SOL    HW130291   3.819   5.029   0.385
 4383SOL    HW230292   3.891   4.896   0.397
 4384SOL     OW30293   1.225   1.424   0.877
 4384SOL    HW130294   1.138   1.422   0.919
 4384SOL    HW230295   1.223   1.502   0.822
 4385SOL     OW30296   6.120   3.424   0.628
 4385SOL    HW130297   6.129   3.373   0.548
 4385SOL    HW230298   6.145   3.513   0.602
 4386SOL     OW30299   1.084   5.354   1.039
 4386SOL    HW130300   1.061   5.405   1.117
 4386SOL    HW230301   1.140   5.284   1.072
 4387SOL     OW30302   5.934   3.801   1.528
 4387SOL    HW130303   5.980   3.851   1.595
 4387SOL    HW230304   5.855   3.852   1.509
 4388SOL     OW30305   3.206   5.609   1.149
 4388SOL    HW130306   3.237   5.533   1.098
 4388SOL    HW230307   3.112   5.611   1.134
 4389SOL     OW30308   5.548   2.268   0.608
 4389SOL    HW130309   5.613   2.199   0.597
 4389SOL    HW230310   5.486   2.255   0.536
 4390SOL     OW30311   5.859   1.771   0.782
 4390SOL    HW130312   5.901   1.856   0.765
 4390SOL    HW230313   5.773   1.793   0.816
 4391SOL     OW30314   3.473   4.727   1.971
 4391SOL    HW130315   3.479   4.692   1.882
 4391SOL    HW230316   3.432   4.813   1.959
 4392SOL     OW30317   1.356   2.215   7.842
 4392SOL    HW130318   1.440   2.253   7.817
 4392SOL    HW230319   1.294   2.288   7.835
 4393SOL     OW30320   4.797   6.310   1.201
 4393SOL    HW130321   4.794   6.400   1.234
 4393SOL    HW230322   4.723   6.304   1.140
 4394SOL     OW30323   6.241   5.344   0.209
 4394SOL    HW130324   6.203   5.420   0.252
 4394SOL    HW230325   6.166   5.294   0.178
 4395SOL     OW30326   5.163   2.592   0.513
 4395SOL    HW130327   5.074   2.558   0.520
 4395SOL    HW230328   5.193   2.561   0.427
 4396SOL     OW30329   1.685   4.550   0.479
 4396SOL    HW130330   1.668   4.545   0.573
 4396SOL    HW230331   1.616   4.497   0.439
 4397SOL     OW30332   4.419   5.987   6.251
 4397SOL    HW130333   4.461   5.945   6.326
 4397SOL    HW230334   4.385   5.914   6.198
 4398SOL     OW30335   4.396   3.224   7.023
 4398SOL    HW130336   4.321   3.172   7.051
 4398SOL    HW230337   4.472   3.176   7.056
 4399SOL     OW30338   4.035   2.539   1.546
 4399SOL    HW130339   4.025   2.633   1.557
 4399SOL    HW230340   4.099   2.513   1.613
 4400SOL     OW30341   5.001   6.220   0.331
 4400SOL    HW130342   4.968   6.201   0.244
 4400SOL    HW230343   5.012   6.134   0.372
 4401SOL     OW30344   0.852   3.366   0.991
 4401SOL    HW130345   0.851   3.270   0.989
 4401SOL    HW230346   0.799   3.389   1.067
 4402SOL     OW30347   2.639   6.344   2.244
 4402SOL    HW130348   2.601   6.260   2.273
 4402SOL    HW230349   2.597   6.410   2.299
 4403SOL     OW30350   2.115   3.710   6.860
 4403SOL    HW130351   2.175   3.635   6.857
 4403SOL    HW230352   2.028   3.671   6.873
 4404SOL     OW30353   2.640   5.463   7.091
 4404SOL    HW130354   2.618   5.436   7.002
 4404SOL    HW230355   2.689   5.545   7.080
 4405SOL     OW30356   5.447   5.798   1.162
 4405SOL    HW130357   5.375   5.755   1.208
 4405SOL    HW230358   5.517   5.733   1.159
 4406SOL     OW30359   0.380   0.126   1.744
 4406SOL    HW130360   0.389   0.152   1.835
 4406SOL    HW230361   0.451   0.171   1.698
 4407SOL     OW30362   2.468   5.212   0.262
 4407SOL    HW130363   2.441   5.256   0.342
 4407SOL    HW230364   2.409   5.246   0.195
 4408SOL     OW30365   1.098   3.111   1.048
 4408SOL    HW130366   1.140   3.152   0.973
 4408SOL    HW230367   1.005   3.106   1.025
 4409SOL     OW30368   4.548   6.233   7.833
 4409SOL    HW130369   4.491   6.285   7.889
 4409SOL    HW230370   4.492   6.203   7.762
 4410SOL     OW30371   0.933   6.170   0.447
 4410SOL    HW130372   0.875   6.176   0.371
 4410SOL    HW230373   0.949   6.261   0.473
 4411SOL     OW30374   1.259   5.668   0.666
 4411SOL    HW130375   1.235   5.593   0.719
 4411SOL    HW230376   1.233   5.744   0.718
 4412SOL     OW30377   2.284   4.111   0.747
 4412SOL    HW130378   2.293   4.093   0.654
 4412SOL    HW230379   2.319   4.033   0.791
 4413SOL     OW30380   1.858   0.351   2.627
 4413SOL    HW130381   1.906   0.344   2.709
 4413SOL    HW230382   1.845   0.260   2.599
 4414SOL     OW30383   2.773   3.776   1.504
 4414SOL    HW130384   2.855   3.791   1.551
 4414SOL    HW230385   2.707   3.766   1.572
 4415SOL     OW30386   4.590   5.221   0.466
 4415SOL    HW130387   4.683   5.214   0.445
 4415SOL    HW230388   4.546   5.216   0.381
 4416SOL     OW30389   4.713   5.070   0.888
 4416SOL    HW130390   4.734   5.055   0.980
 4416SOL    HW230391   4.798   5.087   0.847
 4417SOL     OW30392   1.717   5.535   0.392
 4417SOL    HW130393   1.770   5.503   0.465
 4417SOL    HW230394   1.704   5.628   0.412
 4418SOL     OW30395   4.255   0.338   5.997
 4418SOL    HW130396   4.223   0.249   5.982
 4418SOL    HW230397   4.336   0.343   5.946
 4419SOL     OW30398   0.882   3.337   0.696
 4419SOL    HW130399   0.900   3.410   0.755
 4419SOL    HW230400   0.960   3.329   0.642
 4420SOL     OW30401   4.383   0.057   6.070
 4420SOL    HW130402   4.416   0.075   5.982
 4420SOL    HW230403   4.288   0.048   6.059
 4421SOL     OW30404   6.238   0.063   0.062
 4421SOL    HW130405   6.327   0.098   0.052
 4421SOL    HW230406   6.229   0.045   0.155
 4422SOL     OW30407   3.268   3.458   0.483
 4422SOL    HW130408   3.181   3.485   0.512
 4422SOL    HW230409   3.326   3.482   0.555
 4423SOL     OW30410   3.587   3.691   6.610
 4423SOL    HW130411   3.498   3.693   6.573
 4423SOL    HW230412   3.641   3.656   6.540
 4424SOL     OW30413   3.674   1.260   6.754
 4424SOL    HW130414   3.755   1.250   6.804
 4424SOL    HW230415   3.702   1.290   6.668
 4425SOL     OW30416   1.701   0.718   5.740
 4425SOL    HW130417   1.793   0.700   5.759
 4425SOL    HW230418   1.659   0.632   5.743
 4426SOL     OW30419   0.046   3.691   5.811
 4426SOL    HW130420   0.103   3.766   5.797
 4426SOL    HW230421   0.082   3.622   5.755
 4427SOL     OW30422   5.155   0.796   8.008
 4427SOL    HW130423   5.132   0.759   7.923
 4427SOL    HW230424   5.220   0.736   8.043
 4428SOL     OW30425   4.301   1.475   1.294
 4428SOL    HW130426   4.258   1.547   1.246
 4428SOL    HW230427   4.257   1.473   1.379
 4429SOL     OW30428   5.543   4.859   6.456
 4429SOL    HW130429   5.468   4.910   6.424
 4429SOL    HW230430   5.505   4.775   6.483
 4430SOL     OW30431   4.143   3.756   1.501
 4430SOL    HW130432   4.150   3.740   1.595
 4430SOL    HW230433   4.233   3.765   1.470
 4431SOL     OW30434   3.621   4.382   2.316
 4431SOL    HW130435   3.551   4.320   2.335
 4431SOL    HW230436   3.577   4.454   2.271
 4432SOL     OW30437   3.449   4.906   7.655
 4432SOL    HW130438   3.531   4.866   7.687
 4432SOL    HW230439   3.380   4.853   7.695
 4433SOL     OW30440   2.388   2.303   1.284
 4433SOL    HW130441   2.433   2.308   1.199
 4433SOL    HW230442   2.368   2.394   1.306
 4434SOL     OW30443   3.698   1.445   7.683
 4434SOL    HW130444   3.634   1.375   7.669
 4434SOL    HW230445   3.645   1.522   7.702
 4435SOL     OW30446   4.354   2.045   7.820
 4435SOL    HW130447   4.335   1.963   7.865
 4435SOL    HW230448   4.346   2.112   7.889
 4436SOL     OW30449   5.178   4.389   2.062
 4436SOL    HW130450   5.269   4.384   2.091
 4436SOL    HW230451   5.134   4.317   2.107
 4437SOL     OW30452   1.684   5.773   0.848
 4437SOL    HW130453   1.617   5.730   0.794
 4437SOL    HW230454   1.738   5.820   0.785
 4438SOL     OW30455   2.862   5.737   1.516
 4438SOL    HW130456   2.935   5.798   1.517
 4438SOL    HW230457   2.794   5.781   1.567
 4439SOL     OW30458   3.085   1.771   5.901
 4439SOL    HW130459   3.140   1.741   5.973
 4439SOL    HW230460   3.057   1.691   5.857
 4440SOL     OW30461   0.575   3.255   1.149
 4440SOL    HW130462   0.523   3.258   1.230
 4440SOL    HW230463   0.511   3.259   1.079
 4441SOL     OW30464   5.324   5.732   0.523
 4441SOL    HW130465   5.413   5.697   0.519
 4441SOL    HW230466   5.324   5.792   0.597
 4442SOL     OW30467   1.512   4.899   2.241
 4442SOL    HW130468   1.547   4.959   2.174
 4442SOL    HW230469   1.584   4.886   2.302
 4443SOL     OW30470   2.016   5.390   2.202
 4443SOL    HW130471   2.045   5.327   2.269
 4443SOL    HW230472   2.057   5.472   2.228
 4444SOL     OW30473   5.269   1.660   1.077
 4444SOL    HW130474   5.191   1.716   1.073
 4444SOL    HW230475   5.324   1.690   1.004
 4445SOL     OW30476   5.751   1.299   6.601
 4445SOL    HW130477   5.778   1.224   6.655
 4445SOL    HW230478   5.665   1.274   6.566
 4446SOL     OW30479   0.368   6.295   0.363
 4446SOL    HW130480   0.454   6.315   0.401
 4446SOL    HW230481   0.379   6.315   0.270
 4447SOL     OW30482   1.120   3.130   1.848
 4447SOL    HW130483   1.101   3.052   1.795
 4447SOL    HW230484   1.050   3.132   1.913
 4448SOL     OW30485   4.127   5.082   7.339
 4448SOL    HW130486   4.202   5.027   7.364
 4448SOL    HW230487   4.065   5.072   7.412
 4449SOL     OW30488   5.821   0.747   0.048
 4449SOL    HW130489   5.804   0.825   0.101
 4449SOL    HW230490   5.797   0.673   0.104
 4450SOL     OW30491   3.867   2.238   0.212
 4450SOL    HW130492   3.869   2.149   0.247
 4450SOL    HW230493   3.790   2.278   0.253
 4451SOL     OW30494   1.194   5.423   1.498
 4451SOL    HW130495   1.243   5.353   1.454
 4451SOL    HW230496   1.155   5.381   1.575
 4452SOL     OW30497   4.605   1.333   7.884
 4452SOL    HW130498   4.575   1.404   7.940
 4452SOL    HW230499   4.550   1.258   7.908
 4453SOL     OW30500   2.953   1.288   5.620
 4453SOL    HW130501   2.953   1.242   5.536
 4453SOL    HW230502   2.890   1.240   5.674
 4454SOL     OW30503   2.184   1.785   1.336
 4454SOL    HW130504   2.191   1.854   1.401
 4454SOL    HW230505   2.176   1.831   1.253
 4455SOL     OW30506   5.125   0.126   7.533
 4455SOL    HW130507   5.161   0.049   7.578
 4455SOL    HW230508   5.042   0.143   7.579
 4456SOL     OW30509   5.827   5.094   7.714
 4456SOL    HW130510   5.794   5.084   7.803
 4456SOL    HW230511   5.789   5.021   7.666
 4457SOL     OW30512   0.160   0.208   0.181
 4457SOL    HW130513   0.198   0.215   0.268
 4457SOL    HW230514   0.106   0.287   0.171
 4458SOL     OW30515   0.753   4.086   7.960
 4458SOL    HW130516   0.829   4.136   7.990
 4458SOL    HW230517   0.788   3.999   7.940
 4459SOL     OW30518   1.519   2.280   1.601
 4459SOL    HW130519   1.446   2.287   1.539
 4459SOL    HW230520   1.505   2.197   1.646
 4460SOL     OW30521   5.828   1.356   8.039
 4460SOL    HW130522   5.876   1.310   7.970
 4460SOL    HW230523   5.739   1.321   8.035
 4461SOL     OW30524   0.503   4.432   1.517
 4461SOL    HW130525   0.591   4.462   1.493
 4461SOL    HW230526   0.470   4.500   1.575
 4462SOL     OW30527   0.556   3.096   6.950
 4462SOL    HW130528   0.467   3.093   6.914
 4462SOL    HW230529   0.587   3.185   6.931
 4463SOL     OW30530   0.289   3.781   1.925
 4463SOL    HW130531   0.216   3.740   1.878
 4463SOL    HW230532   0.367   3.738   1.889
 4464SOL     OW30533   5.163   3.408   2.073
 4464SOL    HW130534   5.088   3.461   2.044
 4464SOL    HW230535   5.214   3.467   2.128
 4465SOL     OW30536   2.321   3.816   7.280
 4465SOL    HW130537   2.301   3.795   7.189
 4465SOL    HW230538   2.357   3.905   7.276
 4466SOL     OW30539   5.760   5.532   5.972
 4466SOL    HW130540   5.686   5.590   5.985
 4466SOL    HW230541   5.794   5.516   6.060
 4467SOL     OW30542   0.776   5.694   7.899
 4467SOL    HW130543   0.759   5.630   7.830
 4467SOL    HW230544   0.690   5.719   7.931
 4468SOL     OW30545   1.118   2.775   8.044
 4468SOL    HW130546   1.106   2.697   7.990
 4468SOL    HW230547   1.204   2.809   8.019
 4469SOL     OW30548   2.034   3.755   7.558
 4469SOL    HW130549   2.042   3.844   7.523
 4469SOL    HW230550   1.946   3.752   7.595
 4470SOL     OW30551   2.425   0.159   2.378
 4470SOL    HW130552   2.374   0.217   2.434
 4470SOL    HW230553   2.364   0.091   2.351
 4471SOL     OW30554   2.790   1.656   1.836
 4471SOL    HW130555   2.838   1.576   1.860
 4471SOL    HW230556   2.755   1.689   1.918
 4472SOL     OW30557   6.231   0.247   2.031
 4472SOL    HW130558   6.142   0.264   2.064
 4472SOL    HW230559   6.278   0.328   2.048
 4473SOL     OW30560   4.387   2.810   7.157
 4473SOL    HW130561   4.300   2.784   7.128
 4473SOL    HW230562   4.389   2.788   7.250
 4474SOL     OW30563   1.043   5.741   6.720
 4474SOL    HW130564   1.086   5.793   6.652
 4474SOL    HW230565   0.996   5.806   6.773
 4475SOL     OW30566   0.082   3.792   7.653
 4475SOL    HW130567   0.101   3.711   7.700
 4475SOL    HW230568  -0.003   3.820   7.688
 4476SOL     OW30569   0.285   4.112   7.812
 4476SOL    HW130570   0.310   4.204   7.822
 4476SOL    HW230571   0.255   4.105   7.721
 4477SOL     OW30572   4.197   3.813   6.469
 4477SOL    HW130573   4.235   3.896   6.497
 4477SOL    HW230574   4.196   3.759   6.549
 4478SOL     OW30575   1.720   4.111   5.967
 4478SOL    HW130576   1.650   4.093   6.030
 4478SOL    HW230577   1.801   4.104   6.018
 4479SOL     OW30578   0.487   2.019   2.307
 4479SOL    HW130579   0.499   1.924   2.309
 4479SOL    HW230580   0.432   2.034   2.229
 4480SOL     OW30581   6.273   2.892   1.762
 4480SOL    HW130582   6.185   2.895   1.724
 4480SOL    HW230583   6.259   2.894   1.857
 4481SOL     OW30584   0.402   2.787   1.204
 4481SOL    HW130585   0.428   2.791   1.111
 4481SOL    HW230586   0.402   2.878   1.233
 4482SOL     OW30587   3.440   4.118   5.831
 4482SOL    HW130588   3.414   4.203   5.796
 4482SOL    HW230589   3.504   4.138   5.899
 4483SOL     OW30590   2.656   2.214   7.484
 4483SOL    HW130591   2.612   2.229   7.400
 4483SOL    HW230592   2.693   2.126   7.476
 4484SOL     OW30593   4.466   3.266   1.368
 4484SOL    HW130594   4.398   3.222   1.417
 4484SOL    HW230595   4.534   3.287   1.432
 4485SOL     OW30596   1.995   4.934   1.279
 4485SOL    HW130597   1.987   4.923   1.184
 4485SOL    HW230598   2.080   4.976   1.291
 4486SOL     OW30599   2.661   4.030   7.613
 4486SOL    HW130600   2.643   4.058   7.523
 4486SOL    HW230601   2.635   3.938   7.615
 4487SOL     OW30602   0.068   5.853   0.683
 4487SOL    HW130603   0.040   5.944   0.670
 4487SOL    HW230604   0.084   5.846   0.777
 4488SOL     OW30605   0.457   3.527   1.857
 4488SOL    HW130606   0.390   3.528   1.788
 4488SOL    HW230607   0.437   3.450   1.910
 4489SOL     OW30608   2.635   4.096   1.143
 4489SOL    HW130609   2.674   4.065   1.225
 4489SOL    HW230610   2.569   4.159   1.170
 4490SOL     OW30611   0.395   1.947   7.268
 4490SOL    HW130612   0.396   1.977   7.359
 4490SOL    HW230613   0.404   2.027   7.216
 4491SOL     OW30614   6.142   5.080   7.917
 4491SOL    HW130615   6.228   5.039   7.925
 4491SOL    HW230616   6.080   5.007   7.913
 4492SOL     OW30617   2.456   4.141   2.670
 4492SOL    HW130618   2.428   4.074   2.608
 4492SOL    HW230619   2.544   4.166   2.640
 4493SOL     OW30620   3.331   4.869   6.283
 4493SOL    HW130621   3.268   4.796   6.278
 4493SOL    HW230622   3.330   4.907   6.195
 4494SOL     OW30623   3.573   0.238   2.715
 4494SOL    HW130624   3.544   0.156   2.677
 4494SOL    HW230625   3.534   0.306   2.660
 4495SOL     OW30626   6.109   3.654   6.891
 4495SOL    HW130627   6.142   3.742   6.908
 4495SOL    HW230628   6.016   3.666   6.871
 4496SOL     OW30629   2.613   0.869   0.174
 4496SOL    HW130630   2.623   0.941   0.236
 4496SOL    HW230631   2.525   0.881   0.137
 4497SOL     OW30632   6.036   1.251   5.810
 4497SOL    HW130633   5.981   1.329   5.818
 4497SOL    HW230634   6.125   1.283   5.825
 4498SOL     OW30635   2.988   2.179   5.691
 4498SOL    HW130636   3.054   2.243   5.664
 4498SOL    HW230637   3.037   2.113   5.742
 4499SOL     OW30638   2.145   1.112   6.487
 4499SOL    HW130639   2.054   1.105   6.516
 4499SOL    HW230640   2.158   1.206   6.471
 4500SOL     OW30641   2.571   2.462   7.081
 4500SOL    HW130642   2.589   2.552   7.052
 4500SOL    HW230643   2.600   2.460   7.172
 4501SOL     OW30644   5.863   3.792   6.285
 4501SOL    HW130645   5.886   3.707   6.247
 4501SOL    HW230646   5.925   3.853   6.245
 4502SOL     OW30647   0.317   1.477   1.293
 4502SOL    HW130648   0.240   1.534   1.292
 4502SOL    HW230649   0.392   1.536   1.291
 4503SOL     OW30650   2.343   0.109   1.882
 4503SOL    HW130651   2.280   0.151   1.941
 4503SOL    HW230652   2.330   0.152   1.798
 4504SOL     OW30653   2.913   2.379   1.483
 4504SOL    HW130654   2.927   2.470   1.508
 4504SOL    HW230655   2.970   2.329   1.541
 4505SOL     OW30656   5.984   2.573   1.239
 4505SOL    HW130657   6.041   2.518   1.186
 4505SOL    HW230658   6.043   2.621   1.297
 4506SOL     OW30659   5.103   5.308   1.248
 4506SOL    HW130660   5.032   5.288   1.187
 4506SOL    HW230661   5.103   5.404   1.253
 4507SOL     OW30662   2.737   5.597   5.445
 4507SOL    HW130663   2.755   5.525   5.386
 4507SOL    HW230664   2.656   5.636   5.412
 4508SOL     OW30665   0.596   2.496   0.741
 4508SOL    HW130666   0.664   2.561   0.759
 4508SOL    HW230667   0.517   2.547   0.727
 4509SOL     OW30668   2.036   1.245   6.195
 4509SOL    HW130669   2.005   1.158   6.219
 4509SOL    HW230670   2.082   1.232   6.112
 4510SOL     OW30671   3.279   1.981   6.228
 4510SOL    HW130672   3.371   2.005   6.218
 4510SOL    HW230673   3.278   1.886   6.215
 4511SOL     OW30674   6.336   3.255   1.710
 4511SOL    HW130675   6.351   3.345   1.738
 4511SOL    HW230676   6.356   3.202   1.787
 4512SOL     OW30677   2.749   2.461   7.402
 4512SOL    HW130678   2.695   2.393   7.442
 4512SOL    HW230679   2.832   2.418   7.383
 4513SOL     OW30680   0.118   0.195   1.283
 4513SOL    HW130681   0.177   0.204   1.358
 4513SOL    HW230682   0.076   0.281   1.275
 4514SOL     OW30683   1.390   1.081   6.555
 4514SOL    HW130684   1.409   1.150   6.491
 4514SOL    HW230685   1.413   1.000   6.510
 4515SOL     OW30686   1.576   2.382   7.857
 4515SOL    HW130687   1.509   2.435   7.813
 4515SOL    HW230688   1.600   2.433   7.933
 4516SOL     OW30689   5.538   5.997   6.312
 4516SOL    HW130690   5.621   6.011   6.266
 4516SOL    HW230691   5.492   5.932   6.258
 4517SOL     OW30692   2.528   2.419   2.401
 4517SOL    HW130693   2.619   2.415   2.371
 4517SOL    HW230694   2.529   2.479   2.475
 4518SOL     OW30695   6.133   3.100   0.668
 4518SOL    HW130696   6.224   3.123   0.687
 4518SOL    HW230697   6.134   3.005   0.659
 4519SOL     OW30698   0.904   2.704   0.453
 4519SOL    HW130699   0.940   2.743   0.533
 4519SOL    HW230700   0.961   2.737   0.383
 4520SOL     OW30701   4.358   3.594   7.678
 4520SOL    HW130702   4.425   3.553   7.624
 4520SOL    HW230703   4.401   3.611   7.762
 4521SOL     OW30704   5.471   1.173   7.471
 4521SOL    HW130705   5.516   1.247   7.511
 4521SOL    HW230706   5.419   1.212   7.401
 4522SOL     OW30707   4.965   2.956   7.504
 4522SOL    HW130708   4.931   3.041   7.534
 4522SOL    HW230709   4.916   2.939   7.423
 4523SOL     OW30710   3.251   2.215   0.372
 4523SOL    HW130711   3.323   2.230   0.311
 4523SOL    HW230712   3.236   2.301   0.412
 4524SOL     OW30713   2.767   5.634   7.761
 4524SOL    HW130714   2.730   5.565   7.705
 4524SOL    HW230715   2.853   5.652   7.722
 4525SOL     OW30716   3.781   0.943   1.350
 4525SOL    HW130717   3.688   0.923   1.358
 4525SOL    HW230718   3.816   0.928   1.438
 4526SOL     OW30719   4.219   2.075   1.812
 4526SOL    HW130720   4.195   2.124   1.891
 4526SOL    HW230721   4.197   2.133   1.740
 4527SOL     OW30722   2.278   3.734   1.569
 4527SOL    HW130723   2.199   3.693   1.533
 4527SOL    HW230724   2.333   3.751   1.492
 4528SOL     OW30725   3.399   3.091   1.475
 4528SOL    HW130726   3.455   3.031   1.425
 4528SOL    HW230727   3.314   3.087   1.432
 4529SOL     OW30728   1.430   0.580   6.528
 4529SOL    HW130729   1.422   0.582   6.432
 4529SOL    HW230730   1.517   0.543   6.544
 4530SOL     OW30731   5.797   3.107   7.524
 4530SOL    HW130732   5.754   3.188   7.498
 4530SOL    HW230733   5.753   3.038   7.474
 4531SOL     OW30734   3.366   0.516   0.719
 4531SOL    HW130735   3.397   0.604   0.742
 4531SOL    HW230736   3.325   0.527   0.633
 4532SOL     OW30737   3.517   4.344   0.626
 4532SOL    HW130738   3.422   4.340   0.615
 4532SOL    HW230739   3.531   4.331   0.720
 4533SOL     OW30740   5.624   5.808   2.146
 4533SOL    HW130741   5.609   5.872   2.076
 4533SOL    HW230742   5.563   5.834   2.215
 4534SOL     OW30743   6.267   0.445   7.692
 4534SOL    HW130744   6.279   0.414   7.782
 4534SOL    HW230745   6.182   0.488   7.693
 4535SOL     OW30746   1.343   1.883   7.321
 4535SOL    HW130747   1.360   1.973   7.348
 4535SOL    HW230748   1.403   1.830   7.373
 4536SOL     OW30749   0.538   3.927   7.254
 4536SOL    HW130750   0.489   3.847   7.235
 4536SOL    HW230751   0.550   3.969   7.169
 4537SOL     OW30752   1.595   1.180   7.107
 4537SOL    HW130753   1.605   1.255   7.167
 4537SOL    HW230754   1.670   1.124   7.126
 4538SOL     OW30755   5.061   3.367   0.017
 4538SOL    HW130756   5.107   3.370  -0.066
 4538SOL    HW230757   5.005   3.289   0.011
 4539SOL     OW30758   3.224   5.922   1.503
 4539SOL    HW130759   3.250   5.911   1.594
 4539SOL    HW230760   3.304   5.906   1.453
 4540SOL     OW30761   2.999   1.449   8.055
 4540SOL    HW130762   2.919   1.410   8.020
 4540SOL    HW230763   3.029   1.386   8.121
 4541SOL     OW30764   3.317   0.876   1.979
 4541SOL    HW130765   3.370   0.944   1.938
 4541SOL    HW230766   3.262   0.843   1.909
 4542SOL     OW30767   5.932   1.245   0.213
 4542SOL    HW130768   5.900   1.312   0.154
 4542SOL    HW230769   5.905   1.162   0.172
 4543SOL     OW30770   5.182   0.419   7.708
 4543SOL    HW130771   5.267   0.449   7.675
 4543SOL    HW230772   5.198   0.330   7.739
 4544SOL     OW30773   3.513   0.832   2.143
 4544SOL    HW130774   3.444   0.864   2.085
 4544SOL    HW230775   3.585   0.808   2.084
 4545SOL     OW30776   1.718   1.271   1.810
 4545SOL    HW130777   1.801   1.230   1.785
 4545SOL    HW230778   1.678   1.298   1.727
 4546SOL     OW30779   1.217   1.287   7.997
 4546SOL    HW130780   1.192   1.327   7.914
 4546SOL    HW230781   1.189   1.351   8.063
 4547SOL     OW30782   2.874   1.185   1.391
 4547SOL    HW130783   2.944   1.188   1.326
 4547SOL    HW230784   2.793   1.185   1.339
 4548SOL     OW30785   1.579   2.292   1.186
 4548SOL    HW130786   1.655   2.249   1.223
 4548SOL    HW230787   1.591   2.283   1.091
 4549SOL     OW30788   1.964   1.843   0.042
 4549SOL    HW130789   1.930   1.904  -0.023
 4549SOL    HW230790   1.942   1.882   0.126
 4550SOL     OW30791   0.909   0.831   0.202
 4550SOL    HW130792   0.862   0.853   0.122
 4550SOL    HW230793   0.869   0.886   0.269
 4551SOL     OW30794   0.037   3.134   7.563
 4551SOL    HW130795   0.127   3.108   7.547
 4551SOL    HW230796  -0.011   3.101   7.487
 4552SOL     OW30797   4.884   2.482   1.767
 4552SOL    HW130798   4.933   2.542   1.822
 4552SOL    HW230799   4.799   2.524   1.755
 4553SOL     OW30800   2.617   5.724   6.584
 4553SOL    HW130801   2.563   5.721   6.662
 4553SOL    HW230802   2.682   5.655   6.597
 4554SOL     OW30803   3.994   3.162   5.512
 4554SOL    HW130804   4.044   3.243   5.516
 4554SOL    HW230805   4.044   3.106   5.452
 4555SOL     OW30806   0.714   3.151   6.073
 4555SOL    HW130807   0.691   3.079   6.131
 4555SOL    HW230808   0.670   3.130   5.990
 4556SOL     OW30809   2.364   1.485   8.069
 4556SOL    HW130810   2.376   1.397   8.034
 4556SOL    HW230811   2.269   1.491   8.086
 4557SOL     OW30812   4.570   3.466   7.581
 4557SOL    HW130813   4.602   3.379   7.604
 4557SOL    HW230814   4.641   3.525   7.604
 4558SOL     OW30815   3.074   6.294   6.064
 4558SOL    HW130816   3.034   6.270   6.148
 4558SOL    HW230817   3.039   6.381   6.045
 4559SOL     OW30818   1.827   1.915   1.105
 4559SOL    HW130819   1.750   1.858   1.103
 4559SOL    HW230820   1.891   1.871   1.049
 4560SOL     OW30821   4.239   2.548   7.017
 4560SOL    HW130822   4.287   2.473   6.980
 4560SOL    HW230823   4.184   2.578   6.945
 4561SOL     OW30824   2.505   5.707   5.404
 4561SOL    HW130825   2.433   5.758   5.367
 4561SOL    HW230826   2.474   5.680   5.490
 4562SOL     OW30827   3.442   4.544   7.539
 4562SOL    HW130828   3.348   4.533   7.528
 4562SOL    HW230829   3.457   4.535   7.633
 4563SOL     OW30830   3.809   5.905   2.009
 4563SOL    HW130831   3.763   5.865   1.935
 4563SOL    HW230832   3.868   5.969   1.969
 4564SOL     OW30833   3.444   3.635   0.307
 4564SOL    HW130834   3.417   3.552   0.347
 4564SOL    HW230835   3.433   3.700   0.377
 4565SOL     OW30836   4.905   5.624   6.131
 4565SOL    HW130837   4.943   5.690   6.189
 4565SOL    HW230838   4.946   5.542   6.158
 4566SOL     OW30839   3.906   0.579   0.068
 4566SOL    HW130840   3.859   0.661   0.081
 4566SOL    HW230841   3.905   0.536   0.154
 4567SOL     OW30842   3.668   1.312   2.173
 4567SOL    HW130843   3.674   1.335   2.266
 4567SOL    HW230844   3.604   1.373   2.137
 4568SOL     OW30845   1.926   6.278   0.459
 4568SOL    HW130846   1.902   6.341   0.392
 4568SOL    HW230847   1.897   6.318   0.541
 4569SOL     OW30848   3.706   3.472   0.788
 4569SOL    HW130849   3.726   3.387   0.749
 4569SOL    HW230850   3.616   3.490   0.762
 4570SOL     OW30851   1.833   2.800   6.987
 4570SOL    HW130852   1.823   2.891   7.016
 4570SOL    HW230853   1.878   2.757   7.059
 4571SOL     OW30854   2.182   6.115   8.041
 4571SOL    HW130855   2.140   6.147   7.961
 4571SOL    HW230856   2.236   6.041   8.011
 4572SOL     OW30857   4.833   2.917   6.881
 4572SOL    HW130858   4.859   2.841   6.829
 4572SOL    HW230859   4.757   2.888   6.931
 4573SOL     OW30860   1.604   4.191   0.457
 4573SOL    HW130861   1.635   4.163   0.371
 4573SOL    HW230862   1.539   4.258   0.439
 4574SOL     OW30863   5.589   1.276   0.076
 4574SOL    HW130864   5.507   1.281   0.028
 4574SOL    HW230865   5.593   1.186   0.108
 4575SOL     OW30866   4.857   1.117   0.024
 4575SOL    HW130867   4.913   1.111  -0.052
 4575SOL    HW230868   4.795   1.044   0.015
 4576SOL     OW30869   1.628   0.841   7.003
 4576SOL    HW130870   1.651   0.908   7.067
 4576SOL    HW230871   1.535   0.825   7.017
 4577SOL     OW30872   5.954   5.352   7.732
 4577SOL    HW130873   5.901   5.272   7.728
 4577SOL    HW230874   5.920   5.400   7.807
 4578SOL     OW30875   2.125   3.323   0.200
 4578SOL    HW130876   2.054   3.285   0.149
 4578SOL    HW230877   2.096   3.412   0.219
 4579SOL     OW30878   5.184   2.023   7.807
 4579SOL    HW130879   5.232   1.968   7.745
 4579SOL    HW230880   5.244   2.035   7.880
 4580SOL     OW30881   4.659   0.657   1.093
 4580SOL    HW130882   4.572   0.685   1.123
 4580SOL    HW230883   4.688   0.726   1.034
 4581SOL     OW30884   1.353   5.544   1.797
 4581SOL    HW130885   1.342   5.456   1.762
 4581SOL    HW230886   1.354   5.531   1.892
 4582SOL     OW30887   4.129   5.823   6.820
 4582SOL    HW130888   4.155   5.818   6.912
 4582SOL    HW230889   4.038   5.795   6.819
 4583SOL     OW30890   1.650   1.854   5.745
 4583SOL    HW130891   1.687   1.925   5.693
 4583SOL    HW230892   1.567   1.888   5.778
 4584SOL     OW30893   0.500   5.461   1.329
 4584SOL    HW130894   0.439   5.517   1.378
 4584SOL    HW230895   0.450   5.433   1.252
 4585SOL     OW30896   4.354   3.828   6.807
 4585SOL    HW130897   4.335   3.751   6.753
 4585SOL    HW230898   4.413   3.795   6.874
 4586SOL     OW30899   3.105   1.269   0.189
 4586SOL    HW130900   3.185   1.235   0.231
 4586SOL    HW230901   3.069   1.193   0.143
 4587SOL     OW30902   4.718   5.798   6.777
 4587SOL    HW130903   4.777   5.859   6.732
 4587SOL    HW230904   4.725   5.717   6.727
 4588SOL     OW30905   3.531   2.990   6.274
 4588SOL    HW130906   3.451   3.021   6.230
 4588SOL    HW230907   3.511   2.899   6.298
 4589SOL     OW30908   5.236   5.071   7.337
 4589SOL    HW130909   5.241   5.063   7.433
 4589SOL    HW230910   5.212   5.162   7.322
 4590SOL     OW30911   5.392   3.737   0.300
 4590SOL    HW130912   5.404   3.832   0.297
 4590SOL    HW230913   5.332   3.722   0.373
 4591SOL     OW30914   0.785   0.743   1.781
 4591SOL    HW130915   0.707   0.794   1.803
 4591SOL    HW230916   0.773   0.660   1.826
 4592SOL     OW30917   0.284   2.522   6.262
 4592SOL    HW130918   0.378   2.538   6.267
 4592SOL    HW230919   0.276   2.434   6.226
 4593SOL     OW30920   4.389   1.698   7.467
 4593SOL    HW130921   4.350   1.681   7.553
 4593SOL    HW230922   4.435   1.781   7.478
 4594SOL     OW30923   5.567   1.765   0.853
 4594SOL    HW130924   5.523   1.691   0.811
 4594SOL    HW230925   5.511   1.841   0.832
 4595SOL     OW30926   4.093   2.617   1.835
 4595SOL    HW130927   4.048   2.627   1.919
 4595SOL    HW230928   4.163   2.682   1.837
 4596SOL     OW30929   6.179   2.610   1.451
 4596SOL    HW130930   6.099   2.621   1.503
 4596SOL    HW230931   6.209   2.699   1.434
 4597SOL     OW30932   4.057   3.754   7.439
 4597SOL    HW130933   4.028   3.720   7.524
 4597SOL    HW230934   4.073   3.675   7.387
 4598SOL     OW30935   1.069   3.459   6.277
 4598SOL    HW130936   1.007   3.430   6.210
 4598SOL    HW230937   1.098   3.379   6.320
 4599SOL     OW30938   0.030   2.101   7.650
 4599SOL    HW130939   0.043   2.125   7.742
 4599SOL    HW230940  -0.059   2.067   7.646
 4600SOL     OW30941   5.129   6.049   1.797
 4600SOL    HW130942   5.192   5.983   1.827
 4600SOL    HW230943   5.085   6.007   1.722
 4601SOL     OW30944   3.178   4.596   6.750
 4601SOL    HW130945   3.240   4.586   6.822
 4601SOL    HW230946   3.228   4.640   6.681
 4602SOL     OW30947   4.671   5.215   6.482
 4602SOL    HW130948   4.715   5.284   6.433
 4602SOL    HW230949   4.616   5.171   6.418
 4603SOL     OW30950   5.423   1.595   1.867
 4603SOL    HW130951   5.359   1.665   1.849
 4603SOL    HW230952   5.378   1.537   1.928
 4604SOL     OW30953   0.741   0.757   6.167
 4604SOL    HW130954   0.801   0.780   6.096
 4604SOL    HW230955   0.705   0.841   6.197
 4605SOL     OW30956   3.216   1.073   7.674
 4605SOL    HW130957   3.192   1.061   7.582
 4605SOL    HW230958   3.219   0.984   7.709
 4606SOL     OW30959   0.280   2.269   6.560
 4606SOL    HW130960   0.273   2.186   6.607
 4606SOL    HW230961   0.209   2.265   6.495
 4607SOL     OW30962   2.184   2.869   6.377
 4607SOL    HW130963   2.100   2.857   6.421
 4607SOL    HW230964   2.249   2.836   6.439
 4608SOL     OW30965   6.064   4.068   0.164
 4608SOL    HW130966   6.104   4.042   0.081
 4608SOL    HW230967   5.978   4.025   0.164
 4609SOL     OW30968   3.956   1.761   7.801
 4609SOL    HW130969   3.878   1.782   7.853
 4609SOL    HW230970   3.925   1.760   7.711
 4610SOL     OW30971   5.376   4.589   0.693
 4610SOL    HW130972   5.462   4.547   0.694
 4610SOL    HW230973   5.325   4.537   0.631
 4611SOL     OW30974   1.996   4.925   7.445
 4611SOL    HW130975   2.024   4.889   7.361
 4611SOL    HW230976   1.928   4.865   7.476
 4612SOL     OW30977   1.371   4.965   6.738
 4612SOL    HW130978   1.314   5.027   6.692
 4612SOL    HW230979   1.311   4.902   6.778
 4613SOL     OW30980   4.549   5.497   6.850
 4613SOL    HW130981   4.486   5.449   6.796
 4613SOL    HW230982   4.592   5.557   6.790
 4614SOL     OW30983   4.012   6.011   7.865
 4614SOL    HW130984   4.040   6.103   7.868
 4614SOL    HW230985   4.076   5.969   7.807
 4615SOL     OW30986   1.486   1.193   7.567
 4615SOL    HW130987   1.512   1.187   7.660
 4615SOL    HW230988   1.541   1.127   7.524
 4616SOL     OW30989   2.149   1.633   6.433
 4616SOL    HW130990   2.122   1.711   6.481
 4616SOL    HW230991   2.212   1.665   6.368
 4617SOL     OW30992   0.006   5.800   6.884
 4617SOL    HW130993  -0.067   5.823   6.941
 4617SOL    HW230994   0.045   5.884   6.860
 4618SOL     OW30995   0.151   2.779   7.338
 4618SOL    HW130996   0.090   2.802   7.408
 4618SOL    HW230997   0.235   2.768   7.382
 4619SOL     OW30998   5.120   0.745   0.691
 4619SOL    HW130999   5.107   0.726   0.598
 4619SOL    HW231000   5.155   0.834   0.692
 4620SOL     OW31001   4.655   5.796   1.008
 4620SOL    HW131002   4.663   5.887   1.036
 4620SOL    HW231003   4.569   5.768   1.039
 4621SOL     OW31004   5.789   4.509   0.500
 4621SOL    HW131005   5.833   4.435   0.542
 4621SOL    HW231006   5.790   4.579   0.565
 4622SOL     OW31007   0.742   0.933   7.129
 4622SOL    HW131008   0.742   0.842   7.100
 4622SOL    HW231009   0.651   0.961   7.117
 4623SOL     OW31010   3.024   5.516   6.212
 4623SOL    HW131011   3.060   5.582   6.153
 4623SOL    HW231012   3.033   5.434   6.164
 4624SOL     OW31013   5.640   3.224   6.708
 4624SOL    HW131014   5.571   3.220   6.774
 4624SOL    HW231015   5.644   3.317   6.683
 4625SOL     OW31016   0.041   1.855   6.492
 4625SOL    HW131017   0.041   1.764   6.520
 4625SOL    HW231018   0.000   1.854   6.406
 4626SOL     OW31019   3.742   1.783   6.632
 4626SOL    HW131020   3.702   1.855   6.585
 4626SOL    HW231021   3.836   1.797   6.622
 4627SOL     OW31022   3.212   5.220   1.947
 4627SOL    HW131023   3.155   5.204   2.022
 4627SOL    HW231024   3.297   5.240   1.987
 4628SOL     OW31025   1.445   0.338   6.371
 4628SOL    HW131026   1.456   0.427   6.337
 4628SOL    HW231027   1.396   0.292   6.303
 4629SOL     OW31028   0.068   0.279   0.598
 4629SOL    HW131029   0.016   0.315   0.526
 4629SOL    HW231030   0.156   0.269   0.562
 4630SOL     OW31031   4.553   2.307   1.656
 4630SOL    HW131032   4.567   2.309   1.751
 4630SOL    HW231033   4.623   2.251   1.622
 4631SOL     OW31034   4.148   2.572   0.909
 4631SOL    HW131035   4.200   2.518   0.968
 4631SOL    HW231036   4.069   2.594   0.959
 4632SOL     OW31037   3.925   3.648   6.453
 4632SOL    HW131038   3.873   3.585   6.404
 4632SOL    HW231039   3.953   3.712   6.388
 4633SOL     OW31040   1.481   5.136   0.937
 4633SOL    HW131041   1.473   5.171   0.849
 4633SOL    HW231042   1.397   5.092   0.953
 4634SOL     OW31043   3.640   0.681   0.435
 4634SOL    HW131044   3.563   0.736   0.445
 4634SOL    HW231045   3.692   0.698   0.514
 4635SOL     OW31046   5.900   1.831   1.303
 4635SOL    HW131047   5.989   1.800   1.319
 4635SOL    HW231048   5.870   1.780   1.228
 4636SOL     OW31049   2.170   1.134   6.794
 4636SOL    HW131050   2.177   1.187   6.714
 4636SOL    HW231051   2.178   1.044   6.763
 4637SOL     OW31052   3.763   4.114   7.536
 4637SOL    HW131053   3.816   4.157   7.603
 4637SOL    HW231054   3.676   4.151   7.547
 4638SOL     OW31055   3.833   2.940   7.705
 4638SOL    HW131056   3.817   3.030   7.676
 4638SOL    HW231057   3.806   2.940   7.797
 4639SOL     OW31058   4.015   6.154   7.201
 4639SOL    HW131059   3.946   6.088   7.190
 4639SOL    HW231060   4.029   6.159   7.296
 4640SOL     OW31061   5.620   5.496   7.138
 4640SOL    HW131062   5.629   5.468   7.230
 4640SOL    HW231063   5.558   5.433   7.101
 4641SOL     OW31064   6.072   0.086   1.492
 4641SOL    HW131065   6.166   0.095   1.506
 4641SOL    HW231066   6.033   0.155   1.546
 4642SOL     OW31067   2.249   1.812   7.064
 4642SOL    HW131068   2.273   1.778   7.150
 4642SOL    HW231069   2.160   1.846   7.077
 4643SOL     OW31070   4.075   2.942   1.301
 4643SOL    HW131071   4.162   2.967   1.269
 4643SOL    HW231072   4.092   2.905   1.388
 4644SOL     OW31073   3.005   0.313   1.828
 4644SOL    HW131074   2.929   0.349   1.874
 4644SOL    HW231075   3.017   0.226   1.866
 4645SOL     OW31076   5.202   3.930   7.668
 4645SOL    HW131077   5.194   3.989   7.593
 4645SOL    HW231078   5.143   3.857   7.646
 4646SOL     OW31079   1.596   0.842   1.660
 4646SOL    HW131080   1.560   0.757   1.684
 4646SOL    HW231081   1.576   0.852   1.567
 4647SOL     OW31082   5.055   0.695   0.448
 4647SOL    HW131083   4.984   0.637   0.473
 4647SOL    HW231084   5.093   0.654   0.370
 4648SOL     OW31085   3.783   3.793   0.286
 4648SOL    HW131086   3.792   3.706   0.326
 4648SOL    HW231087   3.820   3.853   0.351
 4649SOL     OW31088   6.282   2.869   1.485
 4649SOL    HW131089   6.307   2.893   1.575
 4649SOL    HW231090   6.237   2.946   1.451
 4650SOL     OW31091   1.609   0.005   1.812
 4650SOL    HW131092   1.635   0.085   1.858
 4650SOL    HW231093   1.661   0.005   1.732
 4651SOL     OW31094   3.082   4.158   6.772
 4651SOL    HW131095   3.170   4.185   6.747
 4651SOL    HW231096   3.026   4.190   6.701
 4652SOL     OW31097   1.264   1.503   7.425
 4652SOL    HW131098   1.176   1.478   7.453
 4652SOL    HW231099   1.253   1.592   7.390
 4653SOL     OW31100   4.621   4.364   1.602
 4653SOL    HW131101   4.647   4.287   1.653
 4653SOL    HW231102   4.528   4.351   1.584
 4654SOL     OW31103   5.878   4.135   0.433
 4654SOL    HW131104   5.895   4.138   0.527
 4654SOL    HW231105   5.935   4.203   0.396
 4655SOL     OW31106   5.659   0.933   1.277
 4655SOL    HW131107   5.589   0.996   1.264
 4655SOL    HW231108   5.682   0.903   1.189
 4656SOL     OW31109   5.428   5.739   6.242
 4656SOL    HW131110   5.340   5.756   6.209
 4656SOL    HW231111   5.418   5.736   6.337
 4657SOL     OW31112   4.552   2.277   7.283
 4657SOL    HW131113   4.606   2.249   7.358
 4657SOL    HW231114   4.607   2.258   7.207
 4658SOL     OW31115   0.753   4.320   7.486
 4658SOL    HW131116   0.700   4.333   7.564
 4658SOL    HW231117   0.835   4.367   7.503
 4659SOL     OW31118   5.782   0.603   6.977
 4659SOL    HW131119   5.840   0.536   7.013
 4659SOL    HW231120   5.826   0.686   6.997
 4660SOL     OW31121   1.009   2.947   0.243
 4660SOL    HW131122   1.092   2.909   0.272
 4660SOL    HW231123   0.953   2.871   0.228
 4661SOL     OW31124   6.039   2.444   6.991
 4661SOL    HW131125   6.083   2.522   7.025
 4661SOL    HW231126   6.108   2.379   6.983
 4662SOL     OW31127   1.062   2.482   0.884
 4662SOL    HW131128   1.052   2.575   0.864
 4662SOL    HW231129   0.986   2.462   0.939
 4663SOL     OW31130   0.882   0.684   7.456
 4663SOL    HW131131   0.860   0.593   7.472
 4663SOL    HW231132   0.968   0.696   7.496
 4664SOL     OW31133   5.539   5.065   6.106
 4664SOL    HW131134   5.589   5.142   6.078
 4664SOL    HW231135   5.592   5.026   6.175
 4665SOL     OW31136   3.471   1.530   5.864
 4665SOL    HW131137   3.507   1.523   5.776
 4665SOL    HW231138   3.389   1.481   5.860
 4666SOL     OW31139   3.166   2.312   6.037
 4666SOL    HW131140   3.114   2.392   6.039
 4666SOL    HW231141   3.102   2.242   6.023
 4667SOL     OW31142   2.272   1.040   7.673
 4667SOL    HW131143   2.296   1.116   7.726
 4667SOL    HW231144   2.198   1.000   7.720
 4668SOL     OW31145   2.797   3.449   1.487
 4668SOL    HW131146   2.712   3.487   1.507
 4668SOL    HW231147   2.847   3.460   1.568
 4669SOL     OW31148   2.964   3.272   5.862
 4669SOL    HW131149   2.918   3.191   5.839
 4669SOL    HW231150   3.054   3.257   5.832
 4670SOL     OW31151   0.296   1.261   0.081
 4670SOL    HW131152   0.337   1.338   0.043
 4670SOL    HW231153   0.265   1.289   0.167
 4671SOL     OW31154   4.268   3.145   8.027
 4671SOL    HW131155   4.349   3.163   7.979
 4671SOL    HW231156   4.198   3.171   7.967
 4672SOL     OW31157   2.602   1.318   1.848
 4672SOL    HW131158   2.563   1.316   1.935
 4672SOL    HW231159   2.690   1.353   1.862
 4673SOL     OW31160   2.563   3.839   8.013
 4673SOL    HW131161   2.527   3.919   8.052
 4673SOL    HW231162   2.501   3.817   7.943
 4674SOL     OW31163   5.288   4.223   6.752
 4674SOL    HW131164   5.210   4.189   6.708
 4674SOL    HW231165   5.361   4.183   6.705
 4675SOL     OW31166   4.583   5.974   6.941
 4675SOL    HW131167   4.580   6.054   6.889
 4675SOL    HW231168   4.648   5.920   6.896
 4676SOL     OW31169   2.356   0.217   7.509
 4676SOL    HW131170   2.370   0.124   7.529
 4676SOL    HW231171   2.422   0.263   7.561
 4677SOL     OW31172   2.644   5.877   7.743
 4677SOL    HW131173   2.724   5.924   7.722
 4677SOL    HW231174   2.673   5.800   7.791
 4678SOL     OW31175   2.364   4.488   6.225
 4678SOL    HW131176   2.320   4.418   6.178
 4678SOL    HW231177   2.457   4.471   6.211
 4679SOL     OW31178   3.042   5.205   2.172
 4679SOL    HW131179   3.035   5.275   2.237
 4679SOL    HW231180   2.952   5.174   2.159
 4680SOL     OW31181   3.353   2.986   7.696
 4680SOL    HW131182   3.285   2.932   7.655
 4680SOL    HW231183   3.435   2.946   7.666
 4681SOL     OW31184   5.704   0.990   7.149
 4681SOL    HW131185   5.676   1.010   7.060
 4681SOL    HW231186   5.774   1.053   7.167
 4682SOL     OW31187   1.719   3.769   1.903
 4682SOL    HW131188   1.665   3.840   1.937
 4682SOL    HW231189   1.808   3.793   1.929
 4683SOL     OW31190   4.362   0.670   0.316
 4683SOL    HW131191   4.271   0.683   0.342
 4683SOL    HW231192   4.371   0.575   0.307
 4684SOL     OW31193   0.791   1.428   7.082
 4684SOL    HW131194   0.815   1.384   7.163
 4684SOL    HW231195   0.772   1.358   7.020
 4685SOL     OW31196   3.298   3.441   1.284
 4685SOL    HW131197   3.356   3.399   1.348
 4685SOL    HW231198   3.283   3.529   1.318
 4686SOL     OW31199   2.264   4.273   1.592
 4686SOL    HW131200   2.195   4.307   1.534
 4686SOL    HW231201   2.333   4.339   1.588
 4687SOL     OW31202   3.773   3.003   6.061
 4687SOL    HW131203   3.719   2.969   6.133
 4687SOL    HW231204   3.714   3.002   5.985
 4688SOL     OW31205   4.983   0.865   1.847
 4688SOL    HW131206   5.020   0.870   1.935
 4688SOL    HW231207   4.974   0.771   1.830
 4689SOL     OW31208   2.432   2.656   0.421
 4689SOL    HW131209   2.376   2.722   0.463
 4689SOL    HW231210   2.486   2.622   0.493
 4690SOL     OW31211   1.289   3.913   8.053
 4690SOL    HW131212   1.206   3.899   8.008
 4690SOL    HW231213   1.313   3.827   8.087
 4691SOL     OW31214   0.375   5.465   7.522
 4691SOL    HW131215   0.316   5.434   7.591
 4691SOL    HW231216   0.451   5.408   7.528
 4692SOL     OW31217   4.833   4.911   7.761
 4692SOL    HW131218   4.845   4.884   7.852
 4692SOL    HW231219   4.795   4.835   7.718
 4693SOL     OW31220   2.558   1.747   0.468
 4693SOL    HW131221   2.517   1.727   0.384
 4693SOL    HW231222   2.590   1.837   0.459
 4694SOL     OW31223   1.698   4.261   7.158
 4694SOL    HW131224   1.622   4.245   7.102
 4694SOL    HW231225   1.760   4.192   7.135
 4695SOL     OW31226   5.617   4.815   0.503
 4695SOL    HW131227   5.584   4.902   0.478
 4695SOL    HW231228   5.651   4.827   0.591
 4696SOL     OW31229   4.007   4.722   0.436
 4696SOL    HW131230   3.936   4.722   0.501
 4696SOL    HW231231   4.028   4.629   0.425
 4697SOL     OW31232   3.501   6.062   0.244
 4697SOL    HW131233   3.461   5.990   0.292
 4697SOL    HW231234   3.585   6.076   0.287
 4698SOL     OW31235   0.552   6.318   6.893
 4698SOL    HW131236   0.488   6.247   6.890
 4698SOL    HW231237   0.514   6.383   6.951
 4699SOL     OW31238   3.660   4.695   2.414
 4699SOL    HW131239   3.719   4.623   2.394
 4699SOL    HW231240   3.574   4.667   2.381
 4700SOL     OW31241   0.087   5.037   0.747
 4700SOL    HW131242   0.175   5.073   0.732
 4700SOL    HW231243   0.099   4.942   0.744
 4701SOL     OW31244   0.966   1.296   0.718
 4701SOL    HW131245   1.028   1.289   0.791
 4701SOL    HW231246   0.883   1.266   0.754
 4702SOL     OW31247   1.662   6.131   7.170
 4702SOL    HW131248   1.675   6.062   7.104
 4702SOL    HW231249   1.582   6.175   7.142
 4703SOL     OW31250   1.182   1.114   7.547
 4703SOL    HW131251   1.266   1.116   7.593
 4703SOL    HW231252   1.135   1.041   7.586
 4704SOL     OW31253   0.083   4.018   2.039
 4704SOL    HW131254   0.003   3.980   2.004
 4704SOL    HW231255   0.154   3.970   1.994
 4705SOL     OW31256   3.141   0.503   1.586
 4705SOL    HW131257   3.079   0.565   1.548
 4705SOL    HW231258   3.098   0.472   1.667
 4706SOL     OW31259   3.802   5.764   0.259
 4706SOL    HW131260   3.717   5.776   0.216
 4706SOL    HW231261   3.795   5.681   0.305
 4707SOL     OW31262   5.261   6.083   6.304
 4707SOL    HW131263   5.354   6.072   6.324
 4707SOL    HW231264   5.257   6.162   6.251
 4708SOL     OW31265   5.480   3.175   7.780
 4708SOL    HW131266   5.520   3.093   7.806
 4708SOL    HW231267   5.505   3.237   7.849
 4709SOL     OW31268   5.232   3.795   2.437
 4709SOL    HW131269   5.144   3.776   2.469
 4709SOL    HW231270   5.256   3.877   2.481
 4710SOL     OW31271   2.178   5.519   1.718
 4710SOL    HW131272   2.155   5.426   1.714
 4710SOL    HW231273   2.127   5.554   1.791
 4711SOL     OW31274   3.998   0.573   6.522
 4711SOL    HW131275   3.915   0.562   6.475
 4711SOL    HW231276   4.036   0.485   6.524
 4712SOL     OW31277   5.051   3.735   6.738
 4712SOL    HW131278   5.082   3.736   6.828
 4712SOL    HW231279   5.109   3.797   6.692
 4713SOL     OW31280   5.052   5.299   2.351
 4713SOL    HW131281   5.076   5.214   2.388
 4713SOL    HW231282   4.969   5.283   2.306
 4714SOL     OW31283   1.238   0.063   1.131
 4714SOL    HW131284   1.322   0.016   1.134
 4714SOL    HW231285   1.207   0.050   1.042
 4715SOL     OW31286   0.628   0.282   2.267
 4715SOL    HW131287   0.642   0.235   2.349
 4715SOL    HW231288   0.642   0.216   2.199
 4716SOL     OW31289   1.971   5.814   1.652
 4716SOL    HW131290   2.040   5.750   1.672
 4716SOL    HW231291   2.015   5.899   1.657
 4717SOL     OW31292   5.448   0.588   0.991
 4717SOL    HW131293   5.392   0.539   0.930
 4717SOL    HW231294   5.386   0.637   1.045
 4718SOL     OW31295   4.522   4.399   6.549
 4718SOL    HW131296   4.440   4.405   6.598
 4718SOL    HW231297   4.544   4.489   6.527
 4719SOL     OW31298   1.500   0.231   7.416
 4719SOL    HW131299   1.586   0.231   7.373
 4719SOL    HW231300   1.453   0.304   7.375
 4720SOL     OW31301   6.021   4.725   5.742
 4720SOL    HW131302   6.045   4.632   5.745
 4720SOL    HW231303   5.926   4.725   5.759
 4721SOL     OW31304   2.825   2.914   5.546
 4721SOL    HW131305   2.849   2.869   5.465
 4721SOL    HW231306   2.909   2.944   5.582
 4722SOL     OW31307   2.431   5.495   7.613
 4722SOL    HW131308   2.519   5.458   7.617
 4722SOL    HW231309   2.441   5.583   7.649
 4723SOL     OW31310   2.377   4.434   6.684
 4723SOL    HW131311   2.443   4.368   6.665
 4723SOL    HW231312   2.376   4.489   6.606
 4724SOL     OW31313   1.054   2.710   2.011
 4724SOL    HW131314   1.028   2.621   2.032
 4724SOL    HW231315   1.050   2.715   1.915
 4725SOL     OW31316   3.016   3.603   1.366
 4725SOL    HW131317   2.927   3.574   1.346
 4725SOL    HW231318   3.031   3.575   1.456
 4726SOL     OW31319   3.948   0.027   8.044
 4726SOL    HW131320   3.996   0.051   8.124
 4726SOL    HW231321   3.883   0.097   8.034
 4727SOL     OW31322   1.225   3.743   7.194
 4727SOL    HW131323   1.231   3.837   7.178
 4727SOL    HW231324   1.250   3.702   7.111
 4728SOL     OW31325   1.916   4.121   7.706
 4728SOL    HW131326   1.884   4.084   7.623
 4728SOL    HW231327   1.899   4.052   7.770
 4729SOL     OW31328   5.212   4.907   6.681
 4729SOL    HW131329   5.262   4.852   6.621
 4729SOL    HW231330   5.146   4.848   6.719
 4730SOL     OW31331   2.901   2.750   6.712
 4730SOL    HW131332   2.877   2.741   6.804
 4730SOL    HW231333   2.951   2.832   6.708
 4731SOL     OW31334   0.169   2.156   6.940
 4731SOL    HW131335   0.258   2.151   6.977
 4731SOL    HW231336   0.172   2.230   6.880
 4732SOL     OW31337   5.232   2.131   1.636
 4732SOL    HW131338   5.250   2.088   1.553
 4732SOL    HW231339   5.145   2.170   1.624
 4733SOL     OW31340   5.692   0.635   0.862
 4733SOL    HW131341   5.672   0.600   0.775
 4733SOL    HW231342   5.609   0.630   0.909
 4734SOL     OW31343   5.868   5.996   1.789
 4734SOL    HW131344   5.895   6.030   1.704
 4734SOL    HW231345   5.833   6.072   1.835
 4735SOL     OW31346   2.724   1.046   7.644
 4735SOL    HW131347   2.652   1.106   7.662
 4735SOL    HW231348   2.802   1.102   7.640
 4736SOL     OW31349   4.214   0.813   7.202
 4736SOL    HW131350   4.222   0.719   7.191
 4736SOL    HW231351   4.193   0.845   7.114
 4737SOL     OW31352   0.693   2.060   5.783
 4737SOL    HW131353   0.618   2.110   5.816
 4737SOL    HW231354   0.769   2.101   5.824
 4738SOL     OW31355   3.418   6.208   7.360
 4738SOL    HW131356   3.483   6.206   7.291
 4738SOL    HW231357   3.440   6.286   7.411
 4739SOL     OW31358   1.713   3.236   0.601
 4739SOL    HW131359   1.630   3.197   0.575
 4739SOL    HW231360   1.763   3.164   0.639
 4740SOL     OW31361   4.113   0.920   7.464
 4740SOL    HW131362   4.143   0.876   7.384
 4740SOL    HW231363   4.031   0.875   7.487
 4741SOL     OW31364   3.069   5.667   5.991
 4741SOL    HW131365   2.975   5.651   5.997
 4741SOL    HW231366   3.099   5.608   5.923
 4742SOL     OW31367   5.434   3.967   1.098
 4742SOL    HW131368   5.469   3.881   1.075
 4742SOL    HW231369   5.375   3.990   1.027
 4743SOL     OW31370   1.926   5.235   6.824
 4743SOL    HW131371   1.854   5.239   6.762
 4743SOL    HW231372   1.950   5.142   6.827
 4744SOL     OW31373   0.144   5.487   1.819
 4744SOL    HW131374   0.236   5.507   1.804
 4744SOL    HW231375   0.146   5.404   1.868
 4745SOL     OW31376   4.283   2.663   1.373
 4745SOL    HW131377   4.232   2.637   1.297
 4745SOL    HW231378   4.230   2.729   1.417
 4746SOL     OW31379   0.443   3.583   7.883
 4746SOL    HW131380   0.523   3.546   7.846
 4746SOL    HW231381   0.474   3.649   7.946
 4747SOL     OW31382   3.681   3.798   0.669
 4747SOL    HW131383   3.607   3.849   0.701
 4747SOL    HW231384   3.721   3.853   0.601
 4748SOL     OW31385   5.300   4.053   2.479
 4748SOL    HW131386   5.331   4.082   2.393
 4748SOL    HW231387   5.360   4.093   2.541
 4749SOL     OW31388   2.682   3.998   0.677
 4749SOL    HW131389   2.770   3.962   0.686
 4749SOL    HW231390   2.669   4.049   0.757
 4750SOL     OW31391   5.556   6.008   5.619
 4750SOL    HW131392   5.560   5.917   5.649
 4750SOL    HW231393   5.646   6.039   5.621
 4751SOL     OW31394   6.350   2.936   5.925
 4751SOL    HW131395   6.376   2.938   6.017
 4751SOL    HW231396   6.266   2.982   5.922
 4752SOL     OW31397   4.472   2.134   1.191
 4752SOL    HW131398   4.544   2.196   1.205
 4752SOL    HW231399   4.510   2.049   1.214
 4753SOL     OW31400   4.162   5.380   7.272
 4753SOL    HW131401   4.106   5.446   7.313
 4753SOL    HW231402   4.101   5.315   7.235
 4754SOL     OW31403   2.609   1.437   7.073
 4754SOL    HW131404   2.516   1.420   7.059
 4754SOL    HW231405   2.632   1.381   7.148
 4755SOL     OW31406   1.950   4.714   1.443
 4755SOL    HW131407   2.013   4.703   1.514
 4755SOL    HW231408   1.979   4.792   1.396
 4756SOL     OW31409   0.056   0.260   7.554
 4756SOL    HW131410   0.134   0.313   7.569
 4756SOL    HW231411  -0.014   0.307   7.598
 4757SOL     OW31412   2.587   5.548   1.616
 4757SOL    HW131413   2.550   5.613   1.557
 4757SOL    HW231414   2.677   5.577   1.630
 4758SOL     OW31415   3.177   5.365   1.512
 4758SOL    HW131416   3.172   5.456   1.481
 4758SOL    HW231417   3.117   5.317   1.455
 4759SOL     OW31418   1.996   3.239   7.209
 4759SOL    HW131419   1.982   3.166   7.149
 4759SOL    HW231420   2.046   3.303   7.158
 4760SOL     OW31421   2.952   0.975   6.108
 4760SOL    HW131422   2.908   0.891   6.112
 4760SOL    HW231423   2.991   0.978   6.020
 4761SOL     OW31424   1.953   3.899   2.016
 4761SOL    HW131425   2.042   3.869   2.038
 4761SOL    HW231426   1.941   3.977   2.068
 4762SOL     OW31427   5.240   2.296   6.894
 4762SOL    HW131428   5.331   2.290   6.923
 4762SOL    HW231429   5.201   2.212   6.919
 4763SOL     OW31430   2.042   0.347   1.583
 4763SOL    HW131431   1.987   0.408   1.633
 4763SOL    HW231432   2.005   0.260   1.603
 4764SOL     OW31433   4.447   5.982   6.694
 4764SOL    HW131434   4.474   5.933   6.617
 4764SOL    HW231435   4.492   5.940   6.767
 4765SOL     OW31436   5.473   2.366   7.618
 4765SOL    HW131437   5.409   2.430   7.648
 4765SOL    HW231438   5.449   2.349   7.527
 4766SOL     OW31439   2.145   5.478   7.647
 4766SOL    HW131440   2.102   5.415   7.588
 4766SOL    HW231441   2.238   5.472   7.624
 4767SOL     OW31442   0.308   4.229   0.693
 4767SOL    HW131443   0.360   4.191   0.623
 4767SOL    HW231444   0.342   4.190   0.773
 4768SOL     OW31445   3.758   1.849   6.287
 4768SOL    HW131446   3.836   1.796   6.272
 4768SOL    HW231447   3.788   1.922   6.341
 4769SOL     OW31448   3.198   3.705   7.511
 4769SOL    HW131449   3.232   3.653   7.437
 4769SOL    HW231450   3.267   3.699   7.577
 4770SOL     OW31451   3.365   4.797   6.816
 4770SOL    HW131452   3.418   4.717   6.818
 4770SOL    HW231453   3.313   4.794   6.896
 4771SOL     OW31454   1.592   3.506   6.687
 4771SOL    HW131455   1.497   3.512   6.684
 4771SOL    HW231456   1.615   3.451   6.612
 4772SOL     OW31457   3.217   4.202   1.157
 4772SOL    HW131458   3.124   4.180   1.156
 4772SOL    HW231459   3.232   4.241   1.243
 4773SOL     OW31460   2.211   2.973   0.806
 4773SOL    HW131461   2.146   3.013   0.863
 4773SOL    HW231462   2.222   3.036   0.734
 4774SOL     OW31463   4.395   1.018   7.771
 4774SOL    HW131464   4.394   1.076   7.847
 4774SOL    HW231465   4.416   0.932   7.806
 4775SOL     OW31466   3.088   3.873   0.567
 4775SOL    HW131467   3.047   3.895   0.651
 4775SOL    HW231468   3.014   3.857   0.508
 4776SOL     OW31469   2.470   3.181   7.176
 4776SOL    HW131470   2.387   3.224   7.155
 4776SOL    HW231471   2.537   3.244   7.149
 4777SOL     OW31472   0.368   5.200   0.803
 4777SOL    HW131473   0.426   5.251   0.747
 4777SOL    HW231474   0.281   5.236   0.786
 4778SOL     OW31475   0.103   2.340   0.298
 4778SOL    HW131476   0.139   2.251   0.297
 4778SOL    HW231477   0.075   2.354   0.388
 4779SOL     OW31478   0.518   0.397   2.035
 4779SOL    HW131479   0.438   0.357   2.001
 4779SOL    HW231480   0.521   0.370   2.127
 4780SOL     OW31481   4.400   5.470   1.255
 4780SOL    HW131482   4.441   5.468   1.342
 4780SOL    HW231483   4.438   5.396   1.208
 4781SOL     OW31484   2.799   5.116   1.146
 4781SOL    HW131485   2.781   5.028   1.179
 4781SOL    HW231486   2.834   5.102   1.058
 4782SOL     OW31487   3.476   0.436   6.590
 4782SOL    HW131488   3.439   0.382   6.520
 4782SOL    HW231489   3.402   0.453   6.649
 4783SOL     OW31490   1.153   3.965   2.745
 4783SOL    HW131491   1.131   3.990   2.655
 4783SOL    HW231492   1.081   4.001   2.798
 4784SOL     OW31493   1.823   6.054   7.915
 4784SOL    HW131494   1.808   5.960   7.922
 4784SOL    HW231495   1.888   6.062   7.845
 4785SOL     OW31496   4.072   2.282   1.432
 4785SOL    HW131497   4.163   2.270   1.461
 4785SOL    HW231498   4.040   2.357   1.481
 4786SOL     OW31499   0.715   0.108   1.843
 4786SOL    HW131500   0.680   0.106   1.932
 4786SOL    HW231501   0.810   0.106   1.854
 4787SOL     OW31502   0.373   1.595   0.174
 4787SOL    HW131503   0.373   1.583   0.080
 4787SOL    HW231504   0.283   1.580   0.201
 4788SOL     OW31505   2.684   0.171   2.581
 4788SOL    HW131506   2.622   0.232   2.542
 4788SOL    HW231507   2.754   0.163   2.517
 4789SOL     OW31508   4.798   3.174   6.176
 4789SOL    HW131509   4.844   3.149   6.096
 4789SOL    HW231510   4.860   3.158   6.247
 4790SOL     OW31511   2.543   2.544   7.745
 4790SOL    HW131512   2.598   2.489   7.802
 4790SOL    HW231513   2.497   2.482   7.690
 4791SOL     OW31514   0.575   1.721   7.433
 4791SOL    HW131515   0.585   1.680   7.348
 4791SOL    HW231516   0.515   1.795   7.418
 4792SOL     OW31517   0.427   2.523   1.514
 4792SOL    HW131518   0.402   2.597   1.569
 4792SOL    HW231519   0.401   2.446   1.564
 4793SOL     OW31520   0.945   5.867   7.170
 4793SOL    HW131521   0.957   5.934   7.237
 4793SOL    HW231522   0.858   5.885   7.133
 4794SOL     OW31523   1.492   0.700   0.673
 4794SOL    HW131524   1.420   0.748   0.714
 4794SOL    HW231525   1.552   0.681   0.746
 4795SOL     OW31526   3.556   4.564   1.059
 4795SOL    HW131527   3.530   4.494   1.120
 4795SOL    HW231528   3.482   4.573   0.999
 4796SOL     OW31529   0.713   3.537   0.385
 4796SOL    HW131530   0.643   3.537   0.320
 4796SOL    HW231531   0.788   3.499   0.340
 4797SOL     OW31532   3.217   3.782   7.974
 4797SOL    HW131533   3.166   3.763   8.053
 4797SOL    HW231534   3.228   3.697   7.932
 4798SOL     OW31535   5.531   4.215   6.214
 4798SOL    HW131536   5.471   4.264   6.157
 4798SOL    HW231537   5.477   4.146   6.252
 4799SOL     OW31538   3.065   1.384   1.702
 4799SOL    HW131539   2.972   1.361   1.698
 4799SOL    HW231540   3.107   1.307   1.740
 4800SOL     OW31541   2.720   2.128   1.178
 4800SOL    HW131542   2.696   2.048   1.225
 4800SOL    HW231543   2.811   2.144   1.202
 4801SOL     OW31544   3.888   5.247   1.009
 4801SOL    HW131545   3.980   5.245   1.035
 4801SOL    HW231546   3.874   5.337   0.979
 4802SOL     OW31547   4.810   4.757   7.331
 4802SOL    HW131548   4.804   4.813   7.254
 4802SOL    HW231549   4.879   4.798   7.384
 4803SOL     OW31550   0.835   1.645   0.902
 4803SOL    HW131551   0.851   1.702   0.827
 4803SOL    HW231552   0.741   1.630   0.901
 4804SOL     OW31553   4.468   1.487   0.747
 4804SOL    HW131554   4.527   1.497   0.672
 4804SOL    HW231555   4.526   1.490   0.823
 4805SOL     OW31556   5.194   4.489   6.709
 4805SOL    HW131557   5.123   4.475   6.646
 4805SOL    HW231558   5.210   4.402   6.746
 4806SOL     OW31559   1.253   0.793   0.814
 4806SOL    HW131560   1.213   0.744   0.886
 4806SOL    HW231561   1.183   0.851   0.783
 4807SOL     OW31562   3.979   2.219   1.062
 4807SOL    HW131563   4.056   2.212   1.006
 4807SOL    HW231564   4.009   2.191   1.148
 4808SOL     OW31565   4.486   0.539   6.436
 4808SOL    HW131566   4.405   0.548   6.386
 4808SOL    HW231567   4.541   0.483   6.382
 4809SOL     OW31568   0.855   4.811   6.360
 4809SOL    HW131569   0.785   4.874   6.340
 4809SOL    HW231570   0.848   4.745   6.292
 4810SOL     OW31571   4.957   5.907   1.633
 4810SOL    HW131572   4.937   5.969   1.563
 4810SOL    HW231573   5.003   5.835   1.589
 4811SOL     OW31574   1.050   4.780   7.668
 4811SOL    HW131575   1.030   4.864   7.627
 4811SOL    HW231576   1.135   4.793   7.710
 4812SOL     OW31577   2.933   1.831   1.368
 4812SOL    HW131578   2.907   1.744   1.401
 4812SOL    HW231579   2.850   1.875   1.351
 4813SOL     OW31580   5.348   1.262   8.000
 4813SOL    HW131581   5.267   1.253   8.050
 4813SOL    HW231582   5.321   1.303   7.918
 4814SOL     OW31583   3.708   5.141   5.496
 4814SOL    HW131584   3.802   5.120   5.495
 4814SOL    HW231585   3.665   5.061   5.467
 4815SOL     OW31586   0.495   3.107   0.592
 4815SOL    HW131587   0.564   3.161   0.554
 4815SOL    HW231588   0.432   3.170   0.628
 4816SOL     OW31589   2.726   0.805   5.977
 4816SOL    HW131590   2.635   0.795   5.947
 4816SOL    HW231591   2.779   0.791   5.899
 4817SOL     OW31592   0.837   3.050   7.569
 4817SOL    HW131593   0.913   3.030   7.515
 4817SOL    HW231594   0.823   3.144   7.557
 4818SOL     OW31595   2.318   1.178   7.216
 4818SOL    HW131596   2.395   1.177   7.273
 4818SOL    HW231597   2.277   1.262   7.232
 4819SOL     OW31598   3.935   5.933   7.401
 4819SOL    HW131599   3.990   6.001   7.440
 4819SOL    HW231600   3.874   5.908   7.471
 4820SOL     OW31601   3.251   1.938   0.466
 4820SOL    HW131602   3.278   2.016   0.418
 4820SOL    HW231603   3.179   1.902   0.415
 4821SOL     OW31604   0.938   5.685   0.604
 4821SOL    HW131605   0.898   5.765   0.569
 4821SOL    HW231606   0.998   5.716   0.672
 4822SOL     OW31607   4.607   5.408   1.705
 4822SOL    HW131608   4.568   5.488   1.742
 4822SOL    HW231609   4.685   5.439   1.660
 4823SOL     OW31610   3.697   2.433   1.421
 4823SOL    HW131611   3.691   2.469   1.333
 4823SOL    HW231612   3.609   2.401   1.441
 4824SOL     OW31613   0.746   0.004   7.221
 4824SOL    HW131614   0.748   0.084   7.274
 4824SOL    HW231615   0.762   0.034   7.132
 4825SOL     OW31616   1.328   4.304   7.955
 4825SOL    HW131617   1.371   4.359   7.890
 4825SOL    HW231618   1.399   4.269   8.009
 4826SOL     OW31619   1.221   0.265   7.140
 4826SOL    HW131620   1.170   0.189   7.109
 4826SOL    HW231621   1.312   0.243   7.120
 4827SOL     OW31622   5.754   0.322   1.483
 4827SOL    HW131623   5.737   0.409   1.518
 4827SOL    HW231624   5.756   0.335   1.388
 4828SOL     OW31625   2.285   4.660   1.412
 4828SOL    HW131626   2.339   4.662   1.333
 4828SOL    HW231627   2.234   4.580   1.404
 4829SOL     OW31628   1.577   3.728   6.993
 4829SOL    HW131629   1.567   3.758   6.903
 4829SOL    HW231630   1.572   3.633   6.988
 4830SOL     OW31631   2.164   0.568   6.592
 4830SOL    HW131632   2.172   0.651   6.545
 4830SOL    HW231633   2.193   0.502   6.530
 4831SOL     OW31634   4.070   0.218   7.049
 4831SOL    HW131635   4.025   0.186   7.127
 4831SOL    HW231636   4.155   0.250   7.081
 4832SOL     OW31637   6.020   3.173   7.107
 4832SOL    HW131638   6.044   3.262   7.083
 4832SOL    HW231639   6.010   3.176   7.203
 4833SOL     OW31640   1.985   0.194   1.355
 4833SOL    HW131641   1.893   0.207   1.330
 4833SOL    HW231642   2.011   0.278   1.393
 4834SOL     OW31643   2.847   1.103   5.764
 4834SOL    HW131644   2.839   1.066   5.676
 4834SOL    HW231645   2.908   1.045   5.809
 4835SOL     OW31646   6.247   2.352   1.360
 4835SOL    HW131647   6.250   2.446   1.379
 4835SOL    HW231648   6.154   2.333   1.349
 4836SOL     OW31649   3.661   0.936   2.379
 4836SOL    HW131650   3.603   0.902   2.311
 4836SOL    HW231651   3.746   0.896   2.359
 4837SOL     OW31652   4.703   1.165   6.466
 4837SOL    HW131653   4.705   1.070   6.480
 4837SOL    HW231654   4.659   1.199   6.544
 4838SOL     OW31655   2.198   0.532   1.955
 4838SOL    HW131656   2.215   0.620   1.920
 4838SOL    HW231657   2.283   0.489   1.955
 4839SOL     OW31658   3.718   1.518   0.234
 4839SOL    HW131659   3.764   1.568   0.302
 4839SOL    HW231660   3.638   1.568   0.217
 4840SOL     OW31661   1.874   2.715   1.066
 4840SOL    HW131662   1.839   2.626   1.066
 4840SOL    HW231663   1.854   2.748   0.978
 4841SOL     OW31664   3.578   0.731   0.952
 4841SOL    HW131665   3.548   0.696   1.036
 4841SOL    HW231666   3.639   0.800   0.975
 4842SOL     OW31667   0.520   6.153   0.160
 4842SOL    HW131668   0.538   6.088   0.092
 4842SOL    HW231669   0.602   6.202   0.168
 4843SOL     OW31670   5.108   5.216   0.037
 4843SOL    HW131671   5.077   5.202  -0.052
 4843SOL    HW231672   5.175   5.148   0.050
 4844SOL     OW31673   2.741   0.844   1.510
 4844SOL    HW131674   2.738   0.901   1.433
 4844SOL    HW231675   2.751   0.903   1.584
 4845SOL     OW31676   4.090   0.859   6.939
 4845SOL    HW131677   4.095   0.954   6.925
 4845SOL    HW231678   4.042   0.826   6.863
 4846SOL     OW31679   0.409   6.239   7.903
 4846SOL    HW131680   0.421   6.301   7.976
 4846SOL    HW231681   0.315   6.244   7.883
 4847SOL     OW31682   3.015   2.482   6.671
 4847SOL    HW131683   2.938   2.489   6.727
 4847SOL    HW231684   3.053   2.570   6.671
 4848SOL     OW31685   0.548   5.292   7.132
 4848SOL    HW131686   0.507   5.374   7.160
 4848SOL    HW231687   0.494   5.223   7.172
 4849SOL     OW31688   2.664   4.774   1.484
 4849SOL    HW131689   2.593   4.797   1.545
 4849SOL    HW231690   2.663   4.843   1.418
 4850SOL     OW31691   4.900   0.262   1.803
 4850SOL    HW131692   4.846   0.305   1.736
 4850SOL    HW231693   4.838   0.238   1.872
 4851SOL     OW31694   4.539   3.008   0.332
 4851SOL    HW131695   4.540   3.086   0.276
 4851SOL    HW231696   4.475   2.950   0.290
 4852SOL     OW31697   4.961   0.416   7.567
 4852SOL    HW131698   5.041   0.413   7.619
 4852SOL    HW231699   4.908   0.342   7.598
 4853SOL     OW31700   1.718   0.351   1.286
 4853SOL    HW131701   1.751   0.409   1.218
 4853SOL    HW231702   1.673   0.281   1.239
 4854SOL     OW31703   0.697   4.855   1.673
 4854SOL    HW131704   0.647   4.930   1.706
 4854SOL    HW231705   0.634   4.806   1.621
 4855SOL     OW31706   3.593   3.668   6.304
 4855SOL    HW131707   3.582   3.652   6.210
 4855SOL    HW231708   3.508   3.702   6.333
 4856SOL     OW31709   1.484   4.237   1.978
 4856SOL    HW131710   1.576   4.228   2.001
 4856SOL    HW231711   1.484   4.243   1.882
 4857SOL     OW31712   5.717   6.278   6.029
 4857SOL    HW131713   5.709   6.373   6.043
 4857SOL    HW231714   5.742   6.269   5.937
 4858SOL     OW31715   6.239   0.495   1.514
 4858SOL    HW131716   6.249   0.427   1.582
 4858SOL    HW231717   6.229   0.445   1.433
 4859SOL     OW31718   4.846   0.126   1.507
 4859SOL    HW131719   4.878   0.140   1.418
 4859SOL    HW231720   4.828   0.214   1.540
 4860SOL     OW31721   3.226   0.701   0.117
 4860SOL    HW131722   3.315   0.672   0.096
 4860SOL    HW231723   3.183   0.622   0.150
 4861SOL     OW31724   5.559   0.922   7.364
 4861SOL    HW131725   5.520   0.999   7.406
 4861SOL    HW231726   5.594   0.955   7.281
 4862SOL     OW31727   3.053   5.933   1.916
 4862SOL    HW131728   2.962   5.916   1.892
 4862SOL    HW231729   3.051   5.953   2.009
 4863SOL     OW31730   2.205   5.131   0.514
 4863SOL    HW131731   2.251   5.211   0.540
 4863SOL    HW231732   2.261   5.060   0.544
 4864SOL     OW31733   1.493   0.836   1.046
 4864SOL    HW131734   1.446   0.885   1.114
 4864SOL    HW231735   1.443   0.755   1.035
 4865SOL     OW31736   3.284   3.889   1.709
 4865SOL    HW131737   3.273   3.928   1.796
 4865SOL    HW231738   3.291   3.795   1.725
 4866SOL     OW31739   0.110   3.201   7.114
 4866SOL    HW131740   0.038   3.167   7.168
 4866SOL    HW231741   0.108   3.295   7.129
 4867SOL     OW31742   0.521   3.021   0.921
 4867SOL    HW131743   0.537   3.104   0.876
 4867SOL    HW231744   0.475   3.046   1.001
 4868SOL     OW31745   3.714   0.808   6.371
 4868SOL    HW131746   3.628   0.825   6.409
 4868SOL    HW231747   3.727   0.714   6.381
 4869SOL     OW31748   6.092   1.558   2.044
 4869SOL    HW131749   6.141   1.537   2.124
 4869SOL    HW231750   6.043   1.638   2.067
 4870SOL     OW31751   5.525   1.045   7.862
 4870SOL    HW131752   5.454   1.007   7.809
 4870SOL    HW231753   5.490   1.127   7.895
 4871SOL     OW31754   3.494   3.509   7.384
 4871SOL    HW131755   3.404   3.502   7.416
 4871SOL    HW231756   3.490   3.472   7.295
 4872SOL     OW31757   2.200   0.180   2.692
 4872SOL    HW131758   2.147   0.169   2.613
 4872SOL    HW231759   2.287   0.201   2.659
 4873SOL     OW31760   2.321   4.705   1.837
 4873SOL    HW131761   2.292   4.719   1.927
 4873SOL    HW231762   2.403   4.754   1.830
 4874SOL     OW31763   3.142   2.320   2.318
 4874SOL    HW131764   3.147   2.371   2.237
 4874SOL    HW231765   3.053   2.286   2.319
 4875SOL     OW31766   1.051   2.667   0.219
 4875SOL    HW131767   1.128   2.618   0.248
 4875SOL    HW231768   1.078   2.706   0.136
 4876SOL     OW31769   2.052   5.094   6.264
 4876SOL    HW131770   1.982   5.158   6.251
 4876SOL    HW231771   2.053   5.042   6.183
 4877SOL     OW31772   5.443   3.540   1.928
 4877SOL    HW131773   5.504   3.467   1.930
 4877SOL    HW231774   5.408   3.545   2.017
 4878SOL     OW31775   2.674   0.356   1.645
 4878SOL    HW131776   2.679   0.316   1.732
 4878SOL    HW231777   2.668   0.281   1.585
 4879SOL     OW31778   2.837   4.567   0.050
 4879SOL    HW131779   2.742   4.573   0.040
 4879SOL    HW231780   2.869   4.547  -0.039
 4880SOL     OW31781   2.085   1.514   8.049
 4880SOL    HW131782   2.085   1.604   8.017
 4880SOL    HW231783   2.016   1.513   8.115
 4881SOL     OW31784   6.211   2.536   5.714
 4881SOL    HW131785   6.226   2.604   5.648
 4881SOL    HW231786   6.267   2.562   5.787
 4882SOL     OW31787   2.862   4.654   7.852
 4882SOL    HW131788   2.886   4.617   7.767
 4882SOL    HW231789   2.798   4.722   7.831
 4883SOL     OW31790   1.011   1.813   7.975
 4883SOL    HW131791   0.967   1.897   7.987
 4883SOL    HW231792   1.082   1.832   7.913
 4884SOL     OW31793   1.396   0.037   6.244
 4884SOL    HW131794   1.351   0.118   6.219
 4884SOL    HW231795   1.395  -0.016   6.164
 4885SOL     OW31796   2.244   5.693   0.169
 4885SOL    HW131797   2.278   5.782   0.178
 4885SOL    HW231798   2.315   5.637   0.201
 4886SOL     OW31799   5.572   3.727   7.077
 4886SOL    HW131800   5.589   3.821   7.073
 4886SOL    HW231801   5.644   3.688   7.027
 4887SOL     OW31802   5.860   0.417   0.607
 4887SOL    HW131803   5.869   0.512   0.596
 4887SOL    HW231804   5.950   0.385   0.617
 4888SOL     OW31805   3.453   3.357   7.148
 4888SOL    HW131806   3.366   3.319   7.160
 4888SOL    HW231807   3.458   3.373   7.053
 4889SOL     OW31808   3.684   0.785   6.810
 4889SOL    HW131809   3.589   0.781   6.799
 4889SOL    HW231810   3.698   0.858   6.870
 4890SOL     OW31811   6.292   2.022   6.220
 4890SOL    HW131812   6.292   2.016   6.124
 4890SOL    HW231813   6.199   2.026   6.243
 4891SOL     OW31814   3.261   2.539   0.130
 4891SOL    HW131815   3.320   2.588   0.073
 4891SOL    HW231816   3.173   2.565   0.102
 4892SOL     OW31817   5.210   0.034   0.363
 4892SOL    HW131818   5.127  -0.003   0.332
 4892SOL    HW231819   5.209   0.018   0.457
 4893SOL     OW31820   4.633   0.401   6.279
 4893SOL    HW131821   4.657   0.444   6.198
 4893SOL    HW231822   4.678   0.317   6.276
 4894SOL     OW31823   4.341   0.797   0.565
 4894SOL    HW131824   4.363   0.773   0.475
 4894SOL    HW231825   4.419   0.775   0.616
 4895SOL     OW31826   6.311   0.385   1.771
 4895SOL    HW131827   6.382   0.407   1.832
 4895SOL    HW231828   6.315   0.289   1.763
 4896SOL     OW31829   5.474   2.371   0.056
 4896SOL    HW131830   5.393   2.336   0.092
 4896SOL    HW231831   5.518   2.296   0.018
 4897SOL     OW31832   5.879   3.869   0.081
 4897SOL    HW131833   5.872   3.943   0.021
 4897SOL    HW231834   5.948   3.815   0.044
 4898SOL     OW31835   1.240   5.302   7.627
 4898SOL    HW131836   1.243   5.331   7.536
 4898SOL    HW231837   1.153   5.265   7.638
 4899SOL     OW31838   5.069   0.935   6.013
 4899SOL    HW131839   5.139   0.966   6.070
 4899SOL    HW231840   5.009   1.009   6.006
 4900SOL     OW31841   3.068   2.841   6.985
 4900SOL    HW131842   3.010   2.766   6.977
 4900SOL    HW231843   3.049   2.895   6.908
 4901SOL     OW31844   5.156   3.739   7.011
 4901SOL    HW131845   5.239   3.709   6.975
 4901SOL    HW231846   5.169   3.738   7.106
 4902SOL     OW31847   3.117   6.068   2.344
 4902SOL    HW131848   3.042   6.088   2.399
 4902SOL    HW231849   3.088   5.996   2.289
 4903SOL     OW31850   2.534   3.063   6.459
 4903SOL    HW131851   2.505   3.084   6.370
 4903SOL    HW231852   2.568   3.146   6.493
 4904SOL     OW31853   5.541   0.701   1.429
 4904SOL    HW131854   5.601   0.734   1.363
 4904SOL    HW231855   5.598   0.660   1.495
 4905SOL     OW31856   1.683   3.664   1.102
 4905SOL    HW131857   1.676   3.695   1.193
 4905SOL    HW231858   1.658   3.740   1.049
 4906SOL     OW31859   4.278   2.880   7.958
 4906SOL    HW131860   4.362   2.874   7.913
 4906SOL    HW231861   4.271   2.972   7.985
 4907SOL     OW31862   4.812   4.511   6.679
 4907SOL    HW131863   4.865   4.468   6.611
 4907SOL    HW231864   4.750   4.565   6.630
 4908SOL     OW31865   5.757   3.294   7.031
 4908SOL    HW131866   5.778   3.223   7.092
 4908SOL    HW231867   5.663   3.307   7.039
 4909SOL     OW31868   1.113   0.732   7.624
 4909SOL    HW131869   1.070   0.682   7.694
 4909SOL    HW231870   1.162   0.800   7.671
 4910SOL     OW31871   0.282   3.716   1.134
 4910SOL    HW131872   0.313   3.634   1.173
 4910SOL    HW231873   0.360   3.772   1.133
 4911SOL     OW31874   1.137   1.523   7.786
 4911SOL    HW131875   1.049   1.553   7.804
 4911SOL    HW231876   1.194   1.581   7.836
 4912SOL     OW31877   2.026   3.328   6.936
 4912SOL    HW131878   1.959   3.384   6.975
 4912SOL    HW231879   1.990   3.307   6.849
 4913SOL     OW31880   2.118   2.705   7.406
 4913SOL    HW131881   2.158   2.631   7.452
 4913SOL    HW231882   2.184   2.774   7.409
 4914SOL     OW31883   5.652   2.379   0.315
 4914SOL    HW131884   5.673   2.398   0.223
 4914SOL    HW231885   5.640   2.284   0.317
 4915SOL     OW31886   4.118   4.582   5.764
 4915SOL    HW131887   4.205   4.607   5.733
 4915SOL    HW231888   4.123   4.487   5.776
 4916SOL     OW31889   4.877   4.922   1.967
 4916SOL    HW131890   4.947   4.883   2.020
 4916SOL    HW231891   4.923   4.980   1.906
 4917SOL     OW31892   4.475   1.375   7.575
 4917SOL    HW131893   4.418   1.325   7.634
 4917SOL    HW231894   4.422   1.391   7.498
 4918SOL     OW31895   1.611   2.295   0.869
 4918SOL    HW131896   1.578   2.316   0.782
 4918SOL    HW231897   1.683   2.233   0.854
 4919SOL     OW31898   3.956   4.327   6.231
 4919SOL    HW131899   4.030   4.366   6.184
 4919SOL    HW231900   3.879   4.353   6.182
 4920SOL     OW31901   3.175   0.682   2.111
 4920SOL    HW131902   3.180   0.698   2.205
 4920SOL    HW231903   3.230   0.750   2.072
 4921SOL     OW31904   0.053   2.533   6.727
 4921SOL    HW131905   0.077   2.505   6.638
 4921SOL    HW231906  -0.014   2.470   6.755
 4922SOL     OW31907   3.066   4.543   0.951
 4922SOL    HW131908   3.043   4.619   0.898
 4922SOL    HW231909   3.065   4.469   0.889
 4923SOL     OW31910   4.100   4.683   2.022
 4923SOL    HW131911   4.143   4.615   2.074
 4923SOL    HW231912   4.171   4.736   1.987
 4924SOL     OW31913   4.649   2.048   0.892
 4924SOL    HW131914   4.644   1.955   0.916
 4924SOL    HW231915   4.687   2.090   0.970
 4925SOL     OW31916   6.039   2.895   2.022
 4925SOL    HW131917   5.972   2.904   2.090
 4925SOL    HW231918   6.120   2.920   2.065
 4926SOL     OW31919   4.443   4.966   0.624
 4926SOL    HW131920   4.363   4.914   0.624
 4926SOL    HW231921   4.455   4.993   0.533
 4927SOL     OW31922   6.345   4.638   2.569
 4927SOL    HW131923   6.252   4.646   2.592
 4927SOL    HW231924   6.354   4.548   2.537
 4928SOL     OW31925   4.166   5.326   1.687
 4928SOL    HW131926   4.123   5.407   1.658
 4928SOL    HW231927   4.224   5.302   1.615
 4929SOL     OW31928   4.069   0.340   5.348
 4929SOL    HW131929   4.109   0.369   5.430
 4929SOL    HW231930   4.138   0.353   5.283
 4930SOL     OW31931   0.528   2.844   7.041
 4930SOL    HW131932   0.439   2.834   7.007
 4930SOL    HW231933   0.547   2.937   7.032
 4931SOL     OW31934   3.271   1.572   1.743
 4931SOL    HW131935   3.295   1.498   1.686
 4931SOL    HW231936   3.179   1.556   1.766
 4932SOL     OW31937   5.257   6.253   0.945
 4932SOL    HW131938   5.184   6.306   0.913
 4932SOL    HW231939   5.242   6.249   1.040
 4933SOL     OW31940   5.900   4.350   1.288
 4933SOL    HW131941   5.992   4.324   1.287
 4933SOL    HW231942   5.863   4.306   1.365
 4934SOL     OW31943   0.097   2.454   6.465
 4934SOL    HW131944   0.107   2.380   6.405
 4934SOL    HW231945   0.166   2.515   6.438
 4935SOL     OW31946   0.233   1.900   1.685
 4935SOL    HW131947   0.289   1.917   1.761
 4935SOL    HW231948   0.280   1.833   1.635
 4936SOL     OW31949   2.288   0.747   1.561
 4936SOL    HW131950   2.246   0.712   1.482
 4936SOL    HW231951   2.348   0.678   1.589
 4937SOL     OW31952   4.024   2.838   7.527
 4937SOL    HW131953   3.969   2.882   7.591
 4937SOL    HW231954   4.077   2.776   7.578
 4938SOL     OW31955   4.230   1.751   6.132
 4938SOL    HW131956   4.235   1.742   6.037
 4938SOL    HW231957   4.137   1.759   6.151
 4939SOL     OW31958   5.206   3.243   6.628
 4939SOL    HW131959   5.216   3.337   6.642
 4939SOL    HW231960   5.112   3.227   6.637
 4940SOL     OW31961   1.353   3.531   7.811
 4940SOL    HW131962   1.318   3.559   7.726
 4940SOL    HW231963   1.279   3.538   7.871
 4941SOL     OW31964   1.685   6.216   0.875
 4941SOL    HW131965   1.633   6.268   0.814
 4941SOL    HW231966   1.721   6.281   0.936
 4942SOL     OW31967   0.347   0.535   0.452
 4942SOL    HW131968   0.375   0.583   0.373
 4942SOL    HW231969   0.429   0.514   0.497
 4943SOL     OW31970   5.892   3.387   6.826
 4943SOL    HW131971   5.844   3.361   6.904
 4943SOL    HW231972   5.964   3.325   6.820
 4944SOL     OW31973   5.532   3.554   0.164
 4944SOL    HW131974   5.530   3.470   0.209
 4944SOL    HW231975   5.485   3.614   0.222
 4945SOL     OW31976   2.674   3.749   7.516
 4945SOL    HW131977   2.721   3.714   7.593
 4945SOL    HW231978   2.744   3.770   7.454
 4946SOL     OW31979   4.724   3.009   2.129
 4946SOL    HW131980   4.716   3.093   2.082
 4946SOL    HW231981   4.730   2.944   2.060
 4947SOL     OW31982   5.211   3.930   2.201
 4947SOL    HW131983   5.218   3.871   2.276
 4947SOL    HW231984   5.287   3.988   2.209
 4948SOL     OW31985   5.850   2.750   7.592
 4948SOL    HW131986   5.929   2.705   7.561
 4948SOL    HW231987   5.778   2.701   7.552
 4949SOL     OW31988   1.126   1.615   0.729
 4949SOL    HW131989   1.076   1.615   0.647
 4949SOL    HW231990   1.081   1.678   0.785
 4950SOL     OW31991   5.778   5.672   0.228
 4950SOL    HW131992   5.853   5.700   0.280
 4950SOL    HW231993   5.753   5.751   0.179
 4951SOL     OW31994   1.150   4.308   1.911
 4951SOL    HW131995   1.089   4.235   1.920
 4951SOL    HW231996   1.101   4.384   1.942
 4952SOL     OW31997   5.108   5.920   2.939
 4952SOL    HW131998   5.131   5.954   2.852
 4952SOL    HW231999   5.013   5.904   2.934
 4953SOL     OW32000   5.524   3.250   7.200
 4953SOL    HW132001   5.525   3.299   7.283
 4953SOL    HW232002   5.495   3.162   7.224
 4954SOL     OW32003   5.927   0.834   6.973
 4954SOL    HW132004   5.932   0.837   6.877
 4954SOL    HW232005   5.977   0.911   7.002
 4955SOL     OW32006   2.913   2.241   0.542
 4955SOL    HW132007   2.872   2.199   0.466
 4955SOL    HW232008   2.988   2.288   0.506
 4956SOL     OW32009   5.171   0.281   1.117
 4956SOL    HW132010   5.253   0.285   1.067
 4956SOL    HW232011   5.112   0.229   1.063
 4957SOL     OW32012   4.030   1.429   6.275
 4957SOL    HW132013   3.999   1.351   6.321
 4957SOL    HW232014   4.124   1.415   6.265
 4958SOL     OW32015   0.863   0.993   1.312
 4958SOL    HW132016   0.813   0.913   1.318
 4958SOL    HW232017   0.905   1.002   1.398
 4959SOL     OW32018   1.407   4.202   2.658
 4959SOL    HW132019   1.471   4.271   2.638
 4959SOL    HW232020   1.364   4.185   2.574
 4960SOL     OW32021   3.380   5.733   6.919
 4960SOL    HW132022   3.393   5.695   6.832
 4960SOL    HW232023   3.367   5.827   6.903
 4961SOL     OW32024   1.309   4.870   7.750
 4961SOL    HW132025   1.361   4.881   7.670
 4961SOL    HW232026   1.361   4.914   7.818
 4962SOL     OW32027   3.539   1.957   6.171
 4962SOL    HW132028   3.612   1.923   6.222
 4962SOL    HW232029   3.524   1.891   6.104
 4963SOL     OW32030   0.891   5.215   1.436
 4963SOL    HW132031   0.924   5.168   1.513
 4963SOL    HW232032   0.816   5.264   1.469
 4964SOL     OW32033   2.027   5.022   7.692
 4964SOL    HW132034   1.935   5.032   7.717
 4964SOL    HW232035   2.024   4.991   7.601
 4965SOL     OW32036   5.976   3.483   1.181
 4965SOL    HW132037   5.939   3.404   1.142
 4965SOL    HW232038   6.006   3.534   1.106
 4966SOL     OW32039   2.825   4.301   0.899
 4966SOL    HW132040   2.821   4.331   0.990
 4966SOL    HW232041   2.737   4.269   0.880
 4967SOL     OW32042   0.529   1.262   7.247
 4967SOL    HW132043   0.474   1.211   7.307
 4967SOL    HW232044   0.466   1.311   7.194
 4968SOL     OW32045   1.736   0.561   2.346
 4968SOL    HW132046   1.661   0.610   2.313
 4968SOL    HW232047   1.725   0.562   2.441
 4969SOL     OW32048   5.033   1.747   0.741
 4969SOL    HW132049   5.003   1.656   0.730
 4969SOL    HW232050   4.967   1.800   0.697
 4970SOL     OW32051   1.491   4.994   8.003
 4970SOL    HW132052   1.481   5.070   7.946
 4970SOL    HW232053   1.550   5.025   8.073
 4971SOL     OW32054   4.624   0.218   7.986
 4971SOL    HW132055   4.594   0.301   8.023
 4971SOL    HW232056   4.629   0.235   7.892
 4972SOL     OW32057   1.292   2.719   7.464
 4972SOL    HW132058   1.351   2.787   7.495
 4972SOL    HW232059   1.256   2.754   7.383
 4973SOL     OW32060   5.721   4.285   7.942
 4973SOL    HW132061   5.743   4.320   8.028
 4973SOL    HW232062   5.650   4.222   7.958
 4974SOL     OW32063   0.914   4.847   6.663
 4974SOL    HW132064   0.945   4.762   6.693
 4974SOL    HW232065   0.896   4.835   6.570
 4975SOL     OW32066   4.110   3.416   5.491
 4975SOL    HW132067   4.123   3.504   5.454
 4975SOL    HW232068   4.149   3.420   5.578
 4976SOL     OW32069   5.185   4.542   1.133
 4976SOL    HW132070   5.191   4.605   1.061
 4976SOL    HW232071   5.185   4.457   1.090
 4977SOL     OW32072   1.305   4.600   6.267
 4977SOL    HW132073   1.299   4.674   6.327
 4977SOL    HW232074   1.311   4.639   6.180
 4978SOL     OW32075   3.144   3.261   1.144
 4978SOL    HW132076   3.094   3.297   1.070
 4978SOL    HW232077   3.172   3.338   1.193
 4979SOL     OW32078   0.140   0.618   7.675
 4979SOL    HW132079   0.065   0.558   7.677
 4979SOL    HW232080   0.141   0.657   7.763
 4980SOL     OW32081   1.604   3.719   1.536
 4980SOL    HW132082   1.513   3.738   1.559
 4980SOL    HW232083   1.599   3.638   1.485
 4981SOL     OW32084   3.859   4.911   1.479
 4981SOL    HW132085   3.835   4.962   1.556
 4981SOL    HW232086   3.780   4.908   1.426
 4982SOL     OW32087   4.745   5.351   1.985
 4982SOL    HW132088   4.693   5.432   1.989
 4982SOL    HW232089   4.789   5.356   1.900
 4983SOL     OW32090   4.970   5.492   6.480
 4983SOL    HW132091   4.994   5.433   6.409
 4983SOL    HW232092   4.977   5.579   6.441
 4984SOL     OW32093   2.795   5.662   6.006
 4984SOL    HW132094   2.720   5.722   6.007
 4984SOL    HW232095   2.778   5.603   5.932
 4985SOL     OW32096   3.540   0.879   1.407
 4985SOL    HW132097   3.469   0.861   1.345
 4985SOL    HW232098   3.508   0.952   1.460
 4986SOL     OW32099   5.646   1.093   0.512
 4986SOL    HW132100   5.637   1.000   0.530
 4986SOL    HW232101   5.563   1.131   0.539
 4987SOL     OW32102   0.834   3.067   0.971
 4987SOL    HW132103   0.757   3.100   0.924
 4987SOL    HW232104   0.822   2.972   0.974
 4988SOL     OW32105   5.467   2.594   1.358
 4988SOL    HW132106   5.445   2.511   1.399
 4988SOL    HW232107   5.562   2.601   1.367
 4989SOL     OW32108   3.179   6.017   7.677
 4989SOL    HW132109   3.242   6.008   7.748
 4989SOL    HW232110   3.197   6.102   7.638
 4990SOL     OW32111   2.658   1.096   5.975
 4990SOL    HW132112   2.660   1.001   5.977
 4990SOL    HW232113   2.712   1.119   5.900
 4991SOL     OW32114   3.500   1.718   1.664
 4991SOL    HW132115   3.495   1.758   1.577
 4991SOL    HW232116   3.413   1.681   1.679
 4992SOL     OW32117   3.804   6.249   0.416
 4992SOL    HW132118   3.783   6.159   0.443
 4992SOL    HW232119   3.776   6.253   0.324
 4993SOL     OW32120   4.207   3.126   6.185
 4993SOL    HW132121   4.218   3.099   6.094
 4993SOL    HW232122   4.295   3.146   6.216
 4994SOL     OW32123   6.300   5.862   1.472
 4994SOL    HW132124   6.354   5.886   1.397
 4994SOL    HW232125   6.301   5.940   1.528
 4995SOL     OW32126   6.103   5.121   0.357
 4995SOL    HW132127   6.181   5.145   0.406
 4995SOL    HW232128   6.042   5.088   0.423
 4996SOL     OW32129   6.263   2.164   0.136
 4996SOL    HW132130   6.313   2.226   0.189
 4996SOL    HW232131   6.179   2.207   0.122
 4997SOL     OW32132   0.837   3.786   1.109
 4997SOL    HW132133   0.856   3.744   1.026
 4997SOL    HW232134   0.838   3.880   1.090
 4998SOL     OW32135   3.217   2.974   6.531
 4998SOL    HW132136   3.220   2.881   6.557
 4998SOL    HW232137   3.308   3.003   6.536
 4999SOL     OW32138   5.548   2.515   6.835
 4999SOL    HW132139   5.612   2.569   6.789
 4999SOL    HW232140   5.525   2.446   6.772
 5000SOL     OW32141   4.071   4.063   7.886
 5000SOL    HW132142   4.090   4.031   7.974
 5000SOL    HW232143   4.044   3.984   7.838
 5001SOL     OW32144   0.391   1.286   0.596
 5001SOL    HW132145   0.323   1.332   0.546
 5001SOL    HW232146   0.356   1.281   0.685
 5002SOL     OW32147   4.061   1.562   7.964
 5002SOL    HW132148   4.013   1.623   7.908
 5002SOL    HW232149   4.022   1.573   8.051
 5003SOL     OW32150   6.211   6.162   1.237
 5003SOL    HW132151   6.269   6.232   1.206
 5003SOL    HW232152   6.270   6.090   1.259
 5004SOL     OW32153   1.827   2.153   2.138
 5004SOL    HW132154   1.793   2.236   2.171
 5004SOL    HW232155   1.913   2.144   2.180
 5005SOL     OW32156   0.384   1.303   6.920
 5005SOL    HW132157   0.299   1.263   6.936
 5005SOL    HW232158   0.398   1.293   6.826
 5006SOL     OW32159   5.582   0.364   6.404
 5006SOL    HW132160   5.509   0.341   6.347
 5006SOL    HW232161   5.652   0.391   6.344
 5007SOL     OW32162   1.667   6.136   1.561
 5007SOL    HW132163   1.669   6.056   1.614
 5007SOL    HW232164   1.749   6.134   1.512
 5008SOL     OW32165   3.163   2.696   6.550
 5008SOL    HW132166   3.232   2.682   6.614
 5008SOL    HW232167   3.196   2.655   6.470
 5009SOL     OW32168   3.439   2.317   0.629
 5009SOL    HW132169   3.430   2.241   0.571
 5009SOL    HW232170   3.366   2.309   0.691
 5010SOL     OW32171   1.020   0.949   2.855
 5010SOL    HW132172   0.925   0.944   2.846
 5010SOL    HW232173   1.036   1.024   2.912
 5011SOL     OW32174   5.244   2.812   0.060
 5011SOL    HW132175   5.316   2.766   0.101
 5011SOL    HW232176   5.223   2.884   0.119
 5012SOL     OW32177   2.227   1.303   0.806
 5012SOL    HW132178   2.300   1.362   0.787
 5012SOL    HW232179   2.217   1.252   0.725
 5013SOL     OW32180   0.359   0.548   7.137
 5013SOL    HW132181   0.424   0.490   7.098
 5013SOL    HW232182   0.293   0.490   7.174
 5014SOL     OW32183   0.767   2.978   5.702
 5014SOL    HW132184   0.797   2.928   5.778
 5014SOL    HW232185   0.674   2.992   5.718
 5015SOL     OW32186   2.818   1.300   0.452
 5015SOL    HW132187   2.899   1.256   0.478
 5015SOL    HW232188   2.847   1.379   0.407
 5016SOL     OW32189   3.959   5.497   0.062
 5016SOL    HW132190   3.951   5.578   0.113
 5016SOL    HW232191   3.895   5.508  -0.009
 5017SOL     OW32192   3.749   1.691   1.118
 5017SOL    HW132193   3.665   1.732   1.137
 5017SOL    HW232194   3.810   1.764   1.108
 5018SOL     OW32195   6.152   1.279   0.855
 5018SOL    HW132196   6.153   1.270   0.950
 5018SOL    HW232197   6.086   1.346   0.838
 5019SOL     OW32198   3.832   5.816   7.640
 5019SOL    HW132199   3.818   5.727   7.670
 5019SOL    HW232200   3.857   5.864   7.719
 5020SOL     OW32201   6.352   3.120   1.972
 5020SOL    HW132202   6.370   3.028   1.989
 5020SOL    HW232203   6.281   3.143   2.033
 5021SOL     OW32204   1.999   5.365   0.832
 5021SOL    HW132205   2.073   5.369   0.893
 5021SOL    HW232206   1.962   5.278   0.844
 5022SOL     OW32207   1.937   5.634   7.835
 5022SOL    HW132208   1.939   5.658   7.928
 5022SOL    HW232209   2.029   5.635   7.808
 5023SOL     OW32210   4.513   3.572   7.928
 5023SOL    HW132211   4.577   3.609   7.866
 5023SOL    HW232212   4.524   3.623   8.008
 5024SOL     OW32213   4.106   5.100   7.053
 5024SOL    HW132214   4.117   5.011   7.019
 5024SOL    HW232215   4.096   5.089   7.147
 5025SOL     OW32216   2.469   4.906   1.656
 5025SOL    HW132217   2.383   4.945   1.642
 5025SOL    HW232218   2.525   4.979   1.683
 5026SOL     OW32219   0.346   2.334   0.733
 5026SOL    HW132220   0.434   2.364   0.710
 5026SOL    HW232221   0.335   2.359   0.825
 5027SOL     OW32222   0.711   4.311   1.162
 5027SOL    HW132223   0.787   4.324   1.218
 5027SOL    HW232224   0.678   4.224   1.184
 5028SOL     OW32225   4.482   1.921   5.472
 5028SOL    HW132226   4.433   1.889   5.396
 5028SOL    HW232227   4.463   1.857   5.541
 5029SOL     OW32228   6.290   3.451   6.827
 5029SOL    HW132229   6.223   3.383   6.816
 5029SOL    HW232230   6.242   3.527   6.861
 5030SOL     OW32231   3.701   4.855   2.196
 5030SOL    HW132232   3.637   4.917   2.160
 5030SOL    HW232233   3.654   4.809   2.265
 5031SOL     OW32234   5.442   3.565   7.277
 5031SOL    HW132235   5.486   3.550   7.361
 5031SOL    HW232236   5.507   3.610   7.223
 5032SOL     OW32237   0.820   1.553   7.709
 5032SOL    HW132238   0.814   1.646   7.686
 5032SOL    HW232239   0.732   1.518   7.692
 5033SOL     OW32240   5.519   4.409   1.575
 5033SOL    HW132241   5.455   4.421   1.505
 5033SOL    HW232242   5.555   4.322   1.561
 5034SOL     OW32243   0.035   1.054   6.561
 5034SOL    HW132244   0.081   1.014   6.487
 5034SOL    HW232245  -0.054   1.021   6.555
 5035SOL     OW32246   4.765   0.779   7.765
 5035SOL    HW132247   4.839   0.718   7.764
 5035SOL    HW232248   4.732   0.777   7.676
 5036SOL     OW32249   1.053   0.323   7.353
 5036SOL    HW132250   1.141   0.306   7.319
 5036SOL    HW232251   1.068   0.377   7.431
 5037SOL     OW32252   5.168   1.580   6.793
 5037SOL    HW132253   5.184   1.592   6.699
 5037SOL    HW232254   5.077   1.552   6.799
 5038SOL     OW32255   1.224   3.946   1.764
 5038SOL    HW132256   1.313   3.927   1.734
 5038SOL    HW232257   1.221   3.916   1.854
 5039SOL     OW32258   1.895   2.460   8.052
 5039SOL    HW132259   1.825   2.511   8.093
 5039SOL    HW232260   1.882   2.473   7.958
 5040SOL     OW32261   3.506   0.493   7.052
 5040SOL    HW132262   3.494   0.582   7.087
 5040SOL    HW232263   3.475   0.499   6.962
 5041SOL     OW32264   1.772   3.706   7.621
 5041SOL    HW132265   1.760   3.748   7.536
 5041SOL    HW232266   1.684   3.679   7.648
 5042SOL     OW32267   0.349   4.786   6.316
 5042SOL    HW132268   0.279   4.737   6.272
 5042SOL    HW232269   0.334   4.877   6.291
 5043SOL     OW32270   0.616   0.390   6.194
 5043SOL    HW132271   0.595   0.462   6.135
 5043SOL    HW232272   0.532   0.346   6.211
 5044SOL     OW32273   1.332   2.184   1.155
 5044SOL    HW132274   1.416   2.219   1.186
 5044SOL    HW232275   1.352   2.146   1.069
 5045SOL     OW32276   0.247   6.342   6.494
 5045SOL    HW132277   0.173   6.284   6.511
 5045SOL    HW232278   0.255   6.343   6.399
 5046SOL     OW32279   1.690   1.657   1.748
 5046SOL    HW132280   1.764   1.606   1.715
 5046SOL    HW232281   1.705   1.745   1.713
 5047SOL     OW32282   3.657   5.862   0.999
 5047SOL    HW132283   3.664   5.953   1.026
 5047SOL    HW232284   3.666   5.812   1.080
 5048SOL     OW32285   1.402   3.589   0.682
 5048SOL    HW132286   1.440   3.670   0.647
 5048SOL    HW232287   1.473   3.525   0.675
 5049SOL     OW32288   1.968   0.337   1.929
 5049SOL    HW132289   2.049   0.384   1.946
 5049SOL    HW232290   1.907   0.403   1.897
 5050SOL     OW32291   2.700   1.987   6.431
 5050SOL    HW132292   2.665   1.920   6.371
 5050SOL    HW232293   2.661   2.069   6.399
 5051SOL     OW32294   2.611   4.926   1.241
 5051SOL    HW132295   2.623   4.837   1.208
 5051SOL    HW232296   2.529   4.955   1.201
 5052SOL     OW32297   2.592   0.414   7.899
 5052SOL    HW132298   2.599   0.320   7.914
 5052SOL    HW232299   2.500   0.434   7.913
 5053SOL     OW32300   0.579   0.197   0.985
 5053SOL    HW132301   0.650   0.177   1.046
 5053SOL    HW232302   0.614   0.172   0.899
 5054SOL     OW32303   5.566   0.077   0.443
 5054SOL    HW132304   5.645   0.079   0.498
 5054SOL    HW232305   5.527  -0.008   0.460
 5055SOL     OW32306   0.719   5.549   0.477
 5055SOL    HW132307   0.674   5.572   0.558
 5055SOL    HW232308   0.811   5.568   0.495
 5056SOL     OW32309   4.104   3.924   6.962
 5056SOL    HW132310   4.194   3.919   6.931
 5056SOL    HW232311   4.052   3.887   6.891
 5057SOL     OW32312   5.834   5.979   5.674
 5057SOL    HW132313   5.803   5.892   5.697
 5057SOL    HW232314   5.896   6.002   5.744
 5058SOL     OW32315   0.411   1.836   7.011
 5058SOL    HW132316   0.382   1.877   7.093
 5058SOL    HW232317   0.391   1.743   7.021
 5059SOL     OW32318   6.185   2.808   0.660
 5059SOL    HW132319   6.221   2.752   0.591
 5059SOL    HW232320   6.189   2.755   0.739
 5060SOL     OW32321   0.058   4.082   0.725
 5060SOL    HW132322   0.122   4.153   0.727
 5060SOL    HW232323   0.059   4.046   0.814
 5061SOL     OW32324   1.704   4.942   0.732
 5061SOL    HW132325   1.736   4.928   0.643
 5061SOL    HW232326   1.609   4.953   0.722
 5062SOL     OW32327   0.249   0.672   8.027
 5062SOL    HW132328   0.275   0.761   8.051
 5062SOL    HW232329   0.186   0.646   8.094
 5063SOL     OW32330   0.176   3.726   0.615
 5063SOL    HW132331   0.191   3.815   0.646
 5063SOL    HW232332   0.245   3.711   0.550
 5064SOL     OW32333   5.912   2.921   1.387
 5064SOL    HW132334   5.861   2.993   1.424
 5064SOL    HW232335   5.974   2.897   1.455
 5065SOL     OW32336   0.993   5.793   0.947
 5065SOL    HW132337   1.055   5.776   1.018
 5065SOL    HW232338   1.047   5.829   0.876
 5066SOL     OW32339   3.434   0.992   0.547
 5066SOL    HW132340   3.379   0.915   0.532
 5066SOL    HW232341   3.379   1.052   0.597
 5067SOL     OW32342   3.738   5.438   7.007
 5067SOL    HW132343   3.679   5.364   6.995
 5067SOL    HW232344   3.817   5.400   7.045
 5068SOL     OW32345   4.143   3.260   1.360
 5068SOL    HW132346   4.099   3.320   1.300
 5068SOL    HW232347   4.072   3.212   1.402
 5069SOL     OW32348   5.446   6.257   0.756
 5069SOL    HW132349   5.426   6.348   0.734
 5069SOL    HW232350   5.392   6.237   0.832
 5070SOL     OW32351   4.983   1.480   0.720
 5070SOL    HW132352   4.994   1.404   0.777
 5070SOL    HW232353   5.058   1.477   0.660
 5071SOL     OW32354   0.661   1.253   8.034
 5071SOL    HW132355   0.740   1.239   7.982
 5071SOL    HW232356   0.689   1.307   8.107
 5072SOL     OW32357   3.126   2.340   1.698
 5072SOL    HW132358   3.184   2.277   1.656
 5072SOL    HW232359   3.132   2.320   1.792
 5073SOL     OW32360   3.017   3.157   7.593
 5073SOL    HW132361   3.042   3.235   7.643
 5073SOL    HW232362   2.939   3.183   7.544
 5074SOL     OW32363   5.368   5.514   1.462
 5074SOL    HW132364   5.320   5.474   1.535
 5074SOL    HW232365   5.458   5.484   1.472
 5075SOL     OW32366   3.738   3.115   2.312
 5075SOL    HW132367   3.650   3.080   2.302
 5075SOL    HW232368   3.797   3.043   2.289
 5076SOL     OW32369   2.941   3.525   1.686
 5076SOL    HW132370   3.009   3.461   1.709
 5076SOL    HW232371   2.935   3.581   1.764
 5077SOL     OW32372   4.131   1.343   7.087
 5077SOL    HW132373   4.105   1.403   7.156
 5077SOL    HW232374   4.118   1.393   7.006
 5078SOL     OW32375   3.329   5.827   1.054
 5078SOL    HW132376   3.303   5.747   1.100
 5078SOL    HW232377   3.424   5.821   1.046
 5079SOL     OW32378   2.809   6.073   2.229
 5079SOL    HW132379   2.820   6.141   2.296
 5079SOL    HW232380   2.798   6.122   2.148
 5080SOL     OW32381   5.031   1.981   1.432
 5080SOL    HW132382   5.089   1.905   1.433
 5080SOL    HW232383   4.979   1.972   1.511
 5081SOL     OW32384   0.770   2.631   7.820
 5081SOL    HW132385   0.781   2.724   7.801
 5081SOL    HW232386   0.770   2.625   7.915
 5082SOL     OW32387   4.775   2.626   6.481
 5082SOL    HW132388   4.831   2.549   6.473
 5082SOL    HW232389   4.786   2.673   6.399
 5083SOL     OW32390   5.630   1.375   7.619
 5083SOL    HW132391   5.698   1.383   7.552
 5083SOL    HW232392   5.636   1.456   7.669
 5084SOL     OW32393   4.527   0.006   0.574
 5084SOL    HW132394   4.614   0.014   0.535
 5084SOL    HW232395   4.543  -0.014   0.666
 5085SOL     OW32396   6.201   0.726   1.719
 5085SOL    HW132397   6.165   0.797   1.667
 5085SOL    HW232398   6.239   0.666   1.656
 5086SOL     OW32399   2.038   4.524   6.529
 5086SOL    HW132400   2.129   4.552   6.524
 5086SOL    HW232401   2.033   4.446   6.474
 5087SOL     OW32402   2.282   4.144   6.512
 5087SOL    HW132403   2.305   4.054   6.535
 5087SOL    HW232404   2.359   4.195   6.538
 5088SOL     OW32405   5.308   1.340   6.824
 5088SOL    HW132406   5.285   1.317   6.734
 5088SOL    HW232407   5.260   1.420   6.841
 5089SOL     OW32408   3.985   0.454   0.831
 5089SOL    HW132409   4.006   0.372   0.875
 5089SOL    HW232410   4.068   0.483   0.793
 5090SOL     OW32411   2.193   2.513   7.099
 5090SOL    HW132412   2.189   2.436   7.156
 5090SOL    HW232413   2.241   2.483   7.021
 5091SOL     OW32414   1.290   5.067   2.249
 5091SOL    HW132415   1.305   5.138   2.186
 5091SOL    HW232416   1.361   5.005   2.231
 5092SOL     OW32417   2.633   0.706   0.431
 5092SOL    HW132418   2.683   0.765   0.487
 5092SOL    HW232419   2.623   0.753   0.349
 5093SOL     OW32420   4.655   3.455   7.253
 5093SOL    HW132421   4.714   3.466   7.327
 5093SOL    HW232422   4.640   3.544   7.220
 5094SOL     OW32423   2.982   4.552   0.285
 5094SOL    HW132424   3.076   4.551   0.266
 5094SOL    HW232425   2.941   4.527   0.202
 5095SOL     OW32426   3.756   1.481   7.124
 5095SOL    HW132427   3.669   1.472   7.087
 5095SOL    HW232428   3.743   1.481   7.219
 5096SOL     OW32429   3.060   5.835   2.192
 5096SOL    HW132430   3.095   5.750   2.219
 5096SOL    HW232431   2.971   5.816   2.163
 5097SOL     OW32432   3.607   4.972   0.227
 5097SOL    HW132433   3.599   5.048   0.284
 5097SOL    HW232434   3.534   4.981   0.165
 5098SOL     OW32435   0.492   4.124   0.022
 5098SOL    HW132436   0.451   4.047  -0.019
 5098SOL    HW232437   0.583   4.122  -0.010
 5099SOL     OW32438   3.906   0.881   1.633
 5099SOL    HW132439   3.861   0.965   1.643
 5099SOL    HW232440   3.978   0.886   1.696
 5100SOL     OW32441   4.310   5.903   7.528
 5100SOL    HW132442   4.323   5.984   7.480
 5100SOL    HW232443   4.385   5.848   7.504
 5101SOL     OW32444   4.319   5.741   6.159
 5101SOL    HW132445   4.228   5.766   6.174
 5101SOL    HW232446   4.324   5.649   6.185
 5102SOL     OW32447   4.662   4.229   0.618
 5102SOL    HW132448   4.717   4.160   0.655
 5102SOL    HW232449   4.604   4.183   0.558
 5103SOL     OW32450   5.668   0.328   0.764
 5103SOL    HW132451   5.740   0.371   0.718
 5103SOL    HW232452   5.710   0.260   0.816
 5104SOL     OW32453   5.687   5.757   5.711
 5104SOL    HW132454   5.705   5.726   5.799
 5104SOL    HW232455   5.640   5.684   5.669
 5105SOL     OW32456   3.465   2.724   8.056
 5105SOL    HW132457   3.387   2.770   8.087
 5105SOL    HW232458   3.537   2.783   8.078
 5106SOL     OW32459   1.237   6.165   0.867
 5106SOL    HW132460   1.318   6.160   0.814
 5106SOL    HW232461   1.259   6.120   0.948
 5107SOL     OW32462   1.901   0.676   6.706
 5107SOL    HW132463   1.973   0.615   6.692
 5107SOL    HW232464   1.834   0.625   6.750
 5108SOL     OW32465   1.341   0.874   7.701
 5108SOL    HW132466   1.342   0.941   7.769
 5108SOL    HW232467   1.405   0.809   7.730
 5109SOL     OW32468   1.529   1.717   7.434
 5109SOL    HW132469   1.512   1.649   7.498
 5109SOL    HW232470   1.599   1.770   7.473
 5110SOL     OW32471   5.189   5.669   1.855
 5110SOL    HW132472   5.239   5.741   1.895
 5110SOL    HW232473   5.099   5.684   1.884
 5111SOL     OW32474   3.998   1.486   7.277
 5111SOL    HW132475   3.912   1.508   7.243
 5111SOL    HW232476   3.994   1.507   7.370
 5112SOL     OW32477   5.751   1.715   1.082
 5112SOL    HW132478   5.691   1.706   1.008
 5112SOL    HW232479   5.778   1.625   1.103
 5113SOL     OW32480   1.264   5.036   1.285
 5113SOL    HW132481   1.284   5.062   1.375
 5113SOL    HW232482   1.218   4.953   1.294
 5114SOL     OW32483   1.405   1.869   2.885
 5114SOL    HW132484   1.402   1.900   2.975
 5114SOL    HW232485   1.498   1.866   2.863
 5115SOL     OW32486   3.230   3.399   0.050
 5115SOL    HW132487   3.179   3.435  -0.022
 5115SOL    HW232488   3.320   3.397   0.017
 5116SOL     OW32489   3.333   3.156   6.121
 5116SOL    HW132490   3.283   3.089   6.074
 5116SOL    HW232491   3.383   3.201   6.053
 5117SOL     OW32492   5.076   1.858   0.989
 5117SOL    HW132493   5.040   1.837   0.903
 5117SOL    HW232494   5.149   1.917   0.970
 5118SOL     OW32495   1.928   3.447   6.049
 5118SOL    HW132496   2.023   3.455   6.041
 5118SOL    HW232497   1.896   3.444   5.958
 5119SOL     OW32498   2.478   5.040   8.056
 5119SOL    HW132499   2.499   5.114   7.999
 5119SOL    HW232500   2.421   5.078   8.124
 5120SOL     OW32501   3.010   1.752   6.655
 5120SOL    HW132502   3.015   1.824   6.593
 5120SOL    HW232503   3.028   1.674   6.603
 5121SOL     OW32504   3.564   4.387   6.901
 5121SOL    HW132505   3.483   4.404   6.950
 5121SOL    HW232506   3.560   4.294   6.880
 5122SOL     OW32507   2.964   3.226   1.506
 5122SOL    HW132508   2.894   3.161   1.512
 5122SOL    HW232509   2.921   3.305   1.474
 5123SOL     OW32510   4.979   5.676   0.087
 5123SOL    HW132511   5.056   5.619   0.080
 5123SOL    HW232512   4.947   5.682  -0.003
 5124SOL     OW32513   3.753   1.057   0.164
 5124SOL    HW132514   3.665   1.094   0.158
 5124SOL    HW232515   3.739   0.963   0.174
 5125SOL     OW32516   0.252   5.336   6.868
 5125SOL    HW132517   0.227   5.282   6.793
 5125SOL    HW232518   0.241   5.279   6.944
 5126SOL     OW32519   3.059   1.565   7.821
 5126SOL    HW132520   3.125   1.501   7.797
 5126SOL    HW232521   3.026   1.534   7.906
 5127SOL     OW32522   3.650   4.803   0.911
 5127SOL    HW132523   3.601   4.726   0.939
 5127SOL    HW232524   3.613   4.874   0.964
 5128SOL     OW32525   3.980   5.140   1.434
 5128SOL    HW132526   3.950   5.049   1.435
 5128SOL    HW232527   4.075   5.135   1.424
 5129SOL     OW32528   5.293   1.724   7.010
 5129SOL    HW132529   5.289   1.816   6.985
 5129SOL    HW232530   5.251   1.677   6.938
 5130SOL     OW32531   4.691   1.257   1.850
 5130SOL    HW132532   4.649   1.207   1.780
 5130SOL    HW232533   4.632   1.330   1.867
 5131SOL     OW32534   0.249   1.504   1.775
 5131SOL    HW132535   0.209   1.443   1.837
 5131SOL    HW232536   0.177   1.533   1.719
 5132SOL     OW32537   1.581   1.192   0.325
 5132SOL    HW132538   1.496   1.147   0.326
 5132SOL    HW232539   1.626   1.159   0.403
 5133SOL     OW32540   2.916   2.740   7.587
 5133SOL    HW132541   2.975   2.772   7.519
 5133SOL    HW232542   2.850   2.689   7.540
 5134SOL     OW32543   1.874   2.711   6.120
 5134SOL    HW132544   1.818   2.775   6.077
 5134SOL    HW232545   1.928   2.675   6.050
 5135SOL     OW32546   5.113   6.049   5.966
 5135SOL    HW132547   5.155   6.072   5.883
 5135SOL    HW232548   5.095   6.133   6.007
 5136SOL     OW32549   3.008   0.925   6.725
 5136SOL    HW132550   3.040   0.982   6.796
 5136SOL    HW232551   2.939   0.872   6.766
 5137SOL     OW32552   0.537   4.219   0.280
 5137SOL    HW132553   0.514   4.203   0.189
 5137SOL    HW232554   0.477   4.164   0.330
 5138SOL     OW32555   5.682   5.432   2.136
 5138SOL    HW132556   5.649   5.347   2.166
 5138SOL    HW232557   5.615   5.494   2.162
 5139SOL     OW32558   3.843   1.961   1.506
 5139SOL    HW132559   3.816   1.990   1.593
 5139SOL    HW232560   3.875   2.041   1.463
 5140SOL     OW32561   1.819   1.663   7.106
 5140SOL    HW132562   1.864   1.671   7.190
 5140SOL    HW232563   1.738   1.712   7.117
 5141SOL     OW32564   0.725   3.281   1.545
 5141SOL    HW132565   0.694   3.366   1.513
 5141SOL    HW232566   0.751   3.233   1.466
 5142SOL     OW32567   3.267   2.992   0.853
 5142SOL    HW132568   3.270   3.087   0.862
 5142SOL    HW232569   3.240   2.978   0.762
 5143SOL     OW32570   4.551   3.715   6.490
 5143SOL    HW132571   4.580   3.776   6.557
 5143SOL    HW232572   4.622   3.713   6.426
 5144SOL     OW32573   5.036   4.284   6.886
 5144SOL    HW132574   4.984   4.204   6.877
 5144SOL    HW232575   5.127   4.252   6.891
 5145SOL     OW32576   5.512   0.237   7.694
 5145SOL    HW132577   5.508   0.312   7.635
 5145SOL    HW232578   5.504   0.274   7.782
 5146SOL     OW32579   0.719   5.335   6.088
 5146SOL    HW132580   0.684   5.420   6.114
 5146SOL    HW232581   0.679   5.273   6.149
 5147SOL     OW32582   5.371   0.079   0.114
 5147SOL    HW132583   5.310   0.055   0.184
 5147SOL    HW232584   5.326   0.053   0.033
 5148SOL     OW32585   6.117   4.759   0.851
 5148SOL    HW132586   6.178   4.769   0.924
 5148SOL    HW232587   6.155   4.689   0.798
 5149SOL     OW32588   6.102   4.663   6.645
 5149SOL    HW132589   6.114   4.752   6.613
 5149SOL    HW232590   6.050   4.673   6.725
 5150SOL     OW32591   3.033   6.336   2.120
 5150SOL    HW132592   3.064   6.396   2.188
 5150SOL    HW232593   2.989   6.266   2.167
 5151SOL     OW32594   3.859   5.674   6.858
 5151SOL    HW132595   3.930   5.615   6.884
 5151SOL    HW232596   3.779   5.622   6.871
 5152SOL     OW32597   1.892   1.831   1.622
 5152SOL    HW132598   1.985   1.817   1.641
 5152SOL    HW232599   1.881   1.804   1.531
 5153SOL     OW32600   4.353   4.312   7.704
 5153SOL    HW132601   4.356   4.242   7.769
 5153SOL    HW232602   4.347   4.267   7.620
 5154SOL     OW32603   3.103   3.854   1.306
 5154SOL    HW132604   3.089   3.763   1.334
 5154SOL    HW232605   3.100   3.904   1.388
 5155SOL     OW32606   6.206   1.874   7.179
 5155SOL    HW132607   6.275   1.907   7.120
 5155SOL    HW232608   6.193   1.946   7.241
 5156SOL     OW32609   2.912   6.199   6.620
 5156SOL    HW132610   2.879   6.136   6.683
 5156SOL    HW232611   2.895   6.284   6.660
 5157SOL     OW32612   4.082   0.804   6.343
 5157SOL    HW132613   4.000   0.774   6.381
 5157SOL    HW232614   4.136   0.725   6.338
 5158SOL     OW32615   4.766   5.896   0.480
 5158SOL    HW132616   4.801   5.888   0.391
 5158SOL    HW232617   4.751   5.806   0.508
 5159SOL     OW32618   4.643   4.107   7.370
 5159SOL    HW132619   4.672   4.186   7.416
 5159SOL    HW232620   4.572   4.137   7.314
 5160SOL     OW32621   2.712   0.340   1.346
 5160SOL    HW132622   2.619   0.329   1.367
 5160SOL    HW232623   2.750   0.253   1.358
 5161SOL     OW32624   3.717   6.064   7.818
 5161SOL    HW132625   3.690   5.972   7.828
 5161SOL    HW232626   3.790   6.074   7.880
 5162SOL     OW32627   0.638   5.302   1.504
 5162SOL    HW132628   0.617   5.364   1.434
 5162SOL    HW232629   0.564   5.306   1.564
 5163SOL     OW32630   1.218   3.846   2.023
 5163SOL    HW132631   1.123   3.835   2.028
 5163SOL    HW232632   1.251   3.759   1.999
 5164SOL     OW32633   2.640   5.027   0.376
 5164SOL    HW132634   2.730   5.059   0.374
 5164SOL    HW232635   2.592   5.086   0.318
 5165SOL     OW32636   1.255   5.438   7.065
 5165SOL    HW132637   1.346   5.451   7.092
 5165SOL    HW232638   1.258   5.364   7.005
 5166SOL     OW32639   1.211   2.996   1.289
 5166SOL    HW132640   1.191   3.005   1.196
 5166SOL    HW232641   1.256   2.912   1.297
 5167SOL     OW32642   1.714   5.796   7.948
 5167SOL    HW132643   1.635   5.813   7.897
 5167SOL    HW232644   1.710   5.703   7.969
 5168SOL     OW32645   2.856   3.787   0.462
 5168SOL    HW132646   2.789   3.719   0.457
 5168SOL    HW232647   2.831   3.851   0.396
 5169SOL     OW32648   1.159   3.873   6.715
 5169SOL    HW132649   1.202   3.844   6.634
 5169SOL    HW232650   1.068   3.889   6.689
 5170SOL     OW32651   4.254   4.515   0.719
 5170SOL    HW132652   4.317   4.447   0.744
 5170SOL    HW232653   4.197   4.472   0.655
 5171SOL     OW32654   4.407   0.565   7.230
 5171SOL    HW132655   4.419   0.583   7.137
 5171SOL    HW232656   4.442   0.643   7.274
 5172SOL     OW32657   3.269   4.712   7.787
 5172SOL    HW132658   3.254   4.713   7.881
 5172SOL    HW232659   3.244   4.623   7.760
 5173SOL     OW32660   6.140   2.889   7.000
 5173SOL    HW132661   6.104   2.978   7.004
 5173SOL    HW232662   6.134   2.866   6.907
 5174SOL     OW32663   3.068   4.172   7.845
 5174SOL    HW132664   2.974   4.188   7.835
 5174SOL    HW232665   3.073   4.102   7.911
 5175SOL     OW32666   4.864   5.164   7.685
 5175SOL    HW132667   4.840   5.077   7.716
 5175SOL    HW232668   4.865   5.156   7.589
 5176SOL     OW32669   4.221   1.303   1.089
 5176SOL    HW132670   4.248   1.359   1.162
 5176SOL    HW232671   4.150   1.250   1.124
 5177SOL     OW32672   5.333   4.322   0.517
 5177SOL    HW132673   5.260   4.331   0.455
 5177SOL    HW232674   5.405   4.368   0.474
 5178SOL     OW32675   1.659   0.219   0.381
 5178SOL    HW132676   1.681   0.127   0.394
 5178SOL    HW232677   1.594   0.219   0.312
 5179SOL     OW32678   5.001   1.126   0.654
 5179SOL    HW132679   4.995   1.059   0.587
 5179SOL    HW232680   5.095   1.142   0.664
 5180SOL     OW32681   6.076   0.246   0.619
 5180SOL    HW132682   6.075   0.172   0.680
 5180SOL    HW232683   6.143   0.222   0.555
 5181SOL     OW32684   0.187   3.638   6.121
 5181SOL    HW132685   0.149   3.706   6.177
 5181SOL    HW232686   0.171   3.557   6.170
 5182SOL     OW32687   1.642   2.572   0.946
 5182SOL    HW132688   1.548   2.592   0.939
 5182SOL    HW232689   1.645   2.476   0.950
 5183SOL     OW32690   6.067   3.208   0.115
 5183SOL    HW132691   5.973   3.200   0.130
 5183SOL    HW232692   6.082   3.156   0.036
 5184SOL     OW32693   5.481   5.140   2.694
 5184SOL    HW132694   5.507   5.111   2.782
 5184SOL    HW232695   5.555   5.191   2.662
 5185SOL     OW32696   5.563   0.681   2.492
 5185SOL    HW132697   5.581   0.588   2.477
 5185SOL    HW232698   5.630   0.727   2.442
 5186SOL     OW32699   3.236   1.364   7.131
 5186SOL    HW132700   3.223   1.269   7.128
 5186SOL    HW232701   3.320   1.377   7.086
 5187SOL     OW32702   2.380   1.152   0.211
 5187SOL    HW132703   2.289   1.140   0.239
 5187SOL    HW232704   2.427   1.079   0.250
 5188SOL     OW32705   4.567   3.306   8.016
 5188SOL    HW132706   4.621   3.328   8.092
 5188SOL    HW232707   4.512   3.384   8.002
 5189SOL     OW32708   0.007   3.170   8.020
 5189SOL    HW132709  -0.082   3.146   8.043
 5189SOL    HW232710   0.054   3.087   8.015
 5190SOL     OW32711   0.961   4.565   6.794
 5190SOL    HW132712   0.882   4.589   6.842
 5190SOL    HW232713   0.933   4.562   6.702
 5191SOL     OW32714   2.432   2.224   6.758
 5191SOL    HW132715   2.425   2.195   6.849
 5191SOL    HW232716   2.464   2.147   6.711
 5192SOL     OW32717   3.723   6.338   6.356
 5192SOL    HW132718   3.650   6.343   6.418
 5192SOL    HW232719   3.690   6.284   6.284
 5193SOL     OW32720   0.532   0.906   0.661
 5193SOL    HW132721   0.620   0.942   0.671
 5193SOL    HW232722   0.542   0.812   0.671
 5194SOL     OW32723   0.774   4.600   2.325
 5194SOL    HW132724   0.715   4.650   2.268
 5194SOL    HW232725   0.782   4.514   2.283
 5195SOL     OW32726   0.289   0.243   1.981
 5195SOL    HW132727   0.250   0.196   1.908
 5195SOL    HW232728   0.263   0.335   1.967
 5196SOL     OW32729   3.482   1.107   1.871
 5196SOL    HW132730   3.418   1.175   1.852
 5196SOL    HW232731   3.564   1.154   1.885
 5197SOL     OW32732   0.246   3.209   0.604
 5197SOL    HW132733   0.222   3.117   0.598
 5197SOL    HW232734   0.181   3.247   0.663
 5198SOL     OW32735   0.608   4.118   7.711
 5198SOL    HW132736   0.655   4.108   7.793
 5198SOL    HW232737   0.517   4.094   7.732
 5199SOL     OW32738   5.191   0.429   7.388
 5199SOL    HW132739   5.117   0.388   7.433
 5199SOL    HW232740   5.166   0.521   7.380
 5200SOL     OW32741   5.491   1.229   0.902
 5200SOL    HW132742   5.533   1.151   0.865
 5200SOL    HW232743   5.399   1.203   0.913
 5201SOL     OW32744   5.019   0.647   7.777
 5201SOL    HW132745   5.066   0.573   7.738
 5201SOL    HW232746   4.953   0.607   7.833
 5202SOL     OW32747   5.421   5.060   2.444
 5202SOL    HW132748   5.326   5.063   2.431
 5202SOL    HW232749   5.433   5.082   2.536
 5203SOL     OW32750   0.045   2.792   0.079
 5203SOL    HW132751   0.052   2.698   0.094
 5203SOL    HW232752   0.033   2.829   0.167
 5204SOL     OW32753   1.889   6.269   1.434
 5204SOL    HW132754   1.982   6.249   1.436
 5204SOL    HW232755   1.866   6.266   1.341
 5205SOL     OW32756   4.031   4.065   0.175
 5205SOL    HW132757   3.944   4.082   0.141
 5205SOL    HW232758   4.066   4.152   0.197
 5206SOL     OW32759   2.929   4.856   1.561
 5206SOL    HW132760   2.848   4.809   1.543
 5206SOL    HW232761   2.923   4.936   1.509
 5207SOL     OW32762   1.304   5.925   7.435
 5207SOL    HW132763   1.278   5.933   7.527
 5207SOL    HW232764   1.397   5.948   7.434
 5208SOL     OW32765   4.289   2.919   1.125
 5208SOL    HW132766   4.260   2.834   1.158
 5208SOL    HW232767   4.270   2.917   1.032
 5209SOL     OW32768   4.212   5.828   7.768
 5209SOL    HW132769   4.283   5.837   7.831
 5209SOL    HW232770   4.252   5.847   7.683
 5210SOL     OW32771   2.529   3.449   1.582
 5210SOL    HW132772   2.528   3.358   1.613
 5210SOL    HW232773   2.489   3.445   1.495
 5211SOL     OW32774   4.200   3.518   6.441
 5211SOL    HW132775   4.254   3.520   6.520
 5211SOL    HW232776   4.139   3.591   6.452
 5212SOL     OW32777   0.108   1.065   0.438
 5212SOL    HW132778   0.065   1.141   0.476
 5212SOL    HW232779   0.171   1.037   0.505
 5213SOL     OW32780   2.571   4.216   0.890
 5213SOL    HW132781   2.535   4.139   0.933
 5213SOL    HW232782   2.504   4.284   0.904
 5214SOL     OW32783   1.236   4.794   6.869
 5214SOL    HW132784   1.298   4.784   6.941
 5214SOL    HW232785   1.155   4.823   6.910
 5215SOL     OW32786   2.139   0.097   6.014
 5215SOL    HW132787   2.154   0.125   6.104
 5215SOL    HW232788   2.089   0.016   6.022
 5216SOL     OW32789   1.956   0.198   7.074
 5216SOL    HW132790   1.931   0.142   7.000
 5216SOL    HW232791   2.020   0.259   7.038
 5217SOL     OW32792   5.976   0.417   7.555
 5217SOL    HW132793   5.895   0.459   7.526
 5217SOL    HW232794   5.949   0.352   7.620
 5218SOL     OW32795   5.845   6.188   0.591
 5218SOL    HW132796   5.799   6.131   0.652
 5218SOL    HW232797   5.830   6.149   0.505
 5219SOL     OW32798   1.893   4.399   7.663
 5219SOL    HW132799   1.910   4.310   7.695
 5219SOL    HW232800   1.857   4.386   7.575
 5220SOL     OW32801   1.030   4.914   0.837
 5220SOL    HW132802   0.936   4.900   0.849
 5220SOL    HW232803   1.035   4.984   0.772
 5221SOL     OW32804   2.289   3.197   0.621
 5221SOL    HW132805   2.239   3.204   0.539
 5221SOL    HW232806   2.378   3.223   0.597
 5222SOL     OW32807   1.948   4.239   1.241
 5222SOL    HW132808   1.962   4.299   1.168
 5222SOL    HW232809   1.872   4.273   1.287
 5223SOL     OW32810   5.298   3.602   2.212
 5223SOL    HW132811   5.281   3.631   2.302
 5223SOL    HW232812   5.321   3.682   2.165
 5224SOL     OW32813   5.241   1.832   6.299
 5224SOL    HW132814   5.249   1.883   6.219
 5224SOL    HW232815   5.306   1.762   6.289
 5225SOL     OW32816   2.463   6.198   7.237
 5225SOL    HW132817   2.387   6.177   7.292
 5225SOL    HW232818   2.431   6.186   7.147
 5226SOL     OW32819   6.295   1.398   7.332
 5226SOL    HW132820   6.317   1.424   7.243
 5226SOL    HW232821   6.315   1.475   7.385
 5227SOL     OW32822   1.480   0.935   0.040
 5227SOL    HW132823   1.564   0.890   0.050
 5227SOL    HW232824   1.414   0.869   0.063
 5228SOL     OW32825   0.765   1.003   0.796
 5228SOL    HW132826   0.768   1.098   0.782
 5228SOL    HW232827   0.743   0.993   0.889
 5229SOL     OW32828   1.622   5.340   7.515
 5229SOL    HW132829   1.699   5.376   7.470
 5229SOL    HW232830   1.650   5.252   7.543
 5230SOL     OW32831   5.762   5.061   7.004
 5230SOL    HW132832   5.781   5.143   6.959
 5230SOL    HW232833   5.726   5.088   7.088
 5231SOL     OW32834   2.608   4.477   6.102
 5231SOL    HW132835   2.599   4.529   6.023
 5231SOL    HW232836   2.634   4.390   6.071
 5232SOL     OW32837   5.456   4.984   5.362
 5232SOL    HW132838   5.456   4.895   5.329
 5232SOL    HW232839   5.366   5.014   5.348
 5233SOL     OW32840   3.652   0.336   1.077
 5233SOL    HW132841   3.669   0.304   0.988
 5233SOL    HW232842   3.634   0.430   1.065
 5234SOL     OW32843   0.401   4.049   0.451
 5234SOL    HW132844   0.427   3.967   0.493
 5234SOL    HW232845   0.329   4.024   0.392
 5235SOL     OW32846   3.924   2.260   7.582
 5235SOL    HW132847   3.842   2.283   7.625
 5235SOL    HW232848   3.991   2.304   7.634
 5236SOL     OW32849   3.055   3.645   1.963
 5236SOL    HW132850   3.043   3.731   2.003
 5236SOL    HW232851   3.016   3.584   2.024
 5237SOL     OW32852   3.129   1.858   1.706
 5237SOL    HW132853   3.144   1.872   1.799
 5237SOL    HW232854   3.167   1.771   1.689
 5238SOL     OW32855   2.438   3.315   7.826
 5238SOL    HW132856   2.393   3.361   7.897
 5238SOL    HW232857   2.373   3.254   7.792
 5239SOL     OW32858   0.978   1.111   7.124
 5239SOL    HW132859   0.949   1.173   7.191
 5239SOL    HW232860   0.910   1.044   7.122
 5240SOL     OW32861   3.786   3.842   1.753
 5240SOL    HW132862   3.851   3.775   1.772
 5240SOL    HW232863   3.748   3.863   1.839
 5241SOL     OW32864   5.273   3.274   1.652
 5241SOL    HW132865   5.292   3.335   1.581
 5241SOL    HW232866   5.217   3.207   1.612
 5242SOL     OW32867   0.605   3.869   7.006
 5242SOL    HW132868   0.571   3.936   6.947
 5242SOL    HW232869   0.599   3.788   6.956
 5243SOL     OW32870   1.575   0.845   1.371
 5243SOL    HW132871   1.605   0.767   1.326
 5243SOL    HW232872   1.486   0.824   1.400
 5244SOL     OW32873   0.935   2.814   6.941
 5244SOL    HW132874   0.979   2.896   6.921
 5244SOL    HW232875   0.996   2.767   6.997
 5245SOL     OW32876   1.551   0.715   7.798
 5245SOL    HW132877   1.579   0.780   7.862
 5245SOL    HW232878   1.499   0.652   7.849
 5246SOL     OW32879   1.471   3.843   1.244
 5246SOL    HW132880   1.416   3.893   1.184
 5246SOL    HW232881   1.409   3.797   1.300
 5247SOL     OW32882   4.012   3.292   1.734
 5247SOL    HW132883   3.949   3.364   1.720
 5247SOL    HW232884   3.984   3.252   1.816
 5248SOL     OW32885   4.177   6.115   0.197
 5248SOL    HW132886   4.141   6.188   0.248
 5248SOL    HW232887   4.134   6.037   0.233
 5249SOL     OW32888   3.314   3.041   6.958
 5249SOL    HW132889   3.285   2.953   6.936
 5249SOL    HW232890   3.406   3.030   6.983
 5250SOL     OW32891   2.074   0.231   1.106
 5250SOL    HW132892   2.059   0.198   1.194
 5250SOL    HW232893   2.110   0.319   1.119
 5251SOL     OW32894   4.547   2.497   0.909
 5251SOL    HW132895   4.519   2.588   0.908
 5251SOL    HW232896   4.625   2.495   0.853
 5252SOL     OW32897   0.055   4.007   0.998
 5252SOL    HW132898   0.046   3.912   1.008
 5252SOL    HW232899   0.107   4.034   1.074
 5253SOL     OW32900   5.967   3.792   0.866
 5253SOL    HW132901   5.897   3.744   0.910
 5253SOL    HW232902   6.042   3.733   0.867
 5254SOL     OW32903   1.865   5.344   7.777
 5254SOL    HW132904   1.929   5.327   7.708
 5254SOL    HW232905   1.874   5.437   7.796
 5255SOL     OW32906   0.824   4.515   1.650
 5255SOL    HW132907   0.807   4.547   1.739
 5255SOL    HW232908   0.786   4.581   1.593
 5256SOL     OW32909   5.978   1.765   7.831
 5256SOL    HW132910   5.937   1.716   7.760
 5256SOL    HW232911   6.072   1.765   7.810
 5257SOL     OW32912   2.216   5.430   6.366
 5257SOL    HW132913   2.177   5.473   6.442
 5257SOL    HW232914   2.144   5.420   6.304
 5258SOL     OW32915   3.295   1.891   5.791
 5258SOL    HW132916   3.214   1.853   5.825
 5258SOL    HW232917   3.281   1.986   5.795
 5259SOL     OW32918   0.593   2.557   7.632
 5259SOL    HW132919   0.649   2.582   7.559
 5259SOL    HW232920   0.632   2.600   7.708
 5260SOL     OW32921   2.142   4.731   7.268
 5260SOL    HW132922   2.216   4.673   7.254
 5260SOL    HW232923   2.085   4.717   7.192
 5261SOL     OW32924   0.317   5.511   7.965
 5261SOL    HW132925   0.308   5.597   7.923
 5261SOL    HW232926   0.321   5.531   8.059
 5262SOL     OW32927   4.703   6.287   7.306
 5262SOL    HW132928   4.767   6.319   7.243
 5262SOL    HW232929   4.751   6.226   7.361
 5263SOL     OW32930   1.531   5.664   0.663
 5263SOL    HW132931   1.443   5.627   0.656
 5263SOL    HW232932   1.562   5.666   0.573
 5264SOL     OW32933   4.499   0.806   7.329
 5264SOL    HW132934   4.575   0.818   7.386
 5264SOL    HW232935   4.433   0.866   7.364
 5265SOL     OW32936   1.126   2.526   7.881
 5265SOL    HW132937   1.061   2.480   7.828
 5265SOL    HW232938   1.190   2.559   7.818
 5266SOL     OW32939   0.384   1.092   7.424
 5266SOL    HW132940   0.294   1.114   7.447
 5266SOL    HW232941   0.399   1.005   7.462
 5267SOL     OW32942   5.776   3.493   0.024
 5267SOL    HW132943   5.832   3.546   0.081
 5267SOL    HW232944   5.696   3.544   0.015
 5268SOL     OW32945   2.765   0.734   5.560
 5268SOL    HW132946   2.827   0.684   5.506
 5268SOL    HW232947   2.806   0.736   5.647
 5269SOL     OW32948   2.536   4.239   6.604
 5269SOL    HW132949   2.600   4.210   6.669
 5269SOL    HW232950   2.564   4.197   6.523
 5270SOL     OW32951   6.013   5.989   5.902
 5270SOL    HW132952   6.040   5.953   5.986
 5270SOL    HW232953   6.065   6.069   5.893
 5271SOL     OW32954   3.109   3.568   7.032
 5271SOL    HW132955   3.141   3.590   6.945
 5271SOL    HW232956   3.187   3.546   7.082
 5272SOL     OW32957   3.565   6.153   7.607
 5272SOL    HW132958   3.549   6.091   7.536
 5272SOL    HW232959   3.603   6.100   7.677
 5273SOL     OW32960   2.508   0.739   6.221
 5273SOL    HW132961   2.544   0.657   6.188
 5273SOL    HW232962   2.584   0.792   6.243
 5274SOL     OW32963   5.270   3.904   6.622
 5274SOL    HW132964   5.329   3.917   6.696
 5274SOL    HW232965   5.327   3.888   6.548
 5275SOL     OW32966   3.234   3.426   7.413
 5275SOL    HW132967   3.232   3.336   7.379
 5275SOL    HW232968   3.151   3.436   7.460
 5276SOL     OW32969   0.718   5.981   7.042
 5276SOL    HW132970   0.685   6.009   6.957
 5276SOL    HW232971   0.673   6.038   7.105
 5277SOL     OW32972   5.098   0.305   0.167
 5277SOL    HW132973   5.025   0.252   0.135
 5277SOL    HW232974   5.162   0.305   0.096
 5278SOL     OW32975   3.354   5.271   1.678
 5278SOL    HW132976   3.338   5.324   1.756
 5278SOL    HW232977   3.299   5.311   1.610
 5279SOL     OW32978   4.966   1.293   1.182
 5279SOL    HW132979   4.923   1.222   1.135
 5279SOL    HW232980   4.949   1.275   1.275
 5280SOL     OW32981   5.785   1.141   1.636
 5280SOL    HW132982   5.810   1.171   1.549
 5280SOL    HW232983   5.725   1.208   1.669
 5281SOL     OW32984   5.495   0.078   6.284
 5281SOL    HW132985   5.505   0.024   6.363
 5281SOL    HW232986   5.426   0.035   6.234
 5282SOL     OW32987   0.577   0.829   1.562
 5282SOL    HW132988   0.510   0.855   1.498
 5282SOL    HW232989   0.584   0.904   1.621
 5283SOL     OW32990   0.541   3.747   5.982
 5283SOL    HW132991   0.483   3.816   6.014
 5283SOL    HW232992   0.482   3.678   5.952
 5284SOL     OW32993   5.782   1.133   6.817
 5284SOL    HW132994   5.727   1.210   6.834
 5284SOL    HW232995   5.724   1.058   6.835
 5285SOL     OW32996   3.120   0.972   0.136
 5285SOL    HW132997   3.031   0.973   0.101
 5285SOL    HW232998   3.160   0.895   0.095
 5286SOL     OW32999   2.833   2.532   0.793
 5286SOL    HW133000   2.915   2.484   0.780
 5286SOL    HW233001   2.791   2.486   0.866
 5287SOL     OW33002   0.870   2.076   6.512
 5287SOL    HW133003   0.777   2.077   6.535
 5287SOL    HW233004   0.872   2.058   6.418
 5288SOL     OW33005   6.209   5.900   0.323
 5288SOL    HW133006   6.177   5.985   0.354
 5288SOL    HW233007   6.205   5.843   0.401
 5289SOL     OW33008   1.690   3.468   1.444
 5289SOL    HW133009   1.608   3.419   1.442
 5289SOL    HW233010   1.747   3.423   1.382
 5290SOL     OW33011   5.090   0.669   7.311
 5290SOL    HW133012   5.017   0.711   7.265
 5290SOL    HW233013   5.108   0.727   7.386
 5291SOL     OW33014   0.249   1.143   6.703
 5291SOL    HW133015   0.267   1.223   6.655
 5291SOL    HW233016   0.171   1.107   6.661
 5292SOL     OW33017   5.787   3.574   7.356
 5292SOL    HW133018   5.779   3.628   7.435
 5292SOL    HW233019   5.821   3.633   7.290
 5293SOL     OW33020   4.928   3.587   5.511
 5293SOL    HW133021   4.903   3.598   5.420
 5293SOL    HW233022   4.851   3.547   5.552
 5294SOL     OW33023   5.471   5.236   0.546
 5294SOL    HW133024   5.476   5.305   0.479
 5294SOL    HW233025   5.386   5.248   0.587
 5295SOL     OW33026   4.848   5.237   0.378
 5295SOL    HW133027   4.850   5.315   0.433
 5295SOL    HW233028   4.892   5.264   0.297
 5296SOL     OW33029   1.223   1.167   0.545
 5296SOL    HW133030   1.137   1.189   0.509
 5296SOL    HW233031   1.203   1.137   0.634
 5297SOL     OW33032   4.721   3.679   2.325
 5297SOL    HW133033   4.713   3.747   2.391
 5297SOL    HW233034   4.778   3.613   2.365
 5298SOL     OW33035   6.031   3.554   0.205
 5298SOL    HW133036   6.095   3.485   0.226
 5298SOL    HW233037   5.987   3.572   0.288
 5299SOL     OW33038   3.026   5.420   6.454
 5299SOL    HW133039   3.021   5.447   6.362
 5299SOL    HW233040   3.116   5.440   6.480
 5300SOL     OW33041   0.630   6.090   7.471
 5300SOL    HW133042   0.647   6.178   7.504
 5300SOL    HW233043   0.606   6.104   7.379
 5301SOL     OW33044   5.496   1.971   6.495
 5301SOL    HW133045   5.410   2.004   6.521
 5301SOL    HW233046   5.498   1.982   6.400
 5302SOL     OW33047   2.057   5.113   6.530
 5302SOL    HW133048   2.069   5.099   6.436
 5302SOL    HW233049   1.985   5.176   6.536
 5303SOL     OW33050   1.253   5.922   7.738
 5303SOL    HW133051   1.214   6.006   7.760
 5303SOL    HW233052   1.182   5.859   7.754
 5304SOL     OW33053   1.469   3.605   2.374
 5304SOL    HW133054   1.392   3.593   2.428
 5304SOL    HW233055   1.482   3.520   2.331
 5305SOL     OW33056   0.024   3.012   6.192
 5305SOL    HW133057  -0.030   3.021   6.270
 5305SOL    HW233058   0.107   3.053   6.215
 5306SOL     OW33059   1.910   0.387   0.346
 5306SOL    HW133060   1.993   0.345   0.327
 5306SOL    HW233061   1.925   0.434   0.429
 5307SOL     OW33062   3.440   2.452   0.329
 5307SOL    HW133063   3.434   2.509   0.406
 5307SOL    HW233064   3.368   2.480   0.272
 5308SOL     OW33065   5.176   5.868   6.161
 5308SOL    HW133066   5.216   5.930   6.222
 5308SOL    HW233067   5.158   5.919   6.083
 5309SOL     OW33068   4.894   1.677   6.367
 5309SOL    HW133069   4.933   1.610   6.423
 5309SOL    HW233070   4.850   1.627   6.298
 5310SOL     OW33071   3.492   3.690   0.001
 5310SOL    HW133072   3.436   3.662   0.073
 5310SOL    HW233073   3.457   3.774  -0.027
 5311SOL     OW33074   4.955   2.276   7.496
 5311SOL    HW133075   5.006   2.284   7.576
 5311SOL    HW233076   4.992   2.341   7.437
 5312SOL     OW33077   2.958   1.056   0.791
 5312SOL    HW133078   3.024   1.062   0.722
 5312SOL    HW233079   3.008   1.041   0.871
 5313SOL     OW33080   0.994   3.458   7.584
 5313SOL    HW133081   1.050   3.387   7.615
 5313SOL    HW233082   0.909   3.417   7.571
 5314SOL     OW33083   3.703   4.480   7.327
 5314SOL    HW133084   3.734   4.540   7.395
 5314SOL    HW233085   3.780   4.460   7.275
 5315SOL     OW33086   2.804   0.020   0.838
 5315SOL    HW133087   2.892   0.055   0.849
 5315SOL    HW233088   2.753   0.060   0.908
 5316SOL     OW33089   4.279   4.669   7.088
 5316SOL    HW133090   4.232   4.586   7.080
 5316SOL    HW233091   4.329   4.660   7.169
 5317SOL     OW33092   4.204   2.150   2.434
 5317SOL    HW133093   4.128   2.172   2.379
 5317SOL    HW233094   4.268   2.219   2.415
 5318SOL     OW33095   3.392   5.167   7.594
 5318SOL    HW133096   3.455   5.225   7.637
 5318SOL    HW233097   3.424   5.079   7.613
 5319SOL     OW33098   2.263   0.893   1.030
 5319SOL    HW133099   2.358   0.904   1.026
 5319SOL    HW233100   2.229   0.982   1.031
 5320SOL     OW33101   1.936   4.860   1.794
 5320SOL    HW133102   1.888   4.864   1.711
 5320SOL    HW233103   2.017   4.814   1.772
 5321SOL     OW33104   4.365   1.191   7.986
 5321SOL    HW133105   4.382   1.192   8.081
 5321SOL    HW233106   4.279   1.233   7.977
 5322SOL     OW33107   1.841   2.190   1.132
 5322SOL    HW133108   1.839   2.097   1.110
 5322SOL    HW233109   1.908   2.226   1.073
 5323SOL     OW33110   3.874   4.483   7.847
 5323SOL    HW133111   3.882   4.461   7.940
 5323SOL    HW233112   3.882   4.399   7.801
 5324SOL     OW33113   4.002   4.446   2.262
 5324SOL    HW133114   4.086   4.487   2.240
 5324SOL    HW233115   3.938   4.491   2.207
 5325SOL     OW33116   2.160   4.919   0.083
 5325SOL    HW133117   2.118   4.834   0.096
 5325SOL    HW233118   2.209   4.910   0.002
 5326SOL     OW33119   0.161   3.872   1.326
 5326SOL    HW133120   0.168   3.784   1.291
 5326SOL    HW233121   0.106   3.863   1.404
 5327SOL     OW33122   5.976   5.762   7.557
 5327SOL    HW133123   6.017   5.680   7.584
 5327SOL    HW233124   6.013   5.780   7.471
 5328SOL     OW33125   6.008   6.027   7.247
 5328SOL    HW133126   6.008   6.064   7.336
 5328SOL    HW233127   6.074   5.958   7.249
 5329SOL     OW33128   3.309   0.080   0.323
 5329SOL    HW133129   3.226   0.066   0.277
 5329SOL    HW233130   3.283   0.093   0.414
 5330SOL     OW33131   0.087   2.960   0.641
 5330SOL    HW133132   0.144   2.913   0.701
 5330SOL    HW233133   0.006   2.909   0.640
 5331SOL     OW33134   3.765   1.209   1.817
 5331SOL    HW133135   3.851   1.202   1.776
 5331SOL    HW233136   3.727   1.289   1.781
 5332SOL     OW33137   0.048   1.486   6.098
 5332SOL    HW133138   0.036   1.576   6.129
 5332SOL    HW233139   0.141   1.467   6.115
 5333SOL     OW33140   2.559   4.344   7.207
 5333SOL    HW133141   2.573   4.410   7.276
 5333SOL    HW233142   2.630   4.360   7.145
 5334SOL     OW33143   1.778   1.619   5.726
 5334SOL    HW133144   1.738   1.705   5.738
 5334SOL    HW233145   1.871   1.636   5.717
 5335SOL     OW33146   2.939   3.870   7.138
 5335SOL    HW133147   2.955   3.849   7.230
 5335SOL    HW233148   2.980   3.799   7.089
 5336SOL     OW33149   1.048   0.091   0.830
 5336SOL    HW133150   1.095   0.013   0.801
 5336SOL    HW233151   0.963   0.058   0.859
 5337SOL     OW33152   0.141   5.882   7.599
 5337SOL    HW133153   0.137   5.824   7.523
 5337SOL    HW233154   0.140   5.970   7.561
 5338SOL     OW33155   2.694   5.499   5.741
 5338SOL    HW133156   2.758   5.429   5.754
 5338SOL    HW233157   2.721   5.541   5.660
 5339SOL     OW33158   3.663   4.914   5.789
 5339SOL    HW133159   3.679   5.000   5.827
 5339SOL    HW233160   3.736   4.860   5.821
 5340SOL     OW33161   1.425   4.925   0.665
 5340SOL    HW133162   1.392   4.893   0.581
 5340SOL    HW233163   1.396   5.016   0.669
 5341SOL     OW33164   1.962   5.145   0.124
 5341SOL    HW133165   1.875   5.127   0.160
 5341SOL    HW233166   1.998   5.058   0.106
 5342SOL     OW33167   5.389   1.203   0.496
 5342SOL    HW133168   5.336   1.194   0.575
 5342SOL    HW233169   5.355   1.281   0.453
 5343SOL     OW33170   4.010   1.275   2.593
 5343SOL    HW133171   3.969   1.302   2.675
 5343SOL    HW233172   3.943   1.222   2.549
 5344SOL     OW33173   1.472   5.511   7.687
 5344SOL    HW133174   1.389   5.513   7.639
 5344SOL    HW233175   1.526   5.448   7.639
 5345SOL     OW33176   0.601   3.838   0.941
 5345SOL    HW133177   0.633   3.764   0.890
 5345SOL    HW233178   0.620   3.815   1.032
 5346SOL     OW33179   3.877   0.471   0.586
 5346SOL    HW133180   3.825   0.544   0.551
 5346SOL    HW233181   3.897   0.498   0.676
 5347SOL     OW33182   1.584   1.814   1.525
 5347SOL    HW133183   1.641   1.830   1.450
 5347SOL    HW233184   1.496   1.818   1.489
 5348SOL     OW33185   5.556   2.075   1.941
 5348SOL    HW133186   5.537   2.151   1.995
 5348SOL    HW233187   5.474   2.025   1.940
 5349SOL     OW33188   3.729   1.448   7.381
 5349SOL    HW133189   3.757   1.360   7.403
 5349SOL    HW233190   3.634   1.442   7.369
 5350SOL     OW33191   0.924   6.202   1.838
 5350SOL    HW133192   0.970   6.187   1.755
 5350SOL    HW233193   0.941   6.293   1.859
 5351SOL     OW33194   0.992   0.503   0.907
 5351SOL    HW133195   1.060   0.545   0.960
 5351SOL    HW233196   0.926   0.475   0.971
 5352SOL     OW33197   6.147   5.145   0.846
 5352SOL    HW133198   6.168   5.219   0.902
 5352SOL    HW233199   6.231   5.102   0.830
 5353SOL     OW33200   1.402   4.613   7.060
 5353SOL    HW133201   1.422   4.695   7.105
 5353SOL    HW233202   1.417   4.545   7.126
 5354SOL     OW33203   4.400   0.679   0.902
 5354SOL    HW133204   4.370   0.654   0.989
 5354SOL    HW233205   4.396   0.775   0.902
 5355SOL     OW33206   3.773   2.053   6.514
 5355SOL    HW133207   3.754   2.117   6.445
 5355SOL    HW233208   3.787   2.106   6.593
 5356SOL     OW33209   0.404   5.595   0.971
 5356SOL    HW133210   0.403   5.576   0.877
 5356SOL    HW233211   0.445   5.681   0.978
 5357SOL     OW33212   2.540   2.391   6.590
 5357SOL    HW133213   2.464   2.354   6.635
 5357SOL    HW233214   2.565   2.325   6.525
 5358SOL     OW33215   3.785   5.503   0.354
 5358SOL    HW133216   3.782   5.434   0.288
 5358SOL    HW233217   3.861   5.481   0.408
 5359SOL     OW33218   5.671   2.841   1.240
 5359SOL    HW133219   5.751   2.893   1.247
 5359SOL    HW233220   5.679   2.775   1.309
 5360SOL     OW33221   4.376   2.535   1.629
 5360SOL    HW133222   4.426   2.453   1.628
 5360SOL    HW233223   4.341   2.543   1.541
 5361SOL     OW33224   6.052   2.295   7.282
 5361SOL    HW133225   6.105   2.304   7.203
 5361SOL    HW233226   6.072   2.373   7.333
 5362SOL     OW33227   1.548   0.041   0.702
 5362SOL    HW133228   1.528   0.135   0.698
 5362SOL    HW233229   1.527   0.009   0.614
 5363SOL     OW33230   4.005   4.356   6.795
 5363SOL    HW133231   4.030   4.381   6.884
 5363SOL    HW233232   3.939   4.420   6.769
 5364SOL     OW33233   3.180   1.512   6.005
 5364SOL    HW133234   3.107   1.502   6.065
 5364SOL    HW233235   3.148   1.479   5.922
 5365SOL     OW33236   5.948   0.809   6.263
 5365SOL    HW133237   5.921   0.844   6.348
 5365SOL    HW233238   5.948   0.714   6.274
 5366SOL     OW33239   4.745   5.041   1.161
 5366SOL    HW133240   4.752   5.066   1.253
 5366SOL    HW233241   4.701   4.956   1.162
 5367SOL     OW33242   0.961   3.622   7.284
 5367SOL    HW133243   1.040   3.660   7.321
 5367SOL    HW233244   0.953   3.663   7.198
 5368SOL     OW33245   2.948   6.145   8.029
 5368SOL    HW133246   3.042   6.163   8.023
 5368SOL    HW233247   2.942   6.050   8.023
 5369SOL     OW33248   1.491   5.785   7.775
 5369SOL    HW133249   1.469   5.697   7.746
 5369SOL    HW233250   1.413   5.837   7.753
 5370SOL     OW33251   2.553   0.947   1.096
 5370SOL    HW133252   2.598   1.023   1.132
 5370SOL    HW233253   2.623   0.890   1.063
 5371SOL     OW33254   3.467   5.592   7.372
 5371SOL    HW133255   3.488   5.518   7.429
 5371SOL    HW233256   3.478   5.558   7.283
 5372SOL     OW33257   2.353   1.198   8.024
 5372SOL    HW133258   2.263   1.174   8.005
 5372SOL    HW233259   2.364   1.179   8.117
 5373SOL     OW33260   3.801   1.368   6.549
 5373SOL    HW133261   3.857   1.304   6.506
 5373SOL    HW233262   3.861   1.431   6.588
 5374SOL     OW33263   3.034   3.675   0.095
 5374SOL    HW133264   2.944   3.704   0.079
 5374SOL    HW233265   3.025   3.588   0.133
 5375SOL     OW33266   5.191   2.551   6.740
 5375SOL    HW133267   5.188   2.458   6.762
 5375SOL    HW233268   5.188   2.596   6.825
 5376SOL     OW33269   3.223   1.237   0.912
 5376SOL    HW133270   3.280   1.280   0.976
 5376SOL    HW233271   3.220   1.146   0.941
 5377SOL     OW33272   0.076   3.812   0.007
 5377SOL    HW133273  -0.010   3.802   0.048
 5377SOL    HW233274   0.094   3.727  -0.033
 5378SOL     OW33275   5.237   6.216   1.556
 5378SOL    HW133276   5.161   6.178   1.512
 5378SOL    HW233277   5.248   6.162   1.634
 5379SOL     OW33278   5.281   1.187   7.248
 5379SOL    HW133279   5.325   1.272   7.244
 5379SOL    HW233280   5.212   1.199   7.313
 5380SOL     OW33281   1.968   0.836   7.470
 5380SOL    HW133282   1.964   0.925   7.505
 5380SOL    HW233283   2.037   0.840   7.404
 5381SOL     OW33284   2.729   0.049   7.478
 5381SOL    HW133285   2.792   0.017   7.413
 5381SOL    HW233286   2.733   0.144   7.470
 5382SOL     OW33287   4.043   6.095   1.527
 5382SOL    HW133288   4.080   6.168   1.575
 5382SOL    HW233289   4.059   6.115   1.435
 5383SOL     OW33290   0.534   3.803   1.285
 5383SOL    HW133291   0.618   3.760   1.303
 5383SOL    HW233292   0.475   3.771   1.353
 5384SOL     OW33293   2.530   0.712   1.971
 5384SOL    HW133294   2.436   0.709   1.951
 5384SOL    HW233295   2.570   0.659   1.903
 5385SOL     OW33296   3.663   5.736   7.164
 5385SOL    HW133297   3.734   5.781   7.118
 5385SOL    HW233298   3.584   5.782   7.137
 5386SOL     OW33299   3.714   3.364   6.761
 5386SOL    HW133300   3.799   3.407   6.745
 5386SOL    HW233301   3.731   3.271   6.745
 5387SOL     OW33302   4.158   1.426   0.238
 5387SOL    HW133303   4.165   1.491   0.308
 5387SOL    HW233304   4.082   1.373   0.262
 5388SOL     OW33305   2.333   4.207   2.402
 5388SOL    HW133306   2.290   4.275   2.454
 5388SOL    HW233307   2.301   4.124   2.438
 5389SOL     OW33308   2.294   2.141   7.742
 5389SOL    HW133309   2.229   2.080   7.707
 5389SOL    HW233310   2.295   2.124   7.836
 5390SOL     OW33311   4.013   5.515   6.275
 5390SOL    HW133312   3.943   5.526   6.210
 5390SOL    HW233313   4.092   5.502   6.222
 5391SOL     OW33314   0.400   1.876   7.812
 5391SOL    HW133315   0.495   1.881   7.814
 5391SOL    HW233316   0.371   1.965   7.836
 5392SOL     OW33317   3.580   3.327   1.846
 5392SOL    HW133318   3.584   3.406   1.900
 5392SOL    HW233319   3.504   3.341   1.789
 5393SOL     OW33320   0.915   2.435   7.704
 5393SOL    HW133321   0.868   2.501   7.755
 5393SOL    HW233322   0.935   2.478   7.621
 5394SOL     OW33323   3.374   3.416   1.689
 5394SOL    HW133324   3.298   3.359   1.680
 5394SOL    HW233325   3.346   3.486   1.747
 5395SOL     OW33326   3.834   3.381   1.006
 5395SOL    HW133327   3.764   3.355   1.066
 5395SOL    HW233328   3.792   3.382   0.920
 5396SOL     OW33329   4.636   4.668   6.236
 5396SOL    HW133330   4.626   4.716   6.154
 5396SOL    HW233331   4.547   4.658   6.269
 5397SOL     OW33332   2.481   6.022   0.540
 5397SOL    HW133333   2.564   5.982   0.566
 5397SOL    HW233334   2.445   5.962   0.474
 5398SOL     OW33335   2.270   0.766   1.850
 5398SOL    HW133336   2.239   0.857   1.857
 5398SOL    HW233337   2.306   0.761   1.762
 5399SOL     OW33338   2.575   5.816   1.278
 5399SOL    HW133339   2.649   5.776   1.231
 5399SOL    HW233340   2.506   5.749   1.274
 5400SOL     OW33341   3.645   0.460   7.995
 5400SOL    HW133342   3.715   0.477   7.933
 5400SOL    HW233343   3.669   0.378   8.038
 5401SOL     OW33344   1.782   5.235   2.436
 5401SOL    HW133345   1.691   5.208   2.451
 5401SOL    HW233346   1.785   5.262   2.345
 5402SOL     OW33347   2.301   5.344   0.670
 5402SOL    HW133348   2.367   5.313   0.731
 5402SOL    HW233349   2.217   5.326   0.713
 5403SOL     OW33350   0.945   2.070   0.930
 5403SOL    HW133351   0.973   1.984   0.962
 5403SOL    HW233352   0.861   2.054   0.887
 5404SOL     OW33353   4.100   4.491   7.065
 5404SOL    HW133354   4.047   4.551   7.012
 5404SOL    HW233355   4.037   4.446   7.121
 5405SOL     OW33356   3.919   3.593   1.440
 5405SOL    HW133357   3.922   3.549   1.525
 5405SOL    HW233358   3.995   3.652   1.441
 5406SOL     OW33359   1.088   2.033   1.247
 5406SOL    HW133360   1.032   1.974   1.196
 5406SOL    HW233361   1.126   2.092   1.181
 5407SOL     OW33362   5.535   3.935   0.840
 5407SOL    HW133363   5.522   3.972   0.753
 5407SOL    HW233364   5.564   4.008   0.895
 5408SOL     OW33365   5.251   3.666   0.546
 5408SOL    HW133366   5.230   3.699   0.633
 5408SOL    HW233367   5.166   3.648   0.506
 5409SOL     OW33368   6.079   0.538   0.271
 5409SOL    HW133369   5.990   0.542   0.307
 5409SOL    HW233370   6.069   0.489   0.189
 5410SOL     OW33371   5.072   4.834   2.147
 5410SOL    HW133372   5.163   4.809   2.132
 5410SOL    HW233373   5.075   4.927   2.165
 5411SOL     OW33374   3.864   5.268   6.304
 5411SOL    HW133375   3.797   5.268   6.236
 5411SOL    HW233376   3.911   5.350   6.292
 5412SOL     OW33377   2.852   5.975   0.326
 5412SOL    HW133378   2.804   5.982   0.408
 5412SOL    HW233379   2.800   6.026   0.264
 5413SOL     OW33380   1.762   3.136   7.340
 5413SOL    HW133381   1.823   3.063   7.331
 5413SOL    HW233382   1.807   3.210   7.299
 5414SOL     OW33383   4.275   1.787   8.006
 5414SOL    HW133384   4.199   1.730   7.992
 5414SOL    HW233385   4.247   1.848   8.073
 5415SOL     OW33386   3.461   0.663   0.010
 5415SOL    HW133387   3.470   0.739  -0.047
 5415SOL    HW233388   3.526   0.600  -0.023
 5416SOL     OW33389   4.209   0.027   1.130
 5416SOL    HW133390   4.120   0.043   1.100
 5416SOL    HW233391   4.262   0.095   1.088
 5417SOL     OW33392   2.377   2.608   6.412
 5417SOL    HW133393   2.306   2.544   6.416
 5417SOL    HW233394   2.359   2.668   6.485
 5418SOL     OW33395   2.071   3.646   1.426
 5418SOL    HW133396   2.017   3.701   1.484
 5418SOL    HW233397   2.038   3.665   1.339
 5419SOL     OW33398   2.386   2.814   0.991
 5419SOL    HW133399   2.386   2.861   0.908
 5419SOL    HW233400   2.295   2.818   1.021
 5420SOL     OW33401   0.747   6.333   1.163
 5420SOL    HW133402   0.784   6.294   1.243
 5420SOL    HW233403   0.681   6.394   1.195
 5421SOL     OW33404   2.630   3.322   0.188
 5421SOL    HW133405   2.560   3.256   0.187
 5421SOL    HW233406   2.592   3.397   0.233
 5422SOL     OW33407   2.890   4.230   6.582
 5422SOL    HW133408   2.869   4.292   6.512
 5422SOL    HW233409   2.822   4.244   6.648
 5423SOL     OW33410   0.795   0.172   7.002
 5423SOL    HW133411   0.699   0.168   7.007
 5423SOL    HW233412   0.813   0.235   6.933
 5424SOL     OW33413   1.866   5.797   6.756
 5424SOL    HW133414   1.911   5.871   6.716
 5424SOL    HW233415   1.933   5.754   6.809
 5425SOL     OW33416   0.661   2.150   7.597
 5425SOL    HW133417   0.733   2.128   7.537
 5425SOL    HW233418   0.617   2.224   7.554
 5426SOL     OW33419   2.035   5.627   1.937
 5426SOL    HW133420   2.105   5.684   1.970
 5426SOL    HW233421   1.969   5.629   2.006
 5427SOL     OW33422   4.596   1.774   7.754
 5427SOL    HW133423   4.523   1.834   7.738
 5427SOL    HW233424   4.598   1.717   7.677
 5428SOL     OW33425   3.220   1.892   1.967
 5428SOL    HW133426   3.168   1.860   2.041
 5428SOL    HW233427   3.262   1.971   1.999
 5429SOL     OW33428   3.345   4.056   0.357
 5429SOL    HW133429   3.315   4.128   0.302
 5429SOL    HW233430   3.421   4.021   0.311
 5430SOL     OW33431   2.069   4.983   6.780
 5430SOL    HW133432   2.078   5.022   6.693
 5430SOL    HW233433   2.159   4.964   6.807
 5431SOL     OW33434   0.413   4.999   6.971
 5431SOL    HW133435   0.360   5.040   6.902
 5431SOL    HW233436   0.398   5.055   7.048
 5432SOL     OW33437   2.150   3.835   1.100
 5432SOL    HW133438   2.095   3.796   1.031
 5432SOL    HW233439   2.173   3.921   1.066
 5433SOL     OW33440   5.760   3.822   0.332
 5433SOL    HW133441   5.683   3.879   0.341
 5433SOL    HW233442   5.806   3.856   0.256
 5434SOL     OW33443   0.612   4.066   1.285
 5434SOL    HW133444   0.684   4.046   1.346
 5434SOL    HW233445   0.563   3.984   1.278
 5435SOL     OW33446   1.884   2.187   6.597
 5435SOL    HW133447   1.890   2.098   6.563
 5435SOL    HW233448   1.820   2.231   6.540
 5436SOL     OW33449   0.951   0.605   0.646
 5436SOL    HW133450   1.008   0.682   0.649
 5436SOL    HW233451   0.944   0.578   0.738
 5437SOL     OW33452   1.596   3.492   7.453
 5437SOL    HW133453   1.550   3.548   7.391
 5437SOL    HW233454   1.687   3.493   7.424
 5438SOL     OW33455   3.442   2.948   0.406
 5438SOL    HW133456   3.401   3.025   0.445
 5438SOL    HW233457   3.480   2.979   0.325
 5439SOL     OW33458   2.313   5.170   6.500
 5439SOL    HW133459   2.298   5.263   6.487
 5439SOL    HW233460   2.225   5.132   6.510
 5440SOL     OW33461   4.952   3.999   8.062
 5440SOL    HW133462   4.913   3.967   7.981
 5440SOL    HW233463   5.041   3.963   8.062
 5441SOL     OW33464   5.729   4.983   0.697
 5441SOL    HW133465   5.800   5.022   0.646
 5441SOL    HW233466   5.759   4.989   0.788
 5442SOL     OW33467   0.712   1.810   2.084
 5442SOL    HW133468   0.736   1.902   2.081
 5442SOL    HW233469   0.636   1.807   2.142
 5443SOL     OW33470   3.184   4.876   0.184
 5443SOL    HW133471   3.107   4.874   0.126
 5443SOL    HW233472   3.156   4.830   0.263
 5444SOL     OW33473   1.380   1.241   1.262
 5444SOL    HW133474   1.411   1.232   1.352
 5444SOL    HW233475   1.458   1.223   1.209
 5445SOL     OW33476   0.109   6.003   1.273
 5445SOL    HW133477   0.165   6.034   1.202
 5445SOL    HW233478   0.147   6.041   1.352
 5446SOL     OW33479   3.924   1.490   2.395
 5446SOL    HW133480   3.830   1.484   2.414
 5446SOL    HW233481   3.966   1.449   2.471
 5447SOL     OW33482   3.647   3.199   0.394
 5447SOL    HW133483   3.638   3.294   0.405
 5447SOL    HW233484   3.582   3.177   0.327
 5448SOL     OW33485   6.025   5.188   0.105
 5448SOL    HW133486   6.024   5.114   0.045
 5448SOL    HW233487   6.056   5.152   0.188
 5449SOL     OW33488   3.937   0.671   6.122
 5449SOL    HW133489   4.019   0.716   6.140
 5449SOL    HW233490   3.895   0.724   6.054
 5450SOL     OW33491   5.699   0.932   1.818
 5450SOL    HW133492   5.633   0.999   1.836
 5450SOL    HW233493   5.778   0.982   1.794
 5451SOL     OW33494   3.936   3.822   6.738
 5451SOL    HW133495   3.873   3.775   6.684
 5451SOL    HW233496   3.938   3.911   6.701
 5452SOL     OW33497   3.851   3.153   1.498
 5452SOL    HW133498   3.832   3.240   1.532
 5452SOL    HW233499   3.867   3.099   1.576
 5453SOL     OW33500   0.712   0.430   1.418
 5453SOL    HW133501   0.785   0.448   1.477
 5453SOL    HW233502   0.635   0.424   1.475
 5454SOL     OW33503   0.495   1.292   7.636
 5454SOL    HW133504   0.578   1.244   7.644
 5454SOL    HW233505   0.441   1.235   7.581
 5455SOL     OW33506   4.411   1.137   1.517
 5455SOL    HW133507   4.416   1.222   1.561
 5455SOL    HW233508   4.485   1.137   1.457
 5456SOL     OW33509   2.334   4.596   6.893
 5456SOL    HW133510   2.423   4.584   6.925
 5456SOL    HW233511   2.337   4.568   6.802
 5457SOL     OW33512   0.227   2.305   7.597
 5457SOL    HW133513   0.156   2.240   7.598
 5457SOL    HW233514   0.186   2.386   7.629
 5458SOL     OW33515   0.926   0.194   6.441
 5458SOL    HW133516   0.920   0.099   6.434
 5458SOL    HW233517   0.994   0.219   6.379
 5459SOL     OW33518   3.175   5.175   8.025
 5459SOL    HW133519   3.087   5.138   8.029
 5459SOL    HW233520   3.189   5.194   7.933
 5460SOL     OW33521   3.289   5.372   6.490
 5460SOL    HW133522   3.297   5.276   6.493
 5460SOL    HW233523   3.342   5.397   6.414
 5461SOL     OW33524   5.076   1.568   1.417
 5461SOL    HW133525   5.087   1.475   1.400
 5461SOL    HW233526   5.136   1.586   1.490
 5462SOL     OW33527   3.760   0.252   0.031
 5462SOL    HW133528   3.799   0.303   0.101
 5462SOL    HW233529   3.682   0.213   0.070
 5463SOL     OW33530   5.194   1.285   1.438
 5463SOL    HW133531   5.256   1.277   1.366
 5463SOL    HW233532   5.245   1.266   1.517
 5464SOL     OW33533   5.764   2.044   6.491
 5464SOL    HW133534   5.686   2.005   6.531
 5464SOL    HW233535   5.729   2.105   6.425
 5465SOL     OW33536   1.463   2.186   0.043
 5465SOL    HW133537   1.439   2.214  -0.046
 5465SOL    HW233538   1.464   2.091   0.039
 5466SOL     OW33539   6.226   0.084   7.669
 5466SOL    HW133540   6.275   0.060   7.748
 5466SOL    HW233541   6.290   0.130   7.615
 5467SOL     OW33542   2.326   5.080   7.507
 5467SOL    HW133543   2.267   5.067   7.581
 5467SOL    HW233544   2.318   5.173   7.486
 5468SOL     OW33545   3.032   1.184   1.144
 5468SOL    HW133546   3.109   1.136   1.113
 5468SOL    HW233547   3.039   1.270   1.101
 5469SOL     OW33548   4.064   1.390   0.834
 5469SOL    HW133549   4.011   1.362   0.760
 5469SOL    HW233550   4.059   1.316   0.895
 5470SOL     OW33551   6.236   2.184   0.600
 5470SOL    HW133552   6.275   2.101   0.628
 5470SOL    HW233553   6.163   2.159   0.543
 5471SOL     OW33554   2.523   3.059   0.326
 5471SOL    HW133555   2.521   3.122   0.398
 5471SOL    HW233556   2.615   3.035   0.317
 5472SOL     OW33557   1.909   0.336   7.576
 5472SOL    HW133558   1.838   0.341   7.639
 5472SOL    HW233559   1.932   0.427   7.558
 5473SOL     OW33560   4.810   2.638   7.078
 5473SOL    HW133561   4.804   2.640   6.982
 5473SOL    HW233562   4.721   2.614   7.106
 5474SOL     OW33563   0.775   3.139   1.293
 5474SOL    HW133564   0.701   3.150   1.233
 5474SOL    HW233565   0.818   3.058   1.264
 5475SOL     OW33566   5.862   2.712   7.883
 5475SOL    HW133567   5.939   2.693   7.937
 5475SOL    HW233568   5.898   2.749   7.802
 5476SOL     OW33569   1.506   1.061   0.712
 5476SOL    HW133570   1.487   1.154   0.716
 5476SOL    HW233571   1.422   1.018   0.725
 5477SOL     OW33572   1.862   0.953   0.374
 5477SOL    HW133573   1.853   0.870   0.419
 5477SOL    HW233574   1.807   1.014   0.423
 5478SOL     OW33575   1.606   4.956   1.089
 5478SOL    HW133576   1.580   4.878   1.040
 5478SOL    HW233577   1.574   5.030   1.037
 5479SOL     OW33578   4.953   5.490   1.793
 5479SOL    HW133579   5.001   5.419   1.835
 5479SOL    HW233580   4.936   5.553   1.863
 5480SOL     OW33581   6.059   3.924   6.600
 5480SOL    HW133582   6.133   3.966   6.644
 5480SOL    HW233583   6.020   3.994   6.547
 5481SOL     OW33584   0.407   1.923   0.568
 5481SOL    HW133585   0.370   1.873   0.642
 5481SOL    HW233586   0.500   1.931   0.589
 5482SOL     OW33587   3.775   3.522   7.590
 5482SOL    HW133588   3.860   3.557   7.616
 5482SOL    HW233589   3.717   3.598   7.586
 5483SOL     OW33590   4.109   0.313   6.540
 5483SOL    HW133591   4.078   0.234   6.585
 5483SOL    HW233592   4.124   0.284   6.449
 5484SOL     OW33593   4.925   5.727   0.898
 5484SOL    HW133594   4.961   5.785   0.965
 5484SOL    HW233595   4.834   5.715   0.925
 5485SOL     OW33596   2.682   0.157   1.820
 5485SOL    HW133597   2.604   0.102   1.831
 5485SOL    HW233598   2.727   0.152   1.904
 5486SOL     OW33599   2.945   0.669   1.457
 5486SOL    HW133600   2.898   0.752   1.470
 5486SOL    HW233601   2.900   0.627   1.384
 5487SOL     OW33602   4.213   1.608   0.692
 5487SOL    HW133603   4.128   1.572   0.717
 5487SOL    HW233604   4.276   1.555   0.739
 5488SOL     OW33605   0.666   6.322   1.619
 5488SOL    HW133606   0.588   6.272   1.645
 5488SOL    HW233607   0.693   6.367   1.699
 5489SOL     OW33608   4.937   1.210   1.454
 5489SOL    HW133609   5.022   1.253   1.445
 5489SOL    HW233610   4.951   1.146   1.524
 5490SOL     OW33611   0.870   4.527   6.544
 5490SOL    HW133612   0.953   4.497   6.506
 5490SOL    HW233613   0.806   4.513   6.475
 5491SOL     OW33614   4.168   2.596   7.297
 5491SOL    HW133615   4.110   2.520   7.308
 5491SOL    HW233616   4.228   2.570   7.226
 5492SOL     OW33617   5.337   3.603   1.659
 5492SOL    HW133618   5.397   3.541   1.699
 5492SOL    HW233619   5.250   3.577   1.690
 5493SOL     OW33620   0.816   3.322   7.453
 5493SOL    HW133621   0.856   3.332   7.366
 5493SOL    HW233622   0.724   3.346   7.439
 5494SOL     OW33623   4.739   0.374   1.553
 5494SOL    HW133624   4.758   0.411   1.466
 5494SOL    HW233625   4.708   0.449   1.604
 5495SOL     OW33626   1.498   4.661   7.914
 5495SOL    HW133627   1.487   4.570   7.885
 5495SOL    HW233628   1.412   4.700   7.904
 5496SOL     OW33629   0.021   2.114   1.339
 5496SOL    HW133630  -0.022   2.072   1.265
 5496SOL    HW233631  -0.026   2.196   1.351
 5497SOL     OW33632   3.728   2.673   7.669
 5497SOL    HW133633   3.781   2.748   7.694
 5497SOL    HW233634   3.785   2.597   7.685
 5498SOL     OW33635   6.151   3.583   7.381
 5498SOL    HW133636   6.183   3.660   7.334
 5498SOL    HW233637   6.064   3.567   7.344
 5499SOL     OW33638   3.210   0.349   6.949
 5499SOL    HW133639   3.267   0.283   6.989
 5499SOL    HW233640   3.169   0.304   6.876
 5500SOL     OW33641   1.353   3.161   6.990
 5500SOL    HW133642   1.299   3.203   7.056
 5500SOL    HW233643   1.438   3.204   6.995
 5501SOL     OW33644   4.234   3.680   0.108
 5501SOL    HW133645   4.327   3.669   0.126
 5501SOL    HW233646   4.202   3.735   0.180
 5502SOL     OW33647   0.784   5.308   1.746
 5502SOL    HW133648   0.760   5.248   1.817
 5502SOL    HW233649   0.715   5.296   1.681
 5503SOL     OW33650   6.080   1.133   2.556
 5503SOL    HW133651   6.162   1.173   2.527
 5503SOL    HW233652   6.072   1.159   2.648
 5504SOL     OW33653   3.660   2.480   7.431
 5504SOL    HW133654   3.577   2.434   7.421
 5504SOL    HW233655   3.691   2.455   7.518
 5505SOL     OW33656   1.429   2.359   2.275
 5505SOL    HW133657   1.404   2.448   2.252
 5505SOL    HW233658   1.524   2.363   2.285
 5506SOL     OW33659   0.873   4.334   0.001
 5506SOL    HW133660   0.807   4.377   0.055
 5506SOL    HW233661   0.893   4.397  -0.068
 5507SOL     OW33662   1.416   3.987   2.805
 5507SOL    HW133663   1.323   3.964   2.799
 5507SOL    HW233664   1.427   4.059   2.744
 5508SOL     OW33665   6.066   4.341   0.980
 5508SOL    HW133666   6.098   4.299   0.900
 5508SOL    HW233667   6.050   4.269   1.041
 5509SOL     OW33668   2.770   0.511   7.668
 5509SOL    HW133669   2.715   0.490   7.743
 5509SOL    HW233670   2.715   0.491   7.592
 5510SOL     OW33671   0.049   3.480   7.532
 5510SOL    HW133672  -0.042   3.458   7.511
 5510SOL    HW233673   0.076   3.413   7.595
 5511SOL     OW33674   2.888   4.307   6.295
 5511SOL    HW133675   2.852   4.294   6.207
 5511SOL    HW233676   2.978   4.273   6.289
 5512SOL     OW33677   0.678   1.286   0.762
 5512SOL    HW133678   0.669   1.378   0.788
 5512SOL    HW233679   0.605   1.270   0.703
 5513SOL     OW33680   0.150   1.831   7.593
 5513SOL    HW133681   0.182   1.837   7.682
 5513SOL    HW233682   0.083   1.899   7.587
 5514SOL     OW33683   2.146   4.764   1.661
 5514SOL    HW133684   2.203   4.752   1.737
 5514SOL    HW233685   2.195   4.724   1.589
 5515SOL     OW33686   0.918   1.810   0.403
 5515SOL    HW133687   0.910   1.741   0.337
 5515SOL    HW233688   0.851   1.874   0.379
 5516SOL     OW33689   1.522   3.574   0.373
 5516SOL    HW133690   1.514   3.648   0.433
 5516SOL    HW233691   1.600   3.528   0.403
 5517SOL     OW33692   4.978   2.910   8.019
 5517SOL    HW133693   4.973   2.884   8.111
 5517SOL    HW233694   5.052   2.971   8.016
 5518SOL     OW33695   3.940   1.421   7.584
 5518SOL    HW133696   3.849   1.418   7.613
 5518SOL    HW233697   3.974   1.334   7.603
 5519SOL     OW33698   4.726   5.450   0.784
 5519SOL    HW133699   4.736   5.474   0.876
 5519SOL    HW233700   4.643   5.404   0.780
 5520SOL     OW33701   1.812   3.093   6.390
 5520SOL    HW133702   1.904   3.069   6.378
 5520SOL    HW233703   1.781   3.111   6.301
 5521SOL     OW33704   3.034   4.029   6.424
 5521SOL    HW133705   3.005   4.086   6.495
 5521SOL    HW233706   3.068   4.089   6.357
 5522SOL     OW33707   6.324   5.418   2.237
 5522SOL    HW133708   6.382   5.428   2.312
 5522SOL    HW233709   6.315   5.507   2.202
 5523SOL     OW33710   5.943   4.061   7.921
 5523SOL    HW133711   5.993   4.108   7.854
 5523SOL    HW233712   5.890   4.129   7.963
 5524SOL     OW33713   0.694   5.287   6.870
 5524SOL    HW133714   0.747   5.207   6.870
 5524SOL    HW233715   0.647   5.284   6.953
 5525SOL     OW33716   5.304   0.526   0.533
 5525SOL    HW133717   5.343   0.441   0.515
 5525SOL    HW233718   5.234   0.535   0.468
 5526SOL     OW33719   1.052   0.073   1.536
 5526SOL    HW133720   1.069  -0.001   1.594
 5526SOL    HW233721   0.974   0.049   1.488
 5527SOL     OW33722   4.363   0.957   0.871
 5527SOL    HW133723   4.337   1.047   0.852
 5527SOL    HW233724   4.409   0.962   0.955
 5528SOL     OW33725   3.558   2.367   1.686
 5528SOL    HW133726   3.557   2.282   1.730
 5528SOL    HW233727   3.651   2.387   1.676
 5529SOL     OW33728   0.099   5.927   0.201
 5529SOL    HW133729   0.154   5.864   0.247
 5529SOL    HW233730   0.011   5.913   0.237
 5530SOL     OW33731   1.932   1.953   6.217
 5530SOL    HW133732   1.971   2.037   6.193
 5530SOL    HW233733   1.899   1.965   6.306
 5531SOL     OW33734   0.221   1.423   0.391
 5531SOL    HW133735   0.181   1.495   0.440
 5531SOL    HW233736   0.160   1.350   0.402
 5532SOL     OW33737   1.209   4.408   6.750
 5532SOL    HW133738   1.175   4.340   6.692
 5532SOL    HW233739   1.140   4.474   6.754
 5533SOL     OW33740   5.609   4.042   0.384
 5533SOL    HW133741   5.698   4.075   0.401
 5533SOL    HW233742   5.561   4.061   0.464
 5534SOL     OW33743   0.759   0.553   6.364
 5534SOL    HW133744   0.768   0.621   6.296
 5534SOL    HW233745   0.728   0.476   6.316
 5535SOL     OW33746   3.722   3.349   7.211
 5535SOL    HW133747   3.630   3.355   7.186
 5535SOL    HW233748   3.733   3.416   7.279
 5536SOL     OW33749   3.537   5.914   7.412
 5536SOL    HW133750   3.616   5.867   7.383
 5536SOL    HW233751   3.499   5.949   7.332
 5537SOL     OW33752   2.705   4.390   1.920
 5537SOL    HW133753   2.639   4.321   1.914
 5537SOL    HW233754   2.719   4.402   2.014
 5538SOL     OW33755   0.862   4.894   8.011
 5538SOL    HW133756   0.848   4.800   8.022
 5538SOL    HW233757   0.819   4.934   8.087
 5539SOL     OW33758   0.102   1.354   1.962
 5539SOL    HW133759   0.145   1.354   2.048
 5539SOL    HW233760   0.025   1.299   1.975
 5540SOL     OW33761   3.513   3.802   7.263
 5540SOL    HW133762   3.539   3.733   7.324
 5540SOL    HW233763   3.511   3.882   7.316
 5541SOL     OW33764   6.294   5.374   7.331
 5541SOL    HW133765   6.208   5.333   7.328
 5541SOL    HW233766   6.297   5.429   7.253
 5542SOL     OW33767   1.918   0.609   5.902
 5542SOL    HW133768   1.949   0.630   5.990
 5542SOL    HW233769   1.895   0.516   5.907
 5543SOL     OW33770   2.140   3.167   7.422
 5543SOL    HW133771   2.088   3.179   7.343
 5543SOL    HW233772   2.085   3.111   7.478
 5544SOL     OW33773   4.177   3.230   5.841
 5544SOL    HW133774   4.195   3.317   5.805
 5544SOL    HW233775   4.259   3.204   5.883
 5545SOL     OW33776   3.083   5.635   2.774
 5545SOL    HW133777   2.989   5.650   2.764
 5545SOL    HW233778   3.115   5.716   2.813
 5546SOL     OW33779   5.741   1.398   7.106
 5546SOL    HW133780   5.665   1.455   7.099
 5546SOL    HW233781   5.712   1.314   7.069
 5547SOL     OW33782   3.531   0.989   6.124
 5547SOL    HW133783   3.626   0.995   6.125
 5547SOL    HW233784   3.509   0.968   6.034
 5548SOL     OW33785   0.462   3.861   0.642
 5548SOL    HW133786   0.506   3.778   0.660
 5548SOL    HW233787   0.413   3.880   0.723
 5549SOL     OW33788   1.883   2.037   7.920
 5549SOL    HW133789   1.792   2.065   7.913
 5549SOL    HW233790   1.927   2.108   7.966
 5550SOL     OW33791   6.105   3.029   7.960
 5550SOL    HW133792   6.165   2.969   7.916
 5550SOL    HW233793   6.045   3.058   7.892
 5551SOL     OW33794   2.002   2.862   5.803
 5551SOL    HW133795   1.914   2.863   5.766
 5551SOL    HW233796   2.017   2.771   5.826
 5552SOL     OW33797   4.509   1.477   0.204
 5552SOL    HW133798   4.467   1.393   0.186
 5552SOL    HW233799   4.514   1.520   0.119
 5553SOL     OW33800   4.253   1.891   1.417
 5553SOL    HW133801   4.342   1.858   1.425
 5553SOL    HW233802   4.204   1.845   1.486
 5554SOL     OW33803   4.350   4.859   6.728
 5554SOL    HW133804   4.281   4.798   6.703
 5554SOL    HW233805   4.408   4.808   6.784
 5555SOL     OW33806   3.297   5.983   6.875
 5555SOL    HW133807   3.296   6.062   6.928
 5555SOL    HW233808   3.247   6.006   6.797
 5556SOL     OW33809   1.806   1.935   6.921
 5556SOL    HW133810   1.754   1.858   6.896
 5556SOL    HW233811   1.751   2.010   6.899
 5557SOL     OW33812   2.811   0.026   7.962
 5557SOL    HW133813   2.854  -0.056   7.984
 5557SOL    HW233814   2.827   0.036   7.868
 5558SOL     OW33815   2.884   1.002   5.487
 5558SOL    HW133816   2.968   0.969   5.454
 5558SOL    HW233817   2.839   0.925   5.520
 5559SOL     OW33818   5.867   6.008   1.251
 5559SOL    HW133819   5.822   5.963   1.323
 5559SOL    HW233820   5.903   6.087   1.291
 5560SOL     OW33821   3.777   1.015   7.203
 5560SOL    HW133822   3.721   1.027   7.126
 5560SOL    HW233823   3.814   0.927   7.192
 5561SOL     OW33824   4.017   6.303   7.778
 5561SOL    HW133825   3.931   6.318   7.738
 5561SOL    HW233826   4.016   6.355   7.858
 5562SOL     OW33827   5.071   0.989   6.350
 5562SOL    HW133828   5.029   1.075   6.356
 5562SOL    HW233829   5.155   1.006   6.307
 5563SOL     OW33830   2.659   2.411   1.335
 5563SOL    HW133831   2.698   2.409   1.247
 5563SOL    HW233832   2.716   2.356   1.388
 5564SOL     OW33833   1.091   1.311   1.231
 5564SOL    HW133834   1.074   1.335   1.140
 5564SOL    HW233835   1.184   1.290   1.234
 5565SOL     OW33836   4.630   3.199   7.629
 5565SOL    HW133837   4.605   3.111   7.657
 5565SOL    HW233838   4.683   3.186   7.551
 5566SOL     OW33839   2.759   4.826   7.587
 5566SOL    HW133840   2.666   4.845   7.600
 5566SOL    HW233841   2.805   4.891   7.640
 5567SOL     OW33842   3.176   1.152   5.998
 5567SOL    HW133843   3.105   1.188   6.051
 5567SOL    HW233844   3.135   1.085   5.944
 5568SOL     OW33845   6.225   1.143   7.938
 5568SOL    HW133846   6.192   1.090   8.011
 5568SOL    HW233847   6.251   1.079   7.872
 5569SOL     OW33848   1.202   1.570   0.386
 5569SOL    HW133849   1.115   1.554   0.423
 5569SOL    HW233850   1.260   1.511   0.435
 5570SOL     OW33851   3.433   4.199   1.871
 5570SOL    HW133852   3.362   4.151   1.915
 5570SOL    HW233853   3.425   4.175   1.779
 5571SOL     OW33854   1.782   5.248   6.596
 5571SOL    HW133855   1.697   5.207   6.579
 5571SOL    HW233856   1.765   5.342   6.585
 5572SOL     OW33857   3.430   1.847   6.566
 5572SOL    HW133858   3.354   1.901   6.587
 5572SOL    HW233859   3.479   1.840   6.648
 5573SOL     OW33860   3.111   3.235   5.585
 5573SOL    HW133861   3.149   3.315   5.620
 5573SOL    HW233862   3.135   3.167   5.648
 5574SOL     OW33863   6.304   0.466   0.387
 5574SOL    HW133864   6.220   0.475   0.342
 5574SOL    HW233865   6.316   0.549   0.433
 5575SOL     OW33866   5.514   5.333   6.883
 5575SOL    HW133867   5.607   5.343   6.863
 5575SOL    HW233868   5.490   5.248   6.846
 5576SOL     OW33869   4.279   2.173   7.275
 5576SOL    HW133870   4.338   2.245   7.251
 5576SOL    HW233871   4.320   2.131   7.350
 5577SOL     OW33872   0.472   0.281   0.598
 5577SOL    HW133873   0.418   0.325   0.663
 5577SOL    HW233874   0.531   0.225   0.648
 5578SOL     OW33875   1.363   2.355   0.274
 5578SOL    HW133876   1.367   2.312   0.359
 5578SOL    HW233877   1.337   2.285   0.213
 5579SOL     OW33878   0.142   4.852   2.668
 5579SOL    HW133879   0.151   4.913   2.594
 5579SOL    HW233880   0.090   4.780   2.634
 5580SOL     OW33881   0.091   0.670   1.507
 5580SOL    HW133882   0.000   0.640   1.503
 5580SOL    HW233883   0.135   0.608   1.565
 5581SOL     OW33884   5.531   0.654   7.441
 5581SOL    HW133885   5.541   0.745   7.416
 5581SOL    HW233886   5.527   0.606   7.357
 5582SOL     OW33887   5.977   4.337   0.614
 5582SOL    HW133888   6.011   4.303   0.697
 5582SOL    HW233889   6.054   4.348   0.559
 5583SOL     OW33890   2.524   2.674   1.377
 5583SOL    HW133891   2.555   2.595   1.334
 5583SOL    HW233892   2.447   2.701   1.327
 5584SOL     OW33893   1.873   4.287   0.773
 5584SOL    HW133894   1.911   4.309   0.688
 5584SOL    HW233895   1.846   4.196   0.765
 5585SOL     OW33896   3.431   4.620   0.171
 5585SOL    HW133897   3.473   4.703   0.152
 5585SOL    HW233898   3.499   4.554   0.153
 5586SOL     OW33899   2.045   1.845   5.883
 5586SOL    HW133900   2.052   1.755   5.850
 5586SOL    HW233901   2.102   1.846   5.960
 5587SOL     OW33902   3.121   5.000   0.467
 5587SOL    HW133903   3.105   4.982   0.560
 5587SOL    HW233904   3.038   5.036   0.435
 5588SOL     OW33905   5.411   2.300   7.357
 5588SOL    HW133906   5.364   2.357   7.295
 5588SOL    HW233907   5.343   2.243   7.392
 5589SOL     OW33908   5.989   5.919   2.287
 5589SOL    HW133909   5.943   5.994   2.250
 5589SOL    HW233910   5.971   5.847   2.226
 5590SOL     OW33911   2.159   6.307   5.725
 5590SOL    HW133912   2.093   6.238   5.729
 5590SOL    HW233913   2.109   6.388   5.741
 5591SOL     OW33914   2.513   0.241   0.323
 5591SOL    HW133915   2.483   0.294   0.396
 5591SOL    HW233916   2.441   0.180   0.305
 5592SOL     OW33917   3.348   2.992   2.469
 5592SOL    HW133918   3.381   2.987   2.379
 5592SOL    HW233919   3.356   3.085   2.492
 5593SOL     OW33920   5.269   5.729   7.517
 5593SOL    HW133921   5.347   5.694   7.562
 5593SOL    HW233922   5.290   5.722   7.424
 5594SOL     OW33923   0.837   5.177   0.703
 5594SOL    HW133924   0.840   5.178   0.799
 5594SOL    HW233925   0.894   5.249   0.676
 5595SOL     OW33926   1.877   5.875   0.636
 5595SOL    HW133927   1.937   5.851   0.565
 5595SOL    HW233928   1.929   5.867   0.715
 5596SOL     OW33929   1.068   6.226   0.150
 5596SOL    HW133930   1.149   6.211   0.200
 5596SOL    HW233931   1.036   6.138   0.131
 5597SOL     OW33932   4.723   1.489   0.596
 5597SOL    HW133933   4.799   1.486   0.653
 5597SOL    HW233934   4.757   1.521   0.512
 5598SOL     OW33935   2.532   4.410   7.653
 5598SOL    HW133936   2.508   4.336   7.709
 5598SOL    HW233937   2.457   4.423   7.596
 5599SOL     OW33938   4.929   1.808   1.207
 5599SOL    HW133939   4.998   1.838   1.266
 5599SOL    HW233940   4.963   1.826   1.119
 5600SOL     OW33941   2.031   1.142   2.545
 5600SOL    HW133942   1.950   1.125   2.496
 5600SOL    HW233943   2.092   1.175   2.479
 5601SOL     OW33944   2.844   2.589   2.574
 5601SOL    HW133945   2.836   2.516   2.512
 5601SOL    HW233946   2.935   2.617   2.566
 5602SOL     OW33947   4.252   5.278   7.541
 5602SOL    HW133948   4.192   5.254   7.471
 5602SOL    HW233949   4.234   5.215   7.611
 5603SOL     OW33950   3.634   3.766   7.505
 5603SOL    HW133951   3.612   3.814   7.585
 5603SOL    HW233952   3.693   3.824   7.457
 5604SOL     OW33953   4.097   6.181   7.496
 5604SOL    HW133954   4.042   6.201   7.571
 5604SOL    HW233955   4.134   6.265   7.470
 5605SOL     OW33956   3.838   2.073   7.012
 5605SOL    HW133957   3.912   2.053   6.954
 5605SOL    HW233958   3.862   2.155   7.055
 5606SOL     OW33959   2.817   6.090   1.559
 5606SOL    HW133960   2.887   6.104   1.495
 5606SOL    HW233961   2.825   6.164   1.620
 5607SOL     OW33962   5.572   4.279   1.083
 5607SOL    HW133963   5.578   4.342   1.155
 5607SOL    HW233964   5.628   4.206   1.110
 5608SOL     OW33965   5.258   2.144   7.505
 5608SOL    HW133966   5.175   2.172   7.543
 5608SOL    HW233967   5.284   2.068   7.556
 5609SOL     OW33968   1.654   1.202   0.056
 5609SOL    HW133969   1.744   1.171   0.062
 5609SOL    HW233970   1.618   1.187   0.144
 5610SOL     OW33971   3.825   2.154   6.260
 5610SOL    HW133972   3.770   2.212   6.207
 5610SOL    HW233973   3.909   2.199   6.264
 5611SOL     OW33974   5.557   5.703   6.015
 5611SOL    HW133975   5.573   5.798   6.020
 5611SOL    HW233976   5.516   5.682   6.099
 5612SOL     OW33977   2.193   5.616   0.833
 5612SOL    HW133978   2.100   5.599   0.847
 5612SOL    HW233979   2.237   5.538   0.867
 5613SOL     OW33980   4.853   0.473   2.134
 5613SOL    HW133981   4.766   0.450   2.102
 5613SOL    HW233982   4.874   0.405   2.198
 5614SOL     OW33983   2.035   2.189   7.058
 5614SOL    HW133984   1.943   2.214   7.052
 5614SOL    HW233985   2.067   2.193   6.968
 5615SOL     OW33986   2.037   0.938   7.041
 5615SOL    HW133987   2.079   0.973   6.962
 5615SOL    HW233988   2.034   0.843   7.026
 5616SOL     OW33989   3.228   6.303   7.629
 5616SOL    HW133990   3.315   6.263   7.622
 5616SOL    HW233991   3.221   6.359   7.551
 5617SOL     OW33992   4.488   5.722   0.133
 5617SOL    HW133993   4.520   5.807   0.102
 5617SOL    HW233994   4.503   5.725   0.227
 5618SOL     OW33995   3.626   2.500   1.966
 5618SOL    HW133996   3.676   2.561   2.020
 5618SOL    HW233997   3.661   2.512   1.878
 5619SOL     OW33998   2.187   0.180   2.126
 5619SOL    HW133999   2.120   0.243   2.153
 5619SOL    HW234000   2.188   0.115   2.196
 5620SOL     OW34001   2.017   1.134   2.846
 5620SOL    HW134002   2.019   1.144   2.751
 5620SOL    HW234003   2.053   1.216   2.880
 5621SOL     OW34004   6.069   4.914   6.528
 5621SOL    HW134005   6.014   4.964   6.588
 5621SOL    HW234006   6.086   4.973   6.455
 5622SOL     OW34007   0.460   4.748   1.102
 5622SOL    HW134008   0.437   4.672   1.050
 5622SOL    HW234009   0.556   4.751   1.100
 5623SOL     OW34010   0.122   3.201   6.522
 5623SOL    HW134011   0.155   3.202   6.432
 5623SOL    HW234012   0.036   3.160   6.516
 5624SOL     OW34013   3.936   2.313   7.092
 5624SOL    HW134014   3.982   2.308   7.176
 5624SOL    HW234015   3.885   2.395   7.097
 5625SOL     OW34016   4.781   5.139   7.166
 5625SOL    HW134017   4.814   5.070   7.107
 5625SOL    HW234018   4.776   5.217   7.111
 5626SOL     OW34019   4.980   1.926   6.792
 5626SOL    HW134020   4.921   1.864   6.749
 5626SOL    HW234021   4.959   2.011   6.752
 5627SOL     OW34022   5.373   4.048   0.230
 5627SOL    HW134023   5.461   4.040   0.269
 5627SOL    HW234024   5.358   4.142   0.225
 5628SOL     OW34025   2.610   2.631   1.880
 5628SOL    HW134026   2.564   2.612   1.798
 5628SOL    HW234027   2.668   2.556   1.892
 5629SOL     OW34028   5.802   2.396   6.422
 5629SOL    HW134029   5.743   2.364   6.354
 5629SOL    HW234030   5.778   2.488   6.433
 5630SOL     OW34031   3.475   4.807   7.389
 5630SOL    HW134032   3.500   4.878   7.449
 5630SOL    HW234033   3.474   4.729   7.444
 5631SOL     OW34034   2.889   4.007   6.916
 5631SOL    HW134035   2.965   4.036   6.865
 5631SOL    HW234036   2.925   3.981   7.000
 5632SOL     OW34037   1.910   1.516   1.140
 5632SOL    HW134038   1.955   1.474   1.214
 5632SOL    HW234039   1.963   1.491   1.063
 5633SOL     OW34040   4.378   0.233   6.875
 5633SOL    HW134041   4.368   0.272   6.788
 5633SOL    HW234042   4.451   0.280   6.914
 5634SOL     OW34043   1.516   1.177   1.513
 5634SOL    HW134044   1.597   1.126   1.510
 5634SOL    HW234045   1.541   1.258   1.557
 5635SOL     OW34046   2.042   3.103   0.989
 5635SOL    HW134047   2.067   3.187   1.027
 5635SOL    HW234048   1.950   3.114   0.965
 5636SOL     OW34049   5.371   1.802   0.378
 5636SOL    HW134050   5.312   1.742   0.332
 5636SOL    HW234051   5.312   1.862   0.424
 5637SOL     OW34052   5.108   4.837   1.313
 5637SOL    HW134053   5.093   4.895   1.238
 5637SOL    HW234054   5.202   4.844   1.331
 5638SOL     OW34055   3.657   2.453   5.840
 5638SOL    HW134056   3.669   2.484   5.929
 5638SOL    HW234057   3.729   2.393   5.825
 5639SOL     OW34058   4.953   6.226   6.297
 5639SOL    HW134059   4.884   6.195   6.238
 5639SOL    HW234060   5.026   6.248   6.240
 5640SOL     OW34061   2.698   5.410   7.620
 5640SOL    HW134062   2.665   5.322   7.639
 5640SOL    HW234063   2.706   5.412   7.524
 5641SOL     OW34064   5.544   2.741   7.751
 5641SOL    HW134065   5.630   2.763   7.713
 5641SOL    HW234066   5.500   2.693   7.681
 5642SOL     OW34067   1.743   1.516   7.639
 5642SOL    HW134068   1.649   1.500   7.628
 5642SOL    HW234069   1.750   1.566   7.720
 5643SOL     OW34070   0.100   6.288   7.874
 5643SOL    HW134071   0.097   6.236   7.954
 5643SOL    HW234072   0.102   6.379   7.905
 5644SOL     OW34073   1.533   5.118   6.518
 5644SOL    HW134074   1.497   5.073   6.594
 5644SOL    HW234075   1.477   5.093   6.445
 5645SOL     OW34076   5.220   1.614   6.535
 5645SOL    HW134077   5.277   1.575   6.468
 5645SOL    HW234078   5.248   1.705   6.541
 5646SOL     OW34079   5.391   4.427   7.948
 5646SOL    HW134080   5.425   4.339   7.963
 5646SOL    HW234081   5.451   4.484   7.996
 5647SOL     OW34082   1.383   5.873   0.908
 5647SOL    HW134083   1.403   5.782   0.929
 5647SOL    HW234084   1.421   5.923   0.981
 5648SOL     OW34085   2.963   1.264   6.927
 5648SOL    HW134086   3.021   1.307   6.863
 5648SOL    HW234087   3.022   1.229   6.993
 5649SOL     OW34088   5.022   3.470   7.168
 5649SOL    HW134089   5.098   3.471   7.110
 5649SOL    HW234090   4.963   3.535   7.131
 5650SOL     OW34091   3.220   3.103   5.768
 5650SOL    HW134092   3.175   3.022   5.792
 5650SOL    HW234093   3.303   3.099   5.816
 5651SOL     OW34094   2.129   2.508   6.083
 5651SOL    HW134095   2.065   2.532   6.016
 5651SOL    HW234096   2.210   2.491   6.035
 5652SOL     OW34097   1.006   3.807   5.897
 5652SOL    HW134098   0.932   3.857   5.932
 5652SOL    HW234099   1.067   3.800   5.971
 5653SOL     OW34100   4.239   5.275   0.301
 5653SOL    HW134101   4.331   5.256   0.283
 5653SOL    HW234102   4.196   5.268   0.216
 5654SOL     OW34103   5.165   0.983   0.160
 5654SOL    HW134104   5.155   0.913   0.095
 5654SOL    HW234105   5.238   0.955   0.214
 5655SOL     OW34106   0.984   5.417   6.179
 5655SOL    HW134107   0.991   5.390   6.088
 5655SOL    HW234108   0.942   5.503   6.176
 5656MOL     C134109   4.037   2.976   6.544
 5656MOL     C234110   4.094   2.839   6.543
 5656MOL     N134111   3.958   2.947   6.315
 5656MOL     N234112   4.018   2.738   6.519
 5656MOL     C334113   3.916   2.815   6.317
 5656MOL     C434114   3.888   2.757   6.455
 5656MOL     H134115   3.817   2.818   6.513
 5656MOL     H234116   3.844   2.657   6.442
 5656MOL     C534117   3.947   3.163   6.412
 5656MOL     C634118   3.975   3.260   6.509
 5656MOL     C734119   3.984   3.029   6.426
 5656MOL     C834120   4.029   3.208   6.627
 5656MOL     C934121   4.063   3.073   6.641
 5656MOL     H334122   3.960   3.367   6.499
 5656MOL     H434123   4.107   3.046   6.736
 5656MOL     H534124   3.908   3.199   6.316
 5656MOL     O134125   3.893   2.752   6.215
 5656MOL    C1034126   4.225   2.805   6.601
 5656MOL    C1134127   4.335   2.886   6.571
 5656MOL     N334128   4.243   2.684   6.656
 5656MOL    C1234129   4.459   2.857   6.629
 5656MOL    C1334130   4.361   2.650   6.709
 5656MOL    C1434131   4.472   2.734   6.695
 5656MOL     H634132   4.323   2.978   6.515
 5656MOL     H734133   4.544   2.922   6.610
 5656MOL     H834134   4.380   2.548   6.741
 5656MOL     H934135   4.565   2.704   6.743
 5656MOL    H1034136   3.973   2.990   6.225
 5656MOL    BR134137   4.076   3.338   6.759
 5656MOL     EP34138   4.126   3.475   6.899
   6.35193   6.35193   8.07021
