POPC bilayer and 5FIBZ with EP hydrated t= 10890.00000 step= 445000
34138
    1PA    C116    1   1.584   5.008   3.914
    1PA    H16R    2   1.498   4.940   3.912
    1PA    H16S    3   1.665   4.963   3.973
    1PA    H16T    4   1.620   5.007   3.811
    1PA    C115    5   1.535   5.143   3.968
    1PA    H15R    6   1.617   5.214   3.976
    1PA    H15S    7   1.467   5.184   3.893
    1PA    C114    8   1.467   5.119   4.104
    1PA    H14R    9   1.396   5.036   4.095
    1PA    H14S   10   1.542   5.085   4.176
    1PA    C113   11   1.395   5.245   4.152
    1PA    H13R   12   1.474   5.319   4.166
    1PA    H13S   13   1.332   5.286   4.073
    1PA    C112   14   1.318   5.225   4.284
    1PA    H12R   15   1.247   5.143   4.276
    1PA    H12S   16   1.385   5.205   4.368
    1PA    C111   17   1.239   5.355   4.308
    1PA    H11R   18   1.311   5.436   4.316
    1PA    H11S   19   1.170   5.373   4.225
    1PA    C110   20   1.152   5.345   4.434
    1PA    H10R   21   1.071   5.418   4.421
    1PA    H10S   22   1.096   5.253   4.451
    1PA     C19   23   1.226   5.377   4.564
    1PA     H9R   24   1.299   5.299   4.587
    1PA     H9S   25   1.283   5.470   4.562
    1PA     C18   26   1.128   5.388   4.682
    1PA     H8R   27   1.097   5.493   4.685
    1PA     H8S   28   1.044   5.319   4.681
    1PA     C17   29   1.201   5.357   4.813
    1PA     H7R   30   1.232   5.252   4.808
    1PA     H7S   31   1.294   5.411   4.829
    1PA     C16   32   1.105   5.369   4.933
    1PA     H6R   33   1.043   5.459   4.923
    1PA     H6S   34   1.036   5.284   4.930
    1PA     C15   35   1.180   5.361   5.066
    1PA     H5R   36   1.218   5.260   5.081
    1PA     H5S   37   1.268   5.426   5.061
    1PA     C14   38   1.098   5.403   5.189
    1PA     H4R   39   1.073   5.510   5.184
    1PA     H4S   40   1.007   5.343   5.188
    1PA     C13   41   1.187   5.380   5.312
    1PA     H3R   42   1.214   5.274   5.314
    1PA     H3S   43   1.279   5.436   5.297
    1PA     C12   44   1.116   5.430   5.439
    1PA     H2R   45   1.118   5.539   5.449
    1PA     H2S   46   1.012   5.397   5.428
    2PC     C11   47   1.164   5.374   5.570
    2PC     O12   48   1.133   5.416   5.680
    2PC     O11   49   1.243   5.267   5.557
    2PC      C1   50   1.301   5.193   5.666
    2PC      HR   51   1.389   5.137   5.635
    2PC      HS   52   1.319   5.267   5.745
    2PC      C2   53   1.194   5.091   5.708
    2PC      HX   54   1.101   5.146   5.718
    2PC      C3   55   1.233   5.009   5.832
    2PC      HA   56   1.280   4.917   5.796
    2PC      HB   57   1.283   5.071   5.906
    2PC     O31   58   1.107   4.969   5.891
    2PC     P31   59   1.100   4.885   6.027
    2PC     O32   60   1.081   5.008   6.127
    2PC     C31   61   1.195   5.044   6.208
    2PC     H1A   62   1.258   4.960   6.240
    2PC     H1B   63   1.260   5.109   6.149
    2PC     C32   64   1.149   5.115   6.336
    2PC     H2A   65   1.238   5.135   6.395
    2PC     H2B   66   1.088   5.201   6.310
    2PC     N31   67   1.060   5.039   6.429
    2PC     C33   68   1.102   4.897   6.449
    2PC     H3A   69   1.023   4.839   6.497
    2PC     H3B   70   1.124   4.842   6.357
    2PC     H3C   71   1.189   4.905   6.514
    2PC     C34   72   1.073   5.109   6.561
    2PC     H4A   73   1.178   5.125   6.583
    2PC     H4B   74   1.027   5.207   6.549
    2PC     H4C   75   1.023   5.059   6.645
    2PC     C35   76   0.924   5.029   6.368
    2PC     H5A   77   0.887   5.132   6.370
    2PC     H5B   78   0.873   4.953   6.428
    2PC     H5C   79   0.919   4.990   6.266
    2PC     O33   80   0.978   4.803   6.006
    2PC     O34   81   1.216   4.795   6.044
    2PC     O21   82   1.175   4.994   5.603
    2PC     C21   83   1.075   5.020   5.517
    2PC     O22   84   0.986   5.102   5.530
    3OL     C12   85   1.072   4.922   5.402
    3OL     H2R   86   0.992   4.850   5.421
    3OL     H2S   87   1.172   4.879   5.411
    3OL     C13   88   1.056   5.005   5.274
    3OL     H3R   89   1.127   5.087   5.280
    3OL     H3S   90   0.954   5.045   5.276
    3OL     C14   91   1.081   4.914   5.153
    3OL     H4R   92   1.019   4.825   5.164
    3OL     H4S   93   1.186   4.887   5.156
    3OL     C15   94   1.027   4.977   5.023
    3OL     H5R   95   1.081   5.071   5.012
    3OL     H5S   96   0.927   5.018   5.039
    3OL     C16   97   1.030   4.877   4.907
    3OL     H6R   98   0.958   4.798   4.930
    3OL     H6S   99   1.130   4.837   4.886
    3OL     C17  100   0.968   4.943   4.784
    3OL     H7R  101   1.026   5.034   4.763
    3OL     H7S  102   0.862   4.958   4.802
    3OL     C18  103   0.988   4.852   4.662
    3OL     H8R  104   0.961   4.749   4.684
    3OL     H8S  105   1.095   4.855   4.640
    3OL     C19  106   0.909   4.917   4.550
    3OL     H9R  107   0.953   5.000   4.496
    3OL    C110  108   0.787   4.883   4.511
    3OL    H10R  109   0.740   4.937   4.429
    3OL    C111  110   0.710   4.765   4.564
    3OL    H11R  111   0.724   4.757   4.672
    3OL    H11S  112   0.753   4.672   4.525
    3OL    C112  113   0.561   4.773   4.529
    3OL    H12R  114   0.509   4.683   4.562
    3OL    H12S  115   0.540   4.775   4.422
    3OL    C113  116   0.485   4.895   4.583
    3OL    H13R  117   0.392   4.907   4.527
    3OL    H13S  118   0.542   4.988   4.573
    3OL    C114  119   0.442   4.885   4.730
    3OL    H14R  120   0.522   4.832   4.783
    3OL    H14S  121   0.359   4.814   4.738
    3OL    C115  122   0.405   5.019   4.794
    3OL    H15R  123   0.310   5.059   4.756
    3OL    H15S  124   0.472   5.104   4.776
    3OL    C116  125   0.380   4.996   4.943
    3OL    H16R  126   0.411   5.083   5.001
    3OL    H16S  127   0.436   4.906   4.970
    3OL    C117  128   0.235   4.980   4.990
    3OL    H17R  129   0.190   4.907   4.922
    3OL    H17S  130   0.178   5.068   4.960
    3OL    C118  131   0.214   4.945   5.138
    3OL    H18R  132   0.128   4.878   5.133
    3OL    H18S  133   0.184   5.029   5.201
    3OL    H18T  134   0.285   4.883   5.193
    1PA    C116  135   0.772   3.821   3.977
    1PA    H16R  136   0.792   3.838   3.871
    1PA    H16S  137   0.682   3.876   4.005
    1PA    H16T  138   0.755   3.714   3.989
    1PA    C115  139   0.891   3.877   4.057
    1PA    H15R  140   0.979   3.815   4.046
    1PA    H15S  141   0.905   3.973   4.007
    1PA    C114  142   0.868   3.893   4.208
    1PA    H14R  143   0.802   3.979   4.225
    1PA    H14S  144   0.820   3.805   4.251
    1PA    C113  145   0.990   3.939   4.288
    1PA    H13R  146   1.061   3.855   4.294
    1PA    H13S  147   1.044   4.022   4.241
    1PA    C112  148   0.955   3.992   4.428
    1PA    H12R  149   1.047   4.036   4.468
    1PA    H12S  150   0.877   4.067   4.422
    1PA    C111  151   0.908   3.879   4.521
    1PA    H11R  152   0.834   3.808   4.484
    1PA    H11S  153   0.992   3.816   4.550
    1PA    C110  154   0.854   3.937   4.652
    1PA    H10R  155   0.789   4.020   4.624
    1PA    H10S  156   0.786   3.868   4.700
    1PA     C19  157   0.959   3.984   4.754
    1PA     H9R  158   1.004   3.893   4.796
    1PA     H9S  159   1.043   4.040   4.713
    1PA     C18  160   0.899   4.072   4.864
    1PA     H8R  161   0.976   4.109   4.933
    1PA     H8S  162   0.856   4.157   4.810
    1PA     C17  163   0.799   3.992   4.948
    1PA     H7R  164   0.727   4.066   4.984
    1PA     H7S  165   0.737   3.916   4.901
    1PA     C16  166   0.876   3.926   5.063
    1PA     H6R  167   0.945   3.853   5.020
    1PA     H6S  168   0.939   3.992   5.124
    1PA     C15  169   0.784   3.842   5.152
    1PA     H5R  170   0.731   3.768   5.091
    1PA     H5S  171   0.851   3.786   5.218
    1PA     C14  172   0.683   3.914   5.243
    1PA     H4R  173   0.628   3.989   5.185
    1PA     H4S  174   0.617   3.841   5.290
    1PA     C13  175   0.747   3.989   5.360
    1PA     H3R  176   0.805   3.921   5.423
    1PA     H3S  177   0.824   4.061   5.330
    1PA     C12  178   0.637   4.059   5.440
    1PA     H2R  179   0.592   4.132   5.372
    1PA     H2S  180   0.570   3.976   5.465
    2PC     C11  181   0.698   4.128   5.560
    2PC     O12  182   0.783   4.214   5.554
    2PC     O11  183   0.641   4.077   5.670
    2PC      C1  184   0.717   4.063   5.791
    2PC      HR  185   0.739   4.156   5.844
    2PC      HS  186   0.654   4.020   5.870
    2PC      C2  187   0.832   3.962   5.777
    2PC      HX  188   0.787   3.883   5.717
    2PC      C3  189   0.890   3.910   5.909
    2PC      HA  190   0.808   3.851   5.950
    2PC      HB  191   0.979   3.847   5.906
    2PC     O31  192   0.913   4.020   5.999
    2PC     P31  193   0.960   3.983   6.148
    2PC     O32  194   0.832   3.917   6.217
    2PC     C31  195   0.704   3.979   6.193
    2PC     H1A  196   0.706   4.074   6.248
    2PC     H1B  197   0.687   3.992   6.086
    2PC     C32  198   0.597   3.891   6.259
    2PC     H2A  199   0.501   3.929   6.223
    2PC     H2B  200   0.595   3.788   6.224
    2PC     N31  201   0.584   3.887   6.408
    2PC     C33  202   0.474   3.791   6.441
    2PC     H3A  203   0.394   3.809   6.369
    2PC     H3B  204   0.514   3.690   6.425
    2PC     H3C  205   0.459   3.818   6.546
    2PC     C34  206   0.705   3.838   6.480
    2PC     H4A  207   0.709   3.881   6.580
    2PC     H4B  208   0.696   3.730   6.493
    2PC     H4C  209   0.798   3.866   6.430
    2PC     C35  210   0.543   4.020   6.464
    2PC     H5A  211   0.624   4.089   6.437
    2PC     H5B  212   0.513   4.006   6.568
    2PC     H5C  213   0.456   4.056   6.408
    2PC     O33  214   1.073   3.887   6.139
    2PC     O34  215   1.006   4.104   6.221
    2PC     O21  216   0.936   4.034   5.710
    2PC     C21  217   1.023   3.968   5.630
    2PC     O22  218   0.994   3.865   5.574
    3OL     C12  219   1.151   4.046   5.617
    3OL     H2R  220   1.199   4.050   5.715
    3OL     H2S  221   1.146   4.153   5.597
    3OL     C13  222   1.247   3.982   5.514
    3OL     H3R  223   1.266   3.881   5.549
    3OL     H3S  224   1.340   4.039   5.518
    3OL     C14  225   1.192   3.993   5.371
    3OL     H4R  226   1.143   4.090   5.365
    3OL     H4S  227   1.122   3.912   5.350
    3OL     C15  228   1.309   4.000   5.272
    3OL     H5R  229   1.391   3.932   5.295
    3OL     H5S  230   1.346   4.103   5.278
    3OL     C16  231   1.251   3.990   5.130
    3OL     H6R  232   1.157   4.046   5.132
    3OL     H6S  233   1.230   3.885   5.109
    3OL     C17  234   1.365   4.027   5.034
    3OL     H7R  235   1.439   3.946   5.036
    3OL     H7S  236   1.411   4.123   5.058
    3OL     C18  237   1.315   4.013   4.890
    3OL     H8R  238   1.218   4.062   4.876
    3OL     H8S  239   1.309   3.907   4.864
    3OL     C19  240   1.411   4.084   4.797
    3OL     H9R  241   1.463   4.163   4.850
    3OL    C110  242   1.409   4.076   4.665
    3OL    H10R  243   1.461   4.151   4.605
    3OL    C111  244   1.326   3.978   4.587
    3OL    H11R  245   1.279   4.024   4.500
    3OL    H11S  246   1.242   3.936   4.643
    3OL    C112  247   1.399   3.860   4.522
    3OL    H12R  248   1.437   3.790   4.597
    3OL    H12S  249   1.470   3.904   4.452
    3OL    C113  250   1.318   3.768   4.430
    3OL    H13R  251   1.254   3.824   4.361
    3OL    H13S  252   1.250   3.722   4.502
    3OL    C114  253   1.401   3.670   4.346
    3OL    H14R  254   1.492   3.724   4.320
    3OL    H14S  255   1.347   3.650   4.253
    3OL    C115  256   1.419   3.536   4.417
    3OL    H15R  257   1.323   3.491   4.443
    3OL    H15S  258   1.470   3.551   4.512
    3OL    C116  259   1.495   3.440   4.324
    3OL    H16R  260   1.598   3.467   4.302
    3OL    H16S  261   1.443   3.419   4.230
    3OL    C117  262   1.513   3.303   4.389
    3OL    H17R  263   1.558   3.234   4.318
    3OL    H17S  264   1.414   3.276   4.428
    3OL    C118  265   1.608   3.305   4.510
    3OL    H18R  266   1.705   3.346   4.482
    3OL    H18S  267   1.626   3.204   4.548
    3OL    H18T  268   1.559   3.357   4.593
    1PA    C116  269   5.915   3.982   4.667
    1PA    H16R  270   5.915   3.879   4.633
    1PA    H16S  271   5.811   4.016   4.669
    1PA    H16T  272   5.964   3.981   4.765
    1PA    C115  273   6.004   4.058   4.567
    1PA    H15R  274   5.980   4.021   4.467
    1PA    H15S  275   5.986   4.164   4.588
    1PA    C114  276   6.155   4.043   4.587
    1PA    H14R  277   6.176   4.075   4.689
    1PA    H14S  278   6.184   3.939   4.571
    1PA    C113  279   6.241   4.119   4.485
    1PA    H13R  280   6.204   4.105   4.383
    1PA    H13S  281   6.242   4.224   4.516
    1PA    C112  282   6.389   4.078   4.475
    1PA    H12R  283   6.399   3.970   4.465
    1PA    H12S  284   6.426   4.130   4.387
    1PA    C111  285   6.475   4.120   4.595
    1PA    H11R  286   6.483   4.228   4.613
    1PA    H11S  287   6.420   4.089   4.684
    1PA    C110  288   6.609   4.046   4.592
    1PA    H10R  289   6.591   3.938   4.596
    1PA    H10S  290   6.663   4.067   4.500
    1PA     C19  291   6.705   4.093   4.702
    1PA     H9R  292   6.765   4.176   4.665
    1PA     H9S  293   6.657   4.131   4.793
    1PA     C18  294   6.814   3.995   4.749
    1PA     H8R  295   6.772   3.911   4.804
    1PA     H8S  296   6.858   3.950   4.660
    1PA     C17  297   6.929   4.071   4.816
    1PA     H7R  298   7.013   4.001   4.816
    1PA     H7S  299   6.959   4.155   4.753
    1PA     C16  300   6.893   4.124   4.956
    1PA     H6R  301   6.977   4.174   5.005
    1PA     H6S  302   6.815   4.200   4.948
    1PA     C15  303   6.841   4.020   5.056
    1PA     H5R  304   6.749   3.971   5.024
    1PA     H5S  305   6.912   3.937   5.053
    1PA     C14  306   6.822   4.081   5.196
    1PA     H4R  307   6.827   4.003   5.272
    1PA     H4S  308   6.914   4.133   5.224
    1PA     C13  309   6.694   4.164   5.208
    1PA     H3R  310   6.676   4.228   5.122
    1PA     H3S  311   6.613   4.092   5.223
    1PA     C12  312   6.695   4.241   5.341
    1PA     H2R  313   6.784   4.305   5.347
    1PA     H2S  314   6.611   4.310   5.347
    2PC     C11  315   6.696   4.147   5.459
    2PC     O12  316   6.798   4.121   5.519
    2PC     O11  317   6.575   4.117   5.509
    2PC      C1  318   6.536   4.061   5.636
    2PC      HR  319   6.444   4.003   5.627
    2PC      HS  320   6.611   3.988   5.668
    2PC      C2  321   6.508   4.171   5.739
    2PC      HX  322   6.597   4.233   5.754
    2PC      C3  323   6.474   4.118   5.878
    2PC      HA  324   6.559   4.063   5.919
    2PC      HB  325   6.450   4.201   5.945
    2PC     O31  326   6.362   4.028   5.863
    2PC     P31  327   6.339   3.933   5.990
    2PC     O32  328   6.280   4.033   6.100
    2PC     C31  329   6.300   3.997   6.237
    2PC     H1A  330   6.402   3.964   6.256
    2PC     H1B  331   6.288   4.095   6.284
    2PC     C32  332   6.193   3.895   6.281
    2PC     H2A  333   6.103   3.957   6.275
    2PC     H2B  334   6.188   3.806   6.218
    2PC     N31  335   6.212   3.845   6.421
    2PC     C33  336   6.084   3.779   6.464
    2PC     H3A  337   6.012   3.856   6.492
    2PC     H3B  338   6.038   3.711   6.392
    2PC     H3C  339   6.116   3.722   6.551
    2PC     C34  340   6.328   3.750   6.429
    2PC     H4A  341   6.326   3.692   6.337
    2PC     H4B  342   6.418   3.811   6.439
    2PC     H4C  343   6.324   3.676   6.509
    2PC     C35  344   6.227   3.952   6.524
    2PC     H5A  345   6.139   4.016   6.528
    2PC     H5B  346   6.314   4.016   6.507
    2PC     H5C  347   6.254   3.902   6.617
    2PC     O33  348   6.242   3.822   5.978
    2PC     O34  349   6.472   3.875   6.021
    2PC     O21  350   6.406   4.260   5.690
    2PC     C21  351   6.403   4.386   5.736
    2PC     O22  352   6.443   4.423   5.845
    3OL     C12  353   6.348   4.473   5.626
    3OL     H2R  354   6.361   4.576   5.659
    3OL     H2S  355   6.250   4.432   5.601
    3OL     C13  356   6.440   4.470   5.503
    3OL     H3R  357   6.441   4.373   5.454
    3OL     H3S  358   6.542   4.502   5.527
    3OL     C14  359   6.384   4.574   5.404
    3OL     H4R  360   6.381   4.664   5.466
    3OL     H4S  361   6.282   4.541   5.381
    3OL     C15  362   6.471   4.589   5.279
    3OL     H5R  363   6.576   4.590   5.310
    3OL     H5S  364   6.448   4.691   5.249
    3OL     C16  365   6.436   4.489   5.168
    3OL     H6R  366   6.330   4.496   5.144
    3OL     H6S  367   6.450   4.389   5.212
    3OL     C17  368   6.520   4.496   5.040
    3OL     H7R  369   6.622   4.466   5.064
    3OL     H7S  370   6.528   4.599   5.004
    3OL     C18  371   6.470   4.408   4.925
    3OL     H8R  372   6.364   4.406   4.900
    3OL     H8S  373   6.475   4.305   4.960
    3OL     C19  374   6.560   4.428   4.805
    3OL     H9R  375   6.664   4.398   4.820
    3OL    C110  376   6.531   4.497   4.697
    3OL    H10R  377   6.607   4.493   4.619
    3OL    C111  378   6.401   4.567   4.665
    3OL    H11R  379   6.412   4.660   4.609
    3OL    H11S  380   6.352   4.592   4.760
    3OL    C112  381   6.307   4.471   4.591
    3OL    H12R  382   6.289   4.383   4.654
    3OL    H12S  383   6.348   4.431   4.499
    3OL    C113  384   6.166   4.526   4.564
    3OL    H13R  385   6.106   4.477   4.487
    3OL    H13S  386   6.168   4.632   4.537
    3OL    C114  387   6.085   4.511   4.694
    3OL    H14R  388   6.123   4.565   4.780
    3OL    H14S  389   6.083   4.409   4.730
    3OL    C115  390   5.945   4.568   4.663
    3OL    H15R  391   5.898   4.529   4.572
    3OL    H15S  392   5.952   4.676   4.647
    3OL    C116  393   5.840   4.539   4.770
    3OL    H16R  394   5.822   4.434   4.792
    3OL    H16S  395   5.748   4.585   4.732
    3OL    C117  396   5.884   4.612   4.898
    3OL    H17R  397   5.892   4.717   4.868
    3OL    H17S  398   5.983   4.585   4.935
    3OL    C118  399   5.784   4.591   5.013
    3OL    H18R  400   5.808   4.657   5.096
    3OL    H18S  401   5.775   4.487   5.045
    3OL    H18T  402   5.684   4.620   4.983
    1PA    C116  403   0.689   4.224   3.964
    1PA    H16R  404   0.608   4.238   3.891
    1PA    H16S  405   0.639   4.211   4.060
    1PA    H16T  406   0.734   4.126   3.947
    1PA    C115  407   0.790   4.339   3.971
    1PA    H15R  408   0.824   4.352   3.868
    1PA    H15S  409   0.745   4.436   3.996
    1PA    C114  410   0.915   4.307   4.054
    1PA    H14R  411   0.938   4.200   4.046
    1PA    H14S  412   1.007   4.357   4.023
    1PA    C113  413   0.894   4.342   4.202
    1PA    H13R  414   0.852   4.442   4.202
    1PA    H13S  415   0.817   4.272   4.236
    1PA    C112  416   1.022   4.340   4.287
    1PA    H12R  417   1.077   4.246   4.276
    1PA    H12S  418   1.088   4.421   4.254
    1PA    C111  419   0.997   4.370   4.435
    1PA    H11R  420   0.948   4.468   4.432
    1PA    H11S  421   0.922   4.303   4.478
    1PA    C110  422   1.124   4.370   4.521
    1PA    H10R  423   1.178   4.275   4.517
    1PA    H10S  424   1.200   4.437   4.481
    1PA     C19  425   1.103   4.398   4.670
    1PA     H9R  426   1.054   4.495   4.679
    1PA     H9S  427   1.030   4.330   4.715
    1PA     C18  428   1.230   4.407   4.756
    1PA     H8R  429   1.275   4.311   4.780
    1PA     H8S  430   1.303   4.467   4.701
    1PA     C17  431   1.208   4.487   4.885
    1PA     H7R  432   1.165   4.584   4.855
    1PA     H7S  433   1.141   4.422   4.942
    1PA     C16  434   1.335   4.499   4.969
    1PA     H6R  435   1.365   4.400   5.003
    1PA     H6S  436   1.419   4.532   4.908
    1PA     C15  437   1.311   4.596   5.086
    1PA     H5R  438   1.280   4.693   5.045
    1PA     H5S  439   1.233   4.569   5.158
    1PA     C14  440   1.443   4.611   5.163
    1PA     H4R  441   1.472   4.511   5.196
    1PA     H4S  442   1.518   4.649   5.093
    1PA     C13  443   1.422   4.691   5.292
    1PA     H3R  444   1.388   4.795   5.286
    1PA     H3S  445   1.340   4.642   5.344
    1PA     C12  446   1.544   4.684   5.385
    1PA     H2R  447   1.591   4.586   5.390
    1PA     H2S  448   1.623   4.739   5.334
    2PC     C11  449   1.525   4.733   5.526
    2PC     O12  450   1.425   4.787   5.568
    2PC     O11  451   1.630   4.706   5.606
    2PC      C1  452   1.632   4.728   5.748
    2PC      HR  453   1.734   4.718   5.786
    2PC      HS  454   1.591   4.827   5.764
    2PC      C2  455   1.541   4.626   5.817
    2PC      HX  456   1.435   4.655   5.818
    2PC      C3  457   1.598   4.606   5.958
    2PC      HA  458   1.615   4.704   6.004
    2PC      HB  459   1.524   4.544   6.010
    2PC     O31  460   1.719   4.528   5.940
    2PC     P31  461   1.796   4.491   6.076
    2PC     O32  462   1.693   4.394   6.151
    2PC     C31  463   1.622   4.446   6.265
    2PC     H1A  464   1.697   4.459   6.344
    2PC     H1B  465   1.576   4.542   6.241
    2PC     C32  466   1.505   4.352   6.296
    2PC     H2A  467   1.452   4.401   6.379
    2PC     H2B  468   1.436   4.355   6.212
    2PC     N31  469   1.540   4.212   6.334
    2PC     C33  470   1.438   4.139   6.416
    2PC     H3A  471   1.489   4.044   6.436
    2PC     H3B  472   1.418   4.189   6.511
    2PC     H3C  473   1.345   4.130   6.361
    2PC     C34  474   1.557   4.129   6.210
    2PC     H4A  475   1.456   4.103   6.176
    2PC     H4B  476   1.615   4.180   6.133
    2PC     H4C  477   1.609   4.041   6.249
    2PC     C35  478   1.670   4.200   6.408
    2PC     H5A  479   1.755   4.233   6.348
    2PC     H5B  480   1.676   4.095   6.439
    2PC     H5C  481   1.678   4.254   6.502
    2PC     O33  482   1.917   4.407   6.055
    2PC     O34  483   1.841   4.607   6.155
    2PC     O21  484   1.551   4.504   5.741
    2PC     C21  485   1.470   4.400   5.762
    2PC     O22  486   1.374   4.397   5.836
    3OL     C12  487   1.520   4.269   5.707
    3OL     H2R  488   1.434   4.205   5.688
    3OL     H2S  489   1.586   4.232   5.787
    3OL     C13  490   1.607   4.285   5.581
    3OL     H3R  491   1.708   4.307   5.615
    3OL     H3S  492   1.567   4.370   5.526
    3OL     C14  493   1.606   4.161   5.491
    3OL     H4R  494   1.505   4.148   5.452
    3OL     H4S  495   1.635   4.077   5.554
    3OL     C15  496   1.705   4.172   5.374
    3OL     H5R  497   1.701   4.074   5.325
    3OL     H5S  498   1.804   4.187   5.417
    3OL     C16  499   1.684   4.290   5.278
    3OL     H6R  500   1.658   4.376   5.340
    3OL     H6S  501   1.597   4.273   5.214
    3OL     C17  502   1.809   4.314   5.192
    3OL     H7R  503   1.903   4.303   5.246
    3OL     H7S  504   1.815   4.412   5.144
    3OL     C18  505   1.818   4.219   5.072
    3OL     H8R  506   1.735   4.246   5.006
    3OL     H8S  507   1.801   4.116   5.103
    3OL     C19  508   1.951   4.222   5.001
    3OL     H9R  509   2.033   4.261   5.061
    3OL    C110  510   1.978   4.175   4.881
    3OL    H10R  511   2.083   4.183   4.851
    3OL    C111  512   1.877   4.120   4.784
    3OL    H11R  513   1.782   4.174   4.798
    3OL    H11S  514   1.874   4.016   4.817
    3OL    C112  515   1.934   4.125   4.642
    3OL    H12R  516   2.013   4.050   4.640
    3OL    H12S  517   1.973   4.223   4.614
    3OL    C113  518   1.829   4.087   4.537
    3OL    H13R  519   1.738   4.141   4.563
    3OL    H13S  520   1.816   3.980   4.554
    3OL    C114  521   1.901   4.112   4.403
    3OL    H14R  522   1.990   4.049   4.406
    3OL    H14S  523   1.945   4.212   4.395
    3OL    C115  524   1.813   4.065   4.287
    3OL    H15R  525   1.726   4.131   4.287
    3OL    H15S  526   1.779   3.964   4.310
    3OL    C116  527   1.872   4.079   4.146
    3OL    H16R  528   1.972   4.037   4.133
    3OL    H16S  529   1.874   4.186   4.127
    3OL    C117  530   1.787   4.010   4.038
    3OL    H17R  531   1.687   4.051   4.020
    3OL    H17S  532   1.775   3.906   4.070
    3OL    C118  533   1.856   4.018   3.901
    3OL    H18R  534   1.892   4.121   3.893
    3OL    H18S  535   1.779   4.008   3.824
    3OL    H18T  536   1.932   3.939   3.899
    1PA    C116  537   1.290   3.547   3.904
    1PA    H16R  538   1.292   3.445   3.866
    1PA    H16S  539   1.348   3.561   3.995
    1PA    H16T  540   1.349   3.595   3.826
    1PA    C115  541   1.150   3.610   3.897
    1PA    H15R  542   1.158   3.717   3.921
    1PA    H15S  543   1.115   3.590   3.796
    1PA    C114  544   1.047   3.554   3.996
    1PA    H14R  545   0.952   3.601   3.970
    1PA    H14S  546   1.029   3.448   3.981
    1PA    C113  547   1.078   3.577   4.145
    1PA    H13R  548   1.157   3.516   4.190
    1PA    H13S  549   1.105   3.680   4.168
    1PA    C112  550   0.957   3.533   4.228
    1PA    H12R  551   0.875   3.600   4.202
    1PA    H12S  552   0.930   3.429   4.209
    1PA    C111  553   0.970   3.557   4.380
    1PA    H11R  554   1.019   3.654   4.391
    1PA    H11S  555   0.872   3.563   4.428
    1PA    C110  556   1.048   3.446   4.451
    1PA    H10R  557   0.997   3.352   4.429
    1PA    H10S  558   1.147   3.438   4.408
    1PA     C19  559   1.030   3.445   4.604
    1PA     H9R  560   0.932   3.480   4.636
    1PA     H9S  561   1.043   3.343   4.641
    1PA     C18  562   1.137   3.526   4.679
    1PA     H8R  563   1.236   3.486   4.659
    1PA     H8S  564   1.131   3.629   4.643
    1PA     C17  565   1.120   3.533   4.832
    1PA     H7R  566   1.178   3.609   4.884
    1PA     H7S  567   1.015   3.558   4.848
    1PA     C16  568   1.146   3.398   4.901
    1PA     H6R  569   1.079   3.324   4.857
    1PA     H6S  570   1.251   3.379   4.879
    1PA     C15  571   1.130   3.408   5.053
    1PA     H5R  572   1.219   3.448   5.101
    1PA     H5S  573   1.042   3.465   5.085
    1PA     C14  574   1.109   3.271   5.119
    1PA     H4R  575   1.012   3.244   5.077
    1PA     H4S  576   1.183   3.196   5.089
    1PA     C13  577   1.090   3.289   5.270
    1PA     H3R  578   1.188   3.315   5.311
    1PA     H3S  579   1.024   3.371   5.296
    1PA     C12  580   1.042   3.155   5.327
    1PA     H2R  581   0.950   3.117   5.282
    1PA     H2S  582   1.115   3.075   5.310
    2PC     C11  583   1.024   3.147   5.477
    2PC     O12  584   1.076   3.226   5.553
    2PC     O11  585   0.933   3.057   5.519
    2PC      C1  586   0.948   3.029   5.660
    2PC      HR  587   1.054   3.017   5.683
    2PC      HS  588   0.911   3.108   5.725
    2PC      C2  589   0.875   2.895   5.682
    2PC      HX  590   0.775   2.903   5.640
    2PC      C3  591   0.864   2.889   5.835
    2PC      HA  592   0.813   2.978   5.872
    2PC      HB  593   0.816   2.797   5.869
    2PC     O31  594   0.995   2.882   5.894
    2PC     P31  595   1.023   2.886   6.052
    2PC     O32  596   0.936   3.012   6.101
    2PC     C31  597   0.993   3.137   6.059
    2PC     H1A  598   1.101   3.141   6.072
    2PC     H1B  599   0.966   3.146   5.953
    2PC     C32  600   0.916   3.240   6.144
    2PC     H2A  601   0.926   3.342   6.107
    2PC     H2B  602   0.812   3.207   6.149
    2PC     N31  603   0.955   3.245   6.289
    2PC     C33  604   1.009   3.119   6.349
    2PC     H3A  605   1.062   3.144   6.440
    2PC     H3B  606   0.927   3.048   6.364
    2PC     H3C  607   1.078   3.075   6.277
    2PC     C34  608   1.066   3.343   6.312
    2PC     H4A  609   1.079   3.350   6.420
    2PC     H4B  610   1.152   3.291   6.269
    2PC     H4C  611   1.032   3.431   6.257
    2PC     C35  612   0.844   3.301   6.373
    2PC     H5A  613   0.811   3.394   6.326
    2PC     H5B  614   0.884   3.324   6.472
    2PC     H5C  615   0.764   3.228   6.375
    2PC     O33  616   0.970   2.765   6.120
    2PC     O34  617   1.168   2.880   6.082
    2PC     O21  618   0.959   2.788   5.636
    2PC     C21  619   0.911   2.664   5.616
    2PC     O22  620   0.807   2.625   5.664
    3OL     C12  621   1.007   2.571   5.546
    3OL     H2R  622   0.937   2.504   5.496
    3OL     H2S  623   1.062   2.521   5.627
    3OL     C13  624   1.089   2.630   5.431
    3OL     H3R  625   1.129   2.541   5.381
    3OL     H3S  626   1.162   2.704   5.466
    3OL     C14  627   1.001   2.697   5.325
    3OL     H4R  628   0.925   2.752   5.380
    3OL     H4S  629   0.954   2.608   5.282
    3OL     C15  630   1.071   2.782   5.218
    3OL     H5R  631   1.170   2.749   5.187
    3OL     H5S  632   1.102   2.869   5.276
    3OL     C16  633   0.968   2.820   5.111
    3OL     H6R  634   0.877   2.868   5.149
    3OL     H6S  635   0.940   2.732   5.052
    3OL     C17  636   1.007   2.931   5.012
    3OL     H7R  637   1.097   2.902   4.958
    3OL     H7S  638   1.040   3.024   5.060
    3OL     C18  639   0.893   2.953   4.912
    3OL     H8R  640   0.798   2.957   4.967
    3OL     H8S  641   0.878   2.864   4.850
    3OL     C19  642   0.910   3.069   4.817
    3OL     H9R  643   0.886   3.162   4.869
    3OL    C110  644   0.945   3.072   4.690
    3OL    H10R  645   0.949   3.167   4.637
    3OL    C111  646   0.972   2.951   4.604
    3OL    H11R  647   0.888   2.882   4.611
    3OL    H11S  648   1.061   2.903   4.644
    3OL    C112  649   1.003   2.999   4.461
    3OL    H12R  650   1.046   2.924   4.395
    3OL    H12S  651   1.074   3.081   4.468
    3OL    C113  652   0.880   3.065   4.396
    3OL    H13R  653   0.856   3.159   4.446
    3OL    H13S  654   0.795   2.996   4.402
    3OL    C114  655   0.920   3.083   4.249
    3OL    H14R  656   0.933   2.992   4.190
    3OL    H14S  657   1.015   3.137   4.242
    3OL    C115  658   0.816   3.171   4.177
    3OL    H15R  659   0.787   3.244   4.253
    3OL    H15S  660   0.732   3.107   4.149
    3OL    C116  661   0.869   3.227   4.045
    3OL    H16R  662   0.962   3.281   4.060
    3OL    H16S  663   0.792   3.298   4.016
    3OL    C117  664   0.874   3.127   3.928
    3OL    H17R  665   0.773   3.089   3.919
    3OL    H17S  666   0.951   3.050   3.942
    3OL    C118  667   0.907   3.189   3.792
    3OL    H18R  668   0.821   3.240   3.748
    3OL    H18S  669   0.943   3.114   3.721
    3OL    H18T  670   0.989   3.258   3.815
    1PA    C116  671  -0.089   4.035   3.753
    1PA    H16R  672  -0.064   4.044   3.647
    1PA    H16S  673  -0.195   4.011   3.764
    1PA    H16T  674  -0.018   3.974   3.809
    1PA    C115  675  -0.083   4.176   3.813
    1PA    H15R  676   0.010   4.226   3.784
    1PA    H15S  677  -0.167   4.239   3.782
    1PA    C114  678  -0.093   4.183   3.966
    1PA    H14R  679  -0.191   4.143   3.994
    1PA    H14S  680  -0.017   4.115   4.004
    1PA    C113  681  -0.075   4.319   4.034
    1PA    H13R  682  -0.133   4.399   3.987
    1PA    H13S  683  -0.117   4.314   4.135
    1PA    C112  684   0.073   4.359   4.044
    1PA    H12R  685   0.128   4.299   3.972
    1PA    H12S  686   0.090   4.467   4.037
    1PA    C111  687   0.123   4.322   4.185
    1PA    H11R  688   0.061   4.360   4.267
    1PA    H11S  689   0.121   4.213   4.190
    1PA    C110  690   0.265   4.377   4.199
    1PA    H10R  691   0.327   4.331   4.122
    1PA    H10S  692   0.263   4.485   4.183
    1PA     C19  693   0.316   4.345   4.340
    1PA     H9R  694   0.259   4.398   4.417
    1PA     H9S  695   0.315   4.237   4.360
    1PA     C18  696   0.466   4.374   4.358
    1PA     H8R  697   0.522   4.299   4.302
    1PA     H8S  698   0.495   4.477   4.335
    1PA     C17  699   0.499   4.361   4.507
    1PA     H7R  700   0.432   4.434   4.553
    1PA     H7S  701   0.469   4.274   4.567
    1PA     C16  702   0.646   4.393   4.538
    1PA     H6R  703   0.707   4.316   4.491
    1PA     H6S  704   0.676   4.490   4.497
    1PA     C15  705   0.687   4.403   4.686
    1PA     H5R  706   0.702   4.301   4.720
    1PA     H5S  707   0.791   4.437   4.683
    1PA     C14  708   0.591   4.485   4.773
    1PA     H4R  709   0.581   4.588   4.737
    1PA     H4S  710   0.489   4.448   4.769
    1PA     C13  711   0.621   4.474   4.923
    1PA     H3R  712   0.630   4.367   4.945
    1PA     H3S  713   0.716   4.515   4.959
    1PA     C12  714   0.520   4.542   5.016
    1PA     H2R  715   0.550   4.647   5.017
    1PA     H2S  716   0.424   4.526   4.968
    2PC     C11  717   0.523   4.483   5.154
    2PC     O12  718   0.593   4.388   5.184
    2PC     O11  719   0.446   4.551   5.241
    2PC      C1  720   0.466   4.540   5.383
    2PC      HR  721   0.386   4.587   5.441
    2PC      HS  722   0.468   4.435   5.413
    2PC      C2  723   0.596   4.614   5.417
    2PC      HX  724   0.680   4.597   5.349
    2PC      C3  725   0.642   4.583   5.560
    2PC      HA  726   0.677   4.480   5.553
    2PC      HB  727   0.724   4.649   5.593
    2PC     O31  728   0.537   4.588   5.658
    2PC     P31  729   0.564   4.615   5.814
    2PC     O32  730   0.679   4.507   5.841
    2PC     C31  731   0.757   4.530   5.960
    2PC     H1A  732   0.812   4.625   5.958
    2PC     H1B  733   0.687   4.540   6.043
    2PC     C32  734   0.854   4.414   5.983
    2PC     H2A  735   0.881   4.406   6.088
    2PC     H2B  736   0.801   4.325   5.947
    2PC     N31  737   0.976   4.408   5.896
    2PC     C33  738   1.051   4.280   5.917
    2PC     H3A  739   1.136   4.290   5.850
    2PC     H3B  740   1.074   4.269   6.023
    2PC     H3C  741   0.994   4.195   5.878
    2PC     C34  742   0.951   4.410   5.748
    2PC     H4A  743   1.051   4.405   5.705
    2PC     H4B  744   0.890   4.325   5.716
    2PC     H4C  745   0.901   4.505   5.726
    2PC     C35  746   1.069   4.516   5.940
    2PC     H5A  747   1.023   4.615   5.938
    2PC     H5B  748   1.151   4.507   5.869
    2PC     H5C  749   1.105   4.495   6.041
    2PC     O33  750   0.620   4.751   5.835
    2PC     O34  751   0.440   4.615   5.895
    2PC     O21  752   0.564   4.754   5.408
    2PC     C21  753   0.594   4.822   5.296
    2PC     O22  754   0.659   4.776   5.204
    3OL     C12  755   0.545   4.964   5.303
    3OL     H2R  756   0.511   4.988   5.404
    3OL     H2S  757   0.474   4.979   5.222
    3OL     C13  758   0.657   5.063   5.268
    3OL     H3R  759   0.703   5.031   5.175
    3OL     H3S  760   0.731   5.061   5.348
    3OL     C14  761   0.604   5.208   5.263
    3OL     H4R  762   0.572   5.247   5.360
    3OL     H4S  763   0.522   5.216   5.192
    3OL     C15  764   0.711   5.303   5.209
    3OL     H5R  765   0.764   5.259   5.124
    3OL     H5S  766   0.787   5.320   5.286
    3OL     C16  767   0.659   5.444   5.176
    3OL     H6R  768   0.631   5.490   5.271
    3OL     H6S  769   0.577   5.435   5.104
    3OL     C17  770   0.775   5.521   5.114
    3OL     H7R  771   0.799   5.482   5.015
    3OL     H7S  772   0.860   5.512   5.182
    3OL     C18  773   0.752   5.673   5.112
    3OL     H8R  774   0.848   5.726   5.112
    3OL     H8S  775   0.690   5.694   5.199
    3OL     C19  776   0.684   5.695   4.979
    3OL     H9R  777   0.584   5.654   4.965
    3OL    C110  778   0.738   5.762   4.879
    3OL    H10R  779   0.692   5.777   4.782
    3OL    C111  780   0.871   5.834   4.877
    3OL    H11R  781   0.893   5.870   4.978
    3OL    H11S  782   0.870   5.927   4.819
    3OL    C112  783   0.982   5.749   4.813
    3OL    H12R  784   0.974   5.753   4.704
    3OL    H12S  785   0.982   5.642   4.835
    3OL    C113  786   1.123   5.801   4.847
    3OL    H13R  787   1.148   5.758   4.944
    3OL    H13S  788   1.126   5.909   4.857
    3OL    C114  789   1.235   5.757   4.752
    3OL    H14R  790   1.209   5.795   4.653
    3OL    H14S  791   1.233   5.648   4.747
    3OL    C115  792   1.376   5.803   4.793
    3OL    H15R  793   1.400   5.745   4.882
    3OL    H15S  794   1.382   5.911   4.813
    3OL    C116  795   1.475   5.768   4.682
    3OL    H16R  796   1.449   5.821   4.590
    3OL    H16S  797   1.467   5.662   4.656
    3OL    C117  798   1.619   5.807   4.715
    3OL    H17R  799   1.630   5.756   4.812
    3OL    H17S  800   1.617   5.916   4.713
    3OL    C118  801   1.715   5.752   4.609
    3OL    H18R  802   1.720   5.646   4.637
    3OL    H18S  803   1.815   5.795   4.620
    3OL    H18T  804   1.675   5.767   4.508
    1PA    C116  805   4.559   2.978   3.740
    1PA    H16R  806   4.647   2.962   3.677
    1PA    H16S  807   4.483   3.031   3.684
    1PA    H16T  808   4.515   2.881   3.765
    1PA    C115  809   4.599   3.053   3.868
    1PA    H15R  810   4.667   3.129   3.829
    1PA    H15S  811   4.511   3.092   3.919
    1PA    C114  812   4.671   2.956   3.962
    1PA    H14R  813   4.612   2.864   3.972
    1PA    H14S  814   4.758   2.924   3.904
    1PA    C113  815   4.698   3.018   4.100
    1PA    H13R  816   4.773   3.097   4.099
    1PA    H13S  817   4.608   3.067   4.137
    1PA    C112  818   4.739   2.916   4.207
    1PA    H12R  819   4.715   2.968   4.300
    1PA    H12S  820   4.677   2.826   4.217
    1PA    C111  821   4.887   2.882   4.190
    1PA    H11R  822   4.908   2.818   4.103
    1PA    H11S  823   4.948   2.973   4.183
    1PA    C110  824   4.943   2.808   4.312
    1PA    H10R  825   4.941   2.866   4.404
    1PA    H10S  826   4.886   2.717   4.332
    1PA     C19  827   5.085   2.757   4.279
    1PA     H9R  828   5.072   2.696   4.190
    1PA     H9S  829   5.147   2.844   4.255
    1PA     C18  830   5.136   2.668   4.393
    1PA     H8R  831   5.059   2.595   4.418
    1PA     H8S  832   5.224   2.616   4.353
    1PA     C17  833   5.190   2.748   4.512
    1PA     H7R  834   5.268   2.811   4.469
    1PA     H7S  835   5.115   2.809   4.564
    1PA     C16  836   5.259   2.657   4.615
    1PA     H6R  837   5.185   2.588   4.655
    1PA     H6S  838   5.336   2.606   4.556
    1PA     C15  839   5.328   2.725   4.734
    1PA     H5R  840   5.434   2.746   4.715
    1PA     H5S  841   5.273   2.818   4.749
    1PA     C14  842   5.320   2.631   4.855
    1PA     H4R  843   5.216   2.623   4.889
    1PA     H4S  844   5.366   2.536   4.826
    1PA     C13  845   5.395   2.687   4.977
    1PA     H3R  846   5.496   2.715   4.947
    1PA     H3S  847   5.345   2.777   5.014
    1PA     C12  848   5.406   2.585   5.091
    1PA     H2R  849   5.307   2.542   5.107
    1PA     H2S  850   5.482   2.514   5.057
    2PC     C11  851   5.450   2.652   5.218
    2PC     O12  852   5.450   2.773   5.236
    2PC     O11  853   5.497   2.560   5.304
    2PC      C1  854   5.563   2.609   5.422
    2PC      HR  855   5.639   2.684   5.396
    2PC      HS  856   5.495   2.656   5.493
    2PC      C2  857   5.637   2.493   5.490
    2PC      HX  858   5.587   2.398   5.469
    2PC      C3  859   5.635   2.515   5.641
    2PC      HA  860   5.532   2.500   5.676
    2PC      HB  861   5.695   2.444   5.698
    2PC     O31  862   5.676   2.650   5.667
    2PC     P31  863   5.641   2.725   5.805
    2PC     O32  864   5.757   2.834   5.818
    2PC     C31  865   5.757   2.939   5.719
    2PC     H1A  866   5.831   2.905   5.646
    2PC     H1B  867   5.666   2.958   5.662
    2PC     C32  868   5.791   3.073   5.786
    2PC     H2A  869   5.876   3.056   5.852
    2PC     H2B  870   5.816   3.146   5.709
    2PC     N31  871   5.685   3.131   5.875
    2PC     C33  872   5.561   3.164   5.797
    2PC     H3A  873   5.496   3.214   5.869
    2PC     H3B  874   5.586   3.230   5.713
    2PC     H3C  875   5.507   3.079   5.755
    2PC     C34  876   5.644   3.046   5.991
    2PC     H4A  877   5.558   3.097   6.035
    2PC     H4B  878   5.601   2.955   5.949
    2PC     H4C  879   5.725   3.029   6.062
    2PC     C35  880   5.742   3.255   5.937
    2PC     H5A  881   5.821   3.222   6.004
    2PC     H5B  882   5.672   3.315   5.995
    2PC     H5C  883   5.783   3.319   5.860
    2PC     O33  884   5.504   2.779   5.790
    2PC     O34  885   5.630   2.646   5.930
    2PC     O21  886   5.768   2.504   5.429
    2PC     C21  887   5.848   2.397   5.435
    2PC     O22  888   5.841   2.296   5.502
    3OL     C12  889   5.962   2.400   5.336
    3OL     H2R  890   6.035   2.321   5.357
    3OL     H2S  891   6.013   2.496   5.328
    3OL     C13  892   5.905   2.354   5.202
    3OL     H3R  893   5.981   2.383   5.128
    3OL     H3S  894   5.818   2.410   5.167
    3OL     C14  895   5.883   2.202   5.196
    3OL     H4R  896   5.820   2.181   5.283
    3OL     H4S  897   5.973   2.141   5.206
    3OL     C15  898   5.803   2.163   5.071
    3OL     H5R  899   5.738   2.245   5.041
    3OL     H5S  900   5.737   2.083   5.106
    3OL     C16  901   5.898   2.120   4.958
    3OL     H6R  902   5.943   2.026   4.989
    3OL     H6S  903   5.980   2.192   4.942
    3OL     C17  904   5.820   2.114   4.826
    3OL     H7R  905   5.785   2.214   4.802
    3OL     H7S  906   5.730   2.053   4.829
    3OL     C18  907   5.899   2.065   4.704
    3OL     H8R  908   5.896   1.957   4.684
    3OL     H8S  909   6.004   2.092   4.717
    3OL     C19  910   5.841   2.132   4.582
    3OL     H9R  911   5.756   2.093   4.528
    3OL    C110  912   5.896   2.241   4.531
    3OL    H10R  913   5.853   2.282   4.440
    3OL    C111  914   6.028   2.300   4.574
    3OL    H11R  915   6.039   2.312   4.682
    3OL    H11S  916   6.037   2.404   4.541
    3OL    C112  917   6.147   2.215   4.528
    3OL    H12R  918   6.138   2.178   4.426
    3OL    H12S  919   6.156   2.131   4.597
    3OL    C113  920   6.276   2.298   4.542
    3OL    H13R  921   6.292   2.319   4.648
    3OL    H13S  922   6.288   2.383   4.474
    3OL    C114  923   6.391   2.205   4.499
    3OL    H14R  924   6.406   2.205   4.391
    3OL    H14S  925   6.368   2.105   4.536
    3OL    C115  926   6.524   2.258   4.553
    3OL    H15R  927   6.600   2.179   4.546
    3OL    H15S  928   6.531   2.277   4.660
    3OL    C116  929   6.566   2.383   4.475
    3OL    H16R  930   6.496   2.461   4.502
    3OL    H16S  931   6.543   2.372   4.369
    3OL    C117  932   6.710   2.435   4.491
    3OL    H17R  933   6.733   2.446   4.597
    3OL    H17S  934   6.722   2.540   4.463
    3OL    C118  935   6.807   2.350   4.407
    3OL    H18R  936   6.776   2.353   4.302
    3OL    H18S  937   6.828   2.250   4.443
    3OL    H18T  938   6.906   2.396   4.413
    1PA    C116  939   1.219   4.691   4.040
    1PA    H16R  940   1.288   4.652   3.965
    1PA    H16S  941   1.178   4.787   4.008
    1PA    H16T  942   1.146   4.614   4.065
    1PA    C115  943   1.287   4.716   4.175
    1PA    H15R  944   1.326   4.621   4.213
    1PA    H15S  945   1.374   4.778   4.152
    1PA    C114  946   1.197   4.781   4.281
    1PA    H14R  947   1.153   4.868   4.232
    1PA    H14S  948   1.111   4.720   4.309
    1PA    C113  949   1.271   4.823   4.408
    1PA    H13R  950   1.364   4.874   4.379
    1PA    H13S  951   1.203   4.898   4.450
    1PA    C112  952   1.300   4.704   4.501
    1PA    H12R  953   1.207   4.672   4.548
    1PA    H12S  954   1.336   4.625   4.434
    1PA    C111  955   1.406   4.734   4.607
    1PA    H11R  956   1.426   4.639   4.657
    1PA    H11S  957   1.503   4.744   4.556
    1PA    C110  958   1.376   4.849   4.705
    1PA    H10R  959   1.364   4.946   4.656
    1PA    H10S  960   1.282   4.825   4.755
    1PA     C19  961   1.476   4.871   4.818
    1PA     H9R  962   1.503   4.774   4.859
    1PA     H9S  963   1.571   4.901   4.772
    1PA     C18  964   1.431   4.970   4.927
    1PA     H8R  965   1.414   5.066   4.878
    1PA     H8S  966   1.346   4.933   4.985
    1PA     C17  967   1.538   4.987   5.035
    1PA     H7R  968   1.561   4.890   5.080
    1PA     H7S  969   1.633   5.021   4.992
    1PA     C16  970   1.480   5.074   5.148
    1PA     H6R  971   1.428   5.160   5.107
    1PA     H6S  972   1.405   5.013   5.198
    1PA     C15  973   1.592   5.118   5.244
    1PA     H5R  974   1.648   5.031   5.276
    1PA     H5S  975   1.668   5.186   5.205
    1PA     C14  976   1.521   5.175   5.367
    1PA     H4R  977   1.471   5.267   5.336
    1PA     H4S  978   1.447   5.100   5.397
    1PA     C13  979   1.609   5.209   5.488
    1PA     H3R  980   1.674   5.294   5.466
    1PA     H3S  981   1.547   5.253   5.566
    1PA     C12  982   1.700   5.095   5.537
    1PA     H2R  983   1.635   5.008   5.545
    1PA     H2S  984   1.770   5.078   5.455
    2PC     C11  985   1.786   5.124   5.658
    2PC     O12  986   1.745   5.180   5.757
    2PC     O11  987   1.905   5.064   5.642
    2PC      C1  988   1.997   5.063   5.753
    2PC      HR  989   2.016   5.158   5.803
    2PC      HS  990   1.958   5.001   5.835
    2PC      C2  991   2.128   4.993   5.715
    2PC      HX  992   2.110   4.892   5.677
    2PC      C3  993   2.219   4.989   5.839
    2PC      HA  994   2.169   4.956   5.930
    2PC      HB  995   2.307   4.927   5.823
    2PC     O31  996   2.274   5.122   5.852
    2PC     P31  997   2.387   5.144   5.963
    2PC     O32  998   2.516   5.116   5.872
    2PC     C31  999   2.629   5.064   5.944
    2PC     H1A 1000   2.654   5.130   6.028
    2PC     H1B 1001   2.602   4.965   5.982
    2PC     C32 1002   2.752   5.043   5.855
    2PC     H2A 1003   2.789   5.133   5.803
    2PC     H2B 1004   2.822   5.007   5.930
    2PC     N31 1005   2.745   4.935   5.751
    2PC     C33 1006   2.725   4.802   5.817
    2PC     H3A 1007   2.806   4.779   5.887
    2PC     H3B 1008   2.628   4.803   5.865
    2PC     H3C 1009   2.726   4.723   5.741
    2PC     C34 1010   2.629   4.955   5.658
    2PC     H4A 1011   2.636   5.051   5.607
    2PC     H4B 1012   2.607   4.868   5.596
    2PC     H4C 1013   2.537   4.952   5.718
    2PC     C35 1014   2.875   4.930   5.677
    2PC     H5A 1015   2.867   4.854   5.599
    2PC     H5B 1016   2.950   4.899   5.749
    2PC     H5C 1017   2.901   5.026   5.633
    2PC     O33 1018   2.382   5.284   6.013
    2PC     O34 1019   2.373   5.062   6.086
    2PC     O21 1020   2.189   5.071   5.611
    2PC     C21 1021   2.296   5.019   5.548
    2PC     O22 1022   2.341   4.908   5.568
    3OL     C12 1023   2.363   5.119   5.458
    3OL     H2R 1024   2.439   5.176   5.511
    3OL     H2S 1025   2.288   5.188   5.420
    3OL     C13 1026   2.421   5.058   5.329
    3OL     H3R 1027   2.344   5.005   5.273
    3OL     H3S 1028   2.490   4.983   5.369
    3OL     C14 1029   2.488   5.159   5.235
    3OL     H4R 1030   2.581   5.203   5.271
    3OL     H4S 1031   2.416   5.240   5.219
    3OL     C15 1032   2.530   5.104   5.098
    3OL     H5R 1033   2.452   5.041   5.054
    3OL     H5S 1034   2.613   5.034   5.115
    3OL     C16 1035   2.573   5.221   5.007
    3OL     H6R 1036   2.490   5.290   4.991
    3OL     H6S 1037   2.596   5.184   4.907
    3OL     C17 1038   2.688   5.302   5.069
    3OL     H7R 1039   2.656   5.360   5.156
    3OL     H7S 1040   2.720   5.377   4.995
    3OL     C18 1041   2.810   5.219   5.107
    3OL     H8R 1042   2.785   5.150   5.188
    3OL     H8S 1043   2.869   5.295   5.157
    3OL     C19 1044   2.877   5.159   4.985
    3OL     H9R 1045   2.894   5.237   4.911
    3OL    C110 1046   2.902   5.033   4.954
    3OL    H10R 1047   2.947   5.001   4.861
    3OL    C111 1048   2.878   4.911   5.040
    3OL    H11R 1049   2.841   4.947   5.136
    3OL    H11S 1050   2.971   4.853   5.045
    3OL    C112 1051   2.767   4.821   4.984
    3OL    H12R 1052   2.798   4.768   4.894
    3OL    H12S 1053   2.676   4.874   4.956
    3OL    C113 1054   2.729   4.705   5.076
    3OL    H13R 1055   2.797   4.682   5.159
    3OL    H13S 1056   2.725   4.610   5.021
    3OL    C114 1057   2.592   4.716   5.145
    3OL    H14R 1058   2.519   4.706   5.064
    3OL    H14S 1059   2.580   4.807   5.203
    3OL    C115 1060   2.569   4.592   5.233
    3OL    H15R 1061   2.613   4.500   5.193
    3OL    H15S 1062   2.462   4.572   5.228
    3OL    C116 1063   2.588   4.611   5.384
    3OL    H16R 1064   2.565   4.716   5.401
    3OL    H16S 1065   2.521   4.561   5.454
    3OL    C117 1066   2.737   4.600   5.419
    3OL    H17R 1067   2.742   4.624   5.526
    3OL    H17S 1068   2.799   4.667   5.359
    3OL    C118 1069   2.788   4.457   5.400
    3OL    H18R 1070   2.801   4.428   5.295
    3OL    H18S 1071   2.890   4.449   5.440
    3OL    H18T 1072   2.722   4.385   5.449
    1PA    C116 1073   0.781   5.309   4.599
    1PA    H16R 1074   0.823   5.332   4.501
    1PA    H16S 1075   0.788   5.202   4.620
    1PA    H16T 1076   0.824   5.368   4.680
    1PA    C115 1077   0.629   5.330   4.590
    1PA    H15R 1078   0.595   5.299   4.689
    1PA    H15S 1079   0.611   5.437   4.594
    1PA    C114 1080   0.571   5.256   4.468
    1PA    H14R 1081   0.611   5.304   4.379
    1PA    H14S 1082   0.603   5.152   4.481
    1PA    C113 1083   0.418   5.267   4.478
    1PA    H13R 1084   0.381   5.219   4.569
    1PA    H13S 1085   0.377   5.367   4.497
    1PA    C112 1086   0.353   5.218   4.348
    1PA    H12R 1087   0.382   5.282   4.264
    1PA    H12S 1088   0.385   5.116   4.326
    1PA    C111 1089   0.200   5.217   4.358
    1PA    H11R 1090   0.160   5.318   4.374
    1PA    H11S 1091   0.156   5.187   4.263
    1PA    C110 1092   0.146   5.131   4.474
    1PA    H10R 1093   0.160   5.025   4.455
    1PA    H10S 1094   0.193   5.155   4.570
    1PA     C19 1095  -0.002   5.160   4.505
    1PA     H9R 1096  -0.008   5.260   4.547
    1PA     H9S 1097  -0.064   5.165   4.415
    1PA     C18 1098  -0.048   5.051   4.602
    1PA     H8R 1099  -0.003   4.959   4.564
    1PA     H8S 1100  -0.020   5.078   4.704
    1PA     C17 1101  -0.200   5.030   4.592
    1PA     H7R 1102  -0.247   5.127   4.609
    1PA     H7S 1103  -0.217   4.996   4.490
    1PA     C16 1104  -0.256   4.927   4.692
    1PA     H6R 1105  -0.363   4.933   4.671
    1PA     H6S 1106  -0.215   4.833   4.654
    1PA     C15 1107  -0.222   4.954   4.839
    1PA     H5R 1108  -0.116   4.951   4.864
    1PA     H5S 1109  -0.250   5.055   4.871
    1PA     C14 1110  -0.303   4.855   4.924
    1PA     H4R 1111  -0.406   4.846   4.889
    1PA     H4S 1112  -0.264   4.753   4.912
    1PA     C13 1113  -0.299   4.897   5.071
    1PA     H3R 1114  -0.358   4.988   5.087
    1PA     H3S 1115  -0.351   4.819   5.128
    1PA     C12 1116  -0.160   4.902   5.136
    1PA     H2R 1117  -0.129   4.797   5.131
    1PA     H2S 1118  -0.105   4.978   5.081
    2PC     C11 1119  -0.158   4.945   5.281
    2PC     O12 1120  -0.260   4.968   5.342
    2PC     O11 1121  -0.033   4.969   5.326
    2PC      C1 1122  -0.019   5.005   5.465
    2PC      HR 1123  -0.087   5.088   5.486
    2PC      HS 1124  -0.034   4.913   5.521
    2PC      C2 1125   0.124   5.055   5.487
    2PC      HX 1126   0.187   4.985   5.431
    2PC      C3 1127   0.155   5.077   5.636
    2PC      HA 1128   0.150   4.988   5.698
    2PC      HB 1129   0.256   5.115   5.656
    2PC     O31 1130   0.061   5.174   5.685
    2PC     P31 1131   0.063   5.197   5.844
    2PC     O32 1132   0.002   5.056   5.889
    2PC     C31 1133   0.028   4.999   6.018
    2PC     H1A 1134   0.131   4.966   6.037
    2PC     H1B 1135   0.010   5.082   6.087
    2PC     C32 1136  -0.058   4.878   6.057
    2PC     H2A 1137  -0.027   4.846   6.157
    2PC     H2B 1138  -0.158   4.919   6.069
    2PC     N31 1139  -0.073   4.765   5.960
    2PC     C33 1140  -0.142   4.805   5.833
    2PC     H3A 1141  -0.192   4.722   5.782
    2PC     H3B 1142  -0.211   4.886   5.857
    2PC     H3C 1143  -0.064   4.842   5.767
    2PC     C34 1144   0.061   4.706   5.925
    2PC     H4A 1145   0.126   4.782   5.883
    2PC     H4B 1146   0.103   4.653   6.010
    2PC     H4C 1147   0.042   4.625   5.854
    2PC     C35 1148  -0.158   4.660   6.025
    2PC     H5A 1149  -0.260   4.699   6.025
    2PC     H5B 1150  -0.125   4.643   6.127
    2PC     H5C 1151  -0.169   4.568   5.967
    2PC     O33 1152   0.202   5.205   5.894
    2PC     O34 1153  -0.020   5.306   5.898
    2PC     O21 1154   0.128   5.183   5.421
    2PC     C21 1155   0.250   5.233   5.398
    2PC     O22 1156   0.354   5.195   5.448
    3OL     C12 1157   0.251   5.341   5.293
    3OL     H2R 1158   0.147   5.358   5.262
    3OL     H2S 1159   0.310   5.306   5.208
    3OL     C13 1160   0.325   5.464   5.347
    3OL     H3R 1161   0.428   5.440   5.375
    3OL     H3S 1162   0.278   5.504   5.438
    3OL     C14 1163   0.345   5.579   5.248
    3OL     H4R 1164   0.377   5.543   5.150
    3OL     H4S 1165   0.424   5.642   5.290
    3OL     C15 1166   0.222   5.668   5.230
    3OL     H5R 1167   0.212   5.737   5.314
    3OL     H5S 1168   0.130   5.609   5.228
    3OL     C16 1169   0.241   5.754   5.104
    3OL     H6R 1170   0.151   5.812   5.082
    3OL     H6S 1171   0.246   5.685   5.020
    3OL     C17 1172   0.362   5.848   5.104
    3OL     H7R 1173   0.449   5.803   5.150
    3OL     H7S 1174   0.332   5.930   5.170
    3OL     C18 1175   0.386   5.909   4.965
    3OL     H8R 1176   0.307   5.981   4.943
    3OL     H8S 1177   0.393   5.833   4.887
    3OL     C19 1178   0.515   5.988   4.961
    3OL     H9R 1179   0.574   5.978   5.051
    3OL    C110 1180   0.565   6.057   4.860
    3OL    H10R 1181   0.645   6.129   4.868
    3OL    C111 1182   0.499   6.063   4.724
    3OL    H11R 1183   0.503   6.169   4.700
    3OL    H11S 1184   0.392   6.039   4.731
    3OL    C112 1185   0.579   5.987   4.618
    3OL    H12R 1186   0.586   5.882   4.646
    3OL    H12S 1187   0.679   6.031   4.604
    3OL    C113 1188   0.518   6.004   4.478
    3OL    H13R 1189   0.499   6.110   4.460
    3OL    H13S 1190   0.431   5.939   4.472
    3OL    C114 1191   0.630   5.958   4.384
    3OL    H14R 1192   0.692   5.876   4.421
    3OL    H14S 1193   0.706   6.037   4.381
    3OL    C115 1194   0.583   5.930   4.241
    3OL    H15R 1195   0.673   5.934   4.180
    3OL    H15S 1196   0.511   6.006   4.207
    3OL    C116 1197   0.510   5.796   4.224
    3OL    H16R 1198   0.478   5.779   4.121
    3OL    H16S 1199   0.417   5.784   4.279
    3OL    C117 1200   0.589   5.672   4.269
    3OL    H17R 1201   0.615   5.682   4.375
    3OL    H17S 1202   0.684   5.675   4.217
    3OL    C118 1203   0.521   5.539   4.233
    3OL    H18R 1204   0.440   5.514   4.301
    3OL    H18S 1205   0.599   5.463   4.239
    3OL    H18T 1206   0.492   5.538   4.128
    1PA    C116 1207   6.933   3.069   3.906
    1PA    H16R 1208   7.023   3.119   3.941
    1PA    H16S 1209   6.916   3.101   3.803
    1PA    H16T 1210   6.951   2.961   3.897
    1PA    C115 1211   6.804   3.094   3.985
    1PA    H15R 1212   6.780   3.200   3.969
    1PA    H15S 1213   6.723   3.032   3.947
    1PA    C114 1214   6.825   3.071   4.135
    1PA    H14R 1215   6.828   2.962   4.141
    1PA    H14S 1216   6.913   3.126   4.168
    1PA    C113 1217   6.708   3.127   4.218
    1PA    H13R 1218   6.702   3.235   4.201
    1PA    H13S 1219   6.611   3.091   4.183
    1PA    C112 1220   6.732   3.108   4.368
    1PA    H12R 1221   6.764   3.007   4.394
    1PA    H12S 1222   6.814   3.176   4.392
    1PA    C111 1223   6.606   3.146   4.447
    1PA    H11R 1224   6.517   3.113   4.394
    1PA    H11S 1225   6.611   3.084   4.537
    1PA    C110 1226   6.601   3.297   4.475
    1PA    H10R 1227   6.689   3.334   4.526
    1PA    H10S 1228   6.592   3.350   4.379
    1PA     C19 1229   6.486   3.352   4.561
    1PA     H9R 1230   6.389   3.315   4.529
    1PA     H9S 1231   6.514   3.319   4.662
    1PA     C18 1232   6.494   3.505   4.565
    1PA     H8R 1233   6.596   3.539   4.582
    1PA     H8S 1234   6.459   3.550   4.471
    1PA     C17 1235   6.406   3.561   4.678
    1PA     H7R 1236   6.305   3.525   4.659
    1PA     H7S 1237   6.447   3.533   4.775
    1PA     C16 1238   6.377   3.712   4.671
    1PA     H6R 1239   6.470   3.769   4.673
    1PA     H6S 1240   6.305   3.736   4.593
    1PA     C15 1241   6.309   3.764   4.798
    1PA     H5R 1242   6.280   3.867   4.775
    1PA     H5S 1243   6.222   3.702   4.823
    1PA     C14 1244   6.381   3.769   4.934
    1PA     H4R 1245   6.321   3.757   5.025
    1PA     H4S 1246   6.451   3.688   4.954
    1PA     C13 1247   6.454   3.903   4.948
    1PA     H3R 1248   6.530   3.900   5.026
    1PA     H3S 1249   6.502   3.921   4.851
    1PA     C12 1250   6.361   4.022   4.974
    1PA     H2R 1251   6.422   4.112   4.981
    1PA     H2S 1252   6.294   4.028   4.887
    2PC     C11 1253   6.286   4.016   5.104
    2PC     O12 1254   6.181   3.956   5.116
    2PC     O11 1255   6.347   4.082   5.204
    2PC      C1 1256   6.291   4.107   5.334
    2PC      HR 1257   6.242   4.016   5.369
    2PC      HS 1258   6.370   4.126   5.407
    2PC      C2 1259   6.185   4.218   5.320
    2PC      HX 1260   6.238   4.310   5.295
    2PC      C3 1261   6.103   4.229   5.449
    2PC      HA 1262   6.162   4.259   5.536
    2PC      HB 1263   6.026   4.304   5.430
    2PC     O31 1264   6.043   4.102   5.479
    2PC     P31 1265   5.944   4.077   5.603
    2PC     O32 1266   5.829   3.983   5.542
    2PC     C31 1267   5.826   3.844   5.578
    2PC     H1A 1268   5.927   3.804   5.573
    2PC     H1B 1269   5.795   3.846   5.683
    2PC     C32 1270   5.719   3.786   5.484
    2PC     H2A 1271   5.747   3.816   5.383
    2PC     H2B 1272   5.715   3.677   5.489
    2PC     N31 1273   5.579   3.826   5.517
    2PC     C33 1274   5.532   3.782   5.653
    2PC     H3A 1275   5.559   3.677   5.663
    2PC     H3B 1276   5.590   3.835   5.729
    2PC     H3C 1277   5.424   3.792   5.656
    2PC     C34 1278   5.565   3.974   5.496
    2PC     H4A 1279   5.465   4.017   5.498
    2PC     H4B 1280   5.629   4.028   5.566
    2PC     H4C 1281   5.601   3.996   5.395
    2PC     C35 1282   5.502   3.760   5.406
    2PC     H5A 1283   5.546   3.787   5.310
    2PC     H5B 1284   5.396   3.786   5.407
    2PC     H5C 1285   5.521   3.653   5.412
    2PC     O33 1286   6.015   4.012   5.715
    2PC     O34 1287   5.890   4.203   5.659
    2PC     O21 1288   6.096   4.174   5.216
    2PC     C21 1289   6.051   4.261   5.125
    2PC     O22 1290   6.075   4.379   5.137
    3OL     C12 1291   5.960   4.204   5.019
    3OL     H2R 1292   6.006   4.124   4.962
    3OL     H2S 1293   5.946   4.284   4.946
    3OL     C13 1294   5.823   4.160   5.073
    3OL     H3R 1295   5.755   4.156   4.987
    3OL     H3S 1296   5.790   4.247   5.131
    3OL     C14 1297   5.825   4.024   5.142
    3OL     H4R 1298   5.733   4.012   5.200
    3OL     H4S 1299   5.908   4.007   5.212
    3OL     C15 1300   5.841   3.919   5.031
    3OL     H5R 1301   5.939   3.941   4.988
    3OL     H5S 1302   5.775   3.925   4.945
    3OL     C16 1303   5.841   3.775   5.085
    3OL     H6R 1304   5.743   3.747   5.124
    3OL     H6S 1305   5.903   3.773   5.175
    3OL     C17 1306   5.892   3.666   4.989
    3OL     H7R 1307   5.899   3.574   5.047
    3OL     H7S 1308   5.994   3.685   4.955
    3OL     C18 1309   5.804   3.642   4.866
    3OL     H8R 1310   5.787   3.730   4.803
    3OL     H8S 1311   5.705   3.623   4.908
    3OL     C19 1312   5.854   3.529   4.778
    3OL     H9R 1313   5.939   3.474   4.818
    3OL    C110 1314   5.810   3.492   4.659
    3OL    H10R 1315   5.864   3.413   4.608
    3OL    C111 1316   5.696   3.554   4.583
    3OL    H11R 1317   5.719   3.653   4.542
    3OL    H11S 1318   5.615   3.571   4.654
    3OL    C112 1319   5.638   3.455   4.481
    3OL    H12R 1320   5.601   3.367   4.532
    3OL    H12S 1321   5.725   3.418   4.427
    3OL    C113 1322   5.537   3.518   4.383
    3OL    H13R 1323   5.551   3.470   4.286
    3OL    H13S 1324   5.578   3.618   4.366
    3OL    C114 1325   5.393   3.511   4.435
    3OL    H14R 1326   5.382   3.549   4.537
    3OL    H14S 1327   5.363   3.406   4.434
    3OL    C115 1328   5.297   3.596   4.350
    3OL    H15R 1329   5.350   3.684   4.315
    3OL    H15S 1330   5.213   3.633   4.410
    3OL    C116 1331   5.230   3.520   4.235
    3OL    H16R 1332   5.157   3.464   4.294
    3OL    H16S 1333   5.299   3.451   4.185
    3OL    C117 1334   5.156   3.616   4.141
    3OL    H17R 1335   5.223   3.693   4.103
    3OL    H17S 1336   5.077   3.668   4.196
    3OL    C118 1337   5.082   3.545   4.026
    3OL    H18R 1338   5.029   3.461   4.070
    3OL    H18S 1339   5.159   3.504   3.960
    3OL    H18T 1340   5.020   3.620   3.977
    1PA    C116 1341   6.283   2.661   4.532
    1PA    H16R 1342   6.273   2.677   4.424
    1PA    H16S 1343   6.181   2.637   4.563
    1PA    H16T 1344   6.342   2.570   4.547
    1PA    C115 1345   6.333   2.788   4.601
    1PA    H15R 1346   6.425   2.819   4.551
    1PA    H15S 1347   6.262   2.870   4.585
    1PA    C114 1348   6.360   2.771   4.751
    1PA    H14R 1349   6.263   2.732   4.782
    1PA    H14S 1350   6.429   2.689   4.770
    1PA    C113 1351   6.403   2.890   4.839
    1PA    H13R 1352   6.316   2.955   4.838
    1PA    H13S 1353   6.411   2.845   4.938
    1PA    C112 1354   6.527   2.955   4.775
    1PA    H12R 1355   6.599   2.880   4.741
    1PA    H12S 1356   6.488   3.006   4.687
    1PA    C111 1357   6.588   3.055   4.874
    1PA    H11R 1358   6.508   3.123   4.904
    1PA    H11S 1359   6.625   3.010   4.966
    1PA    C110 1360   6.701   3.149   4.830
    1PA    H10R 1361   6.788   3.083   4.815
    1PA    H10S 1362   6.676   3.200   4.737
    1PA     C19 1363   6.738   3.255   4.935
    1PA     H9R 1364   6.724   3.218   5.037
    1PA     H9S 1365   6.846   3.267   4.924
    1PA     C18 1366   6.666   3.388   4.908
    1PA     H8R 1367   6.708   3.436   4.819
    1PA     H8S 1368   6.559   3.376   4.889
    1PA     C17 1369   6.669   3.483   5.027
    1PA     H7R 1370   6.613   3.576   5.014
    1PA     H7S 1371   6.620   3.428   5.108
    1PA     C16 1372   6.814   3.518   5.066
    1PA     H6R 1373   6.854   3.425   5.108
    1PA     H6S 1374   6.863   3.550   4.974
    1PA     C15 1375   6.819   3.629   5.172
    1PA     H5R 1376   6.926   3.645   5.186
    1PA     H5S 1377   6.777   3.722   5.135
    1PA     C14 1378   6.768   3.596   5.313
    1PA     H4R 1379   6.671   3.547   5.313
    1PA     H4S 1380   6.842   3.519   5.338
    1PA     C13 1381   6.781   3.708   5.418
    1PA     H3R 1382   6.777   3.663   5.518
    1PA     H3S 1383   6.879   3.755   5.409
    1PA     C12 1384   6.667   3.809   5.401
    1PA     H2R 1385   6.697   3.895   5.461
    1PA     H2S 1386   6.667   3.851   5.300
    2PC     C11 1387   6.531   3.760   5.445
    2PC     O12 1388   6.448   3.710   5.372
    2PC     O11 1389   6.510   3.785   5.575
    2PC      C1 1390   6.394   3.724   5.635
    2PC      HR 1391   6.366   3.780   5.724
    2PC      HS 1392   6.312   3.728   5.563
    2PC      C2 1393   6.429   3.583   5.684
    2PC      HX 1394   6.344   3.549   5.744
    2PC      C3 1395   6.549   3.584   5.779
    2PC      HA 1396   6.641   3.584   5.720
    2PC      HB 1397   6.552   3.670   5.846
    2PC     O31 1398   6.546   3.463   5.857
    2PC     P31 1399   6.659   3.436   5.968
    2PC     O32 1400   6.586   3.306   6.027
    2PC     C31 1401   6.469   3.314   6.110
    2PC     H1A 1402   6.503   3.383   6.189
    2PC     H1B 1403   6.390   3.363   6.053
    2PC     C32 1404   6.434   3.175   6.164
    2PC     H2A 1405   6.328   3.188   6.189
    2PC     H2B 1406   6.447   3.097   6.089
    2PC     N31 1407   6.510   3.144   6.289
    2PC     C33 1408   6.477   3.236   6.403
    2PC     H3A 1409   6.506   3.338   6.377
    2PC     H3B 1410   6.371   3.230   6.426
    2PC     H3C 1411   6.539   3.226   6.493
    2PC     C34 1412   6.450   3.012   6.328
    2PC     H4A 1413   6.344   3.028   6.349
    2PC     H4B 1414   6.475   2.942   6.248
    2PC     H4C 1415   6.502   2.983   6.419
    2PC     C35 1416   6.657   3.126   6.264
    2PC     H5A 1417   6.666   3.060   6.178
    2PC     H5B 1418   6.704   3.082   6.351
    2PC     H5C 1419   6.697   3.225   6.239
    2PC     O33 1420   6.784   3.415   5.893
    2PC     O34 1421   6.687   3.552   6.056
    2PC     O21 1422   6.454   3.498   5.570
    2PC     C21 1423   6.348   3.446   5.507
    2PC     O22 1424   6.229   3.453   5.530
    3OL     C12 1425   6.394   3.358   5.393
    3OL     H2R 1426   6.359   3.260   5.424
    3OL     H2S 1427   6.503   3.358   5.379
    3OL     C13 1428   6.324   3.407   5.265
    3OL     H3R 1429   6.367   3.498   5.224
    3OL     H3S 1430   6.223   3.442   5.286
    3OL     C14 1431   6.332   3.298   5.157
    3OL     H4R 1432   6.306   3.203   5.203
    3OL     H4S 1433   6.433   3.299   5.116
    3OL     C15 1434   6.238   3.332   5.040
    3OL     H5R 1435   6.267   3.427   4.995
    3OL     H5S 1436   6.138   3.333   5.083
    3OL     C16 1437   6.247   3.223   4.932
    3OL     H6R 1438   6.251   3.124   4.977
    3OL     H6S 1439   6.338   3.233   4.873
    3OL     C17 1440   6.121   3.217   4.844
    3OL     H7R 1441   6.099   3.313   4.798
    3OL     H7S 1442   6.033   3.195   4.905
    3OL     C18 1443   6.127   3.110   4.734
    3OL     H8R 1444   6.127   3.014   4.784
    3OL     H8S 1445   6.219   3.118   4.676
    3OL     C19 1446   6.012   3.102   4.637
    3OL     H9R 1447   5.917   3.075   4.682
    3OL    C110 1448   6.010   3.121   4.506
    3OL    H10R 1449   5.919   3.095   4.452
    3OL    C111 1450   6.122   3.166   4.415
    3OL    H11R 1451   6.209   3.209   4.463
    3OL    H11S 1452   6.085   3.255   4.363
    3OL    C112 1453   6.160   3.042   4.333
    3OL    H12R 1454   6.069   3.013   4.281
    3OL    H12S 1455   6.201   2.964   4.398
    3OL    C113 1456   6.259   3.066   4.218
    3OL    H13R 1457   6.278   2.971   4.167
    3OL    H13S 1458   6.356   3.091   4.261
    3OL    C114 1459   6.206   3.169   4.118
    3OL    H14R 1460   6.197   3.262   4.174
    3OL    H14S 1461   6.106   3.131   4.095
    3OL    C115 1462   6.299   3.194   3.998
    3OL    H15R 1463   6.316   3.101   3.944
    3OL    H15S 1464   6.388   3.232   4.049
    3OL    C116 1465   6.257   3.308   3.904
    3OL    H16R 1466   6.323   3.314   3.817
    3OL    H16S 1467   6.266   3.403   3.956
    3OL    C117 1468   6.111   3.287   3.863
    3OL    H17R 1469   6.048   3.272   3.951
    3OL    H17S 1470   6.101   3.199   3.801
    3OL    C118 1471   6.067   3.408   3.779
    3OL    H18R 1472   5.962   3.399   3.750
    3OL    H18S 1473   6.124   3.410   3.686
    3OL    H18T 1474   6.071   3.499   3.840
    1PA    C116 1475   1.064   1.925   4.350
    1PA    H16R 1476   0.961   1.926   4.312
    1PA    H16S 1477   1.131   1.900   4.268
    1PA    H16T 1478   1.082   2.030   4.376
    1PA    C115 1479   1.080   1.836   4.474
    1PA    H15R 1480   1.084   1.732   4.440
    1PA    H15S 1481   1.171   1.859   4.530
    1PA    C114 1482   0.957   1.861   4.562
    1PA    H14R 1483   0.867   1.844   4.503
    1PA    H14S 1484   0.954   1.788   4.643
    1PA    C113 1485   0.966   2.000   4.625
    1PA    H13R 1486   1.061   2.011   4.677
    1PA    H13S 1487   0.954   2.075   4.546
    1PA    C112 1488   0.840   2.025   4.710
    1PA    H12R 1489   0.757   1.976   4.659
    1PA    H12S 1490   0.851   1.972   4.805
    1PA    C111 1491   0.830   2.176   4.734
    1PA    H11R 1492   0.918   2.203   4.793
    1PA    H11S 1493   0.842   2.228   4.639
    1PA    C110 1494   0.708   2.223   4.813
    1PA    H10R 1495   0.685   2.145   4.885
    1PA    H10S 1496   0.736   2.307   4.877
    1PA     C19 1497   0.593   2.262   4.718
    1PA     H9R 1498   0.614   2.346   4.652
    1PA     H9S 1499   0.562   2.187   4.644
    1PA     C18 1500   0.476   2.297   4.810
    1PA     H8R 1501   0.510   2.371   4.883
    1PA     H8S 1502   0.404   2.342   4.741
    1PA     C17 1503   0.415   2.174   4.878
    1PA     H7R 1504   0.384   2.099   4.805
    1PA     H7S 1505   0.484   2.125   4.947
    1PA     C16 1506   0.291   2.216   4.959
    1PA     H6R 1507   0.229   2.291   4.910
    1PA     H6S 1508   0.223   2.133   4.979
    1PA     C15 1509   0.331   2.249   5.104
    1PA     H5R 1510   0.326   2.159   5.166
    1PA     H5S 1511   0.431   2.292   5.108
    1PA     C14 1512   0.229   2.347   5.163
    1PA     H4R 1513   0.130   2.300   5.161
    1PA     H4S 1514   0.259   2.362   5.267
    1PA     C13 1515   0.220   2.489   5.106
    1PA     H3R 1516   0.310   2.547   5.129
    1PA     H3S 1517   0.215   2.482   4.998
    1PA     C12 1518   0.096   2.559   5.162
    1PA     H2R 1519   0.074   2.641   5.094
    1PA     H2S 1520   0.008   2.494   5.157
    2PC     C11 1521   0.101   2.620   5.300
    2PC     O12 1522   0.175   2.716   5.311
    2PC     O11 1523   0.029   2.558   5.395
    2PC      C1 1524   0.044   2.587   5.535
    2PC      HR 1525   0.038   2.696   5.539
    2PC      HS 1526  -0.034   2.529   5.584
    2PC      C2 1527   0.177   2.529   5.585
    2PC      HX 1528   0.186   2.431   5.536
    2PC      C3 1529   0.187   2.532   5.738
    2PC      HA 1530   0.128   2.444   5.766
    2PC      HB 1531   0.289   2.537   5.775
    2PC     O31 1532   0.114   2.646   5.788
    2PC     P31 1533   0.105   2.682   5.944
    2PC     O32 1534   0.010   2.557   5.974
    2PC     C31 1535  -0.004   2.520   6.112
    2PC     H1A 1536  -0.034   2.415   6.124
    2PC     H1B 1537   0.089   2.535   6.167
    2PC     C32 1538  -0.107   2.617   6.171
    2PC     H2A 1539  -0.109   2.615   6.280
    2PC     H2B 1540  -0.077   2.719   6.146
    2PC     N31 1541  -0.250   2.606   6.127
    2PC     C33 1542  -0.251   2.649   5.984
    2PC     H3A 1543  -0.193   2.570   5.935
    2PC     H3B 1544  -0.350   2.647   5.938
    2PC     H3C 1545  -0.202   2.747   5.981
    2PC     C34 1546  -0.303   2.466   6.123
    2PC     H4A 1547  -0.305   2.436   6.228
    2PC     H4B 1548  -0.405   2.471   6.086
    2PC     H4C 1549  -0.239   2.406   6.058
    2PC     C35 1550  -0.333   2.705   6.205
    2PC     H5A 1551  -0.307   2.695   6.310
    2PC     H5B 1552  -0.436   2.672   6.191
    2PC     H5C 1553  -0.306   2.802   6.163
    2PC     O33 1554   0.231   2.708   6.016
    2PC     O34 1555   0.031   2.807   5.976
    2PC     O21 1556   0.287   2.607   5.536
    2PC     C21 1557   0.414   2.563   5.540
    2PC     O22 1558   0.430   2.450   5.584
    3OL     C12 1559   0.521   2.666   5.517
    3OL     H2R 1560   0.613   2.621   5.481
    3OL     H2S 1561   0.553   2.701   5.616
    3OL     C13 1562   0.478   2.777   5.421
    3OL     H3R 1563   0.404   2.833   5.478
    3OL     H3S 1564   0.418   2.735   5.340
    3OL     C14 1565   0.589   2.876   5.382
    3OL     H4R 1566   0.672   2.831   5.327
    3OL     H4S 1567   0.642   2.905   5.473
    3OL     C15 1568   0.535   2.994   5.301
    3OL     H5R 1569   0.487   3.065   5.370
    3OL     H5S 1570   0.452   2.959   5.238
    3OL     C16 1571   0.640   3.065   5.215
    3OL     H6R 1572   0.640   2.991   5.135
    3OL     H6S 1573   0.736   3.067   5.268
    3OL     C17 1574   0.610   3.204   5.159
    3OL     H7R 1575   0.596   3.276   5.240
    3OL     H7S 1576   0.513   3.192   5.110
    3OL     C18 1577   0.724   3.249   5.066
    3OL     H8R 1578   0.704   3.216   4.963
    3OL     H8S 1579   0.814   3.197   5.098
    3OL     C19 1580   0.749   3.397   5.073
    3OL     H9R 1581   0.777   3.414   5.176
    3OL    C110 1582   0.744   3.479   4.969
    3OL    H10R 1583   0.768   3.584   4.982
    3OL    C111 1584   0.694   3.439   4.832
    3OL    H11R 1585   0.615   3.364   4.822
    3OL    H11S 1586   0.778   3.399   4.776
    3OL    C112 1587   0.650   3.566   4.758
    3OL    H12R 1588   0.740   3.623   4.734
    3OL    H12S 1589   0.586   3.634   4.815
    3OL    C113 1590   0.565   3.531   4.634
    3OL    H13R 1591   0.549   3.623   4.579
    3OL    H13S 1592   0.468   3.497   4.670
    3OL    C114 1593   0.633   3.422   4.550
    3OL    H14R 1594   0.640   3.329   4.609
    3OL    H14S 1595   0.736   3.452   4.530
    3OL    C115 1596   0.558   3.372   4.426
    3OL    H15R 1597   0.452   3.356   4.446
    3OL    H15S 1598   0.589   3.271   4.401
    3OL    C116 1599   0.578   3.459   4.301
    3OL    H16R 1600   0.682   3.480   4.275
    3OL    H16S 1601   0.538   3.557   4.328
    3OL    C117 1602   0.506   3.403   4.178
    3OL    H17R 1603   0.398   3.392   4.191
    3OL    H17S 1604   0.556   3.309   4.155
    3OL    C118 1605   0.523   3.500   4.060
    3OL    H18R 1606   0.492   3.603   4.078
    3OL    H18S 1607   0.476   3.467   3.967
    3OL    H18T 1608   0.631   3.516   4.048
    1PA    C116 1609   5.012   0.753   3.923
    1PA    H16R 1610   5.008   0.847   3.979
    1PA    H16S 1611   4.915   0.735   3.877
    1PA    H16T 1612   5.087   0.770   3.844
    1PA    C115 1613   5.045   0.647   4.028
    1PA    H15R 1614   5.112   0.572   3.987
    1PA    H15S 1615   5.085   0.696   4.118
    1PA    C114 1616   4.924   0.571   4.083
    1PA    H14R 1617   4.857   0.628   4.149
    1PA    H14S 1618   4.863   0.545   3.996
    1PA    C113 1619   4.982   0.447   4.153
    1PA    H13R 1620   5.039   0.385   4.085
    1PA    H13S 1621   5.049   0.483   4.232
    1PA    C112 1622   4.867   0.366   4.215
    1PA    H12R 1623   4.773   0.388   4.165
    1PA    H12S 1624   4.879   0.258   4.199
    1PA    C111 1625   4.848   0.392   4.365
    1PA    H11R 1626   4.934   0.354   4.420
    1PA    H11S 1627   4.836   0.500   4.365
    1PA    C110 1628   4.725   0.312   4.410
    1PA    H10R 1629   4.688   0.333   4.511
    1PA    H10S 1630   4.642   0.340   4.345
    1PA     C19 1631   4.747   0.160   4.404
    1PA     H9R 1632   4.662   0.105   4.446
    1PA     H9S 1633   4.756   0.127   4.300
    1PA     C18 1634   4.870   0.114   4.483
    1PA     H8R 1635   4.878   0.006   4.473
    1PA     H8S 1636   4.965   0.146   4.439
    1PA     C17 1637   4.862   0.153   4.631
    1PA     H7R 1638   4.873   0.262   4.639
    1PA     H7S 1639   4.765   0.122   4.670
    1PA     C16 1640   4.952   0.077   4.729
    1PA     H6R 1641   4.926  -0.029   4.730
    1PA     H6S 1642   5.050   0.079   4.682
    1PA     C15 1643   4.962   0.143   4.867
    1PA     H5R 1644   4.996   0.247   4.857
    1PA     H5S 1645   4.857   0.142   4.899
    1PA     C14 1646   5.054   0.066   4.963
    1PA     H4R 1647   5.019  -0.037   4.970
    1PA     H4S 1648   5.154   0.056   4.921
    1PA     C13 1649   5.071   0.129   5.102
    1PA     H3R 1650   5.131   0.067   5.168
    1PA     H3S 1651   5.119   0.227   5.101
    1PA     C12 1652   4.936   0.147   5.173
    1PA     H2R 1653   4.864   0.200   5.110
    1PA     H2S 1654   4.901   0.045   5.191
    2PC     C11 1655   4.945   0.210   5.311
    2PC     O12 1656   5.033   0.282   5.353
    2PC     O11 1657   4.833   0.176   5.376
    2PC      C1 1658   4.818   0.223   5.512
    2PC      HR 1659   4.876   0.314   5.530
    2PC      HS 1660   4.712   0.239   5.531
    2PC      C2 1661   4.865   0.112   5.606
    2PC      HX 1662   4.804   0.024   5.580
    2PC      C3 1663   4.856   0.153   5.754
    2PC      HA 1664   4.748   0.162   5.765
    2PC      HB 1665   4.885   0.069   5.817
    2PC     O31 1666   4.943   0.264   5.782
    2PC     P31 1667   4.973   0.305   5.933
    2PC     O32 1668   4.983   0.464   5.915
    2PC     C31 1669   4.879   0.535   5.844
    2PC     H1A 1670   4.844   0.480   5.757
    2PC     H1B 1671   4.799   0.533   5.918
    2PC     C32 1672   4.922   0.675   5.798
    2PC     H2A 1673   4.841   0.732   5.754
    2PC     H2B 1674   4.956   0.730   5.886
    2PC     N31 1675   5.036   0.686   5.702
    2PC     C33 1676   5.019   0.600   5.580
    2PC     H3A 1677   5.025   0.496   5.614
    2PC     H3B 1678   4.931   0.632   5.526
    2PC     H3C 1679   5.098   0.629   5.510
    2PC     C34 1680   5.044   0.829   5.660
    2PC     H4A 1681   4.951   0.868   5.617
    2PC     H4B 1682   5.076   0.888   5.746
    2PC     H4C 1683   5.127   0.845   5.591
    2PC     C35 1684   5.165   0.648   5.769
    2PC     H5A 1685   5.250   0.676   5.708
    2PC     H5B 1686   5.148   0.542   5.786
    2PC     H5C 1687   5.173   0.706   5.861
    2PC     O33 1688   4.857   0.279   6.022
    2PC     O34 1689   5.097   0.251   5.995
    2PC     O21 1690   5.000   0.076   5.571
    2PC     C21 1691   5.059  -0.038   5.609
    2PC     O22 1692   4.998  -0.125   5.667
    3OL     C12 1693   5.206  -0.045   5.576
    3OL     H2R 1694   5.242  -0.140   5.615
    3OL     H2S 1695   5.259   0.027   5.638
    3OL     C13 1696   5.233  -0.040   5.425
    3OL     H3R 1697   5.189   0.041   5.366
    3OL     H3S 1698   5.182  -0.129   5.387
    3OL     C14 1699   5.381  -0.051   5.385
    3OL     H4R 1700   5.409  -0.137   5.446
    3OL     H4S 1701   5.432   0.042   5.410
    3OL     C15 1702   5.405  -0.085   5.237
    3OL     H5R 1703   5.359  -0.010   5.172
    3OL     H5S 1704   5.341  -0.170   5.210
    3OL     C16 1705   5.550  -0.107   5.192
    3OL     H6R 1706   5.612  -0.023   5.226
    3OL     H6S 1707   5.555  -0.109   5.083
    3OL     C17 1708   5.603  -0.237   5.254
    3OL     H7R 1709   5.540  -0.323   5.233
    3OL     H7S 1710   5.607  -0.234   5.363
    3OL     C18 1711   5.742  -0.273   5.200
    3OL     H8R 1712   5.788  -0.341   5.272
    3OL     H8S 1713   5.806  -0.185   5.206
    3OL     C19 1714   5.757  -0.336   5.064
    3OL     H9R 1715   5.675  -0.394   5.024
    3OL    C110 1716   5.859  -0.323   4.981
    3OL    H10R 1717   5.847  -0.376   4.887
    3OL    C111 1718   5.994  -0.266   5.017
    3OL    H11R 1719   6.070  -0.344   5.021
    3OL    H11S 1720   6.006  -0.224   5.118
    3OL    C112 1721   6.037  -0.155   4.920
    3OL    H12R 1722   6.136  -0.117   4.944
    3OL    H12S 1723   5.968  -0.070   4.916
    3OL    C113 1724   6.047  -0.202   4.774
    3OL    H13R 1725   5.956  -0.251   4.738
    3OL    H13S 1726   6.121  -0.282   4.784
    3OL    C114 1727   6.104  -0.093   4.682
    3OL    H14R 1728   6.207  -0.069   4.710
    3OL    H14S 1729   6.038  -0.009   4.702
    3OL    C115 1730   6.099  -0.114   4.530
    3OL    H15R 1731   6.000  -0.090   4.492
    3OL    H15S 1732   6.123  -0.218   4.509
    3OL    C116 1733   6.218  -0.047   4.459
    3OL    H16R 1734   6.307  -0.102   4.490
    3OL    H16S 1735   6.207   0.058   4.486
    3OL    C117 1736   6.216  -0.072   4.308
    3OL    H17R 1737   6.128  -0.026   4.263
    3OL    H17S 1738   6.210  -0.175   4.271
    3OL    C118 1739   6.339  -0.007   4.242
    3OL    H18R 1740   6.352   0.100   4.262
    3OL    H18S 1741   6.337  -0.022   4.134
    3OL    H18T 1742   6.431  -0.053   4.277
    1PA    C116 1743   0.884   6.259   4.399
    1PA    H16R 1744   0.882   6.195   4.311
    1PA    H16S 1745   0.905   6.185   4.477
    1PA    H16T 1746   0.964   6.330   4.378
    1PA    C115 1747   0.751   6.334   4.417
    1PA    H15R 1748   0.722   6.375   4.320
    1PA    H15S 1749   0.676   6.258   4.441
    1PA    C114 1750   0.775   6.440   4.526
    1PA    H14R 1751   0.792   6.392   4.622
    1PA    H14S 1752   0.870   6.492   4.508
    1PA    C113 1753   0.660   6.540   4.545
    1PA    H13R 1754   0.635   6.592   4.452
    1PA    H13S 1755   0.570   6.487   4.576
    1PA    C112 1756   0.700   6.637   4.656
    1PA    H12R 1757   0.797   6.682   4.638
    1PA    H12S 1758   0.620   6.712   4.656
    1PA    C111 1759   0.702   6.571   4.795
    1PA    H11R 1760   0.770   6.485   4.794
    1PA    H11S 1761   0.745   6.647   4.860
    1PA    C110 1762   0.563   6.549   4.855
    1PA    H10R 1763   0.524   6.649   4.877
    1PA    H10S 1764   0.501   6.506   4.776
    1PA     C19 1765   0.564   6.472   4.988
    1PA     H9R 1766   0.615   6.378   4.970
    1PA     H9S 1767   0.612   6.524   5.071
    1PA     C18 1768   0.417   6.443   5.021
    1PA     H8R 1769   0.359   6.528   5.058
    1PA     H8S 1770   0.375   6.404   4.928
    1PA     C17 1771   0.396   6.333   5.126
    1PA     H7R 1772   0.444   6.237   5.110
    1PA     H7S 1773   0.437   6.367   5.222
    1PA     C16 1774   0.247   6.306   5.152
    1PA     H6R 1775   0.194   6.394   5.188
    1PA     H6S 1776   0.200   6.285   5.055
    1PA     C15 1777   0.222   6.187   5.247
    1PA     H5R 1778   0.125   6.146   5.219
    1PA     H5S 1779   0.293   6.111   5.214
    1PA     C14 1780   0.248   6.225   5.393
    1PA     H4R 1781   0.349   6.261   5.410
    1PA     H4S 1782   0.171   6.295   5.427
    1PA     C13 1783   0.234   6.096   5.477
    1PA     H3R 1784   0.132   6.061   5.461
    1PA     H3S 1785   0.308   6.026   5.437
    1PA     C12 1786   0.276   6.119   5.623
    1PA     H2R 1787   0.384   6.132   5.624
    1PA     H2S 1788   0.233   6.206   5.672
    2PC     C11 1789   0.231   5.997   5.700
    2PC     O12 1790   0.280   5.886   5.690
    2PC     O11 1791   0.136   6.023   5.791
    2PC      C1 1792   0.069   5.919   5.864
    2PC      HR 1793   0.113   5.821   5.844
    2PC      HS 1794   0.087   5.939   5.970
    2PC      C2 1795  -0.081   5.912   5.834
    2PC      HX 1796  -0.127   6.006   5.801
    2PC      C3 1797  -0.162   5.876   5.959
    2PC      HA 1798  -0.168   5.965   6.022
    2PC      HB 1799  -0.261   5.838   5.932
    2PC     O31 1800  -0.101   5.776   6.043
    2PC     P31 1801  -0.161   5.750   6.190
    2PC     O32 1802  -0.149   5.590   6.204
    2PC     C31 1803  -0.020   5.537   6.170
    2PC     H1A 1804  -0.011   5.538   6.061
    2PC     H1B 1805   0.067   5.577   6.223
    2PC     C32 1806  -0.021   5.387   6.203
    2PC     H2A 1807  -0.115   5.344   6.168
    2PC     H2B 1808   0.065   5.346   6.149
    2PC     N31 1809  -0.020   5.338   6.345
    2PC     C33 1810  -0.026   5.188   6.337
    2PC     H3A 1811  -0.110   5.163   6.272
    2PC     H3B 1812   0.068   5.155   6.293
    2PC     H3C 1813  -0.025   5.152   6.440
    2PC     C34 1814   0.109   5.372   6.414
    2PC     H4A 1815   0.181   5.295   6.387
    2PC     H4B 1816   0.150   5.470   6.388
    2PC     H4C 1817   0.099   5.360   6.522
    2PC     C35 1818  -0.140   5.386   6.419
    2PC     H5A 1819  -0.229   5.368   6.358
    2PC     H5B 1820  -0.123   5.494   6.429
    2PC     H5C 1821  -0.142   5.321   6.507
    2PC     O33 1822  -0.092   5.814   6.304
    2PC     O34 1823  -0.303   5.789   6.203
    2PC     O21 1824  -0.114   5.815   5.732
    2PC     C21 1825  -0.228   5.832   5.664
    2PC     O22 1826  -0.313   5.908   5.705
    3OL     C12 1827  -0.237   5.750   5.537
    3OL     H2R 1828  -0.313   5.674   5.558
    3OL     H2S 1829  -0.140   5.702   5.521
    3OL     C13 1830  -0.262   5.845   5.419
    3OL     H3R 1831  -0.182   5.918   5.404
    3OL     H3S 1832  -0.357   5.896   5.430
    3OL     C14 1833  -0.259   5.759   5.292
    3OL     H4R 1834  -0.349   5.696   5.284
    3OL     H4S 1835  -0.169   5.697   5.291
    3OL     C15 1836  -0.257   5.847   5.166
    3OL     H5R 1837  -0.173   5.917   5.169
    3OL     H5S 1838  -0.355   5.893   5.158
    3OL     C16 1839  -0.232   5.757   5.044
    3OL     H6R 1840  -0.308   5.679   5.047
    3OL     H6S 1841  -0.132   5.715   5.047
    3OL     C17 1842  -0.240   5.836   4.912
    3OL     H7R 1843  -0.317   5.912   4.925
    3OL     H7S 1844  -0.274   5.766   4.836
    3OL     C18 1845  -0.104   5.894   4.872
    3OL     H8R 1846  -0.031   5.814   4.854
    3OL     H8S 1847  -0.076   5.954   4.958
    3OL     C19 1848  -0.123   5.968   4.742
    3OL     H9R 1849  -0.202   5.931   4.677
    3OL    C110 1850  -0.042   6.060   4.694
    3OL    H10R 1851  -0.082   6.101   4.602
    3OL    C111 1852   0.070   6.131   4.767
    3OL    H11R 1853   0.157   6.067   4.786
    3OL    H11S 1854   0.033   6.175   4.860
    3OL    C112 1855   0.128   6.238   4.675
    3OL    H12R 1856   0.216   6.280   4.725
    3OL    H12S 1857   0.061   6.324   4.672
    3OL    C113 1858   0.167   6.193   4.533
    3OL    H13R 1859   0.078   6.154   4.483
    3OL    H13S 1860   0.240   6.112   4.539
    3OL    C114 1861   0.240   6.301   4.453
    3OL    H14R 1862   0.333   6.334   4.500
    3OL    H14S 1863   0.171   6.386   4.449
    3OL    C115 1864   0.263   6.263   4.306
    3OL    H15R 1865   0.172   6.252   4.247
    3OL    H15S 1866   0.308   6.164   4.291
    3OL    C116 1867   0.348   6.368   4.234
    3OL    H16R 1868   0.440   6.383   4.292
    3OL    H16S 1869   0.280   6.452   4.236
    3OL    C117 1870   0.377   6.308   4.095
    3OL    H17R 1871   0.285   6.289   4.039
    3OL    H17S 1872   0.424   6.210   4.104
    3OL    C118 1873   0.455   6.408   4.009
    3OL    H18R 1874   0.560   6.406   4.038
    3OL    H18S 1875   0.414   6.507   4.032
    3OL    H18T 1876   0.453   6.387   3.902
    1PA    C116 1877   2.657   3.052   4.854
    1PA    H16R 1878   2.604   2.985   4.922
    1PA    H16S 1879   2.764   3.032   4.870
    1PA    H16T 1880   2.631   3.016   4.754
    1PA    C115 1881   2.619   3.196   4.890
    1PA    H15R 1882   2.512   3.215   4.881
    1PA    H15S 1883   2.646   3.224   4.992
    1PA    C114 1884   2.699   3.296   4.806
    1PA    H14R 1885   2.675   3.392   4.850
    1PA    H14S 1886   2.806   3.280   4.822
    1PA    C113 1887   2.661   3.292   4.658
    1PA    H13R 1888   2.709   3.370   4.599
    1PA    H13S 1889   2.700   3.197   4.619
    1PA    C112 1890   2.510   3.300   4.628
    1PA    H12R 1891   2.500   3.277   4.522
    1PA    H12S 1892   2.465   3.213   4.676
    1PA    C111 1893   2.439   3.428   4.673
    1PA    H11R 1894   2.450   3.458   4.778
    1PA    H11S 1895   2.483   3.510   4.617
    1PA    C110 1896   2.289   3.421   4.643
    1PA    H10R 1897   2.232   3.514   4.634
    1PA    H10S 1898   2.264   3.375   4.547
    1PA     C19 1899   2.210   3.328   4.736
    1PA     H9R 1900   2.128   3.284   4.679
    1PA     H9S 1901   2.272   3.248   4.778
    1PA     C18 1902   2.144   3.404   4.852
    1PA     H8R 1903   2.224   3.448   4.912
    1PA     H8S 1904   2.085   3.485   4.811
    1PA     C17 1905   2.055   3.309   4.933
    1PA     H7R 1906   1.970   3.282   4.870
    1PA     H7S 1907   2.117   3.224   4.962
    1PA     C16 1908   1.987   3.367   5.058
    1PA     H6R 1909   2.055   3.417   5.127
    1PA     H6S 1910   1.925   3.450   5.023
    1PA     C15 1911   1.905   3.262   5.133
    1PA     H5R 1912   1.818   3.226   5.078
    1PA     H5S 1913   1.973   3.177   5.143
    1PA     C14 1914   1.859   3.300   5.275
    1PA     H4R 1915   1.826   3.404   5.281
    1PA     H4S 1916   1.778   3.234   5.307
    1PA     C13 1917   1.974   3.275   5.374
    1PA     H3R 1918   2.018   3.176   5.366
    1PA     H3S 1919   2.063   3.335   5.351
    1PA     C12 1920   1.931   3.299   5.519
    1PA     H2R 1921   1.917   3.407   5.530
    1PA     H2S 1922   1.831   3.264   5.547
    2PC     C11 1923   2.030   3.253   5.622
    2PC     O12 1924   2.002   3.244   5.740
    2PC     O11 1925   2.152   3.234   5.569
    2PC      C1 1926   2.255   3.174   5.649
    2PC      HR 1927   2.352   3.191   5.601
    2PC      HS 1928   2.264   3.235   5.738
    2PC      C2 1929   2.236   3.025   5.681
    2PC      HX 1930   2.129   3.012   5.697
    2PC      C3 1931   2.313   2.992   5.810
    2PC      HA 1932   2.260   3.027   5.899
    2PC      HB 1933   2.320   2.883   5.807
    2PC     O31 1934   2.449   3.038   5.811
    2PC     P31 1935   2.542   2.999   5.936
    2PC     O32 1936   2.619   3.139   5.953
    2PC     C31 1937   2.716   3.182   5.856
    2PC     H1A 1938   2.798   3.109   5.855
    2PC     H1B 1939   2.665   3.181   5.759
    2PC     C32 1940   2.751   3.327   5.893
    2PC     H2A 1941   2.846   3.342   5.841
    2PC     H2B 1942   2.681   3.398   5.850
    2PC     N31 1943   2.775   3.359   6.037
    2PC     C33 1944   2.645   3.375   6.110
    2PC     H3A 1945   2.673   3.426   6.203
    2PC     H3B 1946   2.568   3.432   6.058
    2PC     H3C 1947   2.601   3.277   6.127
    2PC     C34 1948   2.858   3.259   6.113
    2PC     H4A 1949   2.942   3.237   6.047
    2PC     H4B 1950   2.899   3.315   6.197
    2PC     H4C 1951   2.799   3.173   6.144
    2PC     C35 1952   2.852   3.488   6.041
    2PC     H5A 1953   2.789   3.569   6.005
    2PC     H5B 1954   2.942   3.472   5.982
    2PC     H5C 1955   2.879   3.516   6.143
    2PC     O33 1956   2.477   2.961   6.063
    2PC     O34 1957   2.637   2.889   5.906
    2PC     O21 1958   2.267   2.938   5.571
    2PC     C21 1959   2.225   2.810   5.571
    2PC     O22 1960   2.159   2.758   5.658
    3OL     C12 1961   2.249   2.734   5.443
    3OL     H2R 1962   2.327   2.661   5.463
    3OL     H2S 1963   2.291   2.798   5.365
    3OL     C13 1964   2.125   2.674   5.375
    3OL     H3R 1965   2.055   2.753   5.346
    3OL     H3S 1966   2.071   2.613   5.448
    3OL     C14 1967   2.165   2.598   5.248
    3OL     H4R 1968   2.266   2.557   5.256
    3OL     H4S 1969   2.184   2.674   5.172
    3OL     C15 1970   2.068   2.489   5.203
    3OL     H5R 1971   1.965   2.521   5.184
    3OL     H5S 1972   2.062   2.408   5.276
    3OL     C16 1973   2.113   2.430   5.068
    3OL     H6R 1974   2.215   2.391   5.070
    3OL     H6S 1975   2.119   2.507   4.990
    3OL     C17 1976   2.010   2.325   5.024
    3OL     H7R 1977   1.919   2.380   5.001
    3OL     H7S 1978   2.002   2.244   5.096
    3OL     C18 1979   2.046   2.237   4.903
    3OL     H8R 1980   1.971   2.158   4.913
    3OL     H8S 1981   2.139   2.182   4.915
    3OL     C19 1982   2.039   2.300   4.767
    3OL     H9R 1983   2.107   2.384   4.759
    3OL    C110 1984   1.951   2.264   4.674
    3OL    H10R 1985   1.941   2.328   4.587
    3OL    C111 1986   1.828   2.180   4.696
    3OL    H11R 1987   1.762   2.216   4.775
    3OL    H11S 1988   1.862   2.079   4.718
    3OL    C112 1989   1.759   2.151   4.561
    3OL    H12R 1990   1.738   2.238   4.499
    3OL    H12S 1991   1.665   2.102   4.589
    3OL    C113 1992   1.851   2.056   4.484
    3OL    H13R 1993   1.858   1.959   4.534
    3OL    H13S 1994   1.952   2.097   4.477
    3OL    C114 1995   1.801   2.037   4.340
    3OL    H14R 1996   1.769   2.133   4.299
    3OL    H14S 1997   1.713   1.974   4.324
    3OL    C115 1998   1.913   1.977   4.255
    3OL    H15R 1999   1.950   1.880   4.290
    3OL    H15S 2000   1.999   2.040   4.279
    3OL    C116 2001   1.874   1.963   4.107
    3OL    H16R 2002   1.842   2.060   4.067
    3OL    H16S 2003   1.788   1.899   4.086
    3OL    C117 2004   1.992   1.911   4.024
    3OL    H17R 2005   1.958   1.850   3.941
    3OL    H17S 2006   2.056   1.850   4.089
    3OL    C118 2007   2.080   2.019   3.960
    3OL    H18R 2008   2.158   1.971   3.900
    3OL    H18S 2009   2.132   2.068   4.043
    3OL    H18T 2010   2.019   2.088   3.902
    1PA    C116 2011   2.526   6.100   4.018
    1PA    H16R 2012   2.529   6.050   3.921
    1PA    H16S 2013   2.622   6.138   4.051
    1PA    H16T 2014   2.460   6.187   4.010
    1PA    C115 2015   2.485   5.998   4.125
    1PA    H15R 2016   2.393   5.953   4.088
    1PA    H15S 2017   2.559   5.918   4.126
    1PA    C114 2018   2.485   6.059   4.266
    1PA    H14R 2019   2.588   6.050   4.301
    1PA    H14S 2020   2.455   6.164   4.259
    1PA    C113 2021   2.402   5.970   4.360
    1PA    H13R 2022   2.298   5.966   4.328
    1PA    H13S 2023   2.442   5.869   4.363
    1PA    C112 2024   2.417   6.015   4.506
    1PA    H12R 2025   2.522   6.005   4.535
    1PA    H12S 2026   2.393   6.122   4.505
    1PA    C111 2027   2.321   5.943   4.602
    1PA    H11R 2028   2.219   5.944   4.564
    1PA    H11S 2029   2.358   5.840   4.606
    1PA    C110 2030   2.321   6.014   4.738
    1PA    H10R 2031   2.422   6.020   4.779
    1PA    H10S 2032   2.298   6.120   4.723
    1PA     C19 2033   2.218   5.952   4.833
    1PA     H9R 2034   2.115   5.964   4.797
    1PA     H9S 2035   2.246   5.848   4.848
    1PA     C18 2036   2.210   6.020   4.970
    1PA     H8R 2037   2.307   6.037   5.016
    1PA     H8S 2038   2.151   6.112   4.957
    1PA     C17 2039   2.134   5.933   5.071
    1PA     H7R 2040   2.035   5.909   5.031
    1PA     H7S 2041   2.187   5.841   5.095
    1PA     C16 2042   2.100   6.006   5.202
    1PA     H6R 2043   2.196   6.033   5.247
    1PA     H6S 2044   2.038   6.093   5.184
    1PA     C15 2045   2.016   5.913   5.291
    1PA     H5R 2046   1.923   5.884   5.241
    1PA     H5S 2047   2.064   5.815   5.291
    1PA     C14 2048   1.989   5.985   5.424
    1PA     H4R 2049   2.085   5.984   5.477
    1PA     H4S 2050   1.960   6.087   5.397
    1PA     C13 2051   1.877   5.934   5.515
    1PA     H3R 2052   1.890   5.976   5.615
    1PA     H3S 2053   1.777   5.934   5.472
    1PA     C12 2054   1.911   5.786   5.537
    1PA     H2R 2055   1.888   5.725   5.449
    1PA     H2S 2056   2.015   5.774   5.570
    2PC     C11 2057   1.838   5.723   5.653
    2PC     O12 2058   1.807   5.774   5.759
    2PC     O11 2059   1.821   5.592   5.630
    2PC      C1 2060   1.755   5.512   5.730
    2PC      HR 2061   1.774   5.408   5.705
    2PC      HS 2062   1.800   5.537   5.827
    2PC      C2 2063   1.604   5.539   5.739
    2PC      HX 2064   1.585   5.641   5.772
    2PC      C3 2065   1.549   5.438   5.840
    2PC      HA 2066   1.528   5.349   5.780
    2PC      HB 2067   1.623   5.422   5.919
    2PC     O31 2068   1.422   5.487   5.885
    2PC     P31 2069   1.354   5.401   6.002
    2PC     O32 2070   1.201   5.435   5.969
    2PC     C31 2071   1.105   5.332   6.000
    2PC     H1A 2072   1.108   5.250   5.929
    2PC     H1B 2073   1.125   5.300   6.103
    2PC     C32 2074   0.968   5.401   5.991
    2PC     H2A 2075   0.955   5.467   6.076
    2PC     H2B 2076   0.957   5.464   5.902
    2PC     N31 2077   0.850   5.309   5.986
    2PC     C33 2078   0.722   5.373   5.940
    2PC     H3A 2079   0.646   5.295   5.941
    2PC     H3B 2080   0.694   5.444   6.017
    2PC     H3C 2081   0.743   5.412   5.840
    2PC     C34 2082   0.871   5.195   5.890
    2PC     H4A 2083   0.938   5.117   5.926
    2PC     H4B 2084   0.779   5.141   5.869
    2PC     H4C 2085   0.910   5.225   5.793
    2PC     C35 2086   0.829   5.248   6.121
    2PC     H5A 2087   0.924   5.202   6.149
    2PC     H5B 2088   0.750   5.174   6.129
    2PC     H5C 2089   0.801   5.334   6.184
    2PC     O33 2090   1.391   5.260   5.981
    2PC     O34 2091   1.383   5.425   6.146
    2PC     O21 2092   1.549   5.518   5.608
    2PC     C21 2093   1.553   5.628   5.531
    2PC     O22 2094   1.557   5.744   5.566
    3OL     C12 2095   1.532   5.577   5.390
    3OL     H2R 2096   1.428   5.567   5.360
    3OL     H2S 2097   1.572   5.475   5.388
    3OL     C13 2098   1.591   5.675   5.287
    3OL     H3R 2099   1.672   5.733   5.331
    3OL     H3S 2100   1.515   5.749   5.262
    3OL     C14 2101   1.646   5.601   5.164
    3OL     H4R 2102   1.734   5.539   5.182
    3OL     H4S 2103   1.690   5.674   5.095
    3OL     C15 2104   1.540   5.515   5.093
    3OL     H5R 2105   1.448   5.573   5.081
    3OL     H5S 2106   1.512   5.431   5.156
    3OL     C16 2107   1.580   5.474   4.951
    3OL     H6R 2108   1.587   5.561   4.884
    3OL     H6S 2109   1.498   5.412   4.914
    3OL     C17 2110   1.714   5.400   4.952
    3OL     H7R 2111   1.698   5.316   5.021
    3OL     H7S 2112   1.794   5.462   4.992
    3OL     C18 2113   1.755   5.326   4.824
    3OL     H8R 2114   1.836   5.256   4.846
    3OL     H8S 2115   1.798   5.395   4.751
    3OL     C19 2116   1.645   5.238   4.770
    3OL     H9R 2117   1.608   5.188   4.859
    3OL    C110 2118   1.593   5.229   4.649
    3OL    H10R 2119   1.513   5.157   4.630
    3OL    C111 2120   1.648   5.295   4.525
    3OL    H11R 2121   1.695   5.389   4.556
    3OL    H11S 2122   1.563   5.316   4.460
    3OL    C112 2123   1.752   5.201   4.462
    3OL    H12R 2124   1.716   5.101   4.437
    3OL    H12S 2125   1.819   5.177   4.545
    3OL    C113 2126   1.836   5.269   4.353
    3OL    H13R 2127   1.919   5.199   4.335
    3OL    H13S 2128   1.879   5.362   4.390
    3OL    C114 2129   1.754   5.292   4.226
    3OL    H14R 2130   1.663   5.350   4.245
    3OL    H14S 2131   1.715   5.198   4.187
    3OL    C115 2132   1.840   5.365   4.122
    3OL    H15R 2133   1.917   5.434   4.159
    3OL    H15S 2134   1.771   5.429   4.066
    3OL    C116 2135   1.919   5.266   4.036
    3OL    H16R 2136   1.856   5.182   4.005
    3OL    H16S 2137   2.005   5.221   4.087
    3OL    C117 2138   1.970   5.331   3.907
    3OL    H17R 2139   2.043   5.409   3.933
    3OL    H17S 2140   1.884   5.369   3.852
    3OL    C118 2141   2.041   5.222   3.825
    3OL    H18R 2142   2.073   5.258   3.727
    3OL    H18S 2143   1.968   5.148   3.793
    3OL    H18T 2144   2.131   5.191   3.878
    1PA    C116 2145   3.034   3.272   5.005
    1PA    H16R 2146   2.991   3.215   4.922
    1PA    H16S 2147   3.029   3.218   5.100
    1PA    H16T 2148   3.137   3.289   4.975
    1PA    C115 2149   2.957   3.405   5.019
    1PA    H15R 2150   2.923   3.447   4.924
    1PA    H15S 2151   2.871   3.391   5.084
    1PA    C114 2152   3.049   3.504   5.090
    1PA    H14R 2153   3.088   3.467   5.186
    1PA    H14S 2154   3.139   3.523   5.031
    1PA    C113 2155   2.988   3.644   5.113
    1PA    H13R 2156   2.939   3.682   5.023
    1PA    H13S 2157   2.905   3.639   5.183
    1PA    C112 2158   3.099   3.744   5.148
    1PA    H12R 2159   3.157   3.702   5.230
    1PA    H12S 2160   3.158   3.759   5.058
    1PA    C111 2161   3.040   3.877   5.200
    1PA    H11R 2162   2.989   3.938   5.126
    1PA    H11S 2163   2.973   3.858   5.284
    1PA    C110 2164   3.160   3.960   5.248
    1PA    H10R 2165   3.218   3.908   5.325
    1PA    H10S 2166   3.217   3.970   5.156
    1PA     C19 2167   3.111   4.090   5.313
    1PA     H9R 2168   3.187   4.164   5.284
    1PA     H9S 2169   3.020   4.124   5.263
    1PA     C18 2170   3.088   4.081   5.464
    1PA     H8R 2171   3.007   4.013   5.491
    1PA     H8S 2172   3.183   4.047   5.506
    1PA     C17 2173   3.063   4.221   5.520
    1PA     H7R 2174   3.152   4.284   5.520
    1PA     H7S 2175   2.995   4.277   5.455
    1PA     C16 2176   3.004   4.212   5.661
    1PA     H6R 2177   2.988   4.311   5.704
    1PA     H6S 2178   2.905   4.165   5.661
    1PA     C15 2179   3.100   4.160   5.769
    1PA     H5R 2180   3.042   4.169   5.862
    1PA     H5S 2181   3.115   4.053   5.749
    1PA     C14 2182   3.230   4.241   5.768
    1PA     H4R 2183   3.278   4.256   5.671
    1PA     H4S 2184   3.215   4.343   5.804
    1PA     C13 2185   3.335   4.193   5.869
    1PA     H3R 2186   3.413   4.269   5.868
    1PA     H3S 2187   3.286   4.199   5.967
    1PA     C12 2188   3.401   4.057   5.840
    1PA     H2R 2189   3.323   3.982   5.826
    1PA     H2S 2190   3.467   4.063   5.754
    2PC     C11 2191   3.489   4.009   5.953
    2PC     O12 2192   3.509   4.061   6.061
    2PC     O11 2193   3.572   3.917   5.902
    2PC      C1 2194   3.701   3.904   5.965
    2PC      HR 2195   3.752   3.999   5.981
    2PC      HS 2196   3.681   3.860   6.064
    2PC      C2 2197   3.772   3.799   5.879
    2PC      HX 2198   3.696   3.727   5.851
    2PC      C3 2199   3.882   3.718   5.950
    2PC      HA 2200   3.846   3.653   6.030
    2PC      HB 2201   3.918   3.642   5.880
    2PC     O31 2202   3.971   3.820   5.998
    2PC     P31 2203   4.127   3.783   6.012
    2PC     O32 2204   4.108   3.668   6.122
    2PC     C31 2205   4.084   3.715   6.256
    2PC     H1A 2206   4.157   3.794   6.278
    2PC     H1B 2207   3.984   3.758   6.266
    2PC     C32 2208   4.100   3.599   6.355
    2PC     H2A 2209   4.199   3.553   6.355
    2PC     H2B 2210   4.084   3.629   6.459
    2PC     N31 2211   4.009   3.482   6.333
    2PC     C33 2212   4.013   3.389   6.451
    2PC     H3A 2213   3.983   3.439   6.544
    2PC     H3B 2214   3.944   3.306   6.438
    2PC     H3C 2215   4.118   3.361   6.457
    2PC     C34 2216   3.866   3.526   6.334
    2PC     H4A 2217   3.850   3.600   6.255
    2PC     H4B 2218   3.802   3.438   6.326
    2PC     H4C 2219   3.853   3.567   6.434
    2PC     C35 2220   4.045   3.412   6.205
    2PC     H5A 2221   3.981   3.325   6.215
    2PC     H5B 2222   4.148   3.377   6.210
    2PC     H5C 2223   4.017   3.483   6.127
    2PC     O33 2224   4.179   3.752   5.876
    2PC     O34 2225   4.199   3.904   6.058
    2PC     O21 2226   3.817   3.866   5.760
    2PC     C21 2227   3.805   3.807   5.640
    2PC     O22 2228   3.742   3.705   5.622
    3OL     C12 2229   3.870   3.878   5.524
    3OL     H2R 2230   3.949   3.815   5.483
    3OL     H2S 2231   3.918   3.970   5.560
    3OL     C13 2232   3.765   3.912   5.417
    3OL     H3R 2233   3.737   3.814   5.380
    3OL     H3S 2234   3.813   3.961   5.332
    3OL     C14 2235   3.648   3.993   5.473
    3OL     H4R 2236   3.633   3.992   5.581
    3OL     H4S 2237   3.560   3.943   5.433
    3OL     C15 2238   3.648   4.142   5.434
    3OL     H5R 2239   3.743   4.193   5.449
    3OL     H5S 2240   3.576   4.194   5.498
    3OL     C16 2241   3.586   4.153   5.294
    3OL     H6R 2242   3.485   4.112   5.292
    3OL     H6S 2243   3.653   4.099   5.226
    3OL     C17 2244   3.590   4.298   5.244
    3OL     H7R 2245   3.689   4.344   5.252
    3OL     H7S 2246   3.527   4.354   5.313
    3OL     C18 2247   3.553   4.317   5.096
    3OL     H8R 2248   3.564   4.423   5.072
    3OL     H8S 2249   3.450   4.283   5.087
    3OL     C19 2250   3.637   4.242   4.996
    3OL     H9R 2251   3.727   4.299   4.973
    3OL    C110 2252   3.601   4.136   4.925
    3OL    H10R 2253   3.668   4.087   4.855
    3OL    C111 2254   3.478   4.054   4.951
    3OL    H11R 2255   3.446   4.071   5.054
    3OL    H11S 2256   3.506   3.949   4.939
    3OL    C112 2257   3.356   4.085   4.863
    3OL    H12R 2258   3.321   4.185   4.886
    3OL    H12S 2259   3.284   4.006   4.883
    3OL    C113 2260   3.405   4.081   4.717
    3OL    H13R 2261   3.445   3.980   4.702
    3OL    H13S 2262   3.480   4.159   4.701
    3OL    C114 2263   3.297   4.098   4.610
    3OL    H14R 2264   3.251   4.196   4.627
    3OL    H14S 2265   3.223   4.018   4.623
    3OL    C115 2266   3.352   4.107   4.468
    3OL    H15R 2267   3.450   4.155   4.459
    3OL    H15S 2268   3.290   4.171   4.404
    3OL    C116 2269   3.343   3.963   4.415
    3OL    H16R 2270   3.241   3.925   4.426
    3OL    H16S 2271   3.402   3.892   4.473
    3OL    C117 2272   3.375   3.960   4.264
    3OL    H17R 2273   3.333   4.047   4.213
    3OL    H17S 2274   3.323   3.874   4.223
    3OL    C118 2275   3.525   3.956   4.232
    3OL    H18R 2276   3.556   3.926   4.131
    3OL    H18S 2277   3.570   3.903   4.316
    3OL    H18T 2278   3.564   4.058   4.240
    1PA    C116 2279   4.361   3.880   3.792
    1PA    H16R 2280   4.391   3.954   3.866
    1PA    H16S 2281   4.267   3.833   3.822
    1PA    H16T 2282   4.336   3.939   3.704
    1PA    C115 2283   4.460   3.768   3.758
    1PA    H15R 2284   4.447   3.688   3.832
    1PA    H15S 2285   4.427   3.722   3.665
    1PA    C114 2286   4.606   3.812   3.741
    1PA    H14R 2287   4.671   3.736   3.697
    1PA    H14S 2288   4.605   3.889   3.663
    1PA    C113 2289   4.670   3.876   3.865
    1PA    H13R 2290   4.615   3.968   3.886
    1PA    H13S 2291   4.656   3.806   3.948
    1PA    C112 2292   4.816   3.924   3.849
    1PA    H12R 2293   4.870   3.851   3.788
    1PA    H12S 2294   4.821   4.021   3.801
    1PA    C111 2295   4.862   3.940   3.995
    1PA    H11R 2296   4.802   4.010   4.054
    1PA    H11S 2297   4.860   3.845   4.048
    1PA    C110 2298   5.011   3.976   3.986
    1PA    H10R 2299   5.057   3.902   3.920
    1PA    H10S 2300   5.019   4.074   3.939
    1PA     C19 2301   5.075   3.971   4.126
    1PA     H9R 2302   5.049   3.877   4.173
    1PA     H9S 2303   5.183   3.972   4.110
    1PA     C18 2304   5.023   4.096   4.198
    1PA     H8R 2305   5.017   4.188   4.141
    1PA     H8S 2306   4.921   4.066   4.223
    1PA     C17 2307   5.106   4.128   4.323
    1PA     H7R 2308   5.125   4.041   4.387
    1PA     H7S 2309   5.204   4.152   4.284
    1PA     C16 2310   5.041   4.235   4.413
    1PA     H6R 2311   5.049   4.330   4.360
    1PA     H6S 2312   4.937   4.206   4.423
    1PA     C15 2313   5.107   4.261   4.549
    1PA     H5R 2314   5.216   4.268   4.538
    1PA     H5S 2315   5.085   4.363   4.580
    1PA     C14 2316   5.045   4.160   4.647
    1PA     H4R 2317   4.939   4.139   4.632
    1PA     H4S 2318   5.105   4.069   4.645
    1PA     C13 2319   5.060   4.211   4.791
    1PA     H3R 2320   5.048   4.126   4.858
    1PA     H3S 2321   5.161   4.251   4.809
    1PA     C12 2322   4.950   4.307   4.837
    1PA     H2R 2323   4.945   4.402   4.784
    1PA     H2S 2324   4.854   4.255   4.826
    2PC     C11 2325   4.960   4.333   4.985
    2PC     O12 2326   5.041   4.408   5.037
    2PC     O11 2327   4.855   4.285   5.054
    2PC      C1 2328   4.830   4.313   5.193
    2PC      HR 2329   4.921   4.322   5.253
    2PC      HS 2330   4.771   4.405   5.193
    2PC      C2 2331   4.738   4.205   5.251
    2PC      HX 2332   4.648   4.198   5.190
    2PC      C3 2333   4.703   4.232   5.398
    2PC      HA 2334   4.638   4.319   5.392
    2PC      HB 2335   4.643   4.152   5.440
    2PC     O31 2336   4.825   4.264   5.468
    2PC     P31 2337   4.826   4.266   5.629
    2PC     O32 2338   4.883   4.411   5.665
    2PC     C31 2339   4.946   4.504   5.575
    2PC     H1A 2340   5.040   4.453   5.552
    2PC     H1B 2341   4.881   4.519   5.489
    2PC     C32 2342   4.973   4.641   5.639
    2PC     H2A 2343   4.877   4.689   5.656
    2PC     H2B 2344   5.027   4.605   5.726
    2PC     N31 2345   5.067   4.739   5.575
    2PC     C33 2346   5.000   4.805   5.458
    2PC     H3A 2347   5.072   4.850   5.389
    2PC     H3B 2348   4.939   4.732   5.405
    2PC     H3C 2349   4.936   4.881   5.503
    2PC     C34 2350   5.102   4.848   5.672
    2PC     H4A 2351   5.178   4.813   5.742
    2PC     H4B 2352   5.163   4.921   5.618
    2PC     H4C 2353   5.018   4.891   5.727
    2PC     C35 2354   5.187   4.668   5.521
    2PC     H5A 2355   5.249   4.749   5.480
    2PC     H5B 2356   5.154   4.605   5.439
    2PC     H5C 2357   5.249   4.617   5.596
    2PC     O33 2358   4.689   4.271   5.685
    2PC     O34 2359   4.904   4.159   5.696
    2PC     O21 2360   4.806   4.078   5.242
    2PC     C21 2361   4.734   3.965   5.244
    2PC     O22 2362   4.630   3.957   5.306
    3OL     C12 2363   4.796   3.842   5.184
    3OL     H2R 2364   4.729   3.757   5.169
    3OL     H2S 2365   4.863   3.788   5.251
    3OL     C13 2366   4.867   3.875   5.052
    3OL     H3R 2367   4.954   3.935   5.079
    3OL     H3S 2368   4.804   3.935   4.986
    3OL     C14 2369   4.913   3.752   4.972
    3OL     H4R 2370   4.825   3.689   4.959
    3OL     H4S 2371   4.987   3.695   5.028
    3OL     C15 2372   4.961   3.787   4.830
    3OL     H5R 2373   5.056   3.837   4.846
    3OL     H5S 2374   4.892   3.847   4.770
    3OL     C16 2375   5.005   3.669   4.743
    3OL     H6R 2376   5.078   3.601   4.789
    3OL     H6S 2377   5.058   3.707   4.656
    3OL     C17 2378   4.886   3.592   4.684
    3OL     H7R 2379   4.832   3.531   4.758
    3OL     H7S 2380   4.923   3.517   4.615
    3OL     C18 2381   4.794   3.676   4.595
    3OL     H8R 2382   4.733   3.737   4.663
    3OL     H8S 2383   4.731   3.599   4.550
    3OL     C19 2384   4.863   3.762   4.492
    3OL     H9R 2385   4.960   3.726   4.458
    3OL    C110 2386   4.815   3.872   4.436
    3OL    H10R 2387   4.880   3.915   4.361
    3OL    C111 2388   4.678   3.929   4.465
    3OL    H11R 2389   4.666   4.033   4.432
    3OL    H11S 2390   4.682   3.939   4.573
    3OL    C112 2391   4.566   3.839   4.412
    3OL    H12R 2392   4.545   3.752   4.474
    3OL    H12S 2393   4.607   3.790   4.324
    3OL    C113 2394   4.439   3.922   4.384
    3OL    H13R 2395   4.418   3.999   4.458
    3OL    H13S 2396   4.350   3.862   4.404
    3OL    C114 2397   4.453   3.982   4.244
    3OL    H14R 2398   4.435   3.898   4.175
    3OL    H14S 2399   4.551   4.025   4.223
    3OL    C115 2400   4.336   4.078   4.218
    3OL    H15R 2401   4.353   4.154   4.295
    3OL    H15S 2402   4.244   4.024   4.239
    3OL    C116 2403   4.321   4.118   4.071
    3OL    H16R 2404   4.288   4.030   4.017
    3OL    H16S 2405   4.416   4.161   4.037
    3OL    C117 2406   4.208   4.220   4.050
    3OL    H17R 2407   4.236   4.305   4.112
    3OL    H17S 2408   4.110   4.179   4.076
    3OL    C118 2409   4.200   4.273   3.906
    3OL    H18R 2410   4.163   4.202   3.832
    3OL    H18S 2411   4.291   4.311   3.860
    3OL    H18T 2412   4.140   4.364   3.896
    1PA    C116 2413   4.307   2.948   4.050
    1PA    H16R 2414   4.287   3.005   3.958
    1PA    H16S 2415   4.412   2.960   4.078
    1PA    H16T 2416   4.250   2.998   4.128
    1PA    C115 2417   4.282   2.797   4.040
    1PA    H15R 2418   4.175   2.778   4.031
    1PA    H15S 2419   4.338   2.760   3.955
    1PA    C114 2420   4.324   2.720   4.166
    1PA    H14R 2421   4.430   2.738   4.187
    1PA    H14S 2422   4.274   2.767   4.251
    1PA    C113 2423   4.304   2.568   4.155
    1PA    H13R 2424   4.204   2.532   4.133
    1PA    H13S 2425   4.373   2.541   4.074
    1PA    C112 2426   4.349   2.482   4.274
    1PA    H12R 2427   4.351   2.379   4.238
    1PA    H12S 2428   4.450   2.517   4.294
    1PA    C111 2429   4.250   2.496   4.391
    1PA    H11R 2430   4.248   2.602   4.416
    1PA    H11S 2431   4.146   2.475   4.365
    1PA    C110 2432   4.280   2.429   4.525
    1PA    H10R 2433   4.291   2.322   4.505
    1PA    H10S 2434   4.374   2.468   4.565
    1PA     C19 2435   4.159   2.462   4.613
    1PA     H9R 2436   4.139   2.569   4.616
    1PA     H9S 2437   4.071   2.405   4.581
    1PA     C18 2438   4.185   2.407   4.754
    1PA     H8R 2439   4.217   2.302   4.752
    1PA     H8S 2440   4.273   2.467   4.781
    1PA     C17 2441   4.067   2.437   4.847
    1PA     H7R 2442   4.040   2.543   4.835
    1PA     H7S 2443   3.985   2.371   4.818
    1PA     C16 2444   4.111   2.412   4.992
    1PA     H6R 2445   4.140   2.307   4.993
    1PA     H6S 2446   4.197   2.476   5.011
    1PA     C15 2447   4.003   2.450   5.094
    1PA     H5R 2448   3.971   2.553   5.080
    1PA     H5S 2449   3.910   2.393   5.088
    1PA     C14 2450   4.056   2.422   5.236
    1PA     H4R 2451   4.088   2.318   5.248
    1PA     H4S 2452   4.141   2.489   5.252
    1PA     C13 2453   3.957   2.454   5.348
    1PA     H3R 2454   3.913   2.554   5.343
    1PA     H3S 2455   3.864   2.399   5.333
    1PA     C12 2456   4.015   2.434   5.489
    1PA     H2R 2457   4.060   2.335   5.495
    1PA     H2S 2458   4.093   2.507   5.514
    2PC     C11 2459   3.905   2.440   5.591
    2PC     O12 2460   3.904   2.351   5.674
    2PC     O11 2461   3.816   2.541   5.585
    2PC      C1 2462   3.713   2.545   5.685
    2PC      HR 2463   3.625   2.484   5.664
    2PC      HS 2464   3.747   2.512   5.784
    2PC      C2 2465   3.669   2.692   5.692
    2PC      HX 2466   3.754   2.755   5.664
    2PC      C3 2467   3.619   2.730   5.832
    2PC      HA 2468   3.702   2.712   5.901
    2PC      HB 2469   3.599   2.837   5.828
    2PC     O31 2470   3.505   2.648   5.862
    2PC     P31 2471   3.460   2.611   6.011
    2PC     O32 2472   3.308   2.569   5.982
    2PC     C31 2473   3.215   2.678   5.982
    2PC     H1A 2474   3.209   2.722   6.082
    2PC     H1B 2475   3.264   2.743   5.909
    2PC     C32 2476   3.080   2.622   5.935
    2PC     H2A 2477   3.009   2.706   5.930
    2PC     H2B 2478   3.083   2.584   5.833
    2PC     N31 2479   3.011   2.516   6.015
    2PC     C33 2480   3.084   2.386   6.031
    2PC     H3A 2481   3.162   2.398   6.106
    2PC     H3B 2482   3.023   2.309   6.077
    2PC     H3C 2483   3.124   2.354   5.935
    2PC     C34 2484   2.989   2.560   6.157
    2PC     H4A 2485   2.898   2.621   6.154
    2PC     H4B 2486   2.969   2.471   6.216
    2PC     H4C 2487   3.074   2.619   6.193
    2PC     C35 2488   2.878   2.488   5.950
    2PC     H5A 2489   2.816   2.578   5.949
    2PC     H5B 2490   2.822   2.413   6.007
    2PC     H5C 2491   2.894   2.442   5.852
    2PC     O33 2492   3.542   2.504   6.073
    2PC     O34 2493   3.481   2.726   6.102
    2PC     O21 2494   3.562   2.693   5.596
    2PC     C21 2495   3.502   2.812   5.575
    2PC     O22 2496   3.553   2.918   5.605
    3OL     C12 2497   3.377   2.797   5.492
    3OL     H2R 2498   3.319   2.889   5.507
    3OL     H2S 2499   3.314   2.718   5.533
    3OL     C13 2500   3.413   2.792   5.343
    3OL     H3R 2501   3.443   2.689   5.324
    3OL     H3S 2502   3.490   2.867   5.323
    3OL     C14 2503   3.286   2.807   5.258
    3OL     H4R 2504   3.236   2.900   5.287
    3OL     H4S 2505   3.211   2.730   5.280
    3OL     C15 2506   3.319   2.818   5.108
    3OL     H5R 2507   3.360   2.725   5.068
    3OL     H5S 2508   3.390   2.899   5.091
    3OL     C16 2509   3.188   2.856   5.036
    3OL     H6R 2510   3.157   2.950   5.081
    3OL     H6S 2511   3.106   2.785   5.051
    3OL     C17 2512   3.220   2.876   4.888
    3OL     H7R 2513   3.251   2.779   4.849
    3OL     H7S 2514   3.301   2.942   4.856
    3OL     C18 2515   3.097   2.928   4.812
    3OL     H8R 2516   3.079   3.034   4.835
    3OL     H8S 2517   3.012   2.868   4.843
    3OL     C19 2518   3.117   2.916   4.663
    3OL     H9R 2519   3.201   2.850   4.643
    3OL    C110 2520   3.041   2.961   4.565
    3OL    H10R 2521   3.063   2.919   4.467
    3OL    C111 2522   2.942   3.074   4.578
    3OL    H11R 2523   2.926   3.106   4.681
    3OL    H11S 2524   2.840   3.042   4.555
    3OL    C112 2525   2.978   3.196   4.493
    3OL    H12R 2526   2.892   3.263   4.495
    3OL    H12S 2527   2.991   3.153   4.394
    3OL    C113 2528   3.110   3.261   4.538
    3OL    H13R 2529   3.193   3.192   4.521
    3OL    H13S 2530   3.114   3.285   4.644
    3OL    C114 2531   3.147   3.392   4.466
    3OL    H14R 2532   3.068   3.468   4.471
    3OL    H14S 2533   3.158   3.372   4.359
    3OL    C115 2534   3.274   3.466   4.508
    3OL    H15R 2535   3.285   3.539   4.427
    3OL    H15S 2536   3.353   3.392   4.501
    3OL    C116 2537   3.263   3.542   4.641
    3OL    H16R 2538   3.361   3.580   4.670
    3OL    H16S 2539   3.235   3.475   4.722
    3OL    C117 2540   3.168   3.662   4.642
    3OL    H17R 2541   3.071   3.632   4.601
    3OL    H17S 2542   3.223   3.736   4.583
    3OL    C118 2543   3.140   3.726   4.779
    3OL    H18R 2544   3.237   3.749   4.825
    3OL    H18S 2545   3.084   3.663   4.848
    3OL    H18T 2546   3.088   3.819   4.759
    1PA    C116 2547   6.096   1.435   3.958
    1PA    H16R 2548   6.103   1.508   3.877
    1PA    H16S 2549   5.990   1.409   3.955
    1PA    H16T 2550   6.163   1.356   3.926
    1PA    C115 2551   6.144   1.482   4.096
    1PA    H15R 2552   6.252   1.494   4.091
    1PA    H15S 2553   6.105   1.583   4.110
    1PA    C114 2554   6.090   1.392   4.208
    1PA    H14R 2555   6.072   1.452   4.297
    1PA    H14S 2556   5.999   1.336   4.184
    1PA    C113 2557   6.194   1.285   4.243
    1PA    H13R 2558   6.150   1.203   4.300
    1PA    H13S 2559   6.221   1.241   4.146
    1PA    C112 2560   6.317   1.331   4.322
    1PA    H12R 2561   6.359   1.413   4.265
    1PA    H12S 2562   6.288   1.369   4.421
    1PA    C111 2563   6.420   1.220   4.345
    1PA    H11R 2564   6.424   1.172   4.248
    1PA    H11S 2565   6.516   1.268   4.366
    1PA    C110 2566   6.373   1.114   4.446
    1PA    H10R 2567   6.298   1.047   4.404
    1PA    H10S 2568   6.458   1.052   4.478
    1PA     C19 2569   6.320   1.177   4.575
    1PA     H9R 2570   6.390   1.258   4.597
    1PA     H9S 2571   6.219   1.216   4.556
    1PA     C18 2572   6.335   1.073   4.687
    1PA     H8R 2573   6.280   0.982   4.663
    1PA     H8S 2574   6.442   1.060   4.704
    1PA     C17 2575   6.281   1.126   4.821
    1PA     H7R 2576   6.345   1.211   4.847
    1PA     H7S 2577   6.181   1.167   4.805
    1PA     C16 2578   6.283   1.040   4.948
    1PA     H6R 2579   6.226   0.950   4.925
    1PA     H6S 2580   6.384   1.002   4.964
    1PA     C15 2581   6.244   1.106   5.081
    1PA     H5R 2582   6.227   1.021   5.146
    1PA     H5S 2583   6.334   1.160   5.112
    1PA     C14 2584   6.116   1.191   5.078
    1PA     H4R 2585   6.138   1.277   5.016
    1PA     H4S 2586   6.043   1.125   5.031
    1PA     C13 2587   6.071   1.250   5.213
    1PA     H3R 2588   6.073   1.167   5.284
    1PA     H3S 2589   6.130   1.333   5.253
    1PA     C12 2590   5.930   1.310   5.204
    1PA     H2R 2591   5.929   1.402   5.145
    1PA     H2S 2592   5.864   1.242   5.150
    2PC     C11 2593   5.878   1.335   5.343
    2PC     O12 2594   5.937   1.321   5.448
    2PC     O11 2595   5.749   1.372   5.333
    2PC      C1 2596   5.677   1.365   5.457
    2PC      HR 2597   5.628   1.268   5.463
    2PC      HS 2598   5.744   1.371   5.543
    2PC      C2 2599   5.581   1.485   5.463
    2PC      HX 2600   5.632   1.573   5.423
    2PC      C3 2601   5.538   1.505   5.609
    2PC      HA 2602   5.623   1.542   5.668
    2PC      HB 2603   5.461   1.581   5.622
    2PC     O31 2604   5.495   1.380   5.666
    2PC     P31 2605   5.443   1.377   5.818
    2PC     O32 2606   5.580   1.411   5.892
    2PC     C31 2607   5.592   1.393   6.034
    2PC     H1A 2608   5.504   1.435   6.084
    2PC     H1B 2609   5.582   1.286   6.057
    2PC     C32 2610   5.722   1.458   6.084
    2PC     H2A 2611   5.719   1.565   6.062
    2PC     H2B 2612   5.731   1.440   6.191
    2PC     N31 2613   5.851   1.401   6.033
    2PC     C33 2614   5.844   1.253   6.009
    2PC     H3A 2615   5.941   1.212   5.984
    2PC     H3B 2616   5.822   1.211   6.107
    2PC     H3C 2617   5.772   1.228   5.931
    2PC     C34 2618   5.881   1.474   5.906
    2PC     H4A 2619   5.792   1.475   5.841
    2PC     H4B 2620   5.905   1.574   5.941
    2PC     H4C 2621   5.968   1.434   5.853
    2PC     C35 2622   5.968   1.414   6.126
    2PC     H5A 2623   6.054   1.364   6.082
    2PC     H5B 2624   5.947   1.362   6.220
    2PC     H5C 2625   5.995   1.518   6.148
    2PC     O33 2626   5.331   1.461   5.867
    2PC     O34 2627   5.397   1.240   5.848
    2PC     O21 2628   5.469   1.451   5.379
    2PC     C21 2629   5.385   1.546   5.334
    2PC     O22 2630   5.391   1.663   5.363
    3OL     C12 2631   5.270   1.486   5.258
    3OL     H2R 2632   5.185   1.469   5.325
    3OL     H2S 2633   5.295   1.386   5.222
    3OL     C13 2634   5.230   1.565   5.132
    3OL     H3R 2635   5.321   1.571   5.073
    3OL     H3S 2636   5.198   1.666   5.160
    3OL     C14 2637   5.114   1.515   5.044
    3OL     H4R 2638   5.132   1.424   4.987
    3OL     H4S 2639   5.087   1.591   4.970
    3OL     C15 2640   4.983   1.494   5.121
    3OL     H5R 2641   4.956   1.577   5.187
    3OL     H5S 2642   5.007   1.418   5.196
    3OL     C16 2643   4.860   1.467   5.034
    3OL     H6R 2644   4.874   1.380   4.971
    3OL     H6S 2645   4.850   1.560   4.978
    3OL     C17 2646   4.740   1.461   5.130
    3OL     H7R 2647   4.724   1.562   5.168
    3OL     H7S 2648   4.773   1.392   5.208
    3OL     C18 2649   4.622   1.411   5.045
    3OL     H8R 2650   4.535   1.429   5.109
    3OL     H8S 2651   4.623   1.303   5.028
    3OL     C19 2652   4.614   1.499   4.923
    3OL     H9R 2653   4.634   1.603   4.947
    3OL    C110 2654   4.574   1.465   4.801
    3OL    H10R 2655   4.566   1.544   4.726
    3OL    C111 2656   4.534   1.326   4.760
    3OL    H11R 2657   4.434   1.332   4.715
    3OL    H11S 2658   4.531   1.260   4.847
    3OL    C112 2659   4.633   1.280   4.652
    3OL    H12R 2660   4.644   1.348   4.567
    3OL    H12S 2661   4.610   1.181   4.612
    3OL    C113 2662   4.778   1.271   4.701
    3OL    H13R 2663   4.808   1.368   4.741
    3OL    H13S 2664   4.842   1.260   4.613
    3OL    C114 2665   4.811   1.152   4.792
    3OL    H14R 2666   4.770   1.059   4.753
    3OL    H14S 2667   4.753   1.169   4.883
    3OL    C115 2668   4.962   1.143   4.819
    3OL    H15R 2669   4.992   1.228   4.881
    3OL    H15S 2670   5.010   1.154   4.722
    3OL    C116 2671   4.989   1.005   4.881
    3OL    H16R 2672   5.094   0.988   4.854
    3OL    H16S 2673   4.930   0.923   4.840
    3OL    C117 2674   4.966   1.009   5.032
    3OL    H17R 2675   4.983   0.906   5.066
    3OL    H17S 2676   4.859   1.026   5.044
    3OL    C118 2677   5.044   1.115   5.110
    3OL    H18R 2678   5.151   1.101   5.093
    3OL    H18S 2679   5.024   1.097   5.216
    3OL    H18T 2680   5.020   1.220   5.090
    1PA    C116 2681   2.430   4.141   4.209
    1PA    H16R 2682   2.378   4.091   4.127
    1PA    H16S 2683   2.519   4.080   4.230
    1PA    H16T 2684   2.452   4.242   4.173
    1PA    C115 2685   2.336   4.155   4.329
    1PA    H15R 2686   2.254   4.226   4.313
    1PA    H15S 2687   2.271   4.069   4.343
    1PA    C114 2688   2.410   4.182   4.461
    1PA    H14R 2689   2.503   4.227   4.423
    1PA    H14S 2690   2.359   4.255   4.523
    1PA    C113 2691   2.444   4.054   4.538
    1PA    H13R 2692   2.508   3.987   4.482
    1PA    H13S 2693   2.502   4.090   4.624
    1PA    C112 2694   2.324   3.978   4.596
    1PA    H12R 2695   2.270   4.051   4.657
    1PA    H12S 2696   2.257   3.942   4.518
    1PA    C111 2697   2.372   3.862   4.685
    1PA    H11R 2698   2.414   3.794   4.611
    1PA    H11S 2699   2.449   3.900   4.752
    1PA    C110 2700   2.256   3.791   4.758
    1PA    H10R 2701   2.166   3.777   4.698
    1PA    H10S 2702   2.281   3.688   4.782
    1PA     C19 2703   2.214   3.871   4.881
    1PA     H9R 2704   2.301   3.890   4.943
    1PA     H9S 2705   2.175   3.971   4.859
    1PA     C18 2706   2.117   3.788   4.968
    1PA     H8R 2707   2.026   3.776   4.908
    1PA     H8S 2708   2.153   3.686   4.979
    1PA     C17 2709   2.098   3.855   5.104
    1PA     H7R 2710   2.188   3.851   5.166
    1PA     H7S 2711   2.064   3.959   5.094
    1PA     C16 2712   1.997   3.776   5.190
    1PA     H6R 2713   1.900   3.765   5.142
    1PA     H6S 2714   2.028   3.672   5.201
    1PA     C15 2715   1.971   3.836   5.328
    1PA     H5R 2716   2.066   3.848   5.381
    1PA     H5S 2717   1.931   3.938   5.316
    1PA     C14 2718   1.871   3.749   5.406
    1PA     H4R 2719   1.790   3.731   5.336
    1PA     H4S 2720   1.911   3.650   5.430
    1PA     C13 2721   1.823   3.812   5.538
    1PA     H3R 2722   1.904   3.859   5.593
    1PA     H3S 2723   1.761   3.901   5.524
    1PA     C12 2724   1.753   3.714   5.633
    1PA     H2R 2725   1.680   3.656   5.575
    1PA     H2S 2726   1.829   3.649   5.677
    2PC     C11 2727   1.681   3.794   5.739
    2PC     O12 2728   1.691   3.911   5.767
    2PC     O11 2729   1.588   3.717   5.798
    2PC      C1 2730   1.512   3.785   5.900
    2PC      HR 2731   1.582   3.831   5.971
    2PC      HS 2732   1.457   3.859   5.842
    2PC      C2 2733   1.416   3.690   5.973
    2PC      HX 2734   1.369   3.756   6.047
    2PC      C3 2735   1.501   3.589   6.052
    2PC      HA 2736   1.507   3.493   6.000
    2PC      HB 2737   1.604   3.623   6.063
    2PC     O31 2738   1.446   3.574   6.185
    2PC     P31 2739   1.488   3.449   6.276
    2PC     O32 2740   1.641   3.461   6.322
    2PC     C31 2741   1.726   3.349   6.295
    2PC     H1A 2742   1.672   3.259   6.323
    2PC     H1B 2743   1.745   3.339   6.187
    2PC     C32 2744   1.850   3.362   6.384
    2PC     H2A 2745   1.814   3.399   6.480
    2PC     H2B 2746   1.898   3.266   6.406
    2PC     N31 2747   1.959   3.456   6.343
    2PC     C33 2748   1.906   3.596   6.347
    2PC     H3A 2749   1.811   3.595   6.293
    2PC     H3B 2750   1.892   3.633   6.448
    2PC     H3C 2751   1.974   3.658   6.289
    2PC     C34 2752   2.073   3.452   6.440
    2PC     H4A 2753   2.147   3.531   6.424
    2PC     H4B 2754   2.035   3.451   6.542
    2PC     H4C 2755   2.122   3.355   6.432
    2PC     C35 2756   2.010   3.423   6.205
    2PC     H5A 2757   2.044   3.320   6.209
    2PC     H5B 2758   2.094   3.491   6.186
    2PC     H5C 2759   1.938   3.452   6.129
    2PC     O33 2760   1.409   3.439   6.401
    2PC     O34 2761   1.467   3.324   6.200
    2PC     O21 2762   1.329   3.611   5.890
    2PC     C21 2763   1.237   3.662   5.807
    2PC     O22 2764   1.210   3.781   5.809
    3OL     C12 2765   1.175   3.567   5.708
    3OL     H2R 2766   1.069   3.593   5.704
    3OL     H2S 2767   1.180   3.464   5.742
    3OL     C13 2768   1.224   3.586   5.564
    3OL     H3R 2769   1.211   3.685   5.520
    3OL     H3S 2770   1.159   3.514   5.514
    3OL     C14 2771   1.371   3.547   5.542
    3OL     H4R 2772   1.380   3.443   5.573
    3OL     H4S 2773   1.429   3.620   5.599
    3OL     C15 2774   1.410   3.542   5.393
    3OL     H5R 2775   1.342   3.468   5.350
    3OL     H5S 2776   1.513   3.509   5.386
    3OL     C16 2777   1.404   3.677   5.321
    3OL     H6R 2778   1.479   3.740   5.370
    3OL     H6S 2779   1.311   3.732   5.339
    3OL     C17 2780   1.417   3.655   5.170
    3OL     H7R 2781   1.406   3.750   5.117
    3OL     H7S 2782   1.338   3.585   5.142
    3OL     C18 2783   1.554   3.603   5.124
    3OL     H8R 2784   1.582   3.517   5.185
    3OL     H8S 2785   1.633   3.677   5.138
    3OL     C19 2786   1.544   3.544   4.986
    3OL     H9R 2787   1.497   3.446   4.979
    3OL    C110 2788   1.594   3.595   4.874
    3OL    H10R 2789   1.580   3.547   4.778
    3OL    C111 2790   1.669   3.726   4.862
    3OL    H11R 2791   1.683   3.759   4.964
    3OL    H11S 2792   1.604   3.796   4.809
    3OL    C112 2793   1.805   3.708   4.795
    3OL    H12R 2794   1.865   3.644   4.860
    3OL    H12S 2795   1.846   3.808   4.784
    3OL    C113 2796   1.791   3.638   4.658
    3OL    H13R 2797   1.722   3.705   4.605
    3OL    H13S 2798   1.741   3.542   4.666
    3OL    C114 2799   1.925   3.616   4.587
    3OL    H14R 2800   1.921   3.518   4.540
    3OL    H14S 2801   2.007   3.604   4.658
    3OL    C115 2802   1.960   3.721   4.481
    3OL    H15R 2803   1.970   3.818   4.531
    3OL    H15S 2804   1.879   3.729   4.408
    3OL    C116 2805   2.092   3.685   4.411
    3OL    H16R 2806   2.097   3.582   4.375
    3OL    H16S 2807   2.173   3.687   4.483
    3OL    C117 2808   2.115   3.780   4.292
    3OL    H17R 2809   2.116   3.885   4.322
    3OL    H17S 2810   2.035   3.756   4.221
    3OL    C118 2811   2.253   3.757   4.229
    3OL    H18R 2812   2.258   3.818   4.139
    3OL    H18S 2813   2.274   3.654   4.198
    3OL    H18T 2814   2.334   3.788   4.295
    1PA    C116 2815   1.615   6.325   4.264
    1PA    H16R 2816   1.633   6.278   4.167
    1PA    H16S 2817   1.511   6.354   4.277
    1PA    H16T 2818   1.633   6.251   4.342
    1PA    C115 2819   1.700   6.451   4.287
    1PA    H15R 2820   1.804   6.422   4.309
    1PA    H15S 2821   1.706   6.505   4.193
    1PA    C114 2822   1.627   6.549   4.379
    1PA    H14R 2823   1.672   6.649   4.376
    1PA    H14S 2824   1.524   6.564   4.346
    1PA    C113 2825   1.619   6.508   4.527
    1PA    H13R 2826   1.568   6.413   4.547
    1PA    H13S 2827   1.723   6.505   4.557
    1PA    C112 2828   1.552   6.616   4.614
    1PA    H12R 2829   1.568   6.718   4.580
    1PA    H12S 2830   1.446   6.592   4.610
    1PA    C111 2831   1.594   6.586   4.758
    1PA    H11R 2832   1.544   6.495   4.792
    1PA    H11S 2833   1.701   6.592   4.776
    1PA    C110 2834   1.533   6.698   4.844
    1PA    H10R 2835   1.585   6.792   4.821
    1PA    H10S 2836   1.426   6.700   4.823
    1PA     C19 2837   1.545   6.680   4.996
    1PA     H9R 2838   1.639   6.634   5.026
    1PA     H9S 2839   1.548   6.777   5.048
    1PA     C18 2840   1.430   6.595   5.052
    1PA     H8R 2841   1.338   6.643   5.019
    1PA     H8S 2842   1.434   6.493   5.012
    1PA     C17 2843   1.429   6.597   5.205
    1PA     H7R 2844   1.483   6.507   5.236
    1PA     H7S 2845   1.475   6.686   5.249
    1PA     C16 2846   1.286   6.581   5.258
    1PA     H6R 2847   1.222   6.661   5.222
    1PA     H6S 2848   1.254   6.489   5.207
    1PA     C15 2849   1.284   6.566   5.411
    1PA     H5R 2850   1.334   6.470   5.429
    1PA     H5S 2851   1.338   6.650   5.457
    1PA     C14 2852   1.137   6.573   5.453
    1PA     H4R 2853   1.123   6.632   5.544
    1PA     H4S 2854   1.078   6.635   5.385
    1PA     C13 2855   1.060   6.440   5.457
    1PA     H3R 2856   0.957   6.462   5.427
    1PA     H3S 2857   1.095   6.374   5.377
    1PA     C12 2858   1.059   6.358   5.587
    1PA     H2R 2859   1.014   6.260   5.569
    1PA     H2S 2860   1.161   6.341   5.622
    2PC     C11 2861   0.976   6.414   5.700
    2PC     O12 2862   0.917   6.519   5.687
    2PC     O11 2863   0.993   6.345   5.814
    2PC      C1 2864   0.921   6.387   5.932
    2PC      HR 2865   0.973   6.343   6.017
    2PC      HS 2866   0.921   6.496   5.939
    2PC      C2 2867   0.776   6.339   5.914
    2PC      HX 2868   0.725   6.397   5.837
    2PC      C3 2869   0.694   6.349   6.043
    2PC      HA 2870   0.718   6.448   6.082
    2PC      HB 2871   0.586   6.339   6.026
    2PC     O31 2872   0.737   6.257   6.145
    2PC     P31 2873   0.663   6.257   6.288
    2PC     O32 2874   0.644   6.415   6.305
    2PC     C31 2875   0.511   6.468   6.287
    2PC     H1A 2876   0.482   6.446   6.184
    2PC     H1B 2877   0.453   6.423   6.367
    2PC     C32 2878   0.529   6.616   6.323
    2PC     H2A 2879   0.621   6.648   6.274
    2PC     H2B 2880   0.446   6.678   6.288
    2PC     N31 2881   0.551   6.654   6.466
    2PC     C33 2882   0.438   6.617   6.557
    2PC     H3A 2883   0.458   6.648   6.660
    2PC     H3B 2884   0.341   6.659   6.530
    2PC     H3C 2885   0.433   6.508   6.560
    2PC     C34 2886   0.673   6.594   6.530
    2PC     H4A 2887   0.685   6.487   6.508
    2PC     H4B 2888   0.761   6.637   6.481
    2PC     H4C 2889   0.672   6.614   6.637
    2PC     C35 2890   0.572   6.802   6.472
    2PC     H5A 2891   0.477   6.853   6.456
    2PC     H5B 2892   0.645   6.830   6.396
    2PC     H5C 2893   0.606   6.814   6.575
    2PC     O33 2894   0.540   6.175   6.299
    2PC     O34 2895   0.751   6.209   6.397
    2PC     O21 2896   0.772   6.203   5.869
    2PC     C21 2897   0.652   6.163   5.825
    2PC     O22 2898   0.553   6.230   5.804
    3OL     C12 2899   0.646   6.013   5.806
    3OL     H2R 2900   0.541   5.983   5.805
    3OL     H2S 2901   0.685   5.955   5.890
    3OL     C13 2902   0.727   5.976   5.682
    3OL     H3R 2903   0.755   5.871   5.676
    3OL     H3S 2904   0.814   6.043   5.683
    3OL     C14 2905   0.650   6.021   5.557
    3OL     H4R 2906   0.639   6.128   5.571
    3OL     H4S 2907   0.548   5.980   5.549
    3OL     C15 2908   0.716   5.985   5.423
    3OL     H5R 2909   0.717   5.877   5.412
    3OL     H5S 2910   0.818   6.024   5.425
    3OL     C16 2911   0.648   6.050   5.302
    3OL     H6R 2912   0.540   6.059   5.312
    3OL     H6S 2913   0.666   5.985   5.216
    3OL     C17 2914   0.701   6.191   5.272
    3OL     H7R 2915   0.710   6.250   5.363
    3OL     H7S 2916   0.636   6.236   5.197
    3OL     C18 2917   0.840   6.185   5.208
    3OL     H8R 2918   0.836   6.125   5.116
    3OL     H8S 2919   0.899   6.127   5.279
    3OL     C19 2920   0.890   6.325   5.184
    3OL     H9R 2921   0.886   6.394   5.268
    3OL    C110 2922   0.945   6.365   5.070
    3OL    H10R 2923   0.960   6.472   5.064
    3OL    C111 2924   0.955   6.288   4.941
    3OL    H11R 2925   0.923   6.353   4.859
    3OL    H11S 2926   0.899   6.194   4.944
    3OL    C112 2927   1.099   6.245   4.909
    3OL    H12R 2928   1.083   6.178   4.824
    3OL    H12S 2929   1.149   6.199   4.993
    3OL    C113 2930   1.178   6.371   4.868
    3OL    H13R 2931   1.255   6.399   4.940
    3OL    H13S 2932   1.112   6.455   4.849
    3OL    C114 2933   1.258   6.340   4.741
    3OL    H14R 2934   1.289   6.236   4.735
    3OL    H14S 2935   1.345   6.405   4.725
    3OL    C115 2936   1.183   6.361   4.609
    3OL    H15R 2937   1.151   6.465   4.614
    3OL    H15S 2938   1.090   6.307   4.626
    3OL    C116 2939   1.256   6.332   4.477
    3OL    H16R 2940   1.353   6.380   4.463
    3OL    H16S 2941   1.193   6.363   4.393
    3OL    C117 2942   1.270   6.184   4.440
    3OL    H17R 2943   1.267   6.167   4.333
    3OL    H17S 2944   1.182   6.124   4.468
    3OL    C118 2945   1.395   6.123   4.505
    3OL    H18R 2946   1.425   6.045   4.436
    3OL    H18S 2947   1.382   6.082   4.605
    3OL    H18T 2948   1.478   6.192   4.490
    1PA    C116 2949   6.650   4.724   4.404
    1PA    H16R 2950   6.757   4.730   4.384
    1PA    H16S 2951   6.626   4.621   4.431
    1PA    H16T 2952   6.610   4.787   4.484
    1PA    C115 2953   6.575   4.750   4.273
    1PA    H15R 2954   6.573   4.858   4.253
    1PA    H15S 2955   6.622   4.707   4.184
    1PA    C114 2956   6.437   4.694   4.308
    1PA    H14R 2957   6.453   4.588   4.329
    1PA    H14S 2958   6.408   4.747   4.399
    1PA    C113 2959   6.345   4.723   4.189
    1PA    H13R 2960   6.351   4.831   4.171
    1PA    H13S 2961   6.381   4.675   4.098
    1PA    C112 2962   6.196   4.689   4.207
    1PA    H12R 2963   6.141   4.668   4.115
    1PA    H12S 2964   6.189   4.599   4.269
    1PA    C111 2965   6.127   4.803   4.282
    1PA    H11R 2966   6.189   4.843   4.363
    1PA    H11S 2967   6.102   4.876   4.205
    1PA    C110 2968   5.985   4.770   4.328
    1PA    H10R 2969   5.916   4.773   4.244
    1PA    H10S 2970   5.980   4.666   4.361
    1PA     C19 2971   5.926   4.864   4.435
    1PA     H9R 2972   5.979   4.859   4.531
    1PA     H9S 2973   5.936   4.964   4.393
    1PA     C18 2974   5.774   4.847   4.448
    1PA     H8R 2975   5.727   4.865   4.351
    1PA     H8S 2976   5.750   4.745   4.479
    1PA     C17 2977   5.723   4.946   4.554
    1PA     H7R 2978   5.766   4.932   4.654
    1PA     H7S 2979   5.757   5.048   4.538
    1PA     C16 2980   5.572   4.938   4.576
    1PA     H6R 2981   5.532   4.977   4.482
    1PA     H6S 2982   5.546   4.833   4.592
    1PA     C15 2983   5.512   5.014   4.695
    1PA     H5R 2984   5.543   5.119   4.699
    1PA     H5S 2985   5.403   5.002   4.695
    1PA     C14 2986   5.559   4.953   4.827
    1PA     H4R 2987   5.520   4.851   4.836
    1PA     H4S 2988   5.668   4.955   4.830
    1PA     C13 2989   5.515   5.023   4.956
    1PA     H3R 2990   5.554   4.977   5.047
    1PA     H3S 2991   5.557   5.124   4.968
    1PA     C12 2992   5.363   5.023   4.976
    1PA     H2R 2993   5.310   5.082   4.900
    1PA     H2S 2994   5.323   4.922   4.979
    2PC     C11 2995   5.321   5.094   5.103
    2PC     O12 2996   5.206   5.098   5.142
    2PC     O11 2997   5.418   5.160   5.168
    2PC      C1 2998   5.391   5.224   5.294
    2PC      HR 2999   5.466   5.299   5.320
    2PC      HS 3000   5.298   5.283   5.294
    2PC      C2 3001   5.404   5.124   5.409
    2PC      HX 3002   5.360   5.027   5.385
    2PC      C3 3003   5.343   5.184   5.537
    2PC      HA 3004   5.394   5.272   5.577
    2PC      HB 3005   5.236   5.205   5.530
    2PC     O31 3006   5.364   5.079   5.633
    2PC     P31 3007   5.324   5.088   5.788
    2PC     O32 3008   5.445   5.169   5.854
    2PC     C31 3009   5.423   5.307   5.885
    2PC     H1A 3010   5.404   5.358   5.790
    2PC     H1B 3011   5.334   5.322   5.947
    2PC     C32 3012   5.549   5.367   5.949
    2PC     H2A 3013   5.542   5.474   5.926
    2PC     H2B 3014   5.552   5.345   6.055
    2PC     N31 3015   5.681   5.337   5.886
    2PC     C33 3016   5.679   5.323   5.737
    2PC     H3A 3017   5.607   5.397   5.701
    2PC     H3B 3018   5.780   5.343   5.699
    2PC     H3C 3019   5.645   5.220   5.724
    2PC     C34 3020   5.772   5.450   5.924
    2PC     H4A 3021   5.855   5.451   5.854
    2PC     H4B 3022   5.720   5.546   5.917
    2PC     H4C 3023   5.791   5.436   6.030
    2PC     C35 3024   5.733   5.206   5.937
    2PC     H5A 3025   5.822   5.177   5.881
    2PC     H5B 3026   5.644   5.144   5.923
    2PC     H5C 3027   5.753   5.219   6.043
    2PC     O33 3028   5.189   5.145   5.805
    2PC     O34 3029   5.316   4.956   5.855
    2PC     O21 3030   5.544   5.102   5.432
    2PC     C21 3031   5.604   5.005   5.362
    2PC     O22 3032   5.548   4.919   5.298
    3OL     C12 3033   5.753   5.027   5.361
    3OL     H2R 3034   5.815   4.946   5.399
    3OL     H2S 3035   5.776   5.119   5.416
    3OL     C13 3036   5.806   5.039   5.217
    3OL     H3R 3037   5.750   4.985   5.140
    3OL     H3S 3038   5.905   4.993   5.221
    3OL     C14 3039   5.811   5.186   5.172
    3OL     H4R 3040   5.870   5.242   5.244
    3OL     H4S 3041   5.708   5.221   5.175
    3OL     C15 3042   5.873   5.199   5.032
    3OL     H5R 3043   5.832   5.122   4.966
    3OL     H5S 3044   5.981   5.188   5.042
    3OL     C16 3045   5.850   5.338   4.971
    3OL     H6R 3046   5.920   5.410   5.013
    3OL     H6S 3047   5.746   5.364   4.992
    3OL     C17 3048   5.870   5.342   4.819
    3OL     H7R 3049   5.817   5.430   4.783
    3OL     H7S 3050   5.818   5.254   4.782
    3OL     C18 3051   6.017   5.334   4.776
    3OL     H8R 3052   6.062   5.263   4.845
    3OL     H8S 3053   6.068   5.429   4.795
    3OL     C19 3054   6.038   5.280   4.637
    3OL     H9R 3055   6.033   5.172   4.626
    3OL    C110 3056   6.062   5.348   4.526
    3OL    H10R 3057   6.075   5.299   4.430
    3OL    C111 3058   6.073   5.498   4.521
    3OL    H11R 3059   6.045   5.542   4.617
    3OL    H11S 3060   6.008   5.529   4.439
    3OL    C112 3061   6.222   5.526   4.496
    3OL    H12R 3062   6.253   5.458   4.417
    3OL    H12S 3063   6.266   5.496   4.592
    3OL    C113 3064   6.257   5.672   4.466
    3OL    H13R 3065   6.356   5.679   4.421
    3OL    H13S 3066   6.253   5.720   4.565
    3OL    C114 3067   6.152   5.746   4.382
    3OL    H14R 3068   6.184   5.850   4.378
    3OL    H14S 3069   6.055   5.737   4.431
    3OL    C115 3070   6.143   5.704   4.234
    3OL    H15R 3071   6.107   5.602   4.239
    3OL    H15S 3072   6.246   5.699   4.197
    3OL    C116 3073   6.054   5.799   4.153
    3OL    H16R 3074   6.096   5.814   4.053
    3OL    H16S 3075   6.048   5.898   4.199
    3OL    C117 3076   5.909   5.749   4.150
    3OL    H17R 3077   5.835   5.817   4.106
    3OL    H17S 3078   5.886   5.738   4.256
    3OL    C118 3079   5.887   5.621   4.068
    3OL    H18R 3080   5.783   5.586   4.067
    3OL    H18S 3081   5.945   5.537   4.105
    3OL    H18T 3082   5.926   5.642   3.969
    1PA    C116 3083   5.612   4.481   4.256
    1PA    H16R 3084   5.514   4.491   4.303
    1PA    H16S 3085   5.595   4.459   4.151
    1PA    H16T 3086   5.653   4.583   4.260
    1PA    C115 3087   5.691   4.369   4.325
    1PA    H15R 3088   5.700   4.395   4.431
    1PA    H15S 3089   5.637   4.274   4.316
    1PA    C114 3090   5.830   4.349   4.265
    1PA    H14R 3091   5.904   4.422   4.298
    1PA    H14S 3092   5.879   4.266   4.316
    1PA    C113 3093   5.838   4.323   4.114
    1PA    H13R 3094   5.853   4.419   4.064
    1PA    H13S 3095   5.936   4.275   4.103
    1PA    C112 3096   5.729   4.247   4.037
    1PA    H12R 3097   5.624   4.269   4.060
    1PA    H12S 3098   5.732   4.274   3.932
    1PA    C111 3099   5.744   4.094   4.049
    1PA    H11R 3100   5.688   4.042   3.971
    1PA    H11S 3101   5.849   4.068   4.041
    1PA    C110 3102   5.696   4.031   4.181
    1PA    H10R 3103   5.732   3.930   4.198
    1PA    H10S 3104   5.721   4.094   4.266
    1PA     C19 3105   5.544   4.009   4.167
    1PA     H9R 3106   5.493   4.105   4.163
    1PA     H9S 3107   5.509   3.946   4.085
    1PA     C18 3108   5.495   3.929   4.288
    1PA     H8R 3109   5.399   3.887   4.257
    1PA     H8S 3110   5.555   3.839   4.303
    1PA     C17 3111   5.488   4.001   4.424
    1PA     H7R 3112   5.586   4.034   4.459
    1PA     H7S 3113   5.415   4.082   4.425
    1PA     C16 3114   5.440   3.909   4.537
    1PA     H6R 3115   5.350   3.856   4.505
    1PA     H6S 3116   5.517   3.835   4.558
    1PA     C15 3117   5.403   3.983   4.667
    1PA     H5R 3118   5.485   4.046   4.700
    1PA     H5S 3119   5.310   4.036   4.646
    1PA     C14 3120   5.385   3.888   4.786
    1PA     H4R 3121   5.305   3.815   4.770
    1PA     H4S 3122   5.477   3.833   4.807
    1PA     C13 3123   5.350   3.965   4.914
    1PA     H3R 3124   5.434   4.027   4.946
    1PA     H3S 3125   5.265   4.030   4.892
    1PA     C12 3126   5.311   3.868   5.026
    1PA     H2R 3127   5.241   3.790   4.995
    1PA     H2S 3128   5.402   3.820   5.063
    2PC     C11 3129   5.254   3.925   5.154
    2PC     O12 3130   5.244   3.859   5.255
    2PC     O11 3131   5.188   4.040   5.133
    2PC      C1 3132   5.127   4.106   5.245
    2PC      HR 3133   5.063   4.175   5.190
    2PC      HS 3134   5.073   4.035   5.308
    2PC      C2 3135   5.237   4.168   5.333
    2PC      HX 3136   5.291   4.082   5.374
    2PC      C3 3137   5.176   4.242   5.452
    2PC      HA 3138   5.108   4.320   5.414
    2PC      HB 3139   5.127   4.167   5.515
    2PC     O31 3140   5.277   4.318   5.520
    2PC     P31 3141   5.335   4.264   5.659
    2PC     O32 3142   5.276   4.366   5.767
    2PC     C31 3143   5.199   4.309   5.875
    2PC     H1A 3144   5.118   4.260   5.821
    2PC     H1B 3145   5.253   4.226   5.921
    2PC     C32 3146   5.155   4.410   5.981
    2PC     H2A 3147   5.241   4.457   6.030
    2PC     H2B 3148   5.102   4.493   5.934
    2PC     N31 3149   5.057   4.360   6.083
    2PC     C33 3150   5.040   4.466   6.187
    2PC     H3A 3151   5.108   4.451   6.271
    2PC     H3B 3152   5.062   4.569   6.156
    2PC     H3C 3153   4.940   4.464   6.231
    2PC     C34 3154   4.926   4.354   6.010
    2PC     H4A 3155   4.888   4.452   5.979
    2PC     H4B 3156   4.918   4.293   5.920
    2PC     H4C 3157   4.853   4.320   6.084
    2PC     C35 3158   5.089   4.228   6.147
    2PC     H5A 3159   5.182   4.230   6.204
    2PC     H5B 3160   5.097   4.155   6.066
    2PC     H5C 3161   4.996   4.213   6.202
    2PC     O33 3162   5.304   4.124   5.698
    2PC     O34 3163   5.484   4.264   5.663
    2PC     O21 3164   5.317   4.259   5.255
    2PC     C21 3165   5.432   4.219   5.198
    2PC     O22 3166   5.487   4.116   5.233
    3OL     C12 3167   5.487   4.322   5.102
    3OL     H2R 3168   5.552   4.270   5.031
    3OL     H2S 3169   5.555   4.383   5.161
    3OL     C13 3170   5.372   4.398   5.036
    3OL     H3R 3171   5.317   4.470   5.097
    3OL     H3S 3172   5.305   4.315   5.010
    3OL     C14 3173   5.415   4.474   4.910
    3OL     H4R 3174   5.454   4.411   4.830
    3OL     H4S 3175   5.501   4.537   4.935
    3OL     C15 3176   5.306   4.568   4.854
    3OL     H5R 3177   5.301   4.660   4.912
    3OL     H5S 3178   5.209   4.520   4.846
    3OL     C16 3179   5.352   4.600   4.711
    3OL     H6R 3180   5.367   4.511   4.650
    3OL     H6S 3181   5.447   4.653   4.718
    3OL     C17 3182   5.240   4.690   4.657
    3OL     H7R 3183   5.245   4.785   4.712
    3OL     H7S 3184   5.143   4.640   4.665
    3OL     C18 3185   5.265   4.717   4.508
    3OL     H8R 3186   5.242   4.623   4.457
    3OL     H8S 3187   5.369   4.749   4.496
    3OL     C19 3188   5.176   4.820   4.444
    3OL     H9R 3189   5.234   4.904   4.407
    3OL    C110 3190   5.050   4.802   4.407
    3OL    H10R 3191   5.006   4.886   4.355
    3OL    C111 3192   4.953   4.688   4.425
    3OL    H11R 3193   5.007   4.595   4.447
    3OL    H11S 3194   4.906   4.662   4.330
    3OL    C112 3195   4.849   4.724   4.532
    3OL    H12R 3196   4.897   4.757   4.624
    3OL    H12S 3197   4.811   4.625   4.557
    3OL    C113 3198   4.743   4.828   4.493
    3OL    H13R 3199   4.705   4.800   4.395
    3OL    H13S 3200   4.793   4.922   4.465
    3OL    C114 3201   4.634   4.853   4.598
    3OL    H14R 3202   4.673   4.905   4.685
    3OL    H14S 3203   4.603   4.759   4.645
    3OL    C115 3204   4.514   4.926   4.535
    3OL    H15R 3205   4.488   4.874   4.443
    3OL    H15S 3206   4.549   5.024   4.503
    3OL    C116 3207   4.397   4.944   4.633
    3OL    H16R 3208   4.425   4.979   4.733
    3OL    H16S 3209   4.347   4.850   4.657
    3OL    C117 3210   4.298   5.043   4.571
    3OL    H17R 3211   4.349   5.129   4.528
    3OL    H17S 3212   4.243   5.087   4.655
    3OL    C118 3213   4.193   4.984   4.476
    3OL    H18R 3214   4.151   4.897   4.527
    3OL    H18S 3215   4.237   4.950   4.381
    3OL    H18T 3216   4.112   5.055   4.459
    1PA    C116 3217   0.404   2.044   3.724
    1PA    H16R 3218   0.362   2.048   3.623
    1PA    H16S 3219   0.499   2.097   3.728
    1PA    H16T 3220   0.336   2.097   3.792
    1PA    C115 3221   0.417   1.894   3.754
    1PA    H15R 3222   0.320   1.847   3.765
    1PA    H15S 3223   0.456   1.837   3.669
    1PA    C114 3224   0.500   1.874   3.881
    1PA    H14R 3225   0.601   1.908   3.854
    1PA    H14S 3226   0.469   1.943   3.961
    1PA    C113 3227   0.492   1.731   3.936
    1PA    H13R 3228   0.389   1.706   3.962
    1PA    H13S 3229   0.530   1.654   3.869
    1PA    C112 3230   0.582   1.735   4.061
    1PA    H12R 3231   0.684   1.769   4.046
    1PA    H12S 3232   0.538   1.804   4.134
    1PA    C111 3233   0.594   1.595   4.124
    1PA    H11R 3234   0.505   1.567   4.181
    1PA    H11S 3235   0.608   1.517   4.050
    1PA    C110 3236   0.713   1.586   4.221
    1PA    H10R 3237   0.772   1.495   4.214
    1PA    H10S 3238   0.783   1.670   4.222
    1PA     C19 3239   0.660   1.576   4.365
    1PA     H9R 3240   0.625   1.677   4.385
    1PA     H9S 3241   0.581   1.500   4.368
    1PA     C18 3242   0.767   1.538   4.467
    1PA     H8R 3243   0.820   1.447   4.438
    1PA     H8S 3244   0.836   1.623   4.467
    1PA     C17 3245   0.727   1.525   4.615
    1PA     H7R 3246   0.661   1.439   4.621
    1PA     H7S 3247   0.818   1.513   4.673
    1PA     C16 3248   0.657   1.650   4.670
    1PA     H6R 3249   0.712   1.745   4.667
    1PA     H6S 3250   0.564   1.673   4.618
    1PA     C15 3251   0.633   1.612   4.816
    1PA     H5R 3252   0.589   1.513   4.828
    1PA     H5S 3253   0.727   1.606   4.871
    1PA     C14 3254   0.542   1.712   4.890
    1PA     H4R 3255   0.595   1.807   4.891
    1PA     H4S 3256   0.444   1.724   4.843
    1PA     C13 3257   0.519   1.673   5.036
    1PA     H3R 3258   0.458   1.582   5.040
    1PA     H3S 3259   0.615   1.656   5.084
    1PA     C12 3260   0.436   1.777   5.114
    1PA     H2R 3261   0.506   1.860   5.128
    1PA     H2S 3262   0.358   1.819   5.051
    2PC     C11 3263   0.368   1.737   5.243
    2PC     O12 3264   0.347   1.623   5.278
    2PC     O11 3265   0.333   1.846   5.313
    2PC      C1 3266   0.274   1.823   5.442
    2PC      HR 3267   0.186   1.759   5.439
    2PC      HS 3268   0.347   1.774   5.507
    2PC      C2 3269   0.249   1.958   5.512
    2PC      HX 3270   0.312   2.033   5.465
    2PC      C3 3271   0.275   1.963   5.664
    2PC      HA 3272   0.381   1.950   5.686
    2PC      HB 3273   0.245   2.058   5.708
    2PC     O31 3274   0.205   1.846   5.709
    2PC     P31 3275   0.216   1.809   5.865
    2PC     O32 3276   0.171   1.947   5.933
    2PC     C31 3277   0.040   2.006   5.931
    2PC     H1A 3278   0.048   2.114   5.947
    2PC     H1B 3279  -0.002   1.988   5.832
    2PC     C32 3280  -0.047   1.945   6.041
    2PC     H2A 3281  -0.146   1.974   6.007
    2PC     H2B 3282  -0.055   1.836   6.042
    2PC     N31 3283  -0.021   1.980   6.184
    2PC     C33 3284   0.122   1.957   6.223
    2PC     H3A 3285   0.154   1.869   6.167
    2PC     H3B 3286   0.194   2.040   6.221
    2PC     H3C 3287   0.121   1.922   6.326
    2PC     C34 3288  -0.056   2.123   6.214
    2PC     H4A 3289  -0.150   2.150   6.166
    2PC     H4B 3290  -0.059   2.136   6.322
    2PC     H4C 3291   0.027   2.178   6.170
    2PC     C35 3292  -0.104   1.893   6.274
    2PC     H5A 3293  -0.063   1.918   6.372
    2PC     H5B 3294  -0.086   1.786   6.264
    2PC     H5C 3295  -0.208   1.925   6.278
    2PC     O33 3296   0.129   1.698   5.910
    2PC     O34 3297   0.349   1.750   5.889
    2PC     O21 3298   0.116   1.999   5.477
    2PC     C21 3299   0.085   2.126   5.504
    2PC     O22 3300   0.169   2.207   5.538
    3OL     C12 3301  -0.063   2.151   5.487
    3OL     H2R 3302  -0.081   2.220   5.570
    3OL     H2S 3303  -0.126   2.064   5.508
    3OL     C13 3304  -0.100   2.221   5.355
    3OL     H3R 3305  -0.035   2.306   5.337
    3OL     H3S 3306  -0.202   2.260   5.362
    3OL     C14 3307  -0.092   2.132   5.230
    3OL     H4R 3308  -0.010   2.060   5.237
    3OL     H4S 3309  -0.063   2.201   5.150
    3OL     C15 3310  -0.221   2.052   5.209
    3OL     H5R 3311  -0.299   2.128   5.213
    3OL     H5S 3312  -0.239   1.986   5.294
    3OL     C16 3313  -0.219   1.968   5.080
    3OL     H6R 3314  -0.318   1.927   5.057
    3OL     H6S 3315  -0.167   1.876   5.108
    3OL     C17 3316  -0.150   2.030   4.958
    3OL     H7R 3317  -0.047   2.063   4.975
    3OL     H7S 3318  -0.203   2.121   4.933
    3OL     C18 3319  -0.147   1.924   4.847
    3OL     H8R 3320  -0.089   1.962   4.763
    3OL     H8S 3321  -0.250   1.902   4.815
    3OL     C19 3322  -0.071   1.802   4.891
    3OL     H9R 3323  -0.126   1.732   4.954
    3OL    C110 3324   0.059   1.781   4.885
    3OL    H10R 3325   0.099   1.692   4.933
    3OL    C111 3326   0.149   1.871   4.803
    3OL    H11R 3327   0.238   1.887   4.864
    3OL    H11S 3328   0.106   1.971   4.792
    3OL    C112 3329   0.183   1.829   4.660
    3OL    H12R 3330   0.101   1.881   4.610
    3OL    H12S 3331   0.190   1.720   4.649
    3OL    C113 3332   0.307   1.899   4.603
    3OL    H13R 3333   0.388   1.865   4.668
    3OL    H13S 3334   0.296   2.006   4.619
    3OL    C114 3335   0.338   1.868   4.456
    3OL    H14R 3336   0.337   1.761   4.436
    3OL    H14S 3337   0.438   1.909   4.441
    3OL    C115 3338   0.248   1.935   4.351
    3OL    H15R 3339   0.235   2.040   4.378
    3OL    H15S 3340   0.151   1.886   4.348
    3OL    C116 3341   0.300   1.938   4.207
    3OL    H16R 3342   0.298   1.833   4.179
    3OL    H16S 3343   0.404   1.962   4.184
    3OL    C117 3344   0.201   2.003   4.109
    3OL    H17R 3345   0.104   1.997   4.158
    3OL    H17S 3346   0.189   1.943   4.018
    3OL    C118 3347   0.220   2.153   4.080
    3OL    H18R 3348   0.325   2.183   4.076
    3OL    H18S 3349   0.156   2.216   4.143
    3OL    H18T 3350   0.188   2.173   3.978
    1PA    C116 3351  -0.293   1.025   3.943
    1PA    H16R 3352  -0.228   1.085   3.880
    1PA    H16S 3353  -0.368   1.083   3.997
    1PA    H16T 3354  -0.357   0.960   3.883
    1PA    C115 3355  -0.200   0.944   4.033
    1PA    H15R 3356  -0.145   1.007   4.103
    1PA    H15S 3357  -0.260   0.868   4.085
    1PA    C114 3358  -0.107   0.864   3.940
    1PA    H14R 3359  -0.160   0.823   3.854
    1PA    H14S 3360  -0.026   0.930   3.907
    1PA    C113 3361  -0.045   0.743   4.011
    1PA    H13R 3362  -0.123   0.674   4.044
    1PA    H13S 3363   0.019   0.687   3.942
    1PA    C112 3364   0.029   0.771   4.143
    1PA    H12R 3365  -0.024   0.850   4.198
    1PA    H12S 3366   0.028   0.679   4.202
    1PA    C111 3367   0.170   0.829   4.129
    1PA    H11R 3368   0.217   0.780   4.044
    1PA    H11S 3369   0.161   0.934   4.099
    1PA    C110 3370   0.257   0.804   4.253
    1PA    H10R 3371   0.279   0.699   4.271
    1PA    H10S 3372   0.346   0.853   4.213
    1PA     C19 3373   0.200   0.882   4.373
    1PA     H9R 3374   0.204   0.989   4.348
    1PA     H9S 3375   0.096   0.859   4.392
    1PA     C18 3376   0.288   0.856   4.496
    1PA     H8R 3377   0.290   0.751   4.525
    1PA     H8S 3378   0.387   0.886   4.461
    1PA     C17 3379   0.237   0.942   4.612
    1PA     H7R 3380   0.251   1.046   4.583
    1PA     H7S 3381   0.135   0.903   4.617
    1PA     C16 3382   0.322   0.907   4.735
    1PA     H6R 3383   0.296   0.806   4.768
    1PA     H6S 3384   0.430   0.901   4.719
    1PA     C15 3385   0.278   0.996   4.853
    1PA     H5R 3386   0.297   1.100   4.828
    1PA     H5S 3387   0.173   0.978   4.874
    1PA     C14 3388   0.363   0.954   4.974
    1PA     H4R 3389   0.327   0.853   4.993
    1PA     H4S 3390   0.468   0.952   4.944
    1PA     C13 3391   0.321   1.029   5.101
    1PA     H3R 3392   0.352   1.134   5.101
    1PA     H3S 3393   0.212   1.031   5.095
    1PA     C12 3394   0.361   0.954   5.229
    1PA     H2R 3395   0.297   0.867   5.244
    1PA     H2S 3396   0.464   0.917   5.224
    2PC     C11 3397   0.356   1.045   5.349
    2PC     O12 3398   0.253   1.080   5.403
    2PC     O11 3399   0.477   1.090   5.387
    2PC      C1 3400   0.487   1.189   5.491
    2PC      HR 3401   0.439   1.281   5.456
    2PC      HS 3402   0.439   1.154   5.582
    2PC      C2 3403   0.636   1.222   5.511
    2PC      HX 3404   0.695   1.135   5.540
    2PC      C3 3405   0.659   1.329   5.618
    2PC      HA 3406   0.633   1.425   5.572
    2PC      HB 3407   0.597   1.307   5.705
    2PC     O31 3408   0.798   1.328   5.656
    2PC     P31 3409   0.841   1.439   5.763
    2PC     O32 3410   0.932   1.531   5.669
    2PC     C31 3411   0.913   1.670   5.704
    2PC     H1A 3412   0.809   1.700   5.693
    2PC     H1B 3413   0.949   1.686   5.806
    2PC     C32 3414   0.994   1.759   5.608
    2PC     H2A 3415   0.978   1.731   5.504
    2PC     H2B 3416   0.963   1.862   5.625
    2PC     N31 3417   1.143   1.763   5.624
    2PC     C33 3418   1.204   1.873   5.542
    2PC     H3A 3419   1.212   1.956   5.612
    2PC     H3B 3420   1.305   1.847   5.508
    2PC     H3C 3421   1.145   1.895   5.453
    2PC     C34 3422   1.186   1.784   5.766
    2PC     H4A 3423   1.140   1.705   5.826
    2PC     H4B 3424   1.295   1.775   5.766
    2PC     H4C 3425   1.154   1.883   5.801
    2PC     C35 3426   1.201   1.634   5.573
    2PC     H5A 3427   1.308   1.649   5.581
    2PC     H5B 3428   1.176   1.628   5.467
    2PC     H5C 3429   1.157   1.547   5.624
    2PC     O33 3430   0.722   1.494   5.831
    2PC     O34 3431   0.915   1.387   5.881
    2PC     O21 3432   0.689   1.275   5.388
    2PC     C21 3433   0.733   1.189   5.295
    2PC     O22 3434   0.750   1.072   5.323
    3OL     C12 3435   0.774   1.248   5.162
    3OL     H2R 3436   0.880   1.222   5.162
    3OL     H2S 3437   0.777   1.358   5.161
    3OL     C13 3438   0.690   1.184   5.051
    3OL     H3R 3439   0.590   1.228   5.048
    3OL     H3S 3440   0.679   1.076   5.062
    3OL     C14 3441   0.753   1.198   4.911
    3OL     H4R 3442   0.853   1.155   4.922
    3OL     H4S 3443   0.770   1.303   4.889
    3OL     C15 3444   0.668   1.128   4.804
    3OL     H5R 3445   0.572   1.179   4.803
    3OL     H5S 3446   0.651   1.026   4.837
    3OL     C16 3447   0.734   1.144   4.666
    3OL     H6R 3448   0.823   1.081   4.661
    3OL     H6S 3449   0.762   1.248   4.649
    3OL     C17 3450   0.633   1.116   4.554
    3OL     H7R 3451   0.551   1.189   4.559
    3OL     H7S 3452   0.593   1.018   4.581
    3OL     C18 3453   0.698   1.108   4.416
    3OL     H8R 3454   0.785   1.041   4.422
    3OL     H8S 3455   0.735   1.207   4.389
    3OL     C19 3456   0.597   1.058   4.316
    3OL     H9R 3457   0.492   1.074   4.341
    3OL    C110 3458   0.622   0.999   4.200
    3OL    H10R 3459   0.543   0.970   4.132
    3OL    C111 3460   0.763   0.972   4.153
    3OL    H11R 3461   0.782   0.865   4.154
    3OL    H11S 3462   0.835   1.022   4.217
    3OL    C112 3463   0.791   1.031   4.014
    3OL    H12R 3464   0.741   0.965   3.943
    3OL    H12S 3465   0.898   1.024   3.994
    3OL    C113 3466   0.769   1.182   4.004
    3OL    H13R 3467   0.819   1.238   4.083
    3OL    H13S 3468   0.661   1.197   4.014
    3OL    C114 3469   0.802   1.245   3.867
    3OL    H14R 3470   0.905   1.212   3.849
    3OL    H14S 3471   0.796   1.353   3.874
    3OL    C115 3472   0.713   1.212   3.747
    3OL    H15R 3473   0.675   1.110   3.747
    3OL    H15S 3474   0.768   1.227   3.654
    3OL    C116 3475   0.603   1.318   3.730
    3OL    H16R 3476   0.643   1.416   3.705
    3OL    H16S 3477   0.555   1.340   3.825
    3OL    C117 3478   0.491   1.275   3.635
    3OL    H17R 3479   0.448   1.179   3.664
    3OL    H17S 3480   0.532   1.260   3.535
    3OL    C118 3481   0.386   1.387   3.634
    3OL    H18R 3482   0.307   1.359   3.564
    3OL    H18S 3483   0.431   1.478   3.594
    3OL    H18T 3484   0.347   1.404   3.735
    1PA    C116 3485   6.317   6.070   4.036
    1PA    H16R 3486   6.245   6.027   3.965
    1PA    H16S 3487   6.282   6.043   4.136
    1PA    H16T 3488   6.297   6.177   4.023
    1PA    C115 3489   6.464   6.031   4.021
    1PA    H15R 3490   6.494   6.025   3.916
    1PA    H15S 3491   6.528   6.100   4.076
    1PA    C114 3492   6.500   5.894   4.082
    1PA    H14R 3493   6.433   5.815   4.050
    1PA    H14S 3494   6.599   5.870   4.044
    1PA    C113 3495   6.504   5.895   4.236
    1PA    H13R 3496   6.567   5.979   4.264
    1PA    H13S 3497   6.405   5.915   4.276
    1PA    C112 3498   6.563   5.763   4.287
    1PA    H12R 3499   6.498   5.680   4.262
    1PA    H12S 3500   6.655   5.747   4.230
    1PA    C111 3501   6.605   5.773   4.435
    1PA    H11R 3502   6.674   5.858   4.432
    1PA    H11S 3503   6.514   5.799   4.488
    1PA    C110 3504   6.653   5.643   4.499
    1PA    H10R 3505   6.571   5.571   4.508
    1PA    H10S 3506   6.743   5.603   4.452
    1PA     C19 3507   6.679   5.678   4.646
    1PA     H9R 3508   6.752   5.759   4.646
    1PA     H9S 3509   6.587   5.708   4.697
    1PA     C18 3510   6.743   5.562   4.724
    1PA     H8R 3511   6.834   5.530   4.672
    1PA     H8S 3512   6.787   5.586   4.821
    1PA     C17 3513   6.653   5.439   4.742
    1PA     H7R 3514   6.621   5.404   4.644
    1PA     H7S 3515   6.712   5.362   4.791
    1PA     C16 3516   6.535   5.459   4.838
    1PA     H6R 3517   6.578   5.492   4.933
    1PA     H6S 3518   6.469   5.534   4.794
    1PA     C15 3519   6.456   5.328   4.855
    1PA     H5R 3520   6.420   5.293   4.758
    1PA     H5S 3521   6.515   5.252   4.906
    1PA     C14 3522   6.336   5.366   4.943
    1PA     H4R 3523   6.291   5.461   4.912
    1PA     H4S 3524   6.270   5.280   4.933
    1PA     C13 3525   6.369   5.375   5.092
    1PA     H3R 3526   6.455   5.308   5.101
    1PA     H3S 3527   6.393   5.480   5.112
    1PA     C12 3528   6.253   5.318   5.174
    1PA     H2R 3529   6.163   5.362   5.130
    1PA     H2S 3530   6.253   5.209   5.164
    2PC     C11 3531   6.253   5.352   5.320
    2PC     O12 3532   6.324   5.438   5.369
    2PC     O11 3533   6.168   5.274   5.389
    2PC      C1 3534   6.159   5.292   5.531
    2PC      HR 3535   6.236   5.229   5.577
    2PC      HS 3536   6.175   5.395   5.566
    2PC      C2 3537   6.020   5.246   5.578
    2PC      HX 3538   6.014   5.278   5.683
    2PC      C3 3539   6.007   5.094   5.596
    2PC      HA 3540   5.982   5.042   5.503
    2PC      HB 3541   6.098   5.047   5.633
    2PC     O31 3542   5.896   5.067   5.683
    2PC     P31 3543   5.871   4.913   5.719
    2PC     O32 3544   5.733   4.894   5.640
    2PC     C31 3545   5.710   4.770   5.571
    2PC     H1A 3546   5.611   4.776   5.525
    2PC     H1B 3547   5.790   4.769   5.497
    2PC     C32 3548   5.725   4.654   5.670
    2PC     H2A 3549   5.745   4.566   5.610
    2PC     H2B 3550   5.809   4.663   5.739
    2PC     N31 3551   5.609   4.620   5.760
    2PC     C33 3552   5.490   4.586   5.675
    2PC     H3A 3553   5.521   4.505   5.608
    2PC     H3B 3554   5.418   4.566   5.755
    2PC     H3C 3555   5.458   4.669   5.613
    2PC     C34 3556   5.654   4.493   5.826
    2PC     H4A 3557   5.756   4.485   5.864
    2PC     H4B 3558   5.584   4.470   5.906
    2PC     H4C 3559   5.634   4.405   5.764
    2PC     C35 3560   5.575   4.728   5.858
    2PC     H5A 3561   5.508   4.688   5.934
    2PC     H5B 3562   5.524   4.805   5.801
    2PC     H5C 3563   5.659   4.775   5.910
    2PC     O33 3564   5.986   4.831   5.676
    2PC     O34 3565   5.847   4.897   5.864
    2PC     O21 3566   5.915   5.305   5.500
    2PC     C21 3567   5.891   5.432   5.533
    2PC     O22 3568   5.939   5.494   5.626
    3OL     C12 3569   5.797   5.494   5.433
    3OL     H2R 3570   5.705   5.435   5.437
    3OL     H2S 3571   5.835   5.483   5.331
    3OL     C13 3572   5.776   5.644   5.461
    3OL     H3R 3573   5.866   5.699   5.432
    3OL     H3S 3574   5.758   5.665   5.566
    3OL     C14 3575   5.661   5.705   5.379
    3OL     H4R 3576   5.636   5.808   5.408
    3OL     H4S 3577   5.576   5.647   5.414
    3OL     C15 3578   5.682   5.690   5.228
    3OL     H5R 3579   5.591   5.731   5.182
    3OL     H5S 3580   5.689   5.584   5.203
    3OL     C16 3581   5.798   5.770   5.166
    3OL     H6R 3582   5.888   5.741   5.221
    3OL     H6S 3583   5.779   5.877   5.171
    3OL     C17 3584   5.813   5.716   5.023
    3OL     H7R 3585   5.823   5.607   5.031
    3OL     H7S 3586   5.909   5.755   4.991
    3OL     C18 3587   5.710   5.759   4.917
    3OL     H8R 3588   5.706   5.867   4.904
    3OL     H8S 3589   5.611   5.732   4.954
    3OL     C19 3590   5.738   5.693   4.784
    3OL     H9R 3591   5.688   5.598   4.765
    3OL    C110 3592   5.823   5.737   4.692
    3OL    H10R 3593   5.817   5.681   4.599
    3OL    C111 3594   5.912   5.858   4.695
    3OL    H11R 3595   6.014   5.826   4.671
    3OL    H11S 3596   5.908   5.909   4.791
    3OL    C112 3597   5.887   5.962   4.585
    3OL    H12R 3598   5.958   5.950   4.502
    3OL    H12S 3599   5.920   6.057   4.627
    3OL    C113 3600   5.742   5.980   4.538
    3OL    H13R 3601   5.685   5.976   4.631
    3OL    H13S 3602   5.708   5.899   4.473
    3OL    C114 3603   5.728   6.118   4.472
    3OL    H14R 3604   5.752   6.187   4.553
    3OL    H14S 3605   5.626   6.147   4.448
    3OL    C115 3606   5.818   6.133   4.349
    3OL    H15R 3607   5.804   6.061   4.268
    3OL    H15S 3608   5.920   6.116   4.384
    3OL    C116 3609   5.802   6.272   4.286
    3OL    H16R 3610   5.832   6.348   4.358
    3OL    H16S 3611   5.700   6.297   4.254
    3OL    C117 3612   5.901   6.297   4.172
    3OL    H17R 3613   6.000   6.273   4.211
    3OL    H17S 3614   5.891   6.404   4.150
    3OL    C118 3615   5.872   6.218   4.044
    3OL    H18R 3616   5.954   6.245   3.977
    3OL    H18S 3617   5.777   6.235   3.994
    3OL    H18T 3618   5.881   6.111   4.068
    1PA    C116 3619   0.667   2.183   4.059
    1PA    H16R 3620   0.585   2.254   4.056
    1PA    H16S 3621   0.650   2.084   4.016
    1PA    H16T 3622   0.754   2.228   4.011
    1PA    C115 3623   0.714   2.151   4.202
    1PA    H15R 3624   0.624   2.126   4.259
    1PA    H15S 3625   0.780   2.064   4.204
    1PA    C114 3626   0.764   2.279   4.270
    1PA    H14R 3627   0.704   2.370   4.262
    1PA    H14S 3628   0.776   2.257   4.377
    1PA    C113 3629   0.909   2.318   4.237
    1PA    H13R 3630   0.975   2.236   4.266
    1PA    H13S 3631   0.921   2.332   4.130
    1PA    C112 3632   0.966   2.439   4.312
    1PA    H12R 3633   1.067   2.456   4.276
    1PA    H12S 3634   0.903   2.527   4.296
    1PA    C111 3635   0.968   2.418   4.464
    1PA    H11R 3636   0.866   2.405   4.500
    1PA    H11S 3637   1.025   2.327   4.487
    1PA    C110 3638   1.035   2.539   4.531
    1PA    H10R 3639   1.142   2.539   4.510
    1PA    H10S 3640   0.988   2.626   4.486
    1PA     C19 3641   1.012   2.542   4.683
    1PA     H9R 3642   1.016   2.643   4.724
    1PA     H9S 3643   0.910   2.506   4.697
    1PA     C18 3644   1.123   2.465   4.756
    1PA     H8R 3645   1.132   2.366   4.711
    1PA     H8S 3646   1.220   2.514   4.751
    1PA     C17 3647   1.107   2.475   4.908
    1PA     H7R 3648   1.211   2.479   4.941
    1PA     H7S 3649   1.059   2.562   4.953
    1PA     C16 3650   1.051   2.349   4.975
    1PA     H6R 3651   0.944   2.340   4.954
    1PA     H6S 3652   1.090   2.261   4.924
    1PA     C15 3653   1.070   2.340   5.128
    1PA     H5R 3654   1.069   2.438   5.176
    1PA     H5S 3655   1.003   2.276   5.185
    1PA     C14 3656   1.205   2.275   5.158
    1PA     H4R 3657   1.216   2.170   5.132
    1PA     H4S 3658   1.282   2.319   5.094
    1PA     C13 3659   1.239   2.275   5.308
    1PA     H3R 3660   1.233   2.380   5.336
    1PA     H3S 3661   1.178   2.204   5.365
    1PA     C12 3662   1.379   2.227   5.348
    1PA     H2R 3663   1.414   2.137   5.297
    1PA     H2S 3664   1.446   2.302   5.303
    2PC     C11 3665   1.405   2.224   5.496
    2PC     O12 3666   1.481   2.147   5.551
    2PC     O11 3667   1.344   2.324   5.561
    2PC      C1 3668   1.386   2.361   5.694
    2PC      HR 3669   1.309   2.434   5.721
    2PC      HS 3670   1.389   2.279   5.766
    2PC      C2 3671   1.527   2.423   5.687
    2PC      HX 3672   1.608   2.349   5.688
    2PC      C3 3673   1.546   2.510   5.811
    2PC      HA 3674   1.475   2.593   5.800
    2PC      HB 3675   1.526   2.449   5.899
    2PC     O31 3676   1.685   2.545   5.824
    2PC     P31 3677   1.741   2.593   5.966
    2PC     O32 3678   1.638   2.709   6.008
    2PC     C31 3679   1.556   2.683   6.123
    2PC     H1A 3680   1.478   2.758   6.109
    2PC     H1B 3681   1.516   2.583   6.102
    2PC     C32 3682   1.630   2.706   6.255
    2PC     H2A 3683   1.583   2.672   6.347
    2PC     H2B 3684   1.721   2.647   6.246
    2PC     N31 3685   1.683   2.842   6.290
    2PC     C33 3686   1.588   2.927   6.370
    2PC     H3A 3687   1.492   2.915   6.319
    2PC     H3B 3688   1.580   2.882   6.469
    2PC     H3C 3689   1.626   3.028   6.357
    2PC     C34 3690   1.810   2.816   6.365
    2PC     H4A 3691   1.876   2.758   6.302
    2PC     H4B 3692   1.861   2.909   6.393
    2PC     H4C 3693   1.779   2.763   6.455
    2PC     C35 3694   1.721   2.916   6.165
    2PC     H5A 3695   1.749   3.018   6.193
    2PC     H5B 3696   1.640   2.920   6.092
    2PC     H5C 3697   1.806   2.866   6.118
    2PC     O33 3698   1.723   2.478   6.058
    2PC     O34 3699   1.884   2.631   5.966
    2PC     O21 3700   1.540   2.510   5.573
    2PC     C21 3701   1.449   2.602   5.536
    2PC     O22 3702   1.365   2.643   5.613
    3OL     C12 3703   1.478   2.656   5.398
    3OL     H2R 3704   1.399   2.619   5.334
    3OL     H2S 3705   1.574   2.615   5.366
    3OL     C13 3706   1.479   2.809   5.391
    3OL     H3R 3707   1.550   2.850   5.464
    3OL     H3S 3708   1.375   2.841   5.399
    3OL     C14 3709   1.529   2.856   5.254
    3OL     H4R 3710   1.460   2.822   5.176
    3OL     H4S 3711   1.628   2.821   5.224
    3OL     C15 3712   1.547   3.008   5.256
    3OL     H5R 3713   1.624   3.036   5.327
    3OL     H5S 3714   1.454   3.061   5.278
    3OL     C16 3715   1.595   3.056   5.118
    3OL     H6R 3716   1.686   3.004   5.089
    3OL     H6S 3717   1.626   3.159   5.135
    3OL     C17 3718   1.481   3.034   5.017
    3OL     H7R 3719   1.408   3.104   5.057
    3OL     H7S 3720   1.433   2.936   5.008
    3OL     C18 3721   1.508   3.090   4.877
    3OL     H8R 3722   1.598   3.034   4.849
    3OL     H8S 3723   1.542   3.192   4.895
    3OL     C19 3724   1.385   3.087   4.790
    3OL     H9R 3725   1.296   3.142   4.818
    3OL    C110 3726   1.386   3.025   4.673
    3OL    H10R 3727   1.293   3.011   4.619
    3OL    C111 3728   1.497   2.943   4.611
    3OL    H11R 3729   1.578   2.925   4.682
    3OL    H11S 3730   1.536   3.000   4.527
    3OL    C112 3731   1.433   2.813   4.562
    3OL    H12R 3732   1.361   2.848   4.487
    3OL    H12S 3733   1.376   2.766   4.642
    3OL    C113 3734   1.519   2.705   4.495
    3OL    H13R 3735   1.605   2.677   4.557
    3OL    H13S 3736   1.567   2.745   4.406
    3OL    C114 3737   1.430   2.587   4.455
    3OL    H14R 3738   1.369   2.625   4.372
    3OL    H14S 3739   1.366   2.557   4.538
    3OL    C115 3740   1.527   2.475   4.418
    3OL    H15R 3741   1.602   2.464   4.497
    3OL    H15S 3742   1.577   2.501   4.324
    3OL    C116 3743   1.475   2.334   4.387
    3OL    H16R 3744   1.557   2.262   4.380
    3OL    H16S 3745   1.425   2.342   4.290
    3OL    C117 3746   1.375   2.278   4.489
    3OL    H17R 3747   1.286   2.341   4.494
    3OL    H17S 3748   1.424   2.303   4.584
    3OL    C118 3749   1.348   2.127   4.477
    3OL    H18R 3750   1.437   2.065   4.490
    3OL    H18S 3751   1.318   2.106   4.374
    3OL    H18T 3752   1.269   2.097   4.546
    1PA    C116 3753   3.080   2.944   4.114
    1PA    H16R 3754   3.188   2.939   4.133
    1PA    H16S 3755   3.041   2.964   4.214
    1PA    H16T 3756   3.056   3.030   4.051
    1PA    C115 3757   3.050   2.806   4.055
    1PA    H15R 3758   3.100   2.782   3.961
    1PA    H15S 3759   3.062   2.735   4.137
    1PA    C114 3760   2.902   2.800   4.015
    1PA    H14R 3761   2.866   2.897   3.981
    1PA    H14S 3762   2.873   2.729   3.937
    1PA    C113 3763   2.813   2.781   4.138
    1PA    H13R 3764   2.847   2.852   4.213
    1PA    H13S 3765   2.712   2.813   4.110
    1PA    C112 3766   2.820   2.633   4.179
    1PA    H12R 3767   2.773   2.561   4.112
    1PA    H12S 3768   2.921   2.602   4.207
    1PA    C111 3769   2.729   2.613   4.301
    1PA    H11R 3770   2.628   2.645   4.275
    1PA    H11S 3771   2.727   2.506   4.321
    1PA    C110 3772   2.782   2.666   4.435
    1PA    H10R 3773   2.868   2.602   4.454
    1PA    H10S 3774   2.799   2.773   4.426
    1PA     C19 3775   2.677   2.642   4.545
    1PA     H9R 3776   2.582   2.684   4.512
    1PA     H9S 3777   2.676   2.533   4.556
    1PA     C18 3778   2.739   2.702   4.672
    1PA     H8R 3779   2.827   2.643   4.697
    1PA     H8S 3780   2.785   2.797   4.644
    1PA     C17 3781   2.642   2.703   4.792
    1PA     H7R 3782   2.572   2.787   4.791
    1PA     H7S 3783   2.581   2.613   4.789
    1PA     C16 3784   2.729   2.707   4.918
    1PA     H6R 3785   2.801   2.624   4.920
    1PA     H6S 3786   2.788   2.799   4.908
    1PA     C15 3787   2.652   2.707   5.050
    1PA     H5R 3788   2.577   2.786   5.058
    1PA     H5S 3789   2.591   2.618   5.062
    1PA     C14 3790   2.746   2.721   5.171
    1PA     H4R 3791   2.686   2.704   5.261
    1PA     H4S 3792   2.822   2.642   5.174
    1PA     C13 3793   2.801   2.864   5.179
    1PA     H3R 3794   2.873   2.873   5.098
    1PA     H3S 3795   2.726   2.943   5.171
    1PA     C12 3796   2.866   2.899   5.313
    1PA     H2R 3797   2.791   2.898   5.393
    1PA     H2S 3798   2.939   2.824   5.344
    2PC     C11 3799   2.936   3.032   5.305
    2PC     O12 3800   2.890   3.123   5.240
    2PC     O11 3801   3.054   3.029   5.370
    2PC      C1 3802   3.126   3.149   5.403
    2PC      HR 3803   3.233   3.125   5.397
    2PC      HS 3804   3.119   3.231   5.330
    2PC      C2 3805   3.085   3.211   5.537
    2PC      HX 3806   3.171   3.270   5.570
    2PC      C3 3807   3.074   3.100   5.642
    2PC      HA 3808   2.977   3.050   5.636
    2PC      HB 3809   3.140   3.016   5.617
    2PC     O31 3810   3.093   3.156   5.774
    2PC     P31 3811   3.105   3.060   5.902
    2PC     O32 3812   3.246   3.003   5.854
    2PC     C31 3813   3.371   3.068   5.883
    2PC     H1A 3814   3.372   3.098   5.988
    2PC     H1B 3815   3.449   2.993   5.868
    2PC     C32 3816   3.389   3.188   5.789
    2PC     H2A 3817   3.374   3.161   5.684
    2PC     H2B 3818   3.321   3.272   5.807
    2PC     N31 3819   3.515   3.268   5.799
    2PC     C33 3820   3.634   3.188   5.758
    2PC     H3A 3821   3.639   3.095   5.814
    2PC     H3B 3822   3.630   3.175   5.649
    2PC     H3C 3823   3.724   3.248   5.774
    2PC     C34 3824   3.510   3.396   5.721
    2PC     H4A 3825   3.473   3.372   5.621
    2PC     H4B 3826   3.437   3.464   5.766
    2PC     H4C 3827   3.612   3.435   5.718
    2PC     C35 3828   3.533   3.322   5.938
    2PC     H5A 3829   3.618   3.391   5.942
    2PC     H5B 3830   3.551   3.240   6.008
    2PC     H5C 3831   3.444   3.377   5.969
    2PC     O33 3832   3.132   3.127   6.031
    2PC     O34 3833   3.000   2.955   5.912
    2PC     O21 3834   2.958   3.279   5.533
    2PC     C21 3835   2.937   3.395   5.469
    2PC     O22 3836   3.026   3.458   5.416
    3OL     C12 3837   2.792   3.437   5.470
    3OL     H2R 3838   2.777   3.536   5.429
    3OL     H2S 3839   2.763   3.450   5.575
    3OL     C13 3840   2.706   3.334   5.395
    3OL     H3R 3841   2.758   3.271   5.322
    3OL     H3S 3842   2.624   3.385   5.343
    3OL     C14 3843   2.641   3.223   5.477
    3OL     H4R 3844   2.560   3.272   5.531
    3OL     H4S 3845   2.712   3.176   5.546
    3OL     C15 3846   2.580   3.108   5.395
    3OL     H5R 3847   2.516   3.051   5.463
    3OL     H5S 3848   2.655   3.040   5.356
    3OL     C16 3849   2.491   3.150   5.278
    3OL     H6R 3850   2.549   3.184   5.192
    3OL     H6S 3851   2.422   3.227   5.314
    3OL     C17 3852   2.407   3.029   5.236
    3OL     H7R 3853   2.355   2.987   5.322
    3OL     H7S 3854   2.470   2.959   5.181
    3OL     C18 3855   2.301   3.074   5.133
    3OL     H8R 3856   2.361   3.119   5.054
    3OL     H8S 3857   2.241   3.143   5.193
    3OL     C19 3858   2.219   2.953   5.097
    3OL     H9R 3859   2.189   2.898   5.185
    3OL    C110 3860   2.199   2.904   4.976
    3OL    H10R 3861   2.137   2.817   4.957
    3OL    C111 3862   2.236   2.974   4.847
    3OL    H11R 3863   2.326   3.035   4.857
    3OL    H11S 3864   2.154   3.035   4.809
    3OL    C112 3865   2.266   2.868   4.740
    3OL    H12R 3866   2.167   2.843   4.700
    3OL    H12S 3867   2.306   2.773   4.775
    3OL    C113 3868   2.351   2.925   4.626
    3OL    H13R 3869   2.454   2.891   4.639
    3OL    H13S 3870   2.344   3.034   4.617
    3OL    C114 3871   2.300   2.879   4.489
    3OL    H14R 3872   2.202   2.926   4.473
    3OL    H14S 3873   2.285   2.771   4.487
    3OL    C115 3874   2.392   2.918   4.373
    3OL    H15R 3875   2.473   2.845   4.386
    3OL    H15S 3876   2.434   3.018   4.377
    3OL    C116 3877   2.330   2.903   4.233
    3OL    H16R 3878   2.285   2.804   4.225
    3OL    H16S 3879   2.411   2.923   4.163
    3OL    C117 3880   2.217   3.005   4.216
    3OL    H17R 3881   2.235   3.110   4.237
    3OL    H17S 3882   2.129   2.975   4.275
    3OL    C118 3883   2.172   3.000   4.069
    3OL    H18R 3884   2.082   3.061   4.059
    3OL    H18S 3885   2.147   2.902   4.030
    3OL    H18T 3886   2.254   3.033   4.004
    1PA    C116 3887   1.272   0.465   4.169
    1PA    H16R 3888   1.291   0.504   4.068
    1PA    H16S 3889   1.177   0.494   4.213
    1PA    H16T 3890   1.257   0.358   4.153
    1PA    C115 3891   1.380   0.501   4.271
    1PA    H15R 3892   1.482   0.488   4.234
    1PA    H15S 3893   1.363   0.606   4.296
    1PA    C114 3894   1.369   0.413   4.396
    1PA    H14R 3895   1.378   0.305   4.381
    1PA    H14S 3896   1.461   0.432   4.451
    1PA    C113 3897   1.245   0.444   4.481
    1PA    H13R 3898   1.247   0.551   4.503
    1PA    H13S 3899   1.163   0.409   4.418
    1PA    C112 3900   1.258   0.374   4.617
    1PA    H12R 3901   1.269   0.266   4.599
    1PA    H12S 3902   1.349   0.412   4.664
    1PA    C111 3903   1.140   0.412   4.708
    1PA    H11R 3904   1.148   0.519   4.726
    1PA    H11S 3905   1.045   0.397   4.658
    1PA    C110 3906   1.146   0.337   4.842
    1PA    H10R 3907   1.128   0.231   4.824
    1PA    H10S 3908   1.240   0.355   4.895
    1PA     C19 3909   1.023   0.389   4.919
    1PA     H9R 3910   1.051   0.491   4.948
    1PA     H9S 3911   0.930   0.393   4.862
    1PA     C18 3912   0.989   0.303   5.041
    1PA     H8R 3913   0.975   0.198   5.018
    1PA     H8S 3914   1.074   0.309   5.110
    1PA     C17 3915   0.860   0.341   5.115
    1PA     H7R 3916   0.862   0.446   5.144
    1PA     H7S 3917   0.778   0.340   5.043
    1PA     C16 3918   0.832   0.256   5.240
    1PA     H6R 3919   0.817   0.151   5.213
    1PA     H6S 3920   0.917   0.260   5.309
    1PA     C15 3921   0.716   0.318   5.317
    1PA     H5R 3922   0.755   0.415   5.351
    1PA     H5S 3923   0.635   0.345   5.248
    1PA     C14 3924   0.679   0.228   5.436
    1PA     H4R 3925   0.770   0.191   5.483
    1PA     H4S 3926   0.620   0.278   5.513
    1PA     C13 3927   0.586   0.114   5.392
    1PA     H3R 3928   0.498   0.152   5.340
    1PA     H3S 3929   0.630   0.059   5.309
    1PA     C12 3930   0.561   0.016   5.508
    1PA     H2R 3931   0.512  -0.073   5.468
    1PA     H2S 3932   0.657  -0.023   5.543
    2PC     C11 3933   0.481   0.078   5.619
    2PC     O12 3934   0.525   0.095   5.731
    2PC     O11 3935   0.360   0.118   5.577
    2PC      C1 3936   0.272   0.195   5.662
    2PC      HR 3937   0.172   0.199   5.619
    2PC      HS 3938   0.264   0.130   5.749
    2PC      C2 3939   0.322   0.333   5.705
    2PC      HX 3940   0.407   0.322   5.773
    2PC      C3 3941   0.214   0.406   5.786
    2PC      HA 3942   0.134   0.443   5.721
    2PC      HB 3943   0.172   0.340   5.863
    2PC     O31 3944   0.267   0.519   5.857
    2PC     P31 3945   0.178   0.595   5.967
    2PC     O32 3946   0.085   0.688   5.876
    2PC     C31 3947  -0.057   0.668   5.885
    2PC     H1A 3948  -0.084   0.571   5.842
    2PC     H1B 3949  -0.091   0.660   5.989
    2PC     C32 3950  -0.124   0.787   5.816
    2PC     H2A 3951  -0.071   0.806   5.722
    2PC     H2B 3952  -0.230   0.765   5.802
    2PC     N31 3953  -0.128   0.918   5.890
    2PC     C33 3954  -0.148   0.903   6.037
    2PC     H3A 3955  -0.141   1.000   6.087
    2PC     H3B 3956  -0.239   0.845   6.055
    2PC     H3C 3957  -0.053   0.862   6.070
    2PC     C34 3958   0.000   0.991   5.862
    2PC     H4A 3959   0.005   1.014   5.756
    2PC     H4B 3960  -0.016   1.087   5.911
    2PC     H4C 3961   0.090   0.941   5.897
    2PC     C35 3962  -0.232   1.016   5.846
    2PC     H5A 3963  -0.248   1.037   5.740
    2PC     H5B 3964  -0.195   1.106   5.896
    2PC     H5C 3965  -0.332   0.990   5.882
    2PC     O33 3966   0.115   0.486   6.044
    2PC     O34 3967   0.265   0.661   6.068
    2PC     O21 3968   0.354   0.406   5.585
    2PC     C21 3969   0.274   0.427   5.480
    2PC     O22 3970   0.155   0.399   5.476
    3OL     C12 3971   0.355   0.479   5.364
    3OL     H2R 3972   0.459   0.448   5.372
    3OL     H2S 3973   0.359   0.588   5.371
    3OL     C13 3974   0.303   0.426   5.230
    3OL     H3R 3975   0.196   0.448   5.221
    3OL     H3S 3976   0.307   0.317   5.228
    3OL     C14 3977   0.385   0.490   5.117
    3OL     H4R 3978   0.491   0.465   5.129
    3OL     H4S 3979   0.395   0.598   5.129
    3OL     C15 3980   0.335   0.451   4.977
    3OL     H5R 3981   0.226   0.449   4.980
    3OL     H5S 3982   0.376   0.351   4.961
    3OL     C16 3983   0.377   0.551   4.868
    3OL     H6R 3984   0.357   0.653   4.900
    3OL     H6S 3985   0.310   0.541   4.782
    3OL     C17 3986   0.524   0.529   4.832
    3OL     H7R 3987   0.556   0.428   4.806
    3OL     H7S 3988   0.583   0.556   4.921
    3OL     C18 3989   0.567   0.616   4.714
    3OL     H8R 3990   0.541   0.720   4.735
    3OL     H8S 3991   0.508   0.577   4.631
    3OL     C19 3992   0.708   0.585   4.672
    3OL     H9R 3993   0.764   0.528   4.745
    3OL    C110 3994   0.768   0.620   4.559
    3OL    H10R 3995   0.867   0.588   4.530
    3OL    C111 3996   0.704   0.693   4.443
    3OL    H11R 3997   0.779   0.764   4.406
    3OL    H11S 3998   0.620   0.744   4.491
    3OL    C112 3999   0.672   0.603   4.323
    3OL    H12R 4000   0.616   0.668   4.256
    3OL    H12S 4001   0.612   0.519   4.359
    3OL    C113 4002   0.790   0.544   4.245
    3OL    H13R 4003   0.854   0.473   4.298
    3OL    H13S 4004   0.851   0.625   4.204
    3OL    C114 4005   0.730   0.461   4.130
    3OL    H14R 4006   0.665   0.513   4.060
    3OL    H14S 4007   0.671   0.382   4.176
    3OL    C115 4008   0.830   0.381   4.045
    3OL    H15R 4009   0.900   0.334   4.114
    3OL    H15S 4010   0.883   0.452   3.981
    3OL    C116 4011   0.766   0.280   3.949
    3OL    H16R 4012   0.839   0.262   3.870
    3OL    H16S 4013   0.686   0.335   3.898
    3OL    C117 4014   0.724   0.144   4.007
    3OL    H17R 4015   0.688   0.085   3.923
    3OL    H17S 4016   0.649   0.174   4.081
    3OL    C118 4017   0.835   0.058   4.069
    3OL    H18R 4018   0.912   0.043   3.992
    3OL    H18S 4019   0.783  -0.030   4.106
    3OL    H18T 4020   0.871   0.102   4.162
    1PA    C116 4021   2.291   4.442   3.964
    1PA    H16R 4022   2.397   4.430   3.989
    1PA    H16S 4023   2.275   4.483   3.864
    1PA    H16T 4024   2.239   4.346   3.959
    1PA    C115 4025   2.227   4.541   4.063
    1PA    H15R 4026   2.252   4.643   4.037
    1PA    H15S 4027   2.118   4.526   4.060
    1PA    C114 4028   2.250   4.492   4.207
    1PA    H14R 4029   2.229   4.385   4.209
    1PA    H14S 4030   2.353   4.506   4.241
    1PA    C113 4031   2.158   4.549   4.315
    1PA    H13R 4032   2.164   4.658   4.316
    1PA    H13S 4033   2.055   4.516   4.302
    1PA    C112 4034   2.208   4.497   4.451
    1PA    H12R 4035   2.191   4.389   4.454
    1PA    H12S 4036   2.316   4.510   4.454
    1PA    C111 4037   2.153   4.565   4.577
    1PA    H11R 4038   2.189   4.666   4.595
    1PA    H11S 4039   2.046   4.579   4.557
    1PA    C110 4040   2.166   4.475   4.701
    1PA    H10R 4041   2.081   4.504   4.764
    1PA    H10S 4042   2.158   4.368   4.681
    1PA     C19 4043   2.289   4.512   4.785
    1PA     H9R 4044   2.381   4.518   4.727
    1PA     H9S 4045   2.266   4.611   4.825
    1PA     C18 4046   2.304   4.437   4.918
    1PA     H8R 4047   2.332   4.510   4.994
    1PA     H8S 4048   2.209   4.393   4.951
    1PA     C17 4049   2.405   4.323   4.902
    1PA     H7R 4050   2.381   4.256   4.819
    1PA     H7S 4051   2.499   4.372   4.877
    1PA     C16 4052   2.409   4.243   5.033
    1PA     H6R 4053   2.390   4.318   5.110
    1PA     H6S 4054   2.317   4.184   5.033
    1PA     C15 4055   2.535   4.162   5.065
    1PA     H5R 4056   2.569   4.097   4.984
    1PA     H5S 4057   2.607   4.244   5.072
    1PA     C14 4058   2.523   4.093   5.202
    1PA     H4R 4059   2.528   4.155   5.291
    1PA     H4S 4060   2.426   4.042   5.209
    1PA     C13 4061   2.634   3.988   5.219
    1PA     H3R 4062   2.651   3.920   5.136
    1PA     H3S 4063   2.719   4.055   5.234
    1PA     C12 4064   2.626   3.904   5.348
    1PA     H2R 4065   2.529   3.856   5.353
    1PA     H2S 4066   2.704   3.827   5.345
    2PC     C11 4067   2.650   3.974   5.479
    2PC     O12 4068   2.659   4.093   5.501
    2PC     O11 4069   2.666   3.877   5.571
    2PC      C1 4070   2.708   3.914   5.703
    2PC      HR 4071   2.741   4.018   5.704
    2PC      HS 4072   2.618   3.898   5.763
    2PC      C2 4073   2.816   3.816   5.752
    2PC      HX 4074   2.770   3.718   5.735
    2PC      C3 4075   2.829   3.831   5.904
    2PC      HA 4076   2.726   3.818   5.939
    2PC      HB 4077   2.901   3.761   5.947
    2PC     O31 4078   2.874   3.965   5.932
    2PC     P31 4079   2.899   4.005   6.085
    2PC     O32 4080   3.035   3.928   6.119
    2PC     C31 4081   3.141   3.992   6.193
    2PC     H1A 4082   3.171   4.079   6.134
    2PC     H1B 4083   3.109   4.026   6.292
    2PC     C32 4084   3.254   3.888   6.201
    2PC     H2A 4085   3.288   3.848   6.106
    2PC     H2B 4086   3.341   3.930   6.251
    2PC     N31 4087   3.219   3.769   6.286
    2PC     C33 4088   3.142   3.799   6.411
    2PC     H3A 4089   3.175   3.898   6.443
    2PC     H3B 4090   3.036   3.812   6.389
    2PC     H3C 4091   3.152   3.715   6.480
    2PC     C34 4092   3.156   3.659   6.206
    2PC     H4A 4093   3.182   3.560   6.242
    2PC     H4B 4094   3.048   3.669   6.216
    2PC     H4C 4095   3.196   3.659   6.105
    2PC     C35 4096   3.355   3.716   6.322
    2PC     H5A 4097   3.338   3.663   6.416
    2PC     H5B 4098   3.419   3.801   6.345
    2PC     H5C 4099   3.394   3.667   6.233
    2PC     O33 4100   2.908   4.151   6.106
    2PC     O34 4101   2.789   3.952   6.169
    2PC     O21 4102   2.940   3.828   5.679
    2PC     C21 4103   3.035   3.735   5.697
    2PC     O22 4104   3.011   3.621   5.733
    3OL     C12 4105   3.176   3.779   5.669
    3OL     H2R 4106   3.229   3.783   5.764
    3OL     H2S 4107   3.181   3.878   5.624
    3OL     C13 4108   3.257   3.685   5.578
    3OL     H3R 4109   3.186   3.653   5.501
    3OL     H3S 4110   3.281   3.610   5.653
    3OL     C14 4111   3.385   3.749   5.522
    3OL     H4R 4112   3.443   3.800   5.599
    3OL     H4S 4113   3.358   3.818   5.441
    3OL     C15 4114   3.469   3.639   5.455
    3OL     H5R 4115   3.481   3.555   5.523
    3OL     H5S 4116   3.567   3.687   5.446
    3OL     C16 4117   3.422   3.594   5.316
    3OL     H6R 4118   3.445   3.671   5.242
    3OL     H6S 4119   3.313   3.584   5.326
    3OL     C17 4120   3.489   3.462   5.275
    3OL     H7R 4121   3.474   3.388   5.354
    3OL     H7S 4122   3.596   3.482   5.271
    3OL     C18 4123   3.430   3.411   5.143
    3OL     H8R 4124   3.432   3.489   5.067
    3OL     H8S 4125   3.328   3.375   5.159
    3OL     C19 4126   3.520   3.294   5.113
    3OL     H9R 4127   3.513   3.220   5.193
    3OL    C110 4128   3.594   3.270   5.006
    3OL    H10R 4129   3.644   3.174   4.997
    3OL    C111 4130   3.624   3.359   4.888
    3OL    H11R 4131   3.727   3.351   4.854
    3OL    H11S 4132   3.611   3.467   4.903
    3OL    C112 4133   3.531   3.317   4.774
    3OL    H12R 4134   3.539   3.396   4.699
    3OL    H12S 4135   3.429   3.317   4.812
    3OL    C113 4136   3.584   3.186   4.714
    3OL    H13R 4137   3.565   3.105   4.784
    3OL    H13S 4138   3.693   3.191   4.708
    3OL    C114 4139   3.532   3.163   4.571
    3OL    H14R 4140   3.587   3.225   4.500
    3OL    H14S 4141   3.425   3.177   4.553
    3OL    C115 4142   3.546   3.018   4.524
    3OL    H15R 4143   3.494   2.953   4.594
    3OL    H15S 4144   3.653   2.997   4.525
    3OL    C116 4145   3.489   3.003   4.383
    3OL    H16R 4146   3.556   3.060   4.318
    3OL    H16S 4147   3.391   3.052   4.382
    3OL    C117 4148   3.485   2.856   4.336
    3OL    H17R 4149   3.566   2.800   4.383
    3OL    H17S 4150   3.488   2.857   4.227
    3OL    C118 4151   3.348   2.796   4.374
    3OL    H18R 4152   3.263   2.863   4.358
    3OL    H18S 4153   3.351   2.769   4.480
    3OL    H18T 4154   3.326   2.712   4.309
    1PA    C116 4155   5.097   1.532   3.983
    1PA    H16R 4156   5.104   1.610   4.059
    1PA    H16S 4157   5.126   1.583   3.890
    1PA    H16T 4158   5.172   1.456   4.005
    1PA    C115 4159   4.958   1.471   3.957
    1PA    H15R 4160   4.901   1.556   3.919
    1PA    H15S 4161   4.956   1.386   3.889
    1PA    C114 4162   4.897   1.412   4.085
    1PA    H14R 4163   4.960   1.329   4.117
    1PA    H14S 4164   4.899   1.496   4.154
    1PA    C113 4165   4.767   1.334   4.062
    1PA    H13R 4166   4.692   1.396   4.013
    1PA    H13S 4167   4.785   1.248   3.997
    1PA    C112 4168   4.715   1.270   4.192
    1PA    H12R 4169   4.755   1.323   4.278
    1PA    H12S 4170   4.608   1.288   4.198
    1PA    C111 4171   4.752   1.121   4.197
    1PA    H11R 4172   4.668   1.061   4.161
    1PA    H11S 4173   4.844   1.104   4.139
    1PA    C110 4174   4.790   1.071   4.337
    1PA    H10R 4175   4.883   1.120   4.368
    1PA    H10S 4176   4.709   1.094   4.406
    1PA     C19 4177   4.813   0.919   4.334
    1PA     H9R 4178   4.710   0.883   4.330
    1PA     H9S 4179   4.865   0.876   4.248
    1PA     C18 4180   4.891   0.876   4.459
    1PA     H8R 4181   4.986   0.930   4.466
    1PA     H8S 4182   4.845   0.912   4.552
    1PA     C17 4183   4.919   0.726   4.471
    1PA     H7R 4184   4.827   0.669   4.483
    1PA     H7S 4185   4.960   0.686   4.378
    1PA     C16 4186   5.014   0.674   4.581
    1PA     H6R 4187   5.077   0.588   4.560
    1PA     H6S 4188   5.076   0.760   4.608
    1PA     C15 4189   4.932   0.635   4.705
    1PA     H5R 4190   4.859   0.715   4.721
    1PA     H5S 4191   4.869   0.549   4.680
    1PA     C14 4192   5.022   0.602   4.824
    1PA     H4R 4193   5.082   0.511   4.808
    1PA     H4S 4194   5.096   0.681   4.834
    1PA     C13 4195   4.935   0.572   4.947
    1PA     H3R 4196   4.866   0.655   4.964
    1PA     H3S 4197   4.884   0.476   4.934
    1PA     C12 4198   5.022   0.549   5.071
    1PA     H2R 4199   5.055   0.445   5.073
    1PA     H2S 4200   5.106   0.618   5.084
    2PC     C11 4201   4.934   0.586   5.188
    2PC     O12 4202   4.979   0.643   5.285
    2PC     O11 4203   4.805   0.549   5.179
    2PC      C1 4204   4.730   0.567   5.300
    2PC      HR 4205   4.785   0.531   5.388
    2PC      HS 4206   4.711   0.672   5.325
    2PC      C2 4207   4.597   0.494   5.279
    2PC      HX 4208   4.547   0.542   5.194
    2PC      C3 4209   4.511   0.522   5.403
    2PC      HA 4210   4.516   0.630   5.423
    2PC      HB 4211   4.406   0.497   5.386
    2PC     O31 4212   4.565   0.454   5.517
    2PC     P31 4213   4.514   0.492   5.664
    2PC     O32 4214   4.365   0.434   5.658
    2PC     C31 4215   4.275   0.444   5.770
    2PC     H1A 4216   4.320   0.396   5.857
    2PC     H1B 4217   4.246   0.549   5.780
    2PC     C32 4218   4.146   0.377   5.720
    2PC     H2A 4219   4.121   0.416   5.622
    2PC     H2B 4220   4.169   0.270   5.716
    2PC     N31 4221   4.026   0.389   5.810
    2PC     C33 4222   3.916   0.299   5.763
    2PC     H3A 4223   3.840   0.287   5.840
    2PC     H3B 4224   3.869   0.332   5.670
    2PC     H3C 4225   3.962   0.201   5.744
    2PC     C34 4226   4.061   0.374   5.955
    2PC     H4A 4227   4.099   0.274   5.975
    2PC     H4B 4228   4.136   0.449   5.978
    2PC     H4C 4229   3.973   0.399   6.016
    2PC     C35 4230   3.976   0.528   5.786
    2PC     H5A 4231   4.057   0.599   5.800
    2PC     H5B 4232   3.905   0.556   5.864
    2PC     H5C 4233   3.921   0.541   5.692
    2PC     O33 4234   4.575   0.404   5.766
    2PC     O34 4235   4.535   0.632   5.709
    2PC     O21 4236   4.617   0.355   5.249
    2PC     C21 4237   4.514   0.274   5.223
    2PC     O22 4238   4.397   0.306   5.210
    3OL     C12 4239   4.556   0.129   5.219
    3OL     H2R 4240   4.504   0.083   5.303
    3OL     H2S 4241   4.664   0.124   5.236
    3OL     C13 4242   4.522   0.056   5.088
    3OL     H3R 4243   4.575   0.111   5.010
    3OL     H3S 4244   4.415   0.061   5.067
    3OL     C14 4245   4.574  -0.088   5.095
    3OL     H4R 4246   4.503  -0.139   5.161
    3OL     H4S 4247   4.677  -0.092   5.133
    3OL     C15 4248   4.569  -0.167   4.963
    3OL     H5R 4249   4.471  -0.150   4.919
    3OL     H5S 4250   4.595  -0.268   4.994
    3OL     C16 4251   4.673  -0.113   4.865
    3OL     H6R 4252   4.776  -0.118   4.902
    3OL     H6S 4253   4.648  -0.006   4.862
    3OL     C17 4254   4.650  -0.168   4.723
    3OL     H7R 4255   4.695  -0.087   4.665
    3OL     H7S 4256   4.543  -0.172   4.704
    3OL     C18 4257   4.718  -0.302   4.693
    3OL     H8R 4258   4.694  -0.325   4.589
    3OL     H8S 4259   4.667  -0.380   4.751
    3OL     C19 4260   4.869  -0.301   4.697
    3OL     H9R 4261   4.921  -0.242   4.622
    3OL    C110 4262   4.948  -0.379   4.768
    3OL    H10R 4263   5.055  -0.368   4.756
    3OL    C111 4264   4.903  -0.480   4.871
    3OL    H11R 4265   4.802  -0.488   4.912
    3OL    H11S 4266   4.955  -0.463   4.965
    3OL    C112 4267   4.948  -0.623   4.835
    3OL    H12R 4268   4.962  -0.678   4.928
    3OL    H12S 4269   5.048  -0.621   4.791
    3OL    C113 4270   4.846  -0.692   4.745
    3OL    H13R 4271   4.831  -0.627   4.659
    3OL    H13S 4272   4.748  -0.695   4.794
    3OL    C114 4273   4.889  -0.834   4.704
    3OL    H14R 4274   4.899  -0.909   4.783
    3OL    H14S 4275   4.987  -0.810   4.662
    3OL    C115 4276   4.795  -0.892   4.598
    3OL    H15R 4277   4.864  -0.954   4.541
    3OL    H15S 4278   4.781  -0.807   4.530
    3OL    C116 4279   4.677  -0.971   4.656
    3OL    H16R 4280   4.620  -0.904   4.721
    3OL    H16S 4281   4.728  -1.045   4.719
    3OL    C117 4282   4.589  -1.034   4.547
    3OL    H17R 4283   4.587  -0.961   4.466
    3OL    H17S 4284   4.491  -1.047   4.594
    3OL    C118 4285   4.649  -1.161   4.485
    3OL    H18R 4286   4.734  -1.143   4.419
    3OL    H18S 4287   4.569  -1.211   4.430
    3OL    H18T 4288   4.685  -1.212   4.575
    1PA    C116 4289   2.126   6.485   4.310
    1PA    H16R 4290   2.020   6.504   4.323
    1PA    H16S 4291   2.169   6.547   4.231
    1PA    H16T 4292   2.164   6.517   4.407
    1PA    C115 4293   2.164   6.337   4.289
    1PA    H15R 4294   2.097   6.294   4.215
    1PA    H15S 4295   2.268   6.325   4.257
    1PA    C114 4296   2.133   6.257   4.416
    1PA    H14R 4297   2.129   6.152   4.387
    1PA    H14S 4298   2.210   6.285   4.488
    1PA    C113 4299   1.996   6.288   4.479
    1PA    H13R 4300   1.997   6.394   4.507
    1PA    H13S 4301   1.919   6.278   4.401
    1PA    C112 4302   1.969   6.213   4.610
    1PA    H12R 4303   1.993   6.108   4.595
    1PA    H12S 4304   2.046   6.260   4.672
    1PA    C111 4305   1.827   6.234   4.664
    1PA    H11R 4306   1.800   6.339   4.676
    1PA    H11S 4307   1.760   6.196   4.587
    1PA    C110 4308   1.814   6.145   4.789
    1PA    H10R 4309   1.825   6.043   4.752
    1PA    H10S 4310   1.896   6.160   4.859
    1PA     C19 4311   1.674   6.172   4.847
    1PA     H9R 4312   1.660   6.279   4.860
    1PA     H9S 4313   1.608   6.143   4.766
    1PA     C18 4314   1.634   6.084   4.967
    1PA     H8R 4315   1.630   5.978   4.940
    1PA     H8S 4316   1.706   6.086   5.049
    1PA     C17 4317   1.497   6.117   5.026
    1PA     H7R 4318   1.498   6.218   5.068
    1PA     H7S 4319   1.419   6.115   4.950
    1PA     C16 4320   1.459   6.007   5.126
    1PA     H6R 4321   1.438   5.924   5.057
    1PA     H6S 4322   1.541   5.981   5.193
    1PA     C15 4323   1.321   6.039   5.186
    1PA     H5R 4324   1.319   6.137   5.236
    1PA     H5S 4325   1.253   6.041   5.101
    1PA     C14 4326   1.273   5.936   5.288
    1PA     H4R 4327   1.308   5.841   5.248
    1PA     H4S 4328   1.328   5.944   5.382
    1PA     C13 4329   1.121   5.949   5.306
    1PA     H3R 4330   1.095   6.038   5.364
    1PA     H3S 4331   1.069   5.948   5.210
    1PA     C12 4332   1.070   5.833   5.393
    1PA     H2R 4333   0.961   5.833   5.386
    1PA     H2S 4334   1.104   5.737   5.354
    2PC     C11 4335   1.112   5.843   5.538
    2PC     O12 4336   1.156   5.745   5.593
    2PC     O11 4337   1.089   5.965   5.590
    2PC      C1 4338   1.116   6.007   5.725
    2PC      HR 4339   1.074   6.106   5.745
    2PC      HS 4340   1.061   5.932   5.783
    2PC      C2 4341   1.268   6.004   5.747
    2PC      HX 4342   1.305   5.913   5.701
    2PC      C3 4343   1.316   6.015   5.893
    2PC      HA 4344   1.318   5.920   5.947
    2PC      HB 4345   1.418   6.054   5.887
    2PC     O31 4346   1.235   6.109   5.966
    2PC     P31 4347   1.249   6.138   6.123
    2PC     O32 4348   1.129   6.054   6.188
    2PC     C31 4349   0.997   6.110   6.194
    2PC     H1A 4350   1.009   6.200   6.255
    2PC     H1B 4351   0.973   6.125   6.089
    2PC     C32 4352   0.899   6.007   6.253
    2PC     H2A 4353   0.798   6.047   6.252
    2PC     H2B 4354   0.888   5.923   6.185
    2PC     N31 4355   0.927   5.947   6.387
    2PC     C33 4356   1.005   5.818   6.385
    2PC     H3A 4357   0.962   5.751   6.311
    2PC     H3B 4358   1.106   5.847   6.355
    2PC     H3C 4359   1.001   5.785   6.489
    2PC     C34 4360   1.002   6.044   6.473
    2PC     H4A 4361   1.094   6.087   6.433
    2PC     H4B 4362   0.944   6.128   6.509
    2PC     H4C 4363   1.035   5.988   6.561
    2PC     C35 4364   0.798   5.912   6.454
    2PC     H5A 4365   0.818   5.885   6.558
    2PC     H5B 4366   0.742   5.835   6.400
    2PC     H5C 4367   0.742   6.005   6.458
    2PC     O33 4368   1.376   6.076   6.168
    2PC     O34 4369   1.229   6.283   6.148
    2PC     O21 4370   1.324   6.108   5.665
    2PC     C21 4371   1.455   6.125   5.641
    2PC     O22 4372   1.544   6.060   5.693
    3OL     C12 4373   1.485   6.215   5.524
    3OL     H2R 4374   1.446   6.316   5.541
    3OL     H2S 4375   1.443   6.170   5.433
    3OL     C13 4376   1.636   6.240   5.513
    3OL     H3R 4377   1.682   6.142   5.497
    3OL     H3S 4378   1.690   6.282   5.597
    3OL     C14 4379   1.652   6.332   5.391
    3OL     H4R 4380   1.613   6.433   5.407
    3OL     H4S 4381   1.603   6.298   5.300
    3OL     C15 4382   1.803   6.345   5.362
    3OL     H5R 4383   1.842   6.248   5.331
    3OL     H5S 4384   1.859   6.384   5.447
    3OL     C16 4385   1.824   6.439   5.243
    3OL     H6R 4386   1.927   6.473   5.255
    3OL     H6S 4387   1.746   6.516   5.246
    3OL     C17 4388   1.812   6.378   5.103
    3OL     H7R 4389   1.706   6.358   5.085
    3OL     H7S 4390   1.851   6.276   5.104
    3OL     C18 4391   1.882   6.453   4.988
    3OL     H8R 4392   1.846   6.555   4.975
    3OL     H8S 4393   1.855   6.414   4.890
    3OL     C19 4394   2.032   6.458   4.999
    3OL     H9R 4395   2.083   6.386   5.062
    3OL    C110 4396   2.103   6.539   4.922
    3OL    H10R 4397   2.211   6.534   4.935
    3OL    C111 4398   2.042   6.633   4.821
    3OL    H11R 4399   2.051   6.736   4.858
    3OL    H11S 4400   1.935   6.615   4.818
    3OL    C112 4401   2.120   6.630   4.689
    3OL    H12R 4402   2.103   6.533   4.641
    3OL    H12S 4403   2.225   6.637   4.716
    3OL    C113 4404   2.077   6.752   4.606
    3OL    H13R 4405   2.155   6.772   4.532
    3OL    H13S 4406   2.076   6.845   4.664
    3OL    C114 4407   1.940   6.734   4.539
    3OL    H14R 4408   1.869   6.713   4.618
    3OL    H14S 4409   1.945   6.646   4.474
    3OL    C115 4410   1.884   6.855   4.462
    3OL    H15R 4411   1.889   6.946   4.523
    3OL    H15S 4412   1.776   6.841   4.451
    3OL    C116 4413   1.965   6.885   4.336
    3OL    H16R 4414   2.071   6.867   4.350
    3OL    H16S 4415   1.951   6.992   4.318
    3OL    C117 4416   1.900   6.812   4.217
    3OL    H17R 4417   1.863   6.711   4.237
    3OL    H17S 4418   1.965   6.797   4.130
    3OL    C118 4419   1.782   6.890   4.159
    3OL    H18R 4420   1.704   6.895   4.235
    3OL    H18S 4421   1.742   6.830   4.077
    3OL    H18T 4422   1.817   6.987   4.125
    1PA    C116 4423   3.626   4.834   4.445
    1PA    H16R 4424   3.711   4.872   4.388
    1PA    H16S 4425   3.540   4.901   4.436
    1PA    H16T 4426   3.595   4.737   4.405
    1PA    C115 4427   3.659   4.814   4.593
    1PA    H15R 4428   3.563   4.777   4.629
    1PA    H15S 4429   3.725   4.730   4.613
    1PA    C114 4430   3.689   4.942   4.674
    1PA    H14R 4431   3.776   4.926   4.738
    1PA    H14S 4432   3.710   5.021   4.601
    1PA    C113 4433   3.574   5.004   4.754
    1PA    H13R 4434   3.537   4.923   4.817
    1PA    H13S 4435   3.612   5.085   4.817
    1PA    C112 4436   3.460   5.064   4.670
    1PA    H12R 4437   3.503   5.141   4.606
    1PA    H12S 4438   3.421   4.988   4.601
    1PA    C111 4439   3.350   5.133   4.752
    1PA    H11R 4440   3.401   5.222   4.789
    1PA    H11S 4441   3.280   5.185   4.687
    1PA    C110 4442   3.294   5.058   4.874
    1PA    H10R 4443   3.185   5.065   4.881
    1PA    H10S 4444   3.316   4.951   4.865
    1PA     C19 4445   3.363   5.093   5.007
    1PA     H9R 4446   3.342   5.027   5.092
    1PA     H9S 4447   3.469   5.101   4.982
    1PA     C18 4448   3.315   5.232   5.049
    1PA     H8R 4449   3.349   5.302   4.972
    1PA     H8S 4450   3.206   5.238   5.045
    1PA     C17 4451   3.363   5.273   5.189
    1PA     H7R 4452   3.438   5.207   5.233
    1PA     H7S 4453   3.411   5.371   5.189
    1PA     C16 4454   3.248   5.277   5.290
    1PA     H6R 4455   3.164   5.327   5.241
    1PA     H6S 4456   3.226   5.171   5.300
    1PA     C15 4457   3.294   5.346   5.420
    1PA     H5R 4458   3.238   5.290   5.496
    1PA     H5S 4459   3.400   5.325   5.435
    1PA     C14 4460   3.255   5.494   5.410
    1PA     H4R 4461   3.275   5.534   5.310
    1PA     H4S 4462   3.149   5.501   5.433
    1PA     C13 4463   3.328   5.576   5.517
    1PA     H3R 4464   3.304   5.542   5.618
    1PA     H3S 4465   3.436   5.558   5.515
    1PA     C12 4466   3.286   5.723   5.509
    1PA     H2R 4467   3.294   5.765   5.409
    1PA     H2S 4468   3.183   5.728   5.545
    2PC     C11 4469   3.367   5.807   5.605
    2PC     O12 4470   3.435   5.776   5.701
    2PC     O11 4471   3.371   5.936   5.571
    2PC      C1 4472   3.469   6.024   5.628
    2PC      HR 4473   3.450   6.128   5.600
    2PC      HS 4474   3.469   6.004   5.736
    2PC      C2 4475   3.605   5.983   5.571
    2PC      HX 4476   3.625   5.877   5.591
    2PC      C3 4477   3.717   6.046   5.656
    2PC      HA 4478   3.707   6.154   5.656
    2PC      HB 4479   3.706   6.024   5.762
    2PC     O31 4480   3.846   5.993   5.620
    2PC     P31 4481   3.970   6.008   5.720
    2PC     O32 4482   3.948   5.884   5.819
    2PC     C31 4483   4.054   5.839   5.905
    2PC     H1A 4484   4.126   5.789   5.841
    2PC     H1B 4485   4.105   5.925   5.950
    2PC     C32 4486   4.003   5.745   6.015
    2PC     H2A 4487   3.932   5.671   5.977
    2PC     H2B 4488   4.087   5.691   6.058
    2PC     N31 4489   3.935   5.801   6.137
    2PC     C33 4490   3.825   5.895   6.097
    2PC     H3A 4491   3.748   5.847   6.037
    2PC     H3B 4492   3.783   5.922   6.194
    2PC     H3C 4493   3.867   5.982   6.046
    2PC     C34 4494   3.879   5.693   6.224
    2PC     H4A 4495   3.814   5.737   6.301
    2PC     H4B 4496   3.808   5.637   6.163
    2PC     H4C 4497   3.960   5.643   6.278
    2PC     C35 4498   4.028   5.887   6.217
    2PC     H5A 4499   4.112   5.822   6.243
    2PC     H5B 4500   3.991   5.926   6.312
    2PC     H5C 4501   4.057   5.976   6.162
    2PC     O33 4502   4.104   5.994   5.658
    2PC     O34 4503   3.971   6.136   5.794
    2PC     O21 4504   3.618   6.016   5.432
    2PC     C21 4505   3.585   5.928   5.335
    2PC     O22 4506   3.573   5.809   5.353
    3OL     C12 4507   3.571   5.988   5.197
    3OL     H2R 4508   3.517   5.912   5.140
    3OL     H2S 4509   3.672   5.999   5.158
    3OL     C13 4510   3.516   6.131   5.185
    3OL     H3R 4511   3.572   6.191   5.257
    3OL     H3S 4512   3.412   6.137   5.219
    3OL     C14 4513   3.532   6.190   5.045
    3OL     H4R 4514   3.638   6.209   5.027
    3OL     H4S 4515   3.470   6.280   5.050
    3OL     C15 4516   3.474   6.108   4.929
    3OL     H5R 4517   3.537   6.019   4.920
    3OL     H5S 4518   3.496   6.161   4.836
    3OL     C16 4519   3.325   6.072   4.936
    3OL     H6R 4520   3.262   6.161   4.940
    3OL     H6S 4521   3.296   6.008   5.020
    3OL     C17 4522   3.286   5.999   4.807
    3OL     H7R 4523   3.195   5.945   4.836
    3OL     H7S 4524   3.357   5.923   4.774
    3OL     C18 4525   3.261   6.093   4.689
    3OL     H8R 4526   3.323   6.182   4.701
    3OL     H8S 4527   3.159   6.129   4.707
    3OL     C19 4528   3.271   6.013   4.562
    3OL     H9R 4529   3.204   5.928   4.551
    3OL    C110 4530   3.342   6.046   4.455
    3OL    H10R 4531   3.330   5.982   4.368
    3OL    C111 4532   3.435   6.164   4.438
    3OL    H11R 4533   3.442   6.227   4.526
    3OL    H11S 4534   3.393   6.232   4.363
    3OL    C112 4535   3.575   6.117   4.396
    3OL    H12R 4536   3.628   6.204   4.355
    3OL    H12S 4537   3.560   6.037   4.324
    3OL    C113 4538   3.652   6.068   4.519
    3OL    H13R 4539   3.587   5.996   4.568
    3OL    H13S 4540   3.683   6.152   4.582
    3OL    C114 4541   3.782   6.006   4.467
    3OL    H14R 4542   3.853   6.084   4.439
    3OL    H14S 4543   3.766   5.954   4.372
    3OL    C115 4544   3.849   5.909   4.566
    3OL    H15R 4545   3.915   5.844   4.508
    3OL    H15S 4546   3.773   5.848   4.616
    3OL    C116 4547   3.939   5.981   4.667
    3OL    H16R 4548   3.883   6.053   4.727
    3OL    H16S 4549   4.007   6.034   4.600
    3OL    C117 4550   4.030   5.884   4.743
    3OL    H17R 4551   4.106   5.935   4.804
    3OL    H17S 4552   4.079   5.818   4.672
    3OL    C118 4553   3.957   5.786   4.836
    3OL    H18R 4554   3.932   5.846   4.924
    3OL    H18S 4555   4.018   5.700   4.865
    3OL    H18T 4556   3.861   5.757   4.792
    1PA    C116 4557   4.597   5.583   3.993
    1PA    H16R 4558   4.575   5.664   3.922
    1PA    H16S 4559   4.559   5.609   4.092
    1PA    H16T 4560   4.557   5.487   3.960
    1PA    C115 4561   4.750   5.572   4.000
    1PA    H15R 4562   4.784   5.540   3.901
    1PA    H15S 4563   4.798   5.666   4.029
    1PA    C114 4564   4.787   5.462   4.100
    1PA    H14R 4565   4.749   5.486   4.200
    1PA    H14S 4566   4.734   5.369   4.074
    1PA    C113 4567   4.932   5.412   4.095
    1PA    H13R 4568   4.953   5.376   3.994
    1PA    H13S 4569   5.000   5.496   4.113
    1PA    C112 4570   4.965   5.318   4.211
    1PA    H12R 4571   4.903   5.338   4.298
    1PA    H12S 4572   4.926   5.222   4.177
    1PA    C111 4573   5.113   5.316   4.254
    1PA    H11R 4574   5.177   5.297   4.168
    1PA    H11S 4575   5.141   5.414   4.292
    1PA    C110 4576   5.147   5.227   4.374
    1PA    H10R 4577   5.118   5.123   4.357
    1PA    H10S 4578   5.252   5.252   4.390
    1PA     C19 4579   5.083   5.270   4.507
    1PA     H9R 4580   5.113   5.373   4.525
    1PA     H9S 4581   4.974   5.279   4.497
    1PA     C18 4582   5.122   5.172   4.618
    1PA     H8R 4583   5.115   5.068   4.588
    1PA     H8S 4584   5.229   5.179   4.640
    1PA     C17 4585   5.053   5.196   4.754
    1PA     H7R 4586   5.118   5.148   4.827
    1PA     H7S 4587   5.056   5.304   4.774
    1PA     C16 4588   4.917   5.125   4.755
    1PA     H6R 4589   4.864   5.138   4.660
    1PA     H6S 4590   4.940   5.019   4.764
    1PA     C15 4591   4.835   5.173   4.875
    1PA     H5R 4592   4.854   5.280   4.876
    1PA     H5S 4593   4.730   5.143   4.862
    1PA     C14 4594   4.879   5.113   5.010
    1PA     H4R 4595   4.889   5.006   4.994
    1PA     H4S 4596   4.977   5.154   5.035
    1PA     C13 4597   4.777   5.146   5.120
    1PA     H3R 4598   4.747   5.250   5.105
    1PA     H3S 4599   4.684   5.091   5.106
    1PA     C12 4600   4.830   5.124   5.263
    1PA     H2R 4601   4.839   5.016   5.277
    1PA     H2S 4602   4.932   5.161   5.280
    2PC     C11 4603   4.741   5.183   5.369
    2PC     O12 4604   4.744   5.302   5.390
    2PC     O11 4605   4.683   5.091   5.448
    2PC      C1 4606   4.601   5.131   5.559
    2PC      HR 4607   4.577   5.047   5.625
    2PC      HS 4608   4.666   5.204   5.609
    2PC      C2 4609   4.465   5.185   5.514
    2PC      HX 4610   4.488   5.269   5.447
    2PC      C3 4611   4.391   5.239   5.637
    2PC      HA 4612   4.453   5.318   5.680
    2PC      HB 4613   4.297   5.290   5.614
    2PC     O31 4614   4.373   5.142   5.742
    2PC     P31 4615   4.303   5.197   5.875
    2PC     O32 4616   4.345   5.069   5.961
    2PC     C31 4617   4.485   5.040   5.980
    2PC     H1A 4618   4.530   5.018   5.882
    2PC     H1B 4619   4.537   5.128   6.018
    2PC     C32 4620   4.492   4.922   6.077
    2PC     H2A 4621   4.418   4.844   6.057
    2PC     H2B 4622   4.589   4.876   6.059
    2PC     N31 4623   4.483   4.944   6.225
    2PC     C33 4624   4.474   4.814   6.300
    2PC     H3A 4625   4.475   4.836   6.406
    2PC     H3B 4626   4.390   4.754   6.264
    2PC     H3C 4627   4.568   4.760   6.292
    2PC     C34 4628   4.593   5.026   6.285
    2PC     H4A 4629   4.584   5.129   6.250
    2PC     H4B 4630   4.580   5.036   6.393
    2PC     H4C 4631   4.693   4.986   6.268
    2PC     C35 4632   4.356   5.017   6.257
    2PC     H5A 4633   4.358   5.044   6.363
    2PC     H5B 4634   4.266   4.956   6.249
    2PC     H5C 4635   4.354   5.114   6.206
    2PC     O33 4636   4.384   5.312   5.921
    2PC     O34 4637   4.163   5.244   5.877
    2PC     O21 4638   4.387   5.077   5.460
    2PC     C21 4639   4.385   5.063   5.326
    2PC     O22 4640   4.468   5.112   5.253
    3OL     C12 4641   4.280   4.967   5.278
    3OL     H2R 4642   4.187   5.018   5.304
    3OL     H2S 4643   4.288   4.875   5.337
    3OL     C13 4644   4.277   4.937   5.128
    3OL     H3R 4645   4.380   4.918   5.096
    3OL     H3S 4646   4.242   5.027   5.077
    3OL     C14 4647   4.193   4.811   5.102
    3OL     H4R 4648   4.093   4.815   5.145
    3OL     H4S 4649   4.249   4.724   5.137
    3OL     C15 4650   4.168   4.785   4.952
    3OL     H5R 4651   4.268   4.769   4.909
    3OL     H5S 4652   4.134   4.877   4.905
    3OL     C16 4653   4.081   4.662   4.927
    3OL     H6R 4654   4.081   4.606   5.020
    3OL     H6S 4655   4.126   4.601   4.848
    3OL     C17 4656   3.937   4.699   4.888
    3OL     H7R 4657   3.927   4.744   4.790
    3OL     H7S 4658   3.895   4.775   4.955
    3OL     C18 4659   3.853   4.570   4.895
    3OL     H8R 4660   3.750   4.605   4.897
    3OL     H8S 4661   3.868   4.519   4.990
    3OL     C19 4662   3.866   4.473   4.781
    3OL     H9R 4663   3.963   4.425   4.769
    3OL    C110 4664   3.770   4.423   4.704
    3OL    H10R 4665   3.799   4.348   4.631
    3OL    C111 4666   3.622   4.452   4.709
    3OL    H11R 4667   3.611   4.552   4.750
    3OL    H11S 4668   3.572   4.383   4.777
    3OL    C112 4669   3.546   4.447   4.576
    3OL    H12R 4670   3.522   4.347   4.538
    3OL    H12S 4671   3.601   4.499   4.497
    3OL    C113 4672   3.410   4.514   4.600
    3OL    H13R 4673   3.433   4.611   4.644
    3OL    H13S 4674   3.353   4.458   4.675
    3OL    C114 4675   3.328   4.525   4.471
    3OL    H14R 4676   3.323   4.424   4.430
    3OL    H14S 4677   3.382   4.579   4.392
    3OL    C115 4678   3.188   4.588   4.486
    3OL    H15R 4679   3.136   4.525   4.558
    3OL    H15S 4680   3.144   4.588   4.386
    3OL    C116 4681   3.193   4.734   4.531
    3OL    H16R 4682   3.251   4.778   4.449
    3OL    H16S 4683   3.260   4.747   4.617
    3OL    C117 4684   3.051   4.791   4.539
    3OL    H17R 4685   3.000   4.735   4.461
    3OL    H17S 4686   3.049   4.894   4.503
    3OL    C118 4687   2.990   4.782   4.680
    3OL    H18R 4688   2.912   4.857   4.695
    3OL    H18S 4689   3.070   4.790   4.754
    3OL    H18T 4690   2.949   4.682   4.694
    1PA    C116 4691   6.603   1.320   4.020
    1PA    H16R 4692   6.649   1.361   3.930
    1PA    H16S 4693   6.570   1.411   4.070
    1PA    H16T 4694   6.512   1.264   3.998
    1PA    C115 4695   6.710   1.247   4.103
    1PA    H15R 4696   6.657   1.195   4.183
    1PA    H15S 4697   6.768   1.178   4.041
    1PA    C114 4698   6.802   1.349   4.172
    1PA    H14R 4699   6.896   1.297   4.191
    1PA    H14S 4700   6.839   1.421   4.098
    1PA    C113 4701   6.748   1.427   4.292
    1PA    H13R 4702   6.797   1.524   4.302
    1PA    H13S 4703   6.642   1.451   4.287
    1PA    C112 4704   6.763   1.357   4.427
    1PA    H12R 4705   6.717   1.258   4.416
    1PA    H12S 4706   6.871   1.351   4.445
    1PA    C111 4707   6.710   1.444   4.542
    1PA    H11R 4708   6.770   1.533   4.558
    1PA    H11S 4709   6.611   1.478   4.508
    1PA    C110 4710   6.694   1.355   4.666
    1PA    H10R 4711   6.613   1.283   4.654
    1PA    H10S 4712   6.787   1.300   4.684
    1PA     C19 4713   6.656   1.436   4.791
    1PA     H9R 4714   6.720   1.523   4.808
    1PA     H9S 4715   6.557   1.481   4.776
    1PA     C18 4716   6.649   1.340   4.910
    1PA     H8R 4717   6.587   1.253   4.894
    1PA     H8S 4718   6.748   1.300   4.935
    1PA     C17 4719   6.603   1.408   5.040
    1PA     H7R 4720   6.626   1.346   5.127
    1PA     H7S 4721   6.661   1.499   5.057
    1PA     C16 4722   6.458   1.457   5.026
    1PA     H6R 4723   6.446   1.534   4.950
    1PA     H6S 4724   6.403   1.372   4.986
    1PA     C15 4725   6.399   1.505   5.160
    1PA     H5R 4726   6.290   1.499   5.160
    1PA     H5S 4727   6.434   1.434   5.235
    1PA     C14 4728   6.453   1.639   5.211
    1PA     H4R 4729   6.547   1.621   5.264
    1PA     H4S 4730   6.472   1.703   5.125
    1PA     C13 4731   6.353   1.710   5.303
    1PA     H3R 4732   6.370   1.818   5.309
    1PA     H3S 4733   6.249   1.694   5.274
    1PA     C12 4734   6.352   1.652   5.445
    1PA     H2R 4735   6.341   1.543   5.439
    1PA     H2S 4736   6.433   1.676   5.514
    2PC     C11 4737   6.227   1.696   5.518
    2PC     O12 4738   6.218   1.805   5.569
    2PC     O11 4739   6.123   1.611   5.512
    2PC      C1 4740   5.989   1.644   5.552
    2PC      HR 4741   5.930   1.552   5.549
    2PC      HS 4742   5.990   1.686   5.653
    2PC      C2 4743   5.933   1.746   5.452
    2PC      HX 4744   6.011   1.804   5.401
    2PC      C3 4745   5.836   1.841   5.523
    2PC      HA 4746   5.899   1.904   5.586
    2PC      HB 4747   5.790   1.916   5.459
    2PC     O31 4748   5.734   1.774   5.600
    2PC     P31 4749   5.694   1.854   5.733
    2PC     O32 4750   5.554   1.782   5.762
    2PC     C31 4751   5.434   1.860   5.751
    2PC     H1A 4752   5.447   1.965   5.780
    2PC     H1B 4753   5.403   1.853   5.647
    2PC     C32 4754   5.317   1.799   5.829
    2PC     H2A 4755   5.228   1.848   5.790
    2PC     H2B 4756   5.300   1.693   5.809
    2PC     N31 4757   5.319   1.806   5.979
    2PC     C33 4758   5.185   1.769   6.033
    2PC     H3A 4759   5.174   1.791   6.139
    2PC     H3B 4760   5.124   1.845   5.984
    2PC     H3C 4761   5.159   1.668   6.003
    2PC     C34 4762   5.421   1.714   6.040
    2PC     H4A 4763   5.409   1.703   6.148
    2PC     H4B 4764   5.400   1.618   5.990
    2PC     H4C 4765   5.521   1.745   6.012
    2PC     C35 4766   5.355   1.946   6.019
    2PC     H5A 4767   5.289   2.016   5.967
    2PC     H5B 4768   5.458   1.947   5.981
    2PC     H5C 4769   5.350   1.953   6.128
    2PC     O33 4770   5.793   1.816   5.837
    2PC     O34 4771   5.678   2.001   5.721
    2PC     O21 4772   5.859   1.674   5.351
    2PC     C21 4773   5.805   1.747   5.253
    2PC     O22 4774   5.834   1.862   5.229
    3OL     C12 4775   5.703   1.677   5.167
    3OL     H2R 4776   5.608   1.714   5.205
    3OL     H2S 4777   5.708   1.568   5.180
    3OL     C13 4778   5.712   1.720   5.020
    3OL     H3R 4779   5.731   1.828   5.013
    3OL     H3S 4780   5.623   1.688   4.966
    3OL     C14 4781   5.819   1.648   4.936
    3OL     H4R 4782   5.782   1.664   4.835
    3OL     H4S 4783   5.808   1.541   4.955
    3OL     C15 4784   5.963   1.702   4.948
    3OL     H5R 4785   5.980   1.705   5.056
    3OL     H5S 4786   5.969   1.804   4.911
    3OL     C16 4787   6.066   1.607   4.885
    3OL     H6R 4788   6.055   1.508   4.929
    3OL     H6S 4789   6.168   1.636   4.911
    3OL     C17 4790   6.049   1.607   4.732
    3OL     H7R 4791   6.066   1.707   4.692
    3OL     H7S 4792   5.947   1.586   4.701
    3OL     C18 4793   6.150   1.509   4.671
    3OL     H8R 4794   6.126   1.473   4.571
    3OL     H8S 4795   6.153   1.426   4.743
    3OL     C19 4796   6.292   1.560   4.673
    3OL     H9R 4797   6.354   1.532   4.757
    3OL    C110 4798   6.349   1.642   4.586
    3OL    H10R 4799   6.453   1.670   4.599
    3OL    C111 4800   6.276   1.689   4.463
    3OL    H11R 4801   6.171   1.659   4.462
    3OL    H11S 4802   6.330   1.634   4.385
    3OL    C112 4803   6.291   1.838   4.432
    3OL    H12R 4804   6.388   1.867   4.392
    3OL    H12S 4805   6.273   1.900   4.520
    3OL    C113 4806   6.198   1.880   4.316
    3OL    H13R 4807   6.204   1.803   4.239
    3OL    H13S 4808   6.236   1.971   4.268
    3OL    C114 4809   6.051   1.891   4.359
    3OL    H14R 4810   6.029   1.996   4.378
    3OL    H14S 4811   6.029   1.828   4.445
    3OL    C115 4812   5.970   1.845   4.237
    3OL    H15R 4813   5.976   1.737   4.232
    3OL    H15S 4814   6.012   1.885   4.144
    3OL    C116 4815   5.823   1.887   4.242
    3OL    H16R 4816   5.779   1.863   4.340
    3OL    H16S 4817   5.766   1.835   4.164
    3OL    C117 4818   5.801   2.035   4.209
    3OL    H17R 4819   5.831   2.057   4.107
    3OL    H17S 4820   5.862   2.097   4.275
    3OL    C118 4821   5.651   2.067   4.224
    3OL    H18R 4822   5.592   2.005   4.156
    3OL    H18S 4823   5.632   2.171   4.195
    3OL    H18T 4824   5.615   2.047   4.325
    1PA    C116 4825   3.034   3.823   4.045
    1PA    H16R 4826   3.110   3.776   3.983
    1PA    H16S 4827   2.932   3.797   4.015
    1PA    H16T 4828   3.068   3.797   4.145
    1PA    C115 4829   3.054   3.974   4.025
    1PA    H15R 4830   3.157   4.000   4.049
    1PA    H15S 4831   3.041   3.984   3.918
    1PA    C114 4832   2.956   4.058   4.108
    1PA    H14R 4833   2.927   4.150   4.057
    1PA    H14S 4834   2.867   3.995   4.113
    1PA    C113 4835   3.010   4.080   4.250
    1PA    H13R 4836   3.032   3.983   4.296
    1PA    H13S 4837   3.098   4.145   4.251
    1PA    C112 4838   2.912   4.151   4.343
    1PA    H12R 4839   2.887   4.246   4.296
    1PA    H12S 4840   2.818   4.096   4.349
    1PA    C111 4841   2.977   4.165   4.482
    1PA    H11R 4842   2.994   4.065   4.523
    1PA    H11S 4843   3.069   4.221   4.467
    1PA    C110 4844   2.889   4.247   4.577
    1PA    H10R 4845   2.888   4.353   4.551
    1PA    H10S 4846   2.789   4.205   4.591
    1PA     C19 4847   2.950   4.229   4.717
    1PA     H9R 4848   2.953   4.125   4.750
    1PA     H9S 4849   3.049   4.272   4.703
    1PA     C18 4850   2.871   4.302   4.827
    1PA     H8R 4851   2.858   4.408   4.806
    1PA     H8S 4852   2.774   4.252   4.829
    1PA     C17 4853   2.940   4.290   4.963
    1PA     H7R 4854   2.878   4.315   5.049
    1PA     H7S 4855   2.958   4.185   4.986
    1PA     C16 4856   3.066   4.378   4.976
    1PA     H6R 4857   3.122   4.348   5.064
    1PA     H6S 4858   3.126   4.360   4.887
    1PA     C15 4859   3.042   4.528   5.001
    1PA     H5R 4860   2.992   4.566   4.912
    1PA     H5S 4861   2.982   4.547   5.090
    1PA     C14 4862   3.167   4.616   5.014
    1PA     H4R 4863   3.233   4.616   4.927
    1PA     H4S 4864   3.128   4.718   5.016
    1PA     C13 4865   3.240   4.597   5.147
    1PA     H3R 4866   3.169   4.589   5.230
    1PA     H3S 4867   3.291   4.501   5.147
    1PA     C12 4868   3.348   4.706   5.158
    1PA     H2R 4869   3.428   4.699   5.084
    1PA     H2S 4870   3.312   4.808   5.150
    2PC     C11 4871   3.414   4.694   5.294
    2PC     O12 4872   3.419   4.590   5.356
    2PC     O11 4873   3.463   4.812   5.334
    2PC      C1 4874   3.534   4.811   5.460
    2PC      HR 4875   3.466   4.766   5.533
    2PC      HS 4876   3.623   4.749   5.448
    2PC      C2 4877   3.568   4.957   5.493
    2PC      HX 4878   3.634   4.957   5.580
    2PC      C3 4879   3.433   5.024   5.524
    2PC      HA 4880   3.446   5.128   5.494
    2PC      HB 4881   3.355   4.975   5.465
    2PC     O31 4882   3.410   5.003   5.665
    2PC     P31 4883   3.298   4.904   5.723
    2PC     O32 4884   3.393   4.840   5.836
    2PC     C31 4885   3.431   4.927   5.944
    2PC     H1A 4886   3.464   5.022   5.901
    2PC     H1B 4887   3.353   4.939   6.019
    2PC     C32 4888   3.557   4.865   6.007
    2PC     H2A 4889   3.536   4.765   6.045
    2PC     H2B 4890   3.635   4.874   5.932
    2PC     N31 4891   3.609   4.937   6.129
    2PC     C33 4892   3.507   4.942   6.239
    2PC     H3A 4893   3.544   5.002   6.322
    2PC     H3B 4894   3.423   4.995   6.193
    2PC     H3C 4895   3.484   4.843   6.278
    2PC     C34 4896   3.731   4.868   6.180
    2PC     H4A 4897   3.708   4.764   6.205
    2PC     H4B 4898   3.820   4.870   6.117
    2PC     H4C 4899   3.759   4.920   6.272
    2PC     C35 4900   3.656   5.075   6.096
    2PC     H5A 4901   3.725   5.107   6.174
    2PC     H5B 4902   3.566   5.137   6.095
    2PC     H5C 4903   3.702   5.094   5.999
    2PC     O33 4904   3.186   4.981   5.782
    2PC     O34 4905   3.242   4.800   5.634
    2PC     O21 4906   3.624   5.028   5.381
    2PC     C21 4907   3.672   5.151   5.406
    2PC     O22 4908   3.679   5.207   5.513
    3OL     C12 4909   3.716   5.223   5.281
    3OL     H2R 4910   3.734   5.328   5.302
    3OL     H2S 4911   3.632   5.208   5.213
    3OL     C13 4912   3.844   5.157   5.228
    3OL     H3R 4913   3.829   5.053   5.197
    3OL     H3S 4914   3.913   5.145   5.311
    3OL     C14 4915   3.907   5.236   5.113
    3OL     H4R 4916   4.007   5.199   5.086
    3OL     H4S 4917   3.926   5.342   5.132
    3OL     C15 4918   3.831   5.222   4.980
    3OL     H5R 4919   3.724   5.241   4.993
    3OL     H5S 4920   3.840   5.117   4.952
    3OL     C16 4921   3.873   5.317   4.867
    3OL     H6R 4922   3.978   5.295   4.847
    3OL     H6S 4923   3.852   5.412   4.917
    3OL     C17 4924   3.788   5.300   4.740
    3OL     H7R 4925   3.680   5.297   4.759
    3OL     H7S 4926   3.805   5.198   4.704
    3OL     C18 4927   3.810   5.406   4.632
    3OL     H8R 4928   3.917   5.408   4.608
    3OL     H8S 4929   3.804   5.506   4.675
    3OL     C19 4930   3.727   5.383   4.508
    3OL     H9R 4931   3.715   5.278   4.483
    3OL    C110 4932   3.661   5.474   4.437
    3OL    H10R 4933   3.599   5.446   4.353
    3OL    C111 4934   3.667   5.625   4.444
    3OL    H11R 4935   3.704   5.662   4.348
    3OL    H11S 4936   3.743   5.658   4.514
    3OL    C112 4937   3.531   5.688   4.478
    3OL    H12R 4938   3.452   5.672   4.405
    3OL    H12S 4939   3.550   5.795   4.485
    3OL    C113 4940   3.475   5.647   4.615
    3OL    H13R 4941   3.467   5.538   4.608
    3OL    H13S 4942   3.372   5.683   4.623
    3OL    C114 4943   3.556   5.684   4.740
    3OL    H14R 4944   3.578   5.790   4.746
    3OL    H14S 4945   3.645   5.622   4.739
    3OL    C115 4946   3.473   5.637   4.861
    3OL    H15R 4947   3.436   5.535   4.849
    3OL    H15S 4948   3.380   5.695   4.869
    3OL    C116 4949   3.546   5.658   4.995
    3OL    H16R 4950   3.471   5.644   5.073
    3OL    H16S 4951   3.565   5.765   5.000
    3OL    C117 4952   3.672   5.572   5.014
    3OL    H17R 4953   3.745   5.606   4.941
    3OL    H17S 4954   3.647   5.466   5.003
    3OL    C118 4955   3.742   5.598   5.149
    3OL    H18R 4956   3.833   5.538   5.145
    3OL    H18S 4957   3.687   5.568   5.238
    3OL    H18T 4958   3.765   5.704   5.163
    1PA    C116 4959   0.177   0.209   3.921
    1PA    H16R 4960   0.120   0.268   3.850
    1PA    H16S 4961   0.149   0.105   3.903
    1PA    H16T 4962   0.281   0.220   3.888
    1PA    C115 4963   0.167   0.249   4.069
    1PA    H15R 4964   0.168   0.158   4.128
    1PA    H15S 4965   0.255   0.299   4.111
    1PA    C114 4966   0.034   0.322   4.093
    1PA    H14R 4967   0.023   0.404   4.021
    1PA    H14S 4968  -0.045   0.248   4.079
    1PA    C113 4969   0.026   0.364   4.240
    1PA    H13R 4970   0.047   0.281   4.309
    1PA    H13S 4971   0.105   0.438   4.254
    1PA    C112 4972  -0.108   0.426   4.280
    1PA    H12R 4973  -0.122   0.530   4.249
    1PA    H12S 4974  -0.184   0.360   4.237
    1PA    C111 4975  -0.128   0.433   4.432
    1PA    H11R 4976  -0.138   0.332   4.472
    1PA    H11S 4977  -0.043   0.467   4.491
    1PA    C110 4978  -0.245   0.522   4.473
    1PA    H10R 4979  -0.243   0.614   4.413
    1PA    H10S 4980  -0.337   0.466   4.451
    1PA     C19 4981  -0.227   0.562   4.620
    1PA     H9R 4982  -0.320   0.586   4.672
    1PA     H9S 4983  -0.186   0.478   4.676
    1PA     C18 4984  -0.133   0.683   4.626
    1PA     H8R 4985  -0.037   0.666   4.577
    1PA     H8S 4986  -0.172   0.769   4.572
    1PA     C17 4987  -0.112   0.711   4.776
    1PA     H7R 4988  -0.066   0.809   4.789
    1PA     H7S 4989  -0.210   0.716   4.824
    1PA     C16 4990  -0.030   0.611   4.859
    1PA     H6R 4991  -0.079   0.513   4.862
    1PA     H6S 4992   0.060   0.600   4.798
    1PA     C15 4993   0.022   0.661   4.994
    1PA     H5R 4994   0.067   0.581   5.053
    1PA     H5S 4995   0.087   0.749   4.986
    1PA     C14 4996  -0.087   0.706   5.092
    1PA     H4R 4997  -0.159   0.773   5.046
    1PA     H4S 4998  -0.142   0.622   5.135
    1PA     C13 4999  -0.036   0.780   5.217
    1PA     H3R 5000   0.006   0.875   5.180
    1PA     H3S 5001  -0.118   0.822   5.275
    1PA     C12 5002   0.055   0.701   5.312
    1PA     H2R 5003   0.002   0.608   5.332
    1PA     H2S 5004   0.147   0.665   5.266
    2PC     C11 5005   0.081   0.762   5.448
    2PC     O12 5006   0.004   0.836   5.505
    2PC     O11 5007   0.204   0.731   5.493
    2PC      C1 5008   0.256   0.804   5.606
    2PC      HR 5009   0.263   0.910   5.578
    2PC      HS 5010   0.184   0.803   5.689
    2PC      C2 5011   0.390   0.737   5.639
    2PC      HX 5012   0.377   0.629   5.626
    2PC      C3 5013   0.446   0.779   5.775
    2PC      HA 5014   0.374   0.756   5.855
    2PC      HB 5015   0.535   0.724   5.806
    2PC     O31 5016   0.472   0.921   5.765
    2PC     P31 5017   0.535   1.013   5.879
    2PC     O32 5018   0.687   0.963   5.876
    2PC     C31 5019   0.773   1.047   5.956
    2PC     H1A 5020   0.781   1.144   5.908
    2PC     H1B 5021   0.727   1.062   6.054
    2PC     C32 5022   0.905   0.970   5.966
    2PC     H2A 5023   0.967   0.991   6.054
    2PC     H2B 5024   0.872   0.866   5.962
    2PC     N31 5025   1.002   0.963   5.851
    2PC     C33 5026   0.934   0.946   5.718
    2PC     H3A 5027   0.883   0.851   5.701
    2PC     H3B 5028   0.856   1.022   5.716
    2PC     H3C 5029   0.994   0.958   5.628
    2PC     C34 5030   1.069   1.097   5.849
    2PC     H4A 5031   1.124   1.101   5.943
    2PC     H4B 5032   1.130   1.109   5.760
    2PC     H4C 5033   0.990   1.173   5.844
    2PC     C35 5034   1.109   0.862   5.876
    2PC     H5A 5035   1.172   0.880   5.789
    2PC     H5B 5036   1.059   0.766   5.886
    2PC     H5C 5037   1.161   0.881   5.971
    2PC     O33 5038   0.506   1.156   5.850
    2PC     O34 5039   0.473   0.979   6.009
    2PC     O21 5040   0.485   0.779   5.539
    2PC     C21 5041   0.587   0.703   5.497
    2PC     O22 5042   0.606   0.591   5.539
    3OL     C12 5043   0.683   0.770   5.402
    3OL     H2R 5044   0.780   0.776   5.452
    3OL     H2S 5045   0.651   0.873   5.389
    3OL     C13 5046   0.693   0.708   5.261
    3OL     H3R 5047   0.591   0.703   5.224
    3OL     H3S 5048   0.732   0.606   5.268
    3OL     C14 5049   0.781   0.802   5.178
    3OL     H4R 5050   0.854   0.846   5.248
    3OL     H4S 5051   0.715   0.884   5.150
    3OL     C15 5052   0.843   0.749   5.048
    3OL     H5R 5053   0.757   0.722   4.986
    3OL     H5S 5054   0.902   0.659   5.068
    3OL     C16 5055   0.941   0.846   4.981
    3OL     H6R 5056   1.040   0.851   5.025
    3OL     H6S 5057   0.905   0.949   4.989
    3OL     C17 5058   0.955   0.814   4.832
    3OL     H7R 5059   0.871   0.854   4.774
    3OL     H7S 5060   0.953   0.705   4.826
    3OL     C18 5061   1.081   0.875   4.768
    3OL     H8R 5062   1.165   0.863   4.837
    3OL     H8S 5063   1.051   0.979   4.753
    3OL     C19 5064   1.103   0.807   4.635
    3OL     H9R 5065   1.071   0.703   4.640
    3OL    C110 5066   1.145   0.864   4.524
    3OL    H10R 5067   1.156   0.799   4.437
    3OL    C111 5068   1.198   1.005   4.516
    3OL    H11R 5069   1.307   0.992   4.513
    3OL    H11S 5070   1.176   1.067   4.603
    3OL    C112 5071   1.170   1.069   4.379
    3OL    H12R 5072   1.061   1.076   4.372
    3OL    H12S 5073   1.197   0.992   4.307
    3OL    C113 5074   1.246   1.200   4.355
    3OL    H13R 5075   1.353   1.186   4.374
    3OL    H13S 5076   1.217   1.281   4.422
    3OL    C114 5077   1.233   1.259   4.214
    3OL    H14R 5078   1.243   1.186   4.134
    3OL    H14S 5079   1.320   1.325   4.203
    3OL    C115 5080   1.097   1.331   4.207
    3OL    H15R 5081   1.082   1.408   4.282
    3OL    H15S 5082   1.019   1.258   4.229
    3OL    C116 5083   1.074   1.394   4.068
    3OL    H16R 5084   0.967   1.388   4.050
    3OL    H16S 5085   1.118   1.332   3.990
    3OL    C117 5086   1.118   1.541   4.063
    3OL    H17R 5087   1.224   1.539   4.087
    3OL    H17S 5088   1.092   1.601   4.151
    3OL    C118 5089   1.091   1.616   3.933
    3OL    H18R 5090   1.150   1.567   3.855
    3OL    H18S 5091   1.121   1.719   3.952
    3OL    H18T 5092   0.983   1.606   3.915
    1PA    C116 5093   4.683   3.519   3.994
    1PA    H16R 5094   4.710   3.414   3.982
    1PA    H16S 5095   4.781   3.567   3.991
    1PA    H16T 5096   4.615   3.546   3.914
    1PA    C115 5097   4.620   3.541   4.132
    1PA    H15R 5098   4.596   3.647   4.127
    1PA    H15S 5099   4.525   3.487   4.132
    1PA    C114 5100   4.705   3.524   4.259
    1PA    H14R 5101   4.797   3.582   4.249
    1PA    H14S 5102   4.650   3.560   4.346
    1PA    C113 5103   4.760   3.384   4.289
    1PA    H13R 5104   4.677   3.319   4.315
    1PA    H13S 5105   4.793   3.346   4.192
    1PA    C112 5106   4.877   3.380   4.389
    1PA    H12R 5107   4.954   3.453   4.363
    1PA    H12S 5108   4.831   3.392   4.487
    1PA    C111 5109   4.942   3.241   4.391
    1PA    H11R 5110   4.867   3.166   4.419
    1PA    H11S 5111   4.979   3.222   4.291
    1PA    C110 5112   5.061   3.236   4.488
    1PA    H10R 5113   5.144   3.301   4.461
    1PA    H10S 5114   5.016   3.250   4.586
    1PA     C19 5115   5.123   3.096   4.483
    1PA     H9R 5116   5.057   3.017   4.520
    1PA     H9S 5117   5.151   3.084   4.378
    1PA     C18 5118   5.248   3.102   4.572
    1PA     H8R 5119   5.302   3.010   4.554
    1PA     H8S 5120   5.326   3.168   4.534
    1PA     C17 5121   5.217   3.134   4.719
    1PA     H7R 5122   5.206   3.243   4.720
    1PA     H7S 5123   5.129   3.079   4.753
    1PA     C16 5124   5.336   3.098   4.808
    1PA     H6R 5125   5.294   3.097   4.909
    1PA     H6S 5126   5.344   2.991   4.786
    1PA     C15 5127   5.468   3.172   4.780
    1PA     H5R 5128   5.480   3.190   4.673
    1PA     H5S 5129   5.462   3.269   4.829
    1PA     C14 5130   5.588   3.105   4.849
    1PA     H4R 5131   5.596   3.002   4.815
    1PA     H4S 5132   5.674   3.161   4.812
    1PA     C13 5133   5.587   3.106   5.003
    1PA     H3R 5134   5.580   3.208   5.040
    1PA     H3S 5135   5.500   3.051   5.040
    1PA     C12 5136   5.713   3.042   5.063
    1PA     H2R 5137   5.692   2.938   5.085
    1PA     H2S 5138   5.787   3.054   4.983
    2PC     C11 5139   5.764   3.124   5.180
    2PC     O12 5140   5.701   3.201   5.248
    2PC     O11 5141   5.895   3.102   5.199
    2PC      C1 5142   5.965   3.171   5.304
    2PC      HR 5143   6.072   3.169   5.280
    2PC      HS 5144   5.935   3.276   5.302
    2PC      C2 5145   5.956   3.105   5.443
    2PC      HX 5146   5.857   3.126   5.483
    2PC      C3 5147   6.061   3.176   5.529
    2PC      HA 5148   6.165   3.176   5.497
    2PC      HB 5149   6.025   3.279   5.539
    2PC     O31 5150   6.044   3.099   5.649
    2PC     P31 5151   6.135   3.125   5.778
    2PC     O32 5152   6.276   3.133   5.703
    2PC     C31 5153   6.384   3.204   5.765
    2PC     H1A 5154   6.364   3.311   5.761
    2PC     H1B 5155   6.394   3.171   5.869
    2PC     C32 5156   6.506   3.176   5.677
    2PC     H2A 5157   6.486   3.192   5.570
    2PC     H2B 5158   6.566   3.261   5.709
    2PC     N31 5159   6.585   3.050   5.695
    2PC     C33 5160   6.657   3.048   5.827
    2PC     H3A 5161   6.727   3.132   5.826
    2PC     H3B 5162   6.598   3.049   5.919
    2PC     H3C 5163   6.708   2.952   5.817
    2PC     C34 5164   6.485   2.938   5.697
    2PC     H4A 5165   6.419   2.961   5.781
    2PC     H4B 5166   6.435   2.948   5.600
    2PC     H4C 5167   6.543   2.847   5.713
    2PC     C35 5168   6.675   3.023   5.579
    2PC     H5A 5169   6.616   3.037   5.488
    2PC     H5B 5170   6.713   2.921   5.584
    2PC     H5C 5171   6.764   3.086   5.583
    2PC     O33 5172   6.091   3.245   5.853
    2PC     O34 5173   6.140   3.007   5.867
    2PC     O21 5174   5.982   2.963   5.437
    2PC     C21 5175   6.096   2.922   5.379
    2PC     O22 5176   6.188   2.993   5.346
    3OL     C12 5177   6.100   2.773   5.359
    3OL     H2R 5178   6.002   2.731   5.380
    3OL     H2S 5179   6.166   2.735   5.437
    3OL     C13 5180   6.146   2.731   5.218
    3OL     H3R 5181   6.182   2.628   5.215
    3OL     H3S 5182   6.226   2.798   5.188
    3OL     C14 5183   6.029   2.744   5.119
    3OL     H4R 5184   5.982   2.841   5.136
    3OL     H4S 5185   5.960   2.662   5.139
    3OL     C15 5186   6.076   2.738   4.973
    3OL     H5R 5187   6.151   2.659   4.962
    3OL     H5S 5188   6.131   2.828   4.944
    3OL     C16 5189   5.960   2.725   4.874
    3OL     H6R 5190   6.004   2.734   4.774
    3OL     H6S 5191   5.889   2.807   4.887
    3OL     C17 5192   5.889   2.589   4.878
    3OL     H7R 5193   5.865   2.568   4.983
    3OL     H7S 5194   5.964   2.514   4.852
    3OL     C18 5195   5.764   2.582   4.789
    3OL     H8R 5196   5.684   2.653   4.812
    3OL     H8S 5197   5.711   2.493   4.821
    3OL     C19 5198   5.800   2.566   4.644
    3OL     H9R 5199   5.827   2.466   4.611
    3OL    C110 5200   5.806   2.672   4.564
    3OL    H10R 5201   5.822   2.650   4.459
    3OL    C111 5202   5.780   2.816   4.601
    3OL    H11R 5203   5.869   2.872   4.575
    3OL    H11S 5204   5.767   2.824   4.709
    3OL    C112 5205   5.655   2.874   4.533
    3OL    H12R 5206   5.623   2.973   4.566
    3OL    H12S 5207   5.566   2.814   4.551
    3OL    C113 5208   5.664   2.877   4.379
    3OL    H13R 5209   5.654   2.779   4.333
    3OL    H13S 5210   5.761   2.915   4.345
    3OL    C114 5211   5.539   2.945   4.321
    3OL    H14R 5212   5.532   3.047   4.358
    3OL    H14S 5213   5.450   2.894   4.358
    3OL    C115 5214   5.538   2.946   4.168
    3OL    H15R 5215   5.514   2.848   4.126
    3OL    H15S 5216   5.641   2.964   4.139
    3OL    C116 5217   5.455   3.057   4.101
    3OL    H16R 5218   5.488   3.037   4.000
    3OL    H16S 5219   5.487   3.157   4.129
    3OL    C117 5220   5.304   3.033   4.118
    3OL    H17R 5221   5.279   3.038   4.224
    3OL    H17S 5222   5.278   2.934   4.080
    3OL    C118 5223   5.225   3.138   4.038
    3OL    H18R 5224   5.246   3.241   4.066
    3OL    H18S 5225   5.118   3.120   4.043
    3OL    H18T 5226   5.247   3.128   3.931
    1PA    C116 5227   3.483   5.124   4.151
    1PA    H16R 5228   3.522   5.193   4.076
    1PA    H16S 5229   3.418   5.046   4.112
    1PA    H16T 5230   3.574   5.071   4.182
    1PA    C115 5231   3.423   5.198   4.272
    1PA    H15R 5232   3.374   5.118   4.328
    1PA    H15S 5233   3.504   5.247   4.326
    1PA    C114 5234   3.318   5.304   4.234
    1PA    H14R 5235   3.355   5.361   4.149
    1PA    H14S 5236   3.221   5.266   4.202
    1PA    C113 5237   3.283   5.399   4.350
    1PA    H13R 5238   3.369   5.421   4.414
    1PA    H13S 5239   3.271   5.500   4.311
    1PA    C112 5240   3.180   5.342   4.447
    1PA    H12R 5241   3.086   5.324   4.395
    1PA    H12S 5242   3.228   5.251   4.484
    1PA    C111 5243   3.157   5.442   4.562
    1PA    H11R 5244   3.250   5.450   4.619
    1PA    H11S 5245   3.128   5.542   4.527
    1PA    C110 5246   3.051   5.399   4.664
    1PA    H10R 5247   2.971   5.358   4.602
    1PA    H10S 5248   3.090   5.321   4.730
    1PA     C19 5249   2.998   5.510   4.756
    1PA     H9R 5250   2.919   5.560   4.699
    1PA     H9S 5251   2.958   5.467   4.848
    1PA     C18 5252   3.109   5.602   4.808
    1PA     H8R 5253   3.191   5.552   4.859
    1PA     H8S 5254   3.152   5.660   4.726
    1PA     C17 5255   3.046   5.697   4.911
    1PA     H7R 5256   3.108   5.786   4.924
    1PA     H7S 5257   2.950   5.740   4.884
    1PA     C16 5258   3.034   5.629   5.049
    1PA     H6R 5259   2.960   5.549   5.044
    1PA     H6S 5260   3.131   5.591   5.082
    1PA     C15 5261   2.974   5.722   5.155
    1PA     H5R 5262   2.881   5.759   5.110
    1PA     H5S 5263   2.947   5.677   5.251
    1PA     C14 5264   3.065   5.841   5.188
    1PA     H4R 5265   3.160   5.788   5.197
    1PA     H4S 5266   3.071   5.897   5.094
    1PA     C13 5267   3.044   5.932   5.310
    1PA     H3R 5268   2.946   5.980   5.303
    1PA     H3S 5269   3.041   5.869   5.400
    1PA     C12 5270   3.158   6.034   5.315
    1PA     H2R 5271   3.251   5.982   5.339
    1PA     H2S 5272   3.167   6.094   5.224
    2PC     C11 5273   3.143   6.136   5.425
    2PC     O12 5274   3.052   6.123   5.504
    2PC     O11 5275   3.235   6.234   5.430
    2PC      C1 5276   3.230   6.329   5.537
    2PC      HR 5277   3.138   6.387   5.543
    2PC      HS 5278   3.253   6.275   5.629
    2PC      C2 5279   3.341   6.432   5.511
    2PC      HX 5280   3.423   6.366   5.482
    2PC      C3 5281   3.372   6.522   5.632
    2PC      HA 5282   3.442   6.458   5.685
    2PC      HB 5283   3.412   6.619   5.602
    2PC     O31 5284   3.248   6.540   5.703
    2PC     P31 5285   3.260   6.600   5.851
    2PC     O32 5286   3.296   6.755   5.837
    2PC     C31 5287   3.320   6.830   5.958
    2PC     H1A 5288   3.222   6.835   6.004
    2PC     H1B 5289   3.390   6.779   6.024
    2PC     C32 5290   3.369   6.974   5.935
    2PC     H2A 5291   3.296   7.049   5.907
    2PC     H2B 5292   3.416   7.003   6.029
    2PC     N31 5293   3.470   7.000   5.827
    2PC     C33 5294   3.510   7.144   5.840
    2PC     H3A 5295   3.554   7.156   5.939
    2PC     H3B 5296   3.586   7.167   5.764
    2PC     H3C 5297   3.429   7.216   5.831
    2PC     C34 5298   3.585   6.904   5.831
    2PC     H4A 5299   3.550   6.801   5.823
    2PC     H4B 5300   3.650   6.925   5.746
    2PC     H4C 5301   3.631   6.907   5.930
    2PC     C35 5302   3.409   6.990   5.691
    2PC     H5A 5303   3.309   7.033   5.704
    2PC     H5B 5304   3.413   6.886   5.658
    2PC     H5C 5305   3.474   7.051   5.629
    2PC     O33 5306   3.137   6.581   5.931
    2PC     O34 5307   3.363   6.537   5.936
    2PC     O21 5308   3.306   6.508   5.394
    2PC     C21 5309   3.407   6.574   5.335
    2PC     O22 5310   3.522   6.575   5.374
    3OL     C12 5311   3.369   6.647   5.209
    3OL     H2R 5312   3.455   6.704   5.172
    3OL     H2S 5313   3.301   6.730   5.230
    3OL     C13 5314   3.298   6.561   5.103
    3OL     H3R 5315   3.194   6.544   5.129
    3OL     H3S 5316   3.336   6.459   5.098
    3OL     C14 5317   3.298   6.628   4.965
    3OL     H4R 5318   3.283   6.735   4.984
    3OL     H4S 5319   3.219   6.574   4.911
    3OL     C15 5320   3.430   6.604   4.891
    3OL     H5R 5321   3.511   6.614   4.964
    3OL     H5S 5322   3.433   6.692   4.827
    3OL     C16 5323   3.443   6.472   4.815
    3OL     H6R 5324   3.353   6.457   4.755
    3OL     H6S 5325   3.439   6.383   4.878
    3OL     C17 5326   3.570   6.457   4.730
    3OL     H7R 5327   3.577   6.352   4.698
    3OL     H7S 5328   3.658   6.470   4.793
    3OL     C18 5329   3.591   6.555   4.614
    3OL     H8R 5330   3.599   6.655   4.655
    3OL     H8S 5331   3.498   6.550   4.556
    3OL     C19 5332   3.709   6.512   4.531
    3OL     H9R 5333   3.710   6.405   4.509
    3OL    C110 5334   3.807   6.588   4.483
    3OL    H10R 5335   3.882   6.545   4.418
    3OL    C111 5336   3.812   6.735   4.514
    3OL    H11R 5337   3.740   6.764   4.592
    3OL    H11S 5338   3.798   6.802   4.429
    3OL    C112 5339   3.947   6.779   4.575
    3OL    H12R 5340   3.971   6.723   4.665
    3OL    H12S 5341   3.926   6.877   4.619
    3OL    C113 5342   4.061   6.774   4.473
    3OL    H13R 5343   4.021   6.817   4.381
    3OL    H13S 5344   4.094   6.672   4.450
    3OL    C114 5345   4.193   6.834   4.522
    3OL    H14R 5346   4.165   6.931   4.564
    3OL    H14S 5347   4.263   6.853   4.439
    3OL    C115 5348   4.261   6.751   4.632
    3OL    H15R 5349   4.297   6.656   4.591
    3OL    H15S 5350   4.190   6.725   4.710
    3OL    C116 5351   4.382   6.829   4.684
    3OL    H16R 5352   4.350   6.900   4.762
    3OL    H16S 5353   4.434   6.879   4.602
    3OL    C117 5354   4.474   6.725   4.750
    3OL    H17R 5355   4.543   6.676   4.681
    3OL    H17S 5356   4.417   6.651   4.808
    3OL    C118 5357   4.560   6.813   4.841
    3OL    H18R 5358   4.497   6.874   4.906
    3OL    H18S 5359   4.625   6.886   4.792
    3OL    H18T 5360   4.617   6.751   4.910
    1PA    C116 5361   4.006   3.335   4.041
    1PA    H16R 5362   4.054   3.311   3.945
    1PA    H16S 5363   4.047   3.265   4.113
    1PA    H16T 5364   4.019   3.441   4.066
    1PA    C115 5365   3.857   3.307   4.021
    1PA    H15R 5366   3.806   3.374   3.952
    1PA    H15S 5367   3.834   3.204   3.994
    1PA    C114 5368   3.777   3.335   4.150
    1PA    H14R 5369   3.670   3.321   4.134
    1PA    H14S 5370   3.804   3.258   4.223
    1PA    C113 5371   3.780   3.478   4.205
    1PA    H13R 5372   3.879   3.524   4.207
    1PA    H13S 5373   3.715   3.549   4.153
    1PA    C112 5374   3.719   3.477   4.346
    1PA    H12R 5375   3.612   3.461   4.337
    1PA    H12S 5376   3.778   3.411   4.411
    1PA    C111 5377   3.735   3.617   4.409
    1PA    H11R 5378   3.842   3.639   4.420
    1PA    H11S 5379   3.684   3.698   4.358
    1PA    C110 5380   3.676   3.615   4.550
    1PA    H10R 5381   3.571   3.585   4.549
    1PA    H10S 5382   3.732   3.535   4.599
    1PA     C19 5383   3.680   3.749   4.625
    1PA     H9R 5384   3.780   3.793   4.623
    1PA     H9S 5385   3.612   3.810   4.566
    1PA     C18 5386   3.637   3.740   4.772
    1PA     H8R 5387   3.612   3.843   4.800
    1PA     H8S 5388   3.546   3.681   4.786
    1PA     C17 5389   3.754   3.691   4.859
    1PA     H7R 5390   3.794   3.596   4.825
    1PA     H7S 5391   3.841   3.750   4.829
    1PA     C16 5392   3.745   3.687   5.012
    1PA     H6R 5393   3.728   3.791   5.045
    1PA     H6S 5394   3.659   3.628   5.045
    1PA     C15 5395   3.873   3.632   5.077
    1PA     H5R 5396   3.853   3.579   5.170
    1PA     H5S 5397   3.919   3.554   5.016
    1PA     C14 5398   3.983   3.737   5.096
    1PA     H4R 5399   4.023   3.780   5.004
    1PA     H4S 5400   3.922   3.812   5.147
    1PA     C13 5401   4.095   3.694   5.191
    1PA     H3R 5402   4.076   3.723   5.295
    1PA     H3S 5403   4.105   3.586   5.195
    1PA     C12 5404   4.229   3.753   5.143
    1PA     H2R 5405   4.271   3.695   5.061
    1PA     H2S 5406   4.228   3.861   5.130
    2PC     C11 5407   4.327   3.727   5.254
    2PC     O12 5408   4.347   3.806   5.344
    2PC     O11 5409   4.403   3.620   5.228
    2PC      C1 5410   4.486   3.561   5.330
    2PC      HR 5411   4.533   3.469   5.296
    2PC      HS 5412   4.559   3.634   5.366
    2PC      C2 5413   4.402   3.521   5.453
    2PC      HX 5414   4.352   3.609   5.495
    2PC      C3 5415   4.482   3.457   5.567
    2PC      HA 5416   4.502   3.352   5.546
    2PC      HB 5417   4.576   3.507   5.591
    2PC     O31 5418   4.399   3.449   5.685
    2PC     P31 5419   4.460   3.385   5.818
    2PC     O32 5420   4.563   3.500   5.862
    2PC     C31 5421   4.511   3.634   5.876
    2PC     H1A 5422   4.532   3.685   5.782
    2PC     H1B 5423   4.405   3.632   5.903
    2PC     C32 5424   4.600   3.697   5.984
    2PC     H2A 5425   4.701   3.666   5.957
    2PC     H2B 5426   4.596   3.806   5.978
    2PC     N31 5427   4.587   3.650   6.126
    2PC     C33 5428   4.442   3.662   6.165
    2PC     H3A 5429   4.379   3.613   6.091
    2PC     H3B 5430   4.434   3.629   6.269
    2PC     H3C 5431   4.420   3.769   6.168
    2PC     C34 5432   4.639   3.512   6.153
    2PC     H4A 5433   4.637   3.489   6.260
    2PC     H4B 5434   4.576   3.447   6.093
    2PC     H4C 5435   4.742   3.504   6.117
    2PC     C35 5436   4.666   3.747   6.208
    2PC     H5A 5437   4.644   3.849   6.174
    2PC     H5B 5438   4.771   3.724   6.192
    2PC     H5C 5439   4.638   3.749   6.313
    2PC     O33 5440   4.362   3.361   5.926
    2PC     O34 5441   4.540   3.263   5.794
    2PC     O21 5442   4.305   3.433   5.393
    2PC     C21 5443   4.186   3.415   5.453
    2PC     O22 5444   4.138   3.478   5.545
    3OL     C12 5445   4.109   3.295   5.401
    3OL     H2R 5446   4.066   3.316   5.303
    3OL     H2S 5447   4.029   3.281   5.474
    3OL     C13 5448   4.200   3.172   5.387
    3OL     H3R 5449   4.214   3.138   5.489
    3OL     H3S 5450   4.293   3.198   5.336
    3OL     C14 5451   4.138   3.060   5.303
    3OL     H4R 5452   4.221   2.993   5.280
    3OL     H4S 5453   4.099   3.091   5.206
    3OL     C15 5454   4.028   2.996   5.389
    3OL     H5R 5455   3.957   3.077   5.403
    3OL     H5S 5456   4.070   2.956   5.481
    3OL     C16 5457   3.960   2.884   5.308
    3OL     H6R 5458   3.891   2.830   5.374
    3OL     H6S 5459   4.027   2.812   5.261
    3OL     C17 5460   3.876   2.946   5.196
    3OL     H7R 5461   3.936   2.991   5.117
    3OL     H7S 5462   3.823   3.033   5.235
    3OL     C18 5463   3.772   2.847   5.140
    3OL     H8R 5464   3.710   2.818   5.225
    3OL     H8S 5465   3.821   2.755   5.110
    3OL     C19 5466   3.688   2.909   5.031
    3OL     H9R 5467   3.633   2.999   5.056
    3OL    C110 5468   3.677   2.866   4.906
    3OL    H10R 5469   3.612   2.915   4.834
    3OL    C111 5470   3.736   2.745   4.839
    3OL    H11R 5471   3.821   2.705   4.896
    3OL    H11S 5472   3.769   2.774   4.739
    3OL    C112 5473   3.622   2.646   4.814
    3OL    H12R 5474   3.543   2.697   4.759
    3OL    H12S 5475   3.579   2.635   4.914
    3OL    C113 5476   3.675   2.510   4.766
    3OL    H13R 5477   3.610   2.425   4.791
    3OL    H13S 5478   3.776   2.483   4.798
    3OL    C114 5479   3.684   2.504   4.613
    3OL    H14R 5480   3.762   2.576   4.588
    3OL    H14S 5481   3.584   2.538   4.584
    3OL    C115 5482   3.726   2.362   4.575
    3OL    H15R 5483   3.652   2.290   4.612
    3OL    H15S 5484   3.818   2.323   4.621
    3OL    C116 5485   3.739   2.344   4.423
    3OL    H16R 5486   3.676   2.423   4.380
    3OL    H16S 5487   3.692   2.251   4.391
    3OL    C117 5488   3.881   2.368   4.371
    3OL    H17R 5489   3.948   2.293   4.413
    3OL    H17S 5490   3.916   2.469   4.392
    3OL    C118 5491   3.877   2.339   4.220
    3OL    H18R 5492   3.846   2.237   4.197
    3OL    H18S 5493   3.977   2.356   4.180
    3OL    H18T 5494   3.804   2.407   4.176
    1PA    C116 5495   0.810   2.445   3.623
    1PA    H16R 5496   0.726   2.388   3.662
    1PA    H16S 5497   0.880   2.378   3.573
    1PA    H16T 5498   0.764   2.520   3.558
    1PA    C115 5499   0.875   2.508   3.746
    1PA    H15R 5500   0.911   2.432   3.816
    1PA    H15S 5501   0.959   2.573   3.721
    1PA    C114 5502   0.767   2.592   3.816
    1PA    H14R 5503   0.747   2.666   3.738
    1PA    H14S 5504   0.675   2.535   3.831
    1PA    C113 5505   0.807   2.667   3.944
    1PA    H13R 5506   0.869   2.608   4.012
    1PA    H13S 5507   0.877   2.745   3.910
    1PA    C112 5508   0.686   2.715   4.024
    1PA    H12R 5509   0.614   2.780   3.973
    1PA    H12S 5510   0.637   2.626   4.065
    1PA    C111 5511   0.734   2.798   4.145
    1PA    H11R 5512   0.822   2.750   4.188
    1PA    H11S 5513   0.767   2.893   4.102
    1PA    C110 5514   0.618   2.835   4.238
    1PA    H10R 5515   0.635   2.935   4.278
    1PA    H10S 5516   0.519   2.832   4.194
    1PA     C19 5517   0.612   2.736   4.355
    1PA     H9R 5518   0.569   2.640   4.324
    1PA     H9S 5519   0.715   2.719   4.388
    1PA     C18 5520   0.522   2.798   4.463
    1PA     H8R 5521   0.542   2.905   4.472
    1PA     H8S 5522   0.415   2.800   4.440
    1PA     C17 5523   0.536   2.725   4.598
    1PA     H7R 5524   0.504   2.621   4.586
    1PA     H7S 5525   0.639   2.714   4.632
    1PA     C16 5526   0.443   2.792   4.701
    1PA     H6R 5527   0.468   2.893   4.733
    1PA     H6S 5528   0.351   2.814   4.648
    1PA     C15 5529   0.433   2.718   4.835
    1PA     H5R 5530   0.373   2.777   4.904
    1PA     H5S 5531   0.382   2.623   4.821
    1PA     C14 5532   0.568   2.690   4.903
    1PA     H4R 5533   0.629   2.631   4.834
    1PA     H4S 5534   0.612   2.788   4.922
    1PA     C13 5535   0.548   2.620   5.038
    1PA     H3R 5536   0.487   2.684   5.103
    1PA     H3S 5537   0.505   2.522   5.019
    1PA     C12 5538   0.669   2.573   5.121
    1PA     H2R 5539   0.739   2.513   5.063
    1PA     H2S 5540   0.719   2.663   5.156
    2PC     C11 5541   0.636   2.495   5.245
    2PC     O12 5542   0.523   2.493   5.289
    2PC     O11 5543   0.731   2.411   5.290
    2PC      C1 5544   0.716   2.352   5.420
    2PC      HR 5545   0.812   2.326   5.466
    2PC      HS 5546   0.669   2.421   5.490
    2PC      C2 5547   0.636   2.222   5.401
    2PC      HX 5548   0.539   2.240   5.353
    2PC      C3 5549   0.605   2.151   5.534
    2PC      HA 5550   0.539   2.205   5.603
    2PC      HB 5551   0.570   2.049   5.515
    2PC     O31 5552   0.733   2.130   5.597
    2PC     P31 5553   0.738   2.067   5.744
    2PC     O32 5554   0.686   2.189   5.833
    2PC     C31 5555   0.742   2.197   5.965
    2PC     H1A 5556   0.851   2.195   5.958
    2PC     H1B 5557   0.718   2.294   6.011
    2PC     C32 5558   0.701   2.079   6.054
    2PC     H2A 5559   0.721   1.985   6.002
    2PC     H2B 5560   0.767   2.086   6.141
    2PC     N31 5561   0.560   2.068   6.103
    2PC     C33 5562   0.522   2.187   6.187
    2PC     H3A 5563   0.413   2.184   6.193
    2PC     H3B 5564   0.578   2.206   6.278
    2PC     H3C 5565   0.542   2.275   6.126
    2PC     C34 5566   0.459   2.051   5.994
    2PC     H4A 5567   0.366   2.010   6.035
    2PC     H4B 5568   0.441   2.144   5.941
    2PC     H4C 5569   0.498   1.976   5.925
    2PC     C35 5570   0.549   1.954   6.200
    2PC     H5A 5571   0.608   1.976   6.289
    2PC     H5B 5572   0.577   1.856   6.161
    2PC     H5C 5573   0.446   1.953   6.236
    2PC     O33 5574   0.665   1.939   5.754
    2PC     O34 5575   0.880   2.034   5.774
    2PC     O21 5576   0.708   2.118   5.334
    2PC     C21 5577   0.711   2.119   5.200
    2PC     O22 5578   0.640   2.192   5.133
    3OL     C12 5579   0.824   2.040   5.139
    3OL     H2R 5580   0.916   2.061   5.193
    3OL     H2S 5581   0.846   2.067   5.035
    3OL     C13 5582   0.798   1.891   5.163
    3OL     H3R 5583   0.702   1.865   5.117
    3OL     H3S 5584   0.795   1.866   5.269
    3OL     C14 5585   0.899   1.804   5.087
    3OL     H4R 5586   0.886   1.801   4.978
    3OL     H4S 5587   0.884   1.703   5.124
    3OL     C15 5588   1.042   1.851   5.117
    3OL     H5R 5589   1.049   1.864   5.226
    3OL     H5S 5590   1.057   1.949   5.073
    3OL     C16 5591   1.145   1.750   5.065
    3OL     H6R 5592   1.169   1.774   4.961
    3OL     H6S 5593   1.115   1.646   5.079
    3OL     C17 5594   1.279   1.781   5.132
    3OL     H7R 5595   1.350   1.702   5.109
    3OL     H7S 5596   1.274   1.793   5.241
    3OL     C18 5597   1.354   1.903   5.076
    3OL     H8R 5598   1.441   1.930   5.136
    3OL     H8S 5599   1.283   1.985   5.084
    3OL     C19 5600   1.412   1.872   4.940
    3OL     H9R 5601   1.427   1.769   4.909
    3OL    C110 5602   1.444   1.965   4.851
    3OL    H10R 5603   1.486   1.933   4.755
    3OL    C111 5604   1.414   2.112   4.856
    3OL    H11R 5605   1.315   2.128   4.899
    3OL    H11S 5606   1.397   2.146   4.754
    3OL    C112 5607   1.516   2.190   4.940
    3OL    H12R 5608   1.616   2.155   4.915
    3OL    H12S 5609   1.493   2.155   5.041
    3OL    C113 5610   1.498   2.342   4.933
    3OL    H13R 5611   1.394   2.375   4.935
    3OL    H13S 5612   1.537   2.385   4.841
    3OL    C114 5613   1.578   2.418   5.041
    3OL    H14R 5614   1.669   2.360   5.055
    3OL    H14S 5615   1.515   2.419   5.131
    3OL    C115 5616   1.614   2.563   5.006
    3OL    H15R 5617   1.670   2.602   5.091
    3OL    H15S 5618   1.522   2.621   5.005
    3OL    C116 5619   1.698   2.582   4.878
    3OL    H16R 5620   1.631   2.551   4.797
    3OL    H16S 5621   1.784   2.516   4.878
    3OL    C117 5622   1.743   2.728   4.859
    3OL    H17R 5623   1.669   2.801   4.891
    3OL    H17S 5624   1.763   2.740   4.753
    3OL    C118 5625   1.873   2.765   4.932
    3OL    H18R 5626   1.896   2.870   4.914
    3OL    H18S 5627   1.957   2.702   4.902
    3OL    H18T 5628   1.869   2.748   5.040
    1PA    C116 5629   1.500   1.608   4.065
    1PA    H16R 5630   1.538   1.509   4.089
    1PA    H16S 5631   1.581   1.676   4.037
    1PA    H16T 5632   1.429   1.597   3.982
    1PA    C115 5633   1.430   1.665   4.189
    1PA    H15R 5634   1.351   1.735   4.158
    1PA    H15S 5635   1.372   1.586   4.238
    1PA    C114 5636   1.528   1.730   4.287
    1PA    H14R 5637   1.600   1.650   4.302
    1PA    H14S 5638   1.576   1.813   4.235
    1PA    C113 5639   1.466   1.768   4.423
    1PA    H13R 5640   1.535   1.843   4.463
    1PA    H13S 5641   1.366   1.809   4.412
    1PA    C112 5642   1.460   1.652   4.524
    1PA    H12R 5643   1.415   1.568   4.471
    1PA    H12S 5644   1.561   1.617   4.546
    1PA    C111 5645   1.377   1.674   4.651
    1PA    H11R 5646   1.404   1.772   4.689
    1PA    H11S 5647   1.273   1.689   4.622
    1PA    C110 5648   1.380   1.560   4.753
    1PA    H10R 5649   1.484   1.551   4.785
    1PA    H10S 5650   1.326   1.602   4.839
    1PA     C19 5651   1.321   1.436   4.684
    1PA     H9R 5652   1.229   1.458   4.630
    1PA     H9S 5653   1.379   1.395   4.601
    1PA     C18 5654   1.301   1.323   4.785
    1PA     H8R 5655   1.310   1.233   4.724
    1PA     H8S 5656   1.384   1.328   4.856
    1PA     C17 5657   1.161   1.302   4.844
    1PA     H7R 5658   1.128   1.393   4.896
    1PA     H7S 5659   1.092   1.272   4.765
    1PA     C16 5660   1.167   1.195   4.954
    1PA     H6R 5661   1.073   1.174   5.006
    1PA     H6S 5662   1.197   1.100   4.910
    1PA     C15 5663   1.263   1.223   5.070
    1PA     H5R 5664   1.240   1.143   5.141
    1PA     H5S 5665   1.368   1.205   5.047
    1PA     C14 5666   1.232   1.352   5.147
    1PA     H4R 5667   1.274   1.432   5.085
    1PA     H4S 5668   1.126   1.358   5.174
    1PA     C13 5669   1.310   1.359   5.279
    1PA     H3R 5670   1.259   1.438   5.333
    1PA     H3S 5671   1.300   1.267   5.337
    1PA     C12 5672   1.454   1.404   5.250
    1PA     H2R 5673   1.508   1.319   5.208
    1PA     H2S 5674   1.455   1.489   5.181
    2PC     C11 5675   1.526   1.458   5.371
    2PC     O12 5676   1.479   1.457   5.483
    2PC     O11 5677   1.651   1.491   5.337
    2PC      C1 5678   1.753   1.512   5.436
    2PC      HR 5679   1.842   1.542   5.379
    2PC      HS 5680   1.726   1.584   5.514
    2PC      C2 5681   1.785   1.378   5.503
    2PC      HX 5682   1.702   1.338   5.562
    2PC      C3 5683   1.896   1.399   5.607
    2PC      HA 5684   1.986   1.404   5.545
    2PC      HB 5685   1.885   1.496   5.656
    2PC     O31 5686   1.909   1.290   5.699
    2PC     P31 5687   1.795   1.266   5.809
    2PC     O32 5688   1.874   1.309   5.942
    2PC     C31 5689   1.924   1.441   5.969
    2PC     H1A 5690   1.982   1.470   5.881
    2PC     H1B 5691   1.851   1.522   5.980
    2PC     C32 5692   1.997   1.437   6.104
    2PC     H2A 5693   2.060   1.348   6.105
    2PC     H2B 5694   2.049   1.526   6.140
    2PC     N31 5695   1.904   1.414   6.219
    2PC     C33 5696   1.785   1.504   6.213
    2PC     H3A 5697   1.807   1.611   6.225
    2PC     H3B 5698   1.731   1.494   6.119
    2PC     H3C 5699   1.714   1.476   6.291
    2PC     C34 5700   1.864   1.269   6.223
    2PC     H4A 5701   1.840   1.234   6.123
    2PC     H4B 5702   1.945   1.209   6.264
    2PC     H4C 5703   1.778   1.256   6.289
    2PC     C35 5704   1.984   1.432   6.345
    2PC     H5A 5705   1.916   1.437   6.430
    2PC     H5B 5706   2.061   1.510   6.336
    2PC     H5C 5707   2.041   1.341   6.363
    2PC     O33 5708   1.674   1.349   5.794
    2PC     O34 5709   1.750   1.125   5.800
    2PC     O21 5710   1.831   1.281   5.407
    2PC     C21 5711   1.743   1.193   5.355
    2PC     O22 5712   1.627   1.186   5.391
    3OL     C12 5713   1.789   1.098   5.248
    3OL     H2R 5714   1.827   1.016   5.310
    3OL     H2S 5715   1.869   1.144   5.191
    3OL     C13 5716   1.678   1.053   5.151
    3OL     H3R 5717   1.619   1.140   5.121
    3OL     H3S 5718   1.615   0.982   5.204
    3OL     C14 5719   1.728   0.964   5.037
    3OL     H4R 5720   1.647   0.896   5.012
    3OL     H4S 5721   1.816   0.910   5.073
    3OL     C15 5722   1.786   1.037   4.915
    3OL     H5R 5723   1.833   0.953   4.864
    3OL     H5S 5724   1.867   1.102   4.949
    3OL     C16 5725   1.683   1.114   4.831
    3OL     H6R 5726   1.645   1.194   4.895
    3OL     H6S 5727   1.598   1.049   4.810
    3OL     C17 5728   1.746   1.168   4.702
    3OL     H7R 5729   1.757   1.088   4.629
    3OL     H7S 5730   1.847   1.202   4.727
    3OL     C18 5731   1.663   1.285   4.648
    3OL     H8R 5732   1.559   1.259   4.664
    3OL     H8S 5733   1.684   1.292   4.541
    3OL     C19 5734   1.699   1.414   4.718
    3OL     H9R 5735   1.649   1.429   4.814
    3OL    C110 5736   1.781   1.507   4.670
    3OL    H10R 5737   1.799   1.589   4.738
    3OL    C111 5738   1.879   1.496   4.556
    3OL    H11R 5739   1.904   1.390   4.547
    3OL    H11S 5740   1.971   1.553   4.566
    3OL    C112 5741   1.815   1.534   4.422
    3OL    H12R 5742   1.802   1.642   4.409
    3OL    H12S 5743   1.719   1.483   4.415
    3OL    C113 5744   1.905   1.484   4.308
    3OL    H13R 5745   1.872   1.380   4.295
    3OL    H13S 5746   2.011   1.487   4.332
    3OL    C114 5747   1.895   1.564   4.177
    3OL    H14R 5748   1.950   1.654   4.204
    3OL    H14S 5749   1.788   1.579   4.160
    3OL    C115 5750   1.965   1.490   4.062
    3OL    H15R 5751   2.040   1.424   4.107
    3OL    H15S 5752   2.015   1.555   3.990
    3OL    C116 5753   1.865   1.399   3.990
    3OL    H16R 5754   1.769   1.450   3.977
    3OL    H16S 5755   1.842   1.316   4.058
    3OL    C117 5756   1.924   1.349   3.857
    3OL    H17R 5757   1.869   1.258   3.833
    3OL    H17S 5758   2.031   1.329   3.856
    3OL    C118 5759   1.888   1.442   3.741
    3OL    H18R 5760   1.930   1.405   3.646
    3OL    H18S 5761   1.931   1.540   3.762
    3OL    H18T 5762   1.780   1.447   3.731
    1PA    C116 5763   5.034   6.487   3.858
    1PA    H16R 5764   5.136   6.501   3.822
    1PA    H16S 5765   4.971   6.544   3.789
    1PA    H16T 5766   5.022   6.379   3.845
    1PA    C115 5767   5.016   6.516   4.007
    1PA    H15R 5768   5.009   6.625   4.015
    1PA    H15S 5769   4.928   6.467   4.050
    1PA    C114 5770   5.146   6.484   4.082
    1PA    H14R 5771   5.178   6.379   4.081
    1PA    H14S 5772   5.227   6.548   4.049
    1PA    C113 5773   5.135   6.516   4.232
    1PA    H13R 5774   5.105   6.621   4.239
    1PA    H13S 5775   5.052   6.457   4.272
    1PA    C112 5776   5.263   6.488   4.311
    1PA    H12R 5777   5.310   6.393   4.285
    1PA    H12S 5778   5.341   6.564   4.299
    1PA    C111 5779   5.227   6.484   4.460
    1PA    H11R 5780   5.211   6.590   4.485
    1PA    H11S 5781   5.134   6.428   4.474
    1PA    C110 5782   5.343   6.427   4.542
    1PA    H10R 5783   5.354   6.323   4.511
    1PA    H10S 5784   5.431   6.485   4.512
    1PA     C19 5785   5.311   6.438   4.691
    1PA     H9R 5786   5.289   6.540   4.723
    1PA     H9S 5787   5.226   6.377   4.723
    1PA     C18 5788   5.429   6.403   4.783
    1PA     H8R 5789   5.516   6.456   4.744
    1PA     H8S 5790   5.417   6.442   4.885
    1PA     C17 5791   5.469   6.255   4.789
    1PA     H7R 5792   5.490   6.206   4.694
    1PA     H7S 5793   5.564   6.244   4.842
    1PA     C16 5794   5.381   6.160   4.872
    1PA     H6R 5795   5.381   6.203   4.972
    1PA     H6S 5796   5.276   6.170   4.845
    1PA     C15 5797   5.435   6.017   4.870
    1PA     H5R 5798   5.444   5.991   4.764
    1PA     H5S 5799   5.537   6.007   4.908
    1PA     C14 5800   5.347   5.911   4.936
    1PA     H4R 5801   5.242   5.911   4.906
    1PA     H4S 5802   5.374   5.810   4.904
    1PA     C13 5803   5.361   5.933   5.088
    1PA     H3R 5804   5.465   5.932   5.121
    1PA     H3S 5805   5.324   6.031   5.119
    1PA     C12 5806   5.285   5.818   5.154
    1PA     H2R 5807   5.179   5.823   5.128
    1PA     H2S 5808   5.327   5.720   5.130
    2PC     C11 5809   5.304   5.825   5.303
    2PC     O12 5810   5.327   5.725   5.368
    2PC     O11 5811   5.322   5.952   5.344
    2PC      C1 5812   5.342   5.980   5.484
    2PC      HR 5813   5.378   5.896   5.544
    2PC      HS 5814   5.413   6.060   5.503
    2PC      C2 5815   5.204   6.010   5.544
    2PC      HX 5816   5.160   6.101   5.503
    2PC      C3 5817   5.194   6.023   5.697
    2PC      HA 5818   5.203   6.128   5.726
    2PC      HB 5819   5.090   5.999   5.719
    2PC     O31 5820   5.293   5.945   5.767
    2PC     P31 5821   5.275   5.910   5.922
    2PC     O32 5822   5.123   5.861   5.938
    2PC     C31 5823   5.087   5.731   5.887
    2PC     H1A 5824   5.116   5.730   5.781
    2PC     H1B 5825   5.134   5.648   5.940
    2PC     C32 5826   4.934   5.712   5.888
    2PC     H2A 5827   4.886   5.771   5.810
    2PC     H2B 5828   4.910   5.609   5.862
    2PC     N31 5829   4.854   5.721   6.015
    2PC     C33 5830   4.918   5.632   6.117
    2PC     H3A 5831   5.023   5.662   6.120
    2PC     H3B 5832   4.864   5.653   6.210
    2PC     H3C 5833   4.924   5.525   6.097
    2PC     C34 5834   4.846   5.863   6.061
    2PC     H4A 5835   4.948   5.901   6.055
    2PC     H4B 5836   4.788   5.934   6.002
    2PC     H4C 5837   4.809   5.856   6.164
    2PC     C35 5838   4.713   5.680   5.983
    2PC     H5A 5839   4.682   5.611   6.061
    2PC     H5B 5840   4.725   5.622   5.892
    2PC     H5C 5841   4.648   5.767   5.973
    2PC     O33 5842   5.376   5.813   5.969
    2PC     O34 5843   5.308   6.031   6.001
    2PC     O21 5844   5.117   5.901   5.507
    2PC     C21 5845   4.986   5.925   5.495
    2PC     O22 5846   4.934   6.034   5.503
    3OL     C12 5847   4.898   5.806   5.463
    3OL     H2R 5848   4.793   5.816   5.492
    3OL     H2S 5849   4.933   5.723   5.525
    3OL     C13 5850   4.914   5.766   5.316
    3OL     H3R 5851   5.018   5.738   5.302
    3OL     H3S 5852   4.896   5.860   5.263
    3OL     C14 5853   4.818   5.654   5.275
    3OL     H4R 5854   4.722   5.704   5.288
    3OL     H4S 5855   4.821   5.569   5.344
    3OL     C15 5856   4.834   5.615   5.127
    3OL     H5R 5857   4.844   5.701   5.061
    3OL     H5S 5858   4.734   5.575   5.111
    3OL     C16 5859   4.928   5.500   5.088
    3OL     H6R 5860   4.909   5.469   4.985
    3OL     H6S 5861   4.898   5.412   5.146
    3OL     C17 5862   5.077   5.527   5.111
    3OL     H7R 5863   5.085   5.539   5.219
    3OL     H7S 5864   5.111   5.620   5.064
    3OL     C18 5865   5.166   5.409   5.070
    3OL     H8R 5866   5.137   5.389   4.966
    3OL     H8S 5867   5.153   5.319   5.131
    3OL     C19 5868   5.314   5.437   5.073
    3OL     H9R 5869   5.355   5.460   5.171
    3OL    C110 5870   5.401   5.428   4.974
    3OL    H10R 5871   5.507   5.447   4.992
    3OL    C111 5872   5.374   5.383   4.833
    3OL    H11R 5873   5.280   5.429   4.800
    3OL    H11S 5874   5.352   5.276   4.837
    3OL    C112 5875   5.491   5.411   4.737
    3OL    H12R 5876   5.572   5.348   4.775
    3OL    H12S 5877   5.523   5.515   4.738
    3OL    C113 5878   5.467   5.371   4.591
    3OL    H13R 5879   5.382   5.422   4.545
    3OL    H13S 5880   5.423   5.272   4.585
    3OL    C114 5881   5.601   5.381   4.516
    3OL    H14R 5882   5.665   5.304   4.561
    3OL    H14S 5883   5.643   5.480   4.539
    3OL    C115 5884   5.583   5.365   4.365
    3OL    H15R 5885   5.513   5.445   4.343
    3OL    H15S 5886   5.543   5.268   4.333
    3OL    C116 5887   5.714   5.397   4.292
    3OL    H16R 5888   5.798   5.406   4.361
    3OL    H16S 5889   5.710   5.498   4.249
    3OL    C117 5890   5.746   5.284   4.193
    3OL    H17R 5891   5.828   5.312   4.126
    3OL    H17S 5892   5.664   5.256   4.127
    3OL    C118 5893   5.795   5.160   4.270
    3OL    H18R 5894   5.714   5.115   4.327
    3OL    H18S 5895   5.877   5.186   4.337
    3OL    H18T 5896   5.828   5.087   4.196
    1PA    C116 5897   2.528   1.557   4.351
    1PA    H16R 5898   2.563   1.552   4.455
    1PA    H16S 5899   2.540   1.656   4.307
    1PA    H16T 5900   2.595   1.483   4.307
    1PA    C115 5901   2.377   1.530   4.349
    1PA    H15R 5902   2.326   1.618   4.388
    1PA    H15S 5903   2.344   1.520   4.246
    1PA    C114 5904   2.336   1.408   4.433
    1PA    H14R 5905   2.235   1.379   4.401
    1PA    H14S 5906   2.407   1.326   4.418
    1PA    C113 5907   2.321   1.452   4.579
    1PA    H13R 5908   2.410   1.497   4.623
    1PA    H13S 5909   2.249   1.534   4.575
    1PA    C112 5910   2.273   1.337   4.669
    1PA    H12R 5911   2.176   1.300   4.637
    1PA    H12S 5912   2.338   1.251   4.649
    1PA    C111 5913   2.275   1.378   4.817
    1PA    H11R 5914   2.375   1.399   4.854
    1PA    H11S 5915   2.218   1.469   4.832
    1PA    C110 5916   2.211   1.264   4.897
    1PA    H10R 5917   2.113   1.231   4.863
    1PA    H10S 5918   2.289   1.191   4.873
    1PA     C19 5919   2.210   1.294   5.048
    1PA     H9R 5920   2.176   1.201   5.094
    1PA     H9S 5921   2.310   1.327   5.079
    1PA     C18 5922   2.124   1.416   5.085
    1PA     H8R 5923   2.133   1.444   5.190
    1PA     H8S 5924   2.176   1.501   5.040
    1PA     C17 5925   1.977   1.391   5.049
    1PA     H7R 5926   1.961   1.351   4.949
    1PA     H7S 5927   1.944   1.312   5.117
    1PA     C16 5928   1.901   1.522   5.076
    1PA     H6R 5929   1.794   1.509   5.060
    1PA     H6S 5930   1.927   1.543   5.179
    1PA     C15 5931   1.945   1.646   4.996
    1PA     H5R 5932   2.051   1.666   5.015
    1PA     H5S 5933   1.952   1.605   4.895
    1PA     C14 5934   1.855   1.770   5.000
    1PA     H4R 5935   1.888   1.835   4.918
    1PA     H4S 5936   1.753   1.738   4.979
    1PA     C13 5937   1.880   1.845   5.131
    1PA     H3R 5938   1.880   1.778   5.217
    1PA     H3S 5939   1.979   1.891   5.130
    1PA     C12 5940   1.787   1.967   5.139
    1PA     H2R 5941   1.827   2.046   5.075
    1PA     H2S 5942   1.684   1.948   5.108
    2PC     C11 5943   1.796   2.009   5.283
    2PC     O12 5944   1.771   1.932   5.374
    2PC     O11 5945   1.827   2.139   5.291
    2PC      C1 5946   1.839   2.200   5.421
    2PC      HR 5947   1.834   2.309   5.421
    2PC      HS 5948   1.759   2.147   5.473
    2PC      C2 5949   1.960   2.146   5.499
    2PC      HX 5950   1.975   2.038   5.486
    2PC      C3 5951   1.940   2.165   5.650
    2PC      HA 5952   1.942   2.273   5.664
    2PC      HB 5953   1.839   2.129   5.673
    2PC     O31 5954   2.042   2.091   5.720
    2PC     P31 5955   2.021   2.062   5.876
    2PC     O32 5956   2.169   2.024   5.923
    2PC     C31 5957   2.255   2.138   5.939
    2PC     H1A 5958   2.356   2.101   5.918
    2PC     H1B 5959   2.238   2.216   5.864
    2PC     C32 5960   2.244   2.184   6.085
    2PC     H2A 5961   2.140   2.215   6.100
    2PC     H2B 5962   2.260   2.101   6.153
    2PC     N31 5963   2.308   2.315   6.119
    2PC     C33 5964   2.276   2.435   6.035
    2PC     H3A 5965   2.167   2.427   6.040
    2PC     H3B 5966   2.318   2.523   6.083
    2PC     H3C 5967   2.312   2.426   5.932
    2PC     C34 5968   2.258   2.353   6.255
    2PC     H4A 5969   2.325   2.430   6.294
    2PC     H4B 5970   2.154   2.386   6.251
    2PC     H4C 5971   2.267   2.263   6.317
    2PC     C35 5972   2.457   2.301   6.124
    2PC     H5A 5973   2.502   2.400   6.129
    2PC     H5B 5974   2.484   2.261   6.026
    2PC     H5C 5975   2.492   2.235   6.204
    2PC     O33 5976   1.956   2.170   5.954
    2PC     O34 5977   1.928   1.947   5.890
    2PC     O21 5978   2.070   2.222   5.447
    2PC     C21 5979   2.196   2.181   5.470
    2PC     O22 5980   2.221   2.071   5.515
    3OL     C12 5981   2.301   2.285   5.438
    3OL     H2R 5982   2.383   2.268   5.508
    3OL     H2S 5983   2.264   2.384   5.465
    3OL     C13 5984   2.336   2.285   5.289
    3OL     H3R 5985   2.370   2.385   5.263
    3OL     H3S 5986   2.245   2.272   5.230
    3OL     C14 5987   2.433   2.171   5.254
    3OL     H4R 5988   2.376   2.081   5.276
    3OL     H4S 5989   2.530   2.174   5.305
    3OL     C15 5990   2.483   2.176   5.109
    3OL     H5R 5991   2.400   2.165   5.039
    3OL     H5S 5992   2.542   2.088   5.083
    3OL     C16 5993   2.558   2.299   5.055
    3OL     H6R 5994   2.636   2.329   5.125
    3OL     H6S 5995   2.492   2.385   5.055
    3OL     C17 5996   2.610   2.283   4.912
    3OL     H7R 5997   2.665   2.190   4.901
    3OL     H7S 5998   2.675   2.370   4.896
    3OL     C18 5999   2.494   2.306   4.813
    3OL     H8R 6000   2.451   2.406   4.823
    3OL     H8S 6001   2.423   2.223   4.823
    3OL     C19 6002   2.544   2.288   4.672
    3OL     H9R 6003   2.633   2.225   4.666
    3OL    C110 6004   2.499   2.345   4.562
    3OL    H10R 6005   2.547   2.334   4.466
    3OL    C111 6006   2.368   2.421   4.559
    3OL    H11R 6007   2.370   2.522   4.602
    3OL    H11S 6008   2.297   2.358   4.613
    3OL    C112 6009   2.324   2.435   4.413
    3OL    H12R 6010   2.361   2.348   4.359
    3OL    H12S 6011   2.361   2.530   4.374
    3OL    C113 6012   2.171   2.450   4.411
    3OL    H13R 6013   2.151   2.535   4.477
    3OL    H13S 6014   2.125   2.362   4.457
    3OL    C114 6015   2.099   2.485   4.280
    3OL    H14R 6016   2.142   2.571   4.229
    3OL    H14S 6017   1.996   2.514   4.302
    3OL    C115 6018   2.095   2.360   4.192
    3OL    H15R 6019   2.071   2.268   4.246
    3OL    H15S 6020   2.194   2.340   4.151
    3OL    C116 6021   1.993   2.382   4.079
    3OL    H16R 6022   1.892   2.400   4.117
    3OL    H16S 6023   2.002   2.295   4.013
    3OL    C117 6024   2.023   2.504   3.991
    3OL    H17R 6025   2.013   2.597   4.047
    3OL    H17S 6026   1.952   2.485   3.911
    3OL    C118 6027   2.168   2.501   3.940
    3OL    H18R 6028   2.250   2.521   4.009
    3OL    H18S 6029   2.173   2.566   3.852
    3OL    H18T 6030   2.191   2.406   3.891
    1PA    C116 6031   2.475   3.484   4.215
    1PA    H16R 6032   2.416   3.523   4.298
    1PA    H16S 6033   2.514   3.386   4.246
    1PA    H16T 6034   2.410   3.480   4.127
    1PA    C115 6035   2.585   3.588   4.190
    1PA    H15R 6036   2.644   3.565   4.101
    1PA    H15S 6037   2.533   3.681   4.167
    1PA    C114 6038   2.671   3.592   4.317
    1PA    H14R 6039   2.605   3.599   4.404
    1PA    H14S 6040   2.721   3.497   4.334
    1PA    C113 6041   2.775   3.704   4.323
    1PA    H13R 6042   2.854   3.686   4.250
    1PA    H13S 6043   2.721   3.795   4.295
    1PA    C112 6044   2.836   3.726   4.463
    1PA    H12R 6045   2.881   3.633   4.497
    1PA    H12S 6046   2.923   3.789   4.448
    1PA    C111 6047   2.736   3.781   4.566
    1PA    H11R 6048   2.711   3.884   4.542
    1PA    H11S 6049   2.645   3.720   4.571
    1PA    C110 6050   2.810   3.786   4.700
    1PA    H10R 6051   2.866   3.696   4.727
    1PA    H10S 6052   2.879   3.870   4.694
    1PA     C19 6053   2.724   3.814   4.824
    1PA     H9R 6054   2.788   3.852   4.903
    1PA     H9S 6055   2.667   3.901   4.792
    1PA     C18 6056   2.633   3.696   4.862
    1PA     H8R 6057   2.562   3.668   4.784
    1PA     H8S 6058   2.693   3.607   4.884
    1PA     C17 6059   2.565   3.733   4.995
    1PA     H7R 6060   2.631   3.725   5.082
    1PA     H7S 6061   2.528   3.835   4.990
    1PA     C16 6062   2.461   3.629   5.037
    1PA     H6R 6063   2.374   3.617   4.972
    1PA     H6S 6064   2.507   3.531   5.025
    1PA     C15 6065   2.421   3.646   5.184
    1PA     H5R 6066   2.505   3.661   5.253
    1PA     H5S 6067   2.360   3.737   5.186
    1PA     C14 6068   2.324   3.531   5.214
    1PA     H4R 6069   2.241   3.545   5.144
    1PA     H4S 6070   2.363   3.431   5.190
    1PA     C13 6071   2.270   3.554   5.355
    1PA     H3R 6072   2.237   3.658   5.362
    1PA     H3S 6073   2.182   3.494   5.380
    1PA     C12 6074   2.373   3.502   5.456
    1PA     H2R 6075   2.359   3.394   5.470
    1PA     H2S 6076   2.477   3.507   5.425
    2PC     C11 6077   2.350   3.566   5.590
    2PC     O12 6078   2.439   3.588   5.670
    2PC     O11 6079   2.222   3.591   5.621
    2PC      C1 6080   2.187   3.639   5.753
    2PC      HR 6081   2.079   3.629   5.769
    2PC      HS 6082   2.246   3.582   5.824
    2PC      C2 6083   2.241   3.780   5.779
    2PC      HX 6084   2.350   3.778   5.783
    2PC      C3 6085   2.181   3.832   5.910
    2PC      HA 6086   2.087   3.882   5.885
    2PC      HB 6087   2.166   3.745   5.974
    2PC     O31 6088   2.258   3.933   5.977
    2PC     P31 6089   2.392   3.895   6.057
    2PC     O32 6090   2.507   3.969   5.974
    2PC     C31 6091   2.494   4.113   5.975
    2PC     H1A 6092   2.394   4.142   5.942
    2PC     H1B 6093   2.520   4.143   6.077
    2PC     C32 6094   2.601   4.163   5.878
    2PC     H2A 6095   2.699   4.137   5.918
    2PC     H2B 6096   2.582   4.115   5.783
    2PC     N31 6097   2.604   4.311   5.853
    2PC     C33 6098   2.671   4.351   5.725
    2PC     H3A 6099   2.780   4.350   5.734
    2PC     H3B 6100   2.655   4.276   5.647
    2PC     H3C 6101   2.640   4.454   5.707
    2PC     C34 6102   2.469   4.375   5.846
    2PC     H4A 6103   2.486   4.483   5.847
    2PC     H4B 6104   2.430   4.358   5.746
    2PC     H4C 6105   2.399   4.347   5.925
    2PC     C35 6106   2.690   4.376   5.957
    2PC     H5A 6107   2.778   4.314   5.973
    2PC     H5B 6108   2.634   4.374   6.051
    2PC     H5C 6109   2.706   4.480   5.931
    2PC     O33 6110   2.381   3.933   6.200
    2PC     O34 6111   2.439   3.756   6.072
    2PC     O21 6112   2.206   3.867   5.669
    2PC     C21 6113   2.281   3.977   5.655
    2PC     O22 6114   2.368   4.018   5.729
    3OL     C12 6115   2.239   4.063   5.538
    3OL     H2R 6116   2.133   4.044   5.517
    3OL     H2S 6117   2.294   4.030   5.450
    3OL     C13 6118   2.271   4.212   5.550
    3OL     H3R 6119   2.379   4.219   5.533
    3OL     H3S 6120   2.249   4.245   5.651
    3OL     C14 6121   2.190   4.290   5.445
    3OL     H4R 6122   2.085   4.264   5.467
    3OL     H4S 6123   2.216   4.253   5.346
    3OL     C15 6124   2.210   4.440   5.468
    3OL     H5R 6125   2.306   4.463   5.421
    3OL     H5S 6126   2.217   4.480   5.569
    3OL     C16 6127   2.106   4.523   5.392
    3OL     H6R 6128   2.013   4.506   5.449
    3OL     H6S 6129   2.098   4.479   5.293
    3OL     C17 6130   2.138   4.672   5.382
    3OL     H7R 6131   2.231   4.694   5.327
    3OL     H7S 6132   2.153   4.701   5.486
    3OL     C18 6133   2.016   4.752   5.335
    3OL     H8R 6134   1.930   4.732   5.400
    3OL     H8S 6135   1.990   4.711   5.237
    3OL     C19 6136   2.046   4.899   5.328
    3OL     H9R 6137   2.050   4.963   5.416
    3OL    C110 6138   2.077   4.965   5.217
    3OL    H10R 6139   2.104   5.070   5.226
    3OL    C111 6140   2.084   4.906   5.079
    3OL    H11R 6141   1.992   4.861   5.042
    3OL    H11S 6142   2.157   4.825   5.073
    3OL    C112 6143   2.141   5.016   4.988
    3OL    H12R 6144   2.248   5.031   5.006
    3OL    H12S 6145   2.084   5.107   5.008
    3OL    C113 6146   2.127   4.957   4.847
    3OL    H13R 6147   2.022   4.925   4.841
    3OL    H13S 6148   2.177   4.861   4.834
    3OL    C114 6149   2.166   5.064   4.745
    3OL    H14R 6150   2.267   5.103   4.758
    3OL    H14S 6151   2.090   5.143   4.753
    3OL    C115 6152   2.154   4.996   4.608
    3OL    H15R 6153   2.055   4.950   4.608
    3OL    H15S 6154   2.229   4.916   4.603
    3OL    C116 6155   2.185   5.099   4.499
    3OL    H16R 6156   2.286   5.139   4.504
    3OL    H16S 6157   2.120   5.183   4.524
    3OL    C117 6158   2.155   5.044   4.359
    3OL    H17R 6159   2.049   5.044   4.331
    3OL    H17S 6160   2.184   4.938   4.361
    3OL    C118 6161   2.213   5.139   4.253
    3OL    H18R 6162   2.164   5.236   4.253
    3OL    H18S 6163   2.183   5.103   4.155
    3OL    H18T 6164   2.321   5.149   4.266
    1PA    C116 6165   4.372   1.233   3.865
    1PA    H16R 6166   4.311   1.155   3.819
    1PA    H16S 6167   4.438   1.268   3.786
    1PA    H16T 6168   4.308   1.318   3.893
    1PA    C115 6169   4.441   1.189   3.995
    1PA    H15R 6170   4.498   1.098   3.978
    1PA    H15S 6171   4.490   1.283   4.020
    1PA    C114 6172   4.330   1.161   4.097
    1PA    H14R 6173   4.279   1.257   4.112
    1PA    H14S 6174   4.259   1.087   4.061
    1PA    C113 6175   4.378   1.099   4.229
    1PA    H13R 6176   4.441   1.011   4.217
    1PA    H13S 6177   4.435   1.176   4.282
    1PA    C112 6178   4.265   1.069   4.329
    1PA    H12R 6179   4.186   1.141   4.312
    1PA    H12S 6180   4.236   0.968   4.300
    1PA    C111 6181   4.306   1.057   4.477
    1PA    H11R 6182   4.373   1.138   4.507
    1PA    H11S 6183   4.221   1.066   4.543
    1PA    C110 6184   4.396   0.933   4.494
    1PA    H10R 6185   4.344   0.837   4.484
    1PA    H10S 6186   4.478   0.937   4.422
    1PA     C19 6187   4.460   0.927   4.633
    1PA     H9R 6188   4.564   0.962   4.632
    1PA     H9S 6189   4.404   0.990   4.703
    1PA     C18 6190   4.455   0.787   4.694
    1PA     H8R 6191   4.351   0.754   4.698
    1PA     H8S 6192   4.501   0.716   4.624
    1PA     C17 6193   4.526   0.770   4.829
    1PA     H7R 6194   4.512   0.672   4.876
    1PA     H7S 6195   4.633   0.790   4.828
    1PA     C16 6196   4.472   0.867   4.935
    1PA     H6R 6197   4.460   0.964   4.887
    1PA     H6S 6198   4.379   0.832   4.981
    1PA     C15 6199   4.569   0.868   5.054
    1PA     H5R 6200   4.568   0.776   5.112
    1PA     H5S 6201   4.664   0.902   5.013
    1PA     C14 6202   4.527   0.982   5.148
    1PA     H4R 6203   4.505   1.070   5.086
    1PA     H4S 6204   4.438   0.952   5.203
    1PA     C13 6205   4.629   1.005   5.260
    1PA     H3R 6206   4.642   0.912   5.315
    1PA     H3S 6207   4.724   1.016   5.206
    1PA     C12 6208   4.607   1.136   5.337
    1PA     H2R 6209   4.618   1.221   5.269
    1PA     H2S 6210   4.506   1.138   5.378
    2PC     C11 6211   4.703   1.143   5.454
    2PC     O12 6212   4.685   1.081   5.557
    2PC     O11 6213   4.814   1.215   5.432
    2PC      C1 6214   4.898   1.263   5.538
    2PC      HR 6215   4.971   1.335   5.500
    2PC      HS 6216   4.839   1.324   5.607
    2PC      C2 6217   4.968   1.151   5.616
    2PC      HX 6218   4.899   1.067   5.610
    2PC      C3 6219   4.978   1.179   5.767
    2PC      HA 6220   5.083   1.204   5.784
    2PC      HB 6221   4.908   1.255   5.802
    2PC     O31 6222   4.959   1.054   5.834
    2PC     P31 6223   4.984   1.041   5.992
    2PC     O32 6224   5.060   0.904   6.026
    2PC     C31 6225   5.041   0.839   6.153
    2PC     H1A 6226   5.139   0.811   6.192
    2PC     H1B 6227   5.014   0.919   6.222
    2PC     C32 6228   4.938   0.727   6.136
    2PC     H2A 6229   4.844   0.776   6.108
    2PC     H2B 6230   4.981   0.656   6.066
    2PC     N31 6231   4.906   0.658   6.265
    2PC     C33 6232   4.869   0.758   6.370
    2PC     H3A 6233   4.848   0.701   6.461
    2PC     H3B 6234   4.948   0.826   6.401
    2PC     H3C 6235   4.783   0.819   6.343
    2PC     C34 6236   4.781   0.577   6.254
    2PC     H4A 6237   4.750   0.540   6.352
    2PC     H4B 6238   4.699   0.643   6.224
    2PC     H4C 6239   4.798   0.495   6.185
    2PC     C35 6240   5.014   0.561   6.304
    2PC     H5A 6241   5.034   0.502   6.214
    2PC     H5B 6242   4.968   0.504   6.385
    2PC     H5C 6243   5.109   0.610   6.323
    2PC     O33 6244   5.051   1.161   6.049
    2PC     O34 6245   4.856   1.057   6.064
    2PC     O21 6246   5.093   1.113   5.554
    2PC     C21 6247   5.201   1.191   5.555
    2PC     O22 6248   5.193   1.310   5.580
    3OL     C12 6249   5.328   1.128   5.505
    3OL     H2R 6250   5.352   1.035   5.558
    3OL     H2S 6251   5.403   1.206   5.520
    3OL     C13 6252   5.319   1.096   5.355
    3OL     H3R 6253   5.297   1.191   5.306
    3OL     H3S 6254   5.240   1.023   5.335
    3OL     C14 6255   5.453   1.036   5.311
    3OL     H4R 6256   5.480   0.966   5.390
    3OL     H4S 6257   5.529   1.111   5.332
    3OL     C15 6258   5.459   0.973   5.171
    3OL     H5R 6259   5.563   0.960   5.140
    3OL     H5S 6260   5.403   1.027   5.095
    3OL     C16 6261   5.419   0.824   5.168
    3OL     H6R 6262   5.320   0.812   5.214
    3OL     H6S 6263   5.485   0.772   5.237
    3OL     C17 6264   5.430   0.774   5.023
    3OL     H7R 6265   5.439   0.666   5.034
    3OL     H7S 6266   5.524   0.808   4.980
    3OL     C18 6267   5.319   0.821   4.929
    3OL     H8R 6268   5.325   0.930   4.931
    3OL     H8S 6269   5.220   0.788   4.961
    3OL     C19 6270   5.347   0.760   4.794
    3OL     H9R 6271   5.336   0.652   4.792
    3OL    C110 6272   5.389   0.822   4.684
    3OL    H10R 6273   5.374   0.768   4.591
    3OL    C111 6274   5.402   0.972   4.681
    3OL    H11R 6275   5.480   1.007   4.748
    3OL    H11S 6276   5.315   1.017   4.730
    3OL    C112 6277   5.442   1.037   4.548
    3OL    H12R 6278   5.531   0.981   4.516
    3OL    H12S 6279   5.462   1.143   4.567
    3OL    C113 6280   5.342   1.032   4.432
    3OL    H13R 6281   5.251   1.084   4.462
    3OL    H13S 6282   5.310   0.933   4.400
    3OL    C114 6283   5.407   1.102   4.312
    3OL    H14R 6284   5.505   1.061   4.286
    3OL    H14S 6285   5.423   1.204   4.348
    3OL    C115 6286   5.311   1.117   4.193
    3OL    H15R 6287   5.354   1.179   4.114
    3OL    H15S 6288   5.219   1.164   4.228
    3OL    C116 6289   5.293   0.989   4.110
    3OL    H16R 6290   5.222   1.012   4.030
    3OL    H16S 6291   5.252   0.910   4.172
    3OL    C117 6292   5.423   0.936   4.048
    3OL    H17R 6293   5.483   0.898   4.131
    3OL    H17S 6294   5.479   1.010   3.990
    3OL    C118 6295   5.381   0.819   3.958
    3OL    H18R 6296   5.300   0.773   4.016
    3OL    H18S 6297   5.461   0.745   3.946
    3OL    H18T 6298   5.343   0.849   3.860
    1PA    C116 6299   6.831   0.351   4.409
    1PA    H16R 6300   6.791   0.277   4.340
    1PA    H16S 6301   6.937   0.329   4.429
    1PA    H16T 6302   6.832   0.448   4.359
    1PA    C115 6303   6.759   0.355   4.544
    1PA    H15R 6304   6.830   0.411   4.605
    1PA    H15S 6305   6.659   0.399   4.540
    1PA    C114 6306   6.744   0.213   4.602
    1PA    H14R 6307   6.701   0.137   4.537
    1PA    H14S 6308   6.843   0.187   4.640
    1PA    C113 6309   6.657   0.215   4.728
    1PA    H13R 6310   6.685   0.134   4.795
    1PA    H13S 6311   6.679   0.305   4.786
    1PA    C112 6312   6.508   0.207   4.694
    1PA    H12R 6313   6.478   0.274   4.613
    1PA    H12S 6314   6.478   0.110   4.654
    1PA    C111 6315   6.414   0.216   4.815
    1PA    H11R 6316   6.429   0.307   4.874
    1PA    H11S 6317   6.309   0.223   4.785
    1PA    C110 6318   6.414   0.097   4.911
    1PA    H10R 6319   6.311   0.064   4.925
    1PA    H10S 6320   6.465   0.012   4.863
    1PA     C19 6321   6.459   0.109   5.057
    1PA     H9R 6322   6.567   0.121   5.066
    1PA     H9S 6323   6.412   0.197   5.101
    1PA     C18 6324   6.408  -0.012   5.137
    1PA     H8R 6325   6.406  -0.107   5.083
    1PA     H8S 6326   6.479  -0.022   5.219
    1PA     C17 6327   6.273   0.010   5.207
    1PA     H7R 6328   6.269   0.107   5.256
    1PA     H7S 6329   6.193   0.015   5.132
    1PA     C16 6330   6.242  -0.115   5.291
    1PA     H6R 6331   6.249  -0.197   5.220
    1PA     H6S 6332   6.323  -0.127   5.363
    1PA     C15 6333   6.111  -0.105   5.371
    1PA     H5R 6334   6.119  -0.014   5.431
    1PA     H5S 6335   6.030  -0.087   5.299
    1PA     C14 6336   6.074  -0.230   5.451
    1PA     H4R 6337   5.969  -0.216   5.478
    1PA     H4S 6338   6.070  -0.318   5.387
    1PA     C13 6339   6.160  -0.265   5.573
    1PA     H3R 6340   6.139  -0.364   5.614
    1PA     H3S 6341   6.263  -0.273   5.538
    1PA     C12 6342   6.149  -0.167   5.690
    1PA     H2R 6343   6.223  -0.182   5.769
    1PA     H2S 6344   6.148  -0.065   5.649
    2PC     C11 6345   6.015  -0.181   5.758
    2PC     O12 6346   5.980  -0.280   5.820
    2PC     O11 6347   5.942  -0.069   5.760
    2PC      C1 6348   5.828  -0.065   5.848
    2PC      HR 6349   5.751  -0.134   5.813
    2PC      HS 6350   5.852  -0.104   5.947
    2PC      C2 6351   5.768   0.077   5.856
    2PC      HX 6352   5.838   0.139   5.913
    2PC      C3 6353   5.637   0.085   5.935
    2PC      HA 6354   5.568   0.155   5.887
    2PC      HB 6355   5.587  -0.012   5.936
    2PC     O31 6356   5.673   0.117   6.070
    2PC     P31 6357   5.550   0.122   6.172
    2PC     O32 6358   5.619   0.051   6.297
    2PC     C31 6359   5.697   0.120   6.396
    2PC     H1A 6360   5.645   0.211   6.426
    2PC     H1B 6361   5.695   0.056   6.486
    2PC     C32 6362   5.842   0.145   6.351
    2PC     H2A 6363   5.884   0.057   6.302
    2PC     H2B 6364   5.841   0.230   6.283
    2PC     N31 6365   5.950   0.163   6.453
    2PC     C33 6366   6.079   0.157   6.377
    2PC     H3A 6367   6.094   0.056   6.340
    2PC     H3B 6368   6.078   0.228   6.294
    2PC     H3C 6369   6.156   0.186   6.449
    2PC     C34 6370   5.931   0.295   6.522
    2PC     H4A 6371   5.833   0.299   6.570
    2PC     H4B 6372   6.001   0.318   6.601
    2PC     H4C 6373   5.931   0.363   6.436
    2PC     C35 6374   5.949   0.050   6.552
    2PC     H5A 6375   5.936  -0.043   6.496
    2PC     H5B 6376   5.873   0.076   6.625
    2PC     H5C 6377   6.047   0.044   6.599
    2PC     O33 6378   5.499   0.260   6.193
    2PC     O34 6379   5.429   0.048   6.128
    2PC     O21 6380   5.757   0.135   5.725
    2PC     C21 6381   5.678   0.087   5.627
    2PC     O22 6382   5.607  -0.009   5.643
    3OL     C12 6383   5.684   0.171   5.501
    3OL     H2R 6384   5.709   0.272   5.534
    3OL     H2S 6385   5.588   0.158   5.451
    3OL     C13 6386   5.791   0.101   5.417
    3OL     H3R 6387   5.751   0.006   5.380
    3OL     H3S 6388   5.884   0.086   5.471
    3OL     C14 6389   5.809   0.198   5.299
    3OL     H4R 6390   5.848   0.292   5.339
    3OL     H4S 6391   5.712   0.224   5.255
    3OL     C15 6392   5.910   0.149   5.195
    3OL     H5R 6393   5.878   0.050   5.160
    3OL     H5S 6394   6.008   0.136   5.240
    3OL     C16 6395   5.936   0.236   5.071
    3OL     H6R 6396   5.840   0.249   5.020
    3OL     H6S 6397   6.006   0.178   5.011
    3OL     C17 6398   5.995   0.373   5.107
    3OL     H7R 6399   6.084   0.359   5.167
    3OL     H7S 6400   5.928   0.429   5.173
    3OL     C18 6401   6.022   0.456   4.980
    3OL     H8R 6402   6.083   0.381   4.930
    3OL     H8S 6403   6.077   0.543   5.017
    3OL     C19 6404   5.902   0.503   4.902
    3OL     H9R 6405   5.864   0.602   4.924
    3OL    C110 6406   5.838   0.446   4.801
    3OL    H10R 6407   5.755   0.497   4.751
    3OL    C111 6408   5.869   0.315   4.732
    3OL    H11R 6409   5.785   0.246   4.738
    3OL    H11S 6410   5.959   0.267   4.771
    3OL    C112 6411   5.894   0.342   4.583
    3OL    H12R 6412   5.987   0.397   4.566
    3OL    H12S 6413   5.805   0.388   4.541
    3OL    C113 6414   5.926   0.210   4.510
    3OL    H13R 6415   5.864   0.132   4.555
    3OL    H13S 6416   6.031   0.189   4.528
    3OL    C114 6417   5.914   0.226   4.358
    3OL    H14R 6418   5.977   0.145   4.320
    3OL    H14S 6419   5.954   0.321   4.321
    3OL    C115 6420   5.771   0.214   4.305
    3OL    H15R 6421   5.704   0.284   4.355
    3OL    H15S 6422   5.736   0.114   4.332
    3OL    C116 6423   5.768   0.233   4.152
    3OL    H16R 6424   5.800   0.140   4.106
    3OL    H16S 6425   5.834   0.311   4.113
    3OL    C117 6426   5.623   0.265   4.114
    3OL    H17R 6427   5.582   0.347   4.175
    3OL    H17S 6428   5.554   0.182   4.131
    3OL    C118 6429   5.622   0.303   3.966
    3OL    H18R 6430   5.673   0.222   3.913
    3OL    H18S 6431   5.677   0.394   3.943
    3OL    H18T 6432   5.520   0.308   3.925
    1PA    C116 6433   2.530  -0.856   3.984
    1PA    H16R 6434   2.458  -0.847   4.065
    1PA    H16S 6435   2.479  -0.922   3.914
    1PA    H16T 6436   2.544  -0.757   3.939
    1PA    C115 6437   2.661  -0.918   4.034
    1PA    H15R 6438   2.638  -1.001   4.101
    1PA    H15S 6439   2.715  -0.957   3.947
    1PA    C114 6440   2.731  -0.807   4.113
    1PA    H14R 6441   2.746  -0.724   4.044
    1PA    H14S 6442   2.666  -0.767   4.191
    1PA    C113 6443   2.854  -0.865   4.186
    1PA    H13R 6444   2.810  -0.923   4.267
    1PA    H13S 6445   2.906  -0.922   4.108
    1PA    C112 6446   2.940  -0.754   4.248
    1PA    H12R 6447   3.042  -0.791   4.259
    1PA    H12S 6448   2.962  -0.673   4.178
    1PA    C111 6449   2.886  -0.696   4.379
    1PA    H11R 6450   2.813  -0.618   4.357
    1PA    H11S 6451   2.831  -0.769   4.437
    1PA    C110 6452   2.994  -0.644   4.476
    1PA    H10R 6453   3.080  -0.711   4.468
    1PA    H10S 6454   3.035  -0.560   4.421
    1PA     C19 6455   2.950  -0.604   4.617
    1PA     H9R 6456   2.902  -0.690   4.665
    1PA     H9S 6457   3.038  -0.577   4.676
    1PA     C18 6458   2.841  -0.496   4.613
    1PA     H8R 6459   2.892  -0.415   4.561
    1PA     H8S 6460   2.753  -0.532   4.558
    1PA     C17 6461   2.791  -0.458   4.753
    1PA     H7R 6462   2.693  -0.410   4.746
    1PA     H7S 6463   2.772  -0.551   4.806
    1PA     C16 6464   2.889  -0.368   4.828
    1PA     H6R 6465   2.977  -0.433   4.839
    1PA     H6S 6466   2.916  -0.285   4.762
    1PA     C15 6467   2.834  -0.335   4.967
    1PA     H5R 6468   2.733  -0.294   4.963
    1PA     H5S 6469   2.824  -0.431   5.017
    1PA     C14 6470   2.928  -0.237   5.039
    1PA     H4R 6471   3.022  -0.287   5.064
    1PA     H4S 6472   2.950  -0.159   4.966
    1PA     C13 6473   2.867  -0.160   5.157
    1PA     H3R 6474   2.772  -0.111   5.132
    1PA     H3S 6475   2.851  -0.235   5.234
    1PA     C12 6476   2.964  -0.054   5.211
    1PA     H2R 6477   3.060  -0.090   5.246
    1PA     H2S 6478   2.993   0.010   5.128
    2PC     C11 6479   2.921   0.028   5.331
    2PC     O12 6480   2.826   0.001   5.401
    2PC     O11 6481   3.001   0.134   5.349
    2PC      C1 6482   2.985   0.214   5.468
    2PC      HR 6483   2.885   0.257   5.469
    2PC      HS 6484   3.003   0.141   5.547
    2PC      C2 6485   3.095   0.321   5.477
    2PC      HX 6486   3.188   0.262   5.483
    2PC      C3 6487   3.074   0.388   5.613
    2PC      HA 6488   3.043   0.322   5.694
    2PC      HB 6489   3.168   0.432   5.650
    2PC     O31 6490   2.965   0.482   5.608
    2PC     P31 6491   2.922   0.560   5.741
    2PC     O32 6492   2.769   0.513   5.740
    2PC     C31 6493   2.690   0.519   5.860
    2PC     H1A 6494   2.744   0.462   5.936
    2PC     H1B 6495   2.693   0.622   5.896
    2PC     C32 6496   2.544   0.477   5.836
    2PC     H2A 6497   2.490   0.464   5.929
    2PC     H2B 6498   2.499   0.563   5.787
    2PC     N31 6499   2.515   0.357   5.750
    2PC     C33 6500   2.368   0.327   5.755
    2PC     H3A 6501   2.340   0.300   5.857
    2PC     H3B 6502   2.307   0.413   5.728
    2PC     H3C 6503   2.352   0.234   5.700
    2PC     C34 6504   2.544   0.397   5.608
    2PC     H4A 6505   2.535   0.506   5.604
    2PC     H4B 6506   2.646   0.363   5.591
    2PC     H4C 6507   2.469   0.343   5.551
    2PC     C35 6508   2.584   0.230   5.787
    2PC     H5A 6509   2.521   0.191   5.866
    2PC     H5B 6510   2.683   0.242   5.831
    2PC     H5C 6511   2.584   0.158   5.704
    2PC     O33 6512   2.981   0.511   5.868
    2PC     O34 6513   2.941   0.707   5.731
    2PC     O21 6514   3.092   0.417   5.370
    2PC     C21 6515   3.205   0.489   5.362
    2PC     O22 6516   3.299   0.482   5.439
    3OL     C12 6517   3.211   0.590   5.250
    3OL     H2R 6518   3.217   0.687   5.300
    3OL     H2S 6519   3.121   0.578   5.189
    3OL     C13 6520   3.333   0.568   5.160
    3OL     H3R 6521   3.320   0.474   5.106
    3OL     H3S 6522   3.427   0.557   5.214
    3OL     C14 6523   3.346   0.674   5.050
    3OL     H4R 6524   3.364   0.772   5.095
    3OL     H4S 6525   3.256   0.688   4.989
    3OL     C15 6526   3.463   0.654   4.953
    3OL     H5R 6527   3.562   0.652   5.000
    3OL     H5S 6528   3.464   0.740   4.886
    3OL     C16 6529   3.447   0.530   4.863
    3OL     H6R 6530   3.403   0.446   4.917
    3OL     H6S 6531   3.546   0.508   4.823
    3OL     C17 6532   3.343   0.566   4.756
    3OL     H7R 6533   3.383   0.647   4.695
    3OL     H7S 6534   3.254   0.599   4.809
    3OL     C18 6535   3.323   0.438   4.674
    3OL     H8R 6536   3.287   0.357   4.737
    3OL     H8S 6537   3.417   0.401   4.634
    3OL     C19 6538   3.237   0.470   4.554
    3OL     H9R 6539   3.132   0.458   4.578
    3OL    C110 6540   3.276   0.513   4.435
    3OL    H10R 6541   3.207   0.531   4.353
    3OL    C111 6542   3.417   0.551   4.397
    3OL    H11R 6543   3.457   0.621   4.471
    3OL    H11S 6544   3.427   0.594   4.298
    3OL    C112 6545   3.517   0.435   4.384
    3OL    H12R 6546   3.544   0.387   4.478
    3OL    H12S 6547   3.609   0.481   4.345
    3OL    C113 6548   3.476   0.324   4.287
    3OL    H13R 6549   3.371   0.302   4.308
    3OL    H13S 6550   3.535   0.234   4.305
    3OL    C114 6551   3.477   0.355   4.137
    3OL    H14R 6552   3.580   0.385   4.116
    3OL    H14S 6553   3.407   0.436   4.118
    3OL    C115 6554   3.445   0.240   4.040
    3OL    H15R 6555   3.356   0.185   4.071
    3OL    H15S 6556   3.527   0.168   4.048
    3OL    C116 6557   3.434   0.284   3.894
    3OL    H16R 6558   3.467   0.205   3.827
    3OL    H16S 6559   3.510   0.362   3.882
    3OL    C117 6560   3.292   0.329   3.858
    3OL    H17R 6561   3.295   0.356   3.752
    3OL    H17S 6562   3.261   0.419   3.912
    3OL    C118 6563   3.181   0.225   3.878
    3OL    H18R 6564   3.209   0.121   3.861
    3OL    H18S 6565   3.094   0.252   3.818
    3OL    H18T 6566   3.153   0.234   3.983
    1PA    C116 6567   4.149   3.685   4.727
    1PA    H16R 6568   4.136   3.792   4.743
    1PA    H16S 6569   4.121   3.644   4.824
    1PA    H16T 6570   4.076   3.664   4.648
    1PA    C115 6571   4.287   3.651   4.671
    1PA    H15R 6572   4.285   3.542   4.661
    1PA    H15S 6573   4.301   3.699   4.573
    1PA    C114 6574   4.399   3.680   4.771
    1PA    H14R 6575   4.369   3.647   4.871
    1PA    H14S 6576   4.497   3.635   4.751
    1PA    C113 6577   4.418   3.833   4.779
    1PA    H13R 6578   4.448   3.861   4.677
    1PA    H13S 6579   4.323   3.881   4.802
    1PA    C112 6580   4.518   3.875   4.887
    1PA    H12R 6581   4.493   3.807   4.968
    1PA    H12S 6582   4.619   3.862   4.846
    1PA    C111 6583   4.519   4.023   4.928
    1PA    H11R 6584   4.420   4.024   4.975
    1PA    H11S 6585   4.576   4.040   5.020
    1PA    C110 6586   4.537   4.128   4.817
    1PA    H10R 6587   4.627   4.109   4.759
    1PA    H10S 6588   4.456   4.103   4.748
    1PA     C19 6589   4.521   4.265   4.885
    1PA     H9R 6590   4.422   4.271   4.931
    1PA     H9S 6591   4.590   4.283   4.967
    1PA     C18 6592   4.532   4.373   4.776
    1PA     H8R 6593   4.630   4.361   4.730
    1PA     H8S 6594   4.453   4.351   4.704
    1PA     C17 6595   4.507   4.517   4.824
    1PA     H7R 6596   4.507   4.581   4.735
    1PA     H7S 6597   4.405   4.521   4.863
    1PA     C16 6598   4.613   4.557   4.927
    1PA     H6R 6599   4.619   4.486   5.010
    1PA     H6S 6600   4.711   4.557   4.879
    1PA     C15 6601   4.583   4.697   4.982
    1PA     H5R 6602   4.559   4.759   4.895
    1PA     H5S 6603   4.488   4.703   5.036
    1PA     C14 6604   4.705   4.748   5.058
    1PA     H4R 6605   4.799   4.701   5.028
    1PA     H4S 6606   4.714   4.857   5.055
    1PA     C13 6607   4.690   4.708   5.206
    1PA     H3R 6608   4.655   4.604   5.206
    1PA     H3S 6609   4.791   4.717   5.247
    1PA     C12 6610   4.588   4.794   5.280
    1PA     H2R 6611   4.596   4.902   5.267
    1PA     H2S 6612   4.489   4.771   5.239
    2PC     C11 6613   4.590   4.769   5.429
    2PC     O12 6614   4.690   4.751   5.495
    2PC     O11 6615   4.465   4.781   5.475
    2PC      C1 6616   4.447   4.785   5.618
    2PC      HR 6617   4.484   4.695   5.668
    2PC      HS 6618   4.504   4.870   5.655
    2PC      C2 6619   4.295   4.801   5.634
    2PC      HX 6620   4.247   4.893   5.599
    2PC      C3 6621   4.260   4.788   5.783
    2PC      HA 6622   4.314   4.865   5.838
    2PC      HB 6623   4.154   4.806   5.802
    2PC     O31 6624   4.285   4.655   5.832
    2PC     P31 6625   4.224   4.612   5.974
    2PC     O32 6626   4.161   4.472   5.930
    2PC     C31 6627   4.171   4.356   6.015
    2PC     H1A 6628   4.275   4.325   6.024
    2PC     H1B 6629   4.135   4.376   6.116
    2PC     C32 6630   4.095   4.235   5.958
    2PC     H2A 6631   4.104   4.150   6.026
    2PC     H2B 6632   3.989   4.262   5.961
    2PC     N31 6633   4.129   4.185   5.821
    2PC     C33 6634   4.276   4.157   5.819
    2PC     H3A 6635   4.291   4.104   5.725
    2PC     H3B 6636   4.336   4.248   5.818
    2PC     H3C 6637   4.312   4.093   5.900
    2PC     C34 6638   4.051   4.060   5.793
    2PC     H4A 6639   3.945   4.082   5.811
    2PC     H4B 6640   4.076   4.033   5.690
    2PC     H4C 6641   4.091   3.994   5.870
    2PC     C35 6642   4.079   4.280   5.717
    2PC     H5A 6643   4.116   4.249   5.619
    2PC     H5B 6644   4.101   4.386   5.733
    2PC     H5C 6645   3.970   4.282   5.722
    2PC     O33 6646   4.328   4.599   6.079
    2PC     O34 6647   4.110   4.689   6.030
    2PC     O21 6648   4.224   4.702   5.558
    2PC     C21 6649   4.090   4.701   5.559
    2PC     O22 6650   4.015   4.791   5.591
    3OL     C12 6651   4.036   4.565   5.522
    3OL     H2R 6652   3.956   4.542   5.592
    3OL     H2S 6653   4.114   4.490   5.541
    3OL     C13 6654   3.989   4.564   5.376
    3OL     H3R 6655   4.072   4.603   5.317
    3OL     H3S 6656   3.906   4.634   5.363
    3OL     C14 6657   3.955   4.419   5.337
    3OL     H4R 6658   3.898   4.430   5.245
    3OL     H4S 6659   3.894   4.364   5.409
    3OL     C15 6660   4.081   4.340   5.300
    3OL     H5R 6661   4.132   4.324   5.395
    3OL     H5S 6662   4.142   4.404   5.236
    3OL     C16 6663   4.039   4.210   5.230
    3OL     H6R 6664   3.958   4.161   5.285
    3OL     H6S 6665   4.125   4.143   5.224
    3OL     C17 6666   3.994   4.233   5.085
    3OL     H7R 6667   4.054   4.303   5.026
    3OL     H7S 6668   3.896   4.281   5.082
    3OL     C18 6669   3.991   4.113   4.991
    3OL     H8R 6670   3.926   4.145   4.909
    3OL     H8S 6671   3.947   4.024   5.036
    3OL     C19 6672   4.124   4.076   4.929
    3OL     H9R 6673   4.212   4.060   4.991
    3OL    C110 6674   4.145   4.066   4.799
    3OL    H10R 6675   4.248   4.044   4.773
    3OL    C111 6676   4.045   4.086   4.688
    3OL    H11R 6677   4.010   4.189   4.678
    3OL    H11S 6678   3.955   4.026   4.701
    3OL    C112 6679   4.113   4.039   4.558
    3OL    H12R 6680   4.159   3.942   4.577
    3OL    H12S 6681   4.205   4.093   4.533
    3OL    C113 6682   4.014   4.017   4.443
    3OL    H13R 6683   3.927   3.959   4.476
    3OL    H13S 6684   4.074   3.960   4.372
    3OL    C114 6685   3.953   4.147   4.387
    3OL    H14R 6686   4.037   4.203   4.344
    3OL    H14S 6687   3.912   4.215   4.461
    3OL    C115 6688   3.855   4.121   4.271
    3OL    H15R 6689   3.759   4.099   4.318
    3OL    H15S 6690   3.904   4.038   4.219
    3OL    C116 6691   3.828   4.247   4.188
    3OL    H16R 6692   3.792   4.209   4.092
    3OL    H16S 6693   3.928   4.291   4.179
    3OL    C117 6694   3.741   4.346   4.266
    3OL    H17R 6695   3.783   4.354   4.367
    3OL    H17S 6696   3.645   4.297   4.283
    3OL    C118 6697   3.728   4.483   4.200
    3OL    H18R 6698   3.698   4.481   4.095
    3OL    H18S 6699   3.830   4.524   4.201
    3OL    H18T 6700   3.666   4.552   4.257
    1PA    C116 6701   2.169   6.193   3.863
    1PA    H16R 6702   2.209   6.220   3.961
    1PA    H16S 6703   2.115   6.273   3.813
    1PA    H16T 6704   2.252   6.166   3.797
    1PA    C115 6705   2.072   6.075   3.872
    1PA    H15R 6706   1.976   6.110   3.910
    1PA    H15S 6707   2.059   6.041   3.769
    1PA    C114 6708   2.147   5.966   3.949
    1PA    H14R 6709   2.237   5.930   3.899
    1PA    H14S 6710   2.179   6.001   4.048
    1PA    C113 6711   2.056   5.844   3.971
    1PA    H13R 6712   1.959   5.856   4.021
    1PA    H13S 6713   2.031   5.796   3.876
    1PA    C112 6714   2.125   5.730   4.047
    1PA    H12R 6715   2.078   5.634   4.026
    1PA    H12S 6716   2.231   5.720   4.027
    1PA    C111 6717   2.099   5.744   4.198
    1PA    H11R 6718   2.132   5.846   4.216
    1PA    H11S 6719   1.992   5.751   4.220
    1PA    C110 6720   2.167   5.636   4.283
    1PA    H10R 6721   2.124   5.539   4.260
    1PA    H10S 6722   2.274   5.635   4.261
    1PA     C19 6723   2.133   5.661   4.431
    1PA     H9R 6724   2.199   5.743   4.460
    1PA     H9S 6725   2.028   5.685   4.444
    1PA     C18 6726   2.164   5.541   4.523
    1PA     H8R 6727   2.099   5.456   4.501
    1PA     H8S 6728   2.263   5.509   4.491
    1PA     C17 6729   2.141   5.580   4.669
    1PA     H7R 6730   2.192   5.675   4.688
    1PA     H7S 6731   2.033   5.593   4.684
    1PA     C16 6732   2.186   5.472   4.768
    1PA     H6R 6733   2.141   5.378   4.735
    1PA     H6S 6734   2.294   5.456   4.762
    1PA     C15 6735   2.130   5.511   4.906
    1PA     H5R 6736   2.162   5.611   4.935
    1PA     H5S 6737   2.023   5.529   4.893
    1PA     C14 6738   2.169   5.410   5.015
    1PA     H4R 6739   2.145   5.309   4.980
    1PA     H4S 6740   2.274   5.418   5.041
    1PA     C13 6741   2.082   5.433   5.139
    1PA     H3R 6742   2.083   5.537   5.171
    1PA     H3S 6743   1.978   5.415   5.109
    1PA     C12 6744   2.113   5.338   5.255
    1PA     H2R 6745   2.078   5.238   5.227
    1PA     H2S 6746   2.221   5.349   5.265
    2PC     C11 6747   2.038   5.367   5.383
    2PC     O12 6748   1.919   5.375   5.404
    2PC     O11 6749   2.133   5.385   5.477
    2PC      C1 6750   2.093   5.401   5.614
    2PC      HR 6751   2.016   5.478   5.618
    2PC      HS 6752   2.053   5.313   5.664
    2PC      C2 6753   2.206   5.459   5.701
    2PC      HX 6754   2.287   5.386   5.700
    2PC      C3 6755   2.168   5.459   5.850
    2PC      HA 6756   2.170   5.358   5.893
    2PC      HB 6757   2.242   5.523   5.898
    2PC     O31 6758   2.041   5.521   5.879
    2PC     P31 6759   2.010   5.529   6.036
    2PC     O32 6760   1.906   5.408   6.055
    2PC     C31 6761   1.860   5.395   6.191
    2PC     H1A 6762   1.937   5.379   6.267
    2PC     H1B 6763   1.806   5.484   6.223
    2PC     C32 6764   1.780   5.264   6.201
    2PC     H2A 6765   1.724   5.270   6.294
    2PC     H2B 6766   1.719   5.249   6.112
    2PC     N31 6767   1.852   5.132   6.208
    2PC     C33 6768   1.754   5.019   6.212
    2PC     H3A 6769   1.815   4.930   6.205
    2PC     H3B 6770   1.700   5.019   6.307
    2PC     H3C 6771   1.685   5.040   6.130
    2PC     C34 6772   1.951   5.114   6.097
    2PC     H4A 6773   2.024   5.196   6.100
    2PC     H4B 6774   2.007   5.021   6.106
    2PC     H4C 6775   1.887   5.101   6.011
    2PC     C35 6776   1.928   5.128   6.337
    2PC     H5A 6777   1.932   5.024   6.371
    2PC     H5B 6778   1.863   5.179   6.408
    2PC     H5C 6779   2.018   5.189   6.324
    2PC     O33 6780   2.127   5.521   6.126
    2PC     O34 6781   1.936   5.646   6.086
    2PC     O21 6782   2.236   5.592   5.658
    2PC     C21 6783   2.353   5.615   5.594
    2PC     O22 6784   2.423   5.532   5.542
    3OL     C12 6785   2.391   5.761   5.596
    3OL     H2R 6786   2.408   5.793   5.699
    3OL     H2S 6787   2.315   5.836   5.572
    3OL     C13 6788   2.513   5.786   5.506
    3OL     H3R 6789   2.603   5.731   5.534
    3OL     H3S 6790   2.545   5.889   5.527
    3OL     C14 6791   2.478   5.787   5.356
    3OL     H4R 6792   2.398   5.860   5.338
    3OL     H4S 6793   2.439   5.686   5.341
    3OL     C15 6794   2.595   5.833   5.269
    3OL     H5R 6795   2.680   5.767   5.286
    3OL     H5S 6796   2.625   5.931   5.308
    3OL     C16 6797   2.565   5.833   5.119
    3OL     H6R 6798   2.646   5.880   5.064
    3OL     H6S 6799   2.484   5.906   5.115
    3OL     C17 6800   2.530   5.692   5.068
    3OL     H7R 6801   2.445   5.648   5.120
    3OL     H7S 6802   2.609   5.621   5.089
    3OL     C18 6803   2.502   5.680   4.917
    3OL     H8R 6804   2.440   5.761   4.878
    3OL     H8S 6805   2.451   5.584   4.910
    3OL     C19 6806   2.629   5.678   4.836
    3OL     H9R 6807   2.712   5.739   4.871
    3OL    C110 6808   2.633   5.622   4.716
    3OL    H10R 6809   2.722   5.638   4.656
    3OL    C111 6810   2.529   5.533   4.653
    3OL    H11R 6811   2.444   5.597   4.629
    3OL    H11S 6812   2.490   5.459   4.723
    3OL    C112 6813   2.577   5.461   4.526
    3OL    H12R 6814   2.625   5.525   4.452
    3OL    H12S 6815   2.490   5.409   4.483
    3OL    C113 6816   2.667   5.340   4.555
    3OL    H13R 6817   2.737   5.356   4.637
    3OL    H13S 6818   2.740   5.318   4.477
    3OL    C114 6819   2.594   5.207   4.583
    3OL    H14R 6820   2.518   5.191   4.506
    3OL    H14S 6821   2.553   5.221   4.683
    3OL    C115 6822   2.683   5.083   4.586
    3OL    H15R 6823   2.757   5.098   4.666
    3OL    H15S 6824   2.745   5.083   4.496
    3OL    C116 6825   2.627   4.941   4.604
    3OL    H16R 6826   2.530   4.961   4.648
    3OL    H16S 6827   2.694   4.880   4.666
    3OL    C117 6828   2.610   4.880   4.464
    3OL    H17R 6829   2.707   4.851   4.425
    3OL    H17S 6830   2.572   4.959   4.399
    3OL    C118 6831   2.520   4.756   4.458
    3OL    H18R 6832   2.417   4.784   4.481
    3OL    H18S 6833   2.556   4.673   4.520
    3OL    H18T 6834   2.514   4.716   4.356
    1PA    C116 6835   2.146   1.094   4.109
    1PA    H16R 6836   2.217   1.177   4.111
    1PA    H16S 6837   2.110   1.107   4.006
    1PA    H16T 6838   2.196   0.997   4.118
    1PA    C115 6839   2.035   1.111   4.214
    1PA    H15R 6840   2.000   1.214   4.208
    1PA    H15S 6841   1.948   1.046   4.203
    1PA    C114 6842   2.095   1.106   4.355
    1PA    H14R 6843   2.174   1.180   4.366
    1PA    H14S 6844   2.023   1.130   4.433
    1PA    C113 6845   2.152   0.966   4.384
    1PA    H13R 6846   2.075   0.896   4.348
    1PA    H13S 6847   2.231   0.942   4.313
    1PA    C112 6848   2.203   0.949   4.527
    1PA    H12R 6849   2.280   0.872   4.519
    1PA    H12S 6850   2.254   1.040   4.560
    1PA    C111 6851   2.096   0.909   4.629
    1PA    H11R 6852   2.008   0.971   4.611
    1PA    H11S 6853   2.070   0.805   4.604
    1PA    C110 6854   2.155   0.915   4.770
    1PA    H10R 6855   2.227   0.997   4.777
    1PA    H10S 6856   2.078   0.934   4.846
    1PA     C19 6857   2.219   0.781   4.809
    1PA     H9R 6858   2.296   0.750   4.739
    1PA     H9S 6859   2.275   0.796   4.902
    1PA     C18 6860   2.120   0.665   4.820
    1PA     H8R 6861   2.064   0.659   4.726
    1PA     H8S 6862   2.180   0.574   4.822
    1PA     C17 6863   2.041   0.675   4.952
    1PA     H7R 6864   2.118   0.704   5.024
    1PA     H7S 6865   1.970   0.759   4.957
    1PA     C16 6866   1.977   0.541   4.990
    1PA     H6R 6867   1.893   0.525   4.922
    1PA     H6S 6868   2.053   0.466   4.969
    1PA     C15 6869   1.921   0.524   5.132
    1PA     H5R 6870   1.876   0.426   5.150
    1PA     H5S 6871   2.003   0.524   5.204
    1PA     C14 6872   1.827   0.639   5.171
    1PA     H4R 6873   1.886   0.731   5.181
    1PA     H4S 6874   1.756   0.651   5.089
    1PA     C13 6875   1.765   0.619   5.310
    1PA     H3R 6876   1.715   0.522   5.312
    1PA     H3S 6877   1.839   0.639   5.387
    1PA     C12 6878   1.658   0.717   5.361
    1PA     H2R 6879   1.683   0.823   5.365
    1PA     H2S 6880   1.568   0.717   5.300
    2PC     C11 6881   1.614   0.694   5.503
    2PC     O12 6882   1.669   0.743   5.599
    2PC     O11 6883   1.524   0.594   5.512
    2PC      C1 6884   1.495   0.544   5.644
    2PC      HR 6885   1.433   0.454   5.641
    2PC      HS 6886   1.589   0.518   5.694
    2PC      C2 6887   1.425   0.651   5.730
    2PC      HX 6888   1.468   0.752   5.726
    2PC      C3 6889   1.425   0.611   5.878
    2PC      HA 6890   1.364   0.522   5.898
    2PC      HB 6891   1.527   0.602   5.915
    2PC     O31 6892   1.352   0.711   5.952
    2PC     P31 6893   1.336   0.690   6.110
    2PC     O32 6894   1.289   0.540   6.140
    2PC     C31 6895   1.199   0.520   6.250
    2PC     H1A 6896   1.127   0.603   6.255
    2PC     H1B 6897   1.140   0.428   6.245
    2PC     C32 6898   1.276   0.512   6.382
    2PC     H2A 6899   1.361   0.444   6.372
    2PC     H2B 6900   1.324   0.607   6.404
    2PC     N31 6901   1.221   0.443   6.503
    2PC     C33 6902   1.334   0.411   6.596
    2PC     H3A 6903   1.388   0.503   6.616
    2PC     H3B 6904   1.296   0.359   6.684
    2PC     H3C 6905   1.392   0.333   6.546
    2PC     C34 6906   1.127   0.541   6.566
    2PC     H4A 6907   1.053   0.481   6.620
    2PC     H4B 6908   1.187   0.606   6.630
    2PC     H4C 6909   1.067   0.597   6.493
    2PC     C35 6910   1.146   0.315   6.482
    2PC     H5A 6911   1.055   0.330   6.424
    2PC     H5B 6912   1.117   0.276   6.580
    2PC     H5C 6913   1.216   0.248   6.432
    2PC     O33 6914   1.465   0.725   6.174
    2PC     O34 6915   1.237   0.787   6.160
    2PC     O21 6916   1.293   0.669   5.676
    2PC     C21 6917   1.194   0.579   5.684
    2PC     O22 6918   1.207   0.473   5.742
    3OL     C12 6919   1.058   0.621   5.635
    3OL     H2R 6920   1.069   0.728   5.614
    3OL     H2S 6921   0.981   0.605   5.711
    3OL     C13 6922   1.018   0.538   5.513
    3OL     H3R 6923   0.939   0.591   5.460
    3OL     H3S 6924   0.990   0.444   5.562
    3OL     C14 6925   1.131   0.507   5.415
    3OL     H4R 6926   1.081   0.443   5.341
    3OL     H4S 6927   1.210   0.443   5.454
    3OL     C15 6928   1.172   0.632   5.336
    3OL     H5R 6929   1.241   0.691   5.396
    3OL     H5S 6930   1.082   0.686   5.305
    3OL     C16 6931   1.260   0.608   5.212
    3OL     H6R 6932   1.211   0.542   5.141
    3OL     H6S 6933   1.357   0.563   5.235
    3OL     C17 6934   1.301   0.738   5.141
    3OL     H7R 6935   1.375   0.793   5.199
    3OL     H7S 6936   1.214   0.803   5.126
    3OL     C18 6937   1.356   0.698   5.003
    3OL     H8R 6938   1.380   0.795   4.958
    3OL     H8S 6939   1.286   0.657   4.931
    3OL     C19 6940   1.483   0.616   5.003
    3OL     H9R 6941   1.509   0.574   5.100
    3OL    C110 6942   1.561   0.598   4.897
    3OL    H10R 6943   1.643   0.529   4.909
    3OL    C111 6944   1.553   0.657   4.759
    3OL    H11R 6945   1.459   0.711   4.745
    3OL    H11S 6946   1.555   0.579   4.682
    3OL    C112 6947   1.665   0.754   4.720
    3OL    H12R 6948   1.755   0.693   4.716
    3OL    H12S 6949   1.692   0.821   4.803
    3OL    C113 6950   1.637   0.830   4.590
    3OL    H13R 6951   1.721   0.900   4.581
    3OL    H13S 6952   1.543   0.886   4.592
    3OL    C114 6953   1.644   0.748   4.461
    3OL    H14R 6954   1.570   0.668   4.473
    3OL    H14S 6955   1.746   0.711   4.446
    3OL    C115 6956   1.602   0.829   4.337
    3OL    H15R 6957   1.494   0.826   4.324
    3OL    H15S 6958   1.643   0.771   4.254
    3OL    C116 6959   1.638   0.978   4.338
    3OL    H16R 6960   1.744   0.991   4.362
    3OL    H16S 6961   1.589   1.029   4.421
    3OL    C117 6962   1.615   1.057   4.209
    3OL    H17R 6963   1.508   1.042   4.192
    3OL    H17S 6964   1.671   1.008   4.130
    3OL    C118 6965   1.630   1.210   4.223
    3OL    H18R 6966   1.734   1.234   4.243
    3OL    H18S 6967   1.571   1.245   4.308
    3OL    H18T 6968   1.587   1.252   4.132
    1PA    C116 6969   3.954   1.140   3.862
    1PA    H16R 6970   4.029   1.060   3.851
    1PA    H16S 6971   3.995   1.227   3.913
    1PA    H16T 6972   3.912   1.171   3.766
    1PA    C115 6973   3.835   1.100   3.950
    1PA    H15R 6974   3.772   1.027   3.900
    1PA    H15S 6975   3.871   1.049   4.040
    1PA    C114 6976   3.759   1.229   3.985
    1PA    H14R 6977   3.828   1.291   4.042
    1PA    H14S 6978   3.724   1.286   3.899
    1PA    C113 6979   3.646   1.212   4.087
    1PA    H13R 6980   3.555   1.158   4.059
    1PA    H13S 6981   3.684   1.177   4.183
    1PA    C112 6982   3.588   1.349   4.125
    1PA    H12R 6983   3.669   1.422   4.132
    1PA    H12S 6984   3.522   1.385   4.046
    1PA    C111 6985   3.504   1.339   4.254
    1PA    H11R 6986   3.420   1.275   4.227
    1PA    H11S 6987   3.556   1.285   4.333
    1PA    C110 6988   3.458   1.474   4.310
    1PA    H10R 6989   3.539   1.542   4.335
    1PA    H10S 6990   3.389   1.524   4.241
    1PA     C19 6991   3.368   1.450   4.432
    1PA     H9R 6992   3.280   1.393   4.401
    1PA     H9S 6993   3.427   1.396   4.506
    1PA     C18 6994   3.315   1.580   4.494
    1PA     H8R 6995   3.387   1.658   4.520
    1PA     H8S 6996   3.262   1.631   4.413
    1PA     C17 6997   3.211   1.570   4.606
    1PA     H7R 6998   3.164   1.667   4.623
    1PA     H7S 6999   3.124   1.512   4.573
    1PA     C16 7000   3.275   1.516   4.734
    1PA     H6R 7001   3.333   1.425   4.721
    1PA     H6S 7002   3.342   1.594   4.771
    1PA     C15 7003   3.169   1.487   4.842
    1PA     H5R 7004   3.118   1.578   4.875
    1PA     H5S 7005   3.100   1.417   4.794
    1PA     C14 7006   3.239   1.415   4.958
    1PA     H4R 7007   3.282   1.328   4.909
    1PA     H4S 7008   3.325   1.469   4.999
    1PA     C13 7009   3.143   1.370   5.069
    1PA     H3R 7010   3.117   1.464   5.119
    1PA     H3S 7011   3.051   1.326   5.031
    1PA     C12 7012   3.222   1.283   5.168
    1PA     H2R 7013   3.224   1.187   5.116
    1PA     H2S 7014   3.323   1.322   5.183
    2PC     C11 7015   3.149   1.260   5.299
    2PC     O12 7016   3.193   1.189   5.386
    2PC     O11 7017   3.037   1.333   5.310
    2PC      C1 7018   2.960   1.326   5.431
    2PC      HR 7019   2.852   1.339   5.423
    2PC      HS 7020   2.979   1.230   5.481
    2PC      C2 7021   3.009   1.441   5.520
    2PC      HX 7022   3.118   1.432   5.527
    2PC      C3 7023   2.947   1.439   5.661
    2PC      HA 7024   2.841   1.466   5.652
    2PC      HB 7025   2.953   1.335   5.694
    2PC     O31 7026   3.022   1.524   5.749
    2PC     P31 7027   3.176   1.490   5.776
    2PC     O32 7028   3.210   1.532   5.927
    2PC     C31 7029   3.221   1.672   5.960
    2PC     H1A 7030   3.314   1.719   5.929
    2PC     H1B 7031   3.141   1.728   5.911
    2PC     C32 7032   3.209   1.688   6.112
    2PC     H2A 7033   3.201   1.795   6.131
    2PC     H2B 7034   3.119   1.644   6.154
    2PC     N31 7035   3.318   1.646   6.205
    2PC     C33 7036   3.318   1.496   6.217
    2PC     H3A 7037   3.337   1.450   6.120
    2PC     H3B 7038   3.398   1.489   6.291
    2PC     H3C 7039   3.218   1.471   6.253
    2PC     C34 7040   3.459   1.681   6.168
    2PC     H4A 7041   3.471   1.789   6.169
    2PC     H4B 7042   3.526   1.633   6.240
    2PC     H4C 7043   3.493   1.638   6.074
    2PC     C35 7044   3.287   1.706   6.339
    2PC     H5A 7045   3.302   1.813   6.332
    2PC     H5B 7046   3.353   1.667   6.417
    2PC     H5C 7047   3.187   1.680   6.373
    2PC     O33 7048   3.201   1.345   5.759
    2PC     O34 7049   3.257   1.557   5.672
    2PC     O21 7050   2.968   1.568   5.466
    2PC     C21 7051   3.050   1.633   5.383
    2PC     O22 7052   3.154   1.591   5.336
    3OL     C12 7053   2.995   1.767   5.342
    3OL     H2R 7054   3.064   1.849   5.364
    3OL     H2S 7055   2.910   1.805   5.400
    3OL     C13 7056   2.951   1.777   5.195
    3OL     H3R 7057   2.851   1.734   5.187
    3OL     H3S 7058   3.007   1.704   5.135
    3OL     C14 7059   2.962   1.914   5.127
    3OL     H4R 7060   2.903   1.899   5.036
    3OL     H4S 7061   3.063   1.929   5.088
    3OL     C15 7062   2.900   2.026   5.212
    3OL     H5R 7063   2.948   2.053   5.306
    3OL     H5S 7064   2.795   2.013   5.237
    3OL     C16 7065   2.891   2.150   5.122
    3OL     H6R 7066   2.843   2.225   5.185
    3OL     H6S 7067   2.835   2.128   5.031
    3OL     C17 7068   3.023   2.220   5.086
    3OL     H7R 7069   3.094   2.150   5.043
    3OL     H7S 7070   3.061   2.259   5.180
    3OL     C18 7071   2.996   2.339   4.992
    3OL     H8R 7072   2.905   2.392   5.022
    3OL     H8S 7073   2.984   2.295   4.893
    3OL     C19 7074   3.115   2.432   4.996
    3OL     H9R 7075   3.156   2.437   5.096
    3OL    C110 7076   3.173   2.491   4.893
    3OL    H10R 7077   3.266   2.546   4.907
    3OL    C111 7078   3.114   2.510   4.756
    3OL    H11R 7079   3.137   2.613   4.728
    3OL    H11S 7080   3.005   2.504   4.758
    3OL    C112 7081   3.169   2.412   4.651
    3OL    H12R 7082   3.140   2.311   4.681
    3OL    H12S 7083   3.278   2.408   4.646
    3OL    C113 7084   3.121   2.444   4.509
    3OL    H13R 7085   3.172   2.533   4.472
    3OL    H13S 7086   3.011   2.446   4.507
    3OL    C114 7087   3.163   2.333   4.411
    3OL    H14R 7088   3.135   2.234   4.446
    3OL    H14S 7089   3.272   2.325   4.406
    3OL    C115 7090   3.120   2.356   4.266
    3OL    H15R 7091   3.033   2.422   4.263
    3OL    H15S 7092   3.095   2.262   4.217
    3OL    C116 7093   3.223   2.430   4.178
    3OL    H16R 7094   3.245   2.525   4.227
    3OL    H16S 7095   3.181   2.463   4.083
    3OL    C117 7096   3.356   2.356   4.157
    3OL    H17R 7097   3.344   2.250   4.135
    3OL    H17S 7098   3.403   2.353   4.256
    3OL    C118 7099   3.440   2.430   4.053
    3OL    H18R 7100   3.410   2.403   3.951
    3OL    H18S 7101   3.542   2.390   4.065
    3OL    H18T 7102   3.432   2.539   4.054
    1PA    C116 7103   3.002   0.472   4.147
    1PA    H16R 7104   3.030   0.578   4.149
    1PA    H16S 7105   2.978   0.442   4.045
    1PA    H16T 7106   3.087   0.408   4.168
    1PA    C115 7107   2.881   0.436   4.235
    1PA    H15R 7108   2.918   0.458   4.336
    1PA    H15S 7109   2.797   0.501   4.214
    1PA    C114 7110   2.845   0.288   4.215
    1PA    H14R 7111   2.819   0.271   4.110
    1PA    H14S 7112   2.929   0.219   4.226
    1PA    C113 7113   2.743   0.236   4.318
    1PA    H13R 7114   2.788   0.234   4.417
    1PA    H13S 7115   2.671   0.318   4.323
    1PA    C112 7116   2.665   0.113   4.271
    1PA    H12R 7117   2.642   0.143   4.168
    1PA    H12S 7118   2.731   0.028   4.252
    1PA    C111 7119   2.545   0.088   4.364
    1PA    H11R 7120   2.495   0.183   4.386
    1PA    H11S 7121   2.474   0.030   4.304
    1PA    C110 7122   2.585   0.023   4.496
    1PA    H10R 7123   2.633  -0.073   4.472
    1PA    H10S 7124   2.663   0.080   4.548
    1PA     C19 7125   2.466   0.008   4.591
    1PA     H9R 7126   2.425   0.108   4.608
    1PA     H9S 7127   2.390  -0.051   4.539
    1PA     C18 7128   2.512  -0.072   4.714
    1PA     H8R 7129   2.520  -0.178   4.690
    1PA     H8S 7130   2.607  -0.036   4.754
    1PA     C17 7131   2.414  -0.048   4.829
    1PA     H7R 7132   2.423   0.058   4.853
    1PA     H7S 7133   2.310  -0.077   4.808
    1PA     C16 7134   2.473  -0.126   4.947
    1PA     H6R 7135   2.484  -0.232   4.920
    1PA     H6S 7136   2.577  -0.096   4.966
    1PA     C15 7137   2.393  -0.107   5.076
    1PA     H5R 7138   2.381   0.001   5.077
    1PA     H5S 7139   2.294  -0.148   5.052
    1PA     C14 7140   2.463  -0.171   5.197
    1PA     H4R 7141   2.480  -0.274   5.168
    1PA     H4S 7142   2.548  -0.107   5.221
    1PA     C13 7143   2.360  -0.174   5.312
    1PA     H3R 7144   2.331  -0.079   5.356
    1PA     H3S 7145   2.265  -0.214   5.276
    1PA     C12 7146   2.404  -0.263   5.428
    1PA     H2R 7147   2.410  -0.369   5.403
    1PA     H2S 7148   2.508  -0.238   5.452
    2PC     C11 7149   2.313  -0.242   5.547
    2PC     O12 7150   2.358  -0.247   5.659
    2PC     O11 7151   2.184  -0.227   5.515
    2PC      C1 7152   2.095  -0.172   5.614
    2PC      HR 7153   1.990  -0.186   5.587
    2PC      HS 7154   2.114  -0.236   5.700
    2PC      C2 7155   2.128  -0.024   5.640
    2PC      HX 7156   2.236  -0.009   5.630
    2PC      C3 7157   2.102   0.013   5.786
    2PC      HA 7158   1.994   0.023   5.800
    2PC      HB 7159   2.145  -0.067   5.848
    2PC     O31 7160   2.166   0.133   5.833
    2PC     P31 7161   2.147   0.165   5.989
    2PC     O32 7162   2.001   0.232   5.990
    2PC     C31 7163   1.989   0.341   6.084
    2PC     H1A 7164   2.031   0.333   6.184
    2PC     H1B 7165   2.044   0.421   6.034
    2PC     C32 7166   1.841   0.382   6.086
    2PC     H2A 7167   1.838   0.485   6.121
    2PC     H2B 7168   1.807   0.389   5.982
    2PC     N31 7169   1.743   0.295   6.158
    2PC     C33 7170   1.734   0.168   6.079
    2PC     H3A 7171   1.666   0.102   6.134
    2PC     H3B 7172   1.705   0.191   5.977
    2PC     H3C 7173   1.834   0.123   6.082
    2PC     C34 7174   1.784   0.273   6.300
    2PC     H4A 7175   1.767   0.362   6.362
    2PC     H4B 7176   1.727   0.184   6.327
    2PC     H4C 7177   1.891   0.255   6.296
    2PC     C35 7178   1.615   0.372   6.140
    2PC     H5A 7179   1.613   0.460   6.205
    2PC     H5B 7180   1.534   0.307   6.173
    2PC     H5C 7181   1.607   0.405   6.036
    2PC     O33 7182   2.152   0.037   6.064
    2PC     O34 7183   2.244   0.260   6.047
    2PC     O21 7184   2.046   0.059   5.556
    2PC     C21 7185   2.107   0.172   5.516
    2PC     O22 7186   2.219   0.207   5.548
    3OL     C12 7187   2.040   0.241   5.400
    3OL     H2R 7188   2.026   0.348   5.414
    3OL     H2S 7189   1.942   0.197   5.382
    3OL     C13 7190   2.129   0.215   5.278
    3OL     H3R 7191   2.067   0.229   5.189
    3OL     H3S 7192   2.163   0.111   5.278
    3OL     C14 7193   2.247   0.313   5.270
    3OL     H4R 7194   2.329   0.302   5.341
    3OL     H4S 7195   2.202   0.412   5.263
    3OL     C15 7196   2.310   0.292   5.131
    3OL     H5R 7197   2.234   0.305   5.054
    3OL     H5S 7198   2.338   0.187   5.120
    3OL     C16 7199   2.430   0.383   5.104
    3OL     H6R 7200   2.495   0.365   5.191
    3OL     H6S 7201   2.410   0.490   5.112
    3OL     C17 7202   2.505   0.343   4.976
    3OL     H7R 7203   2.511   0.237   4.954
    3OL     H7S 7204   2.607   0.383   4.984
    3OL     C18 7205   2.446   0.404   4.848
    3OL     H8R 7206   2.462   0.511   4.859
    3OL     H8S 7207   2.339   0.381   4.848
    3OL     C19 7208   2.503   0.345   4.721
    3OL     H9R 7209   2.527   0.239   4.729
    3OL    C110 7210   2.538   0.413   4.613
    3OL    H10R 7211   2.584   0.349   4.538
    3OL    C111 7212   2.539   0.563   4.598
    3OL    H11R 7213   2.504   0.608   4.691
    3OL    H11S 7214   2.474   0.591   4.514
    3OL    C112 7215   2.672   0.631   4.564
    3OL    H12R 7216   2.652   0.738   4.574
    3OL    H12S 7217   2.707   0.609   4.463
    3OL    C113 7218   2.779   0.587   4.665
    3OL    H13R 7219   2.798   0.480   4.653
    3OL    H13S 7220   2.732   0.613   4.760
    3OL    C114 7221   2.907   0.670   4.650
    3OL    H14R 7222   2.891   0.764   4.596
    3OL    H14S 7223   2.988   0.609   4.611
    3OL    C115 7224   2.963   0.711   4.787
    3OL    H15R 7225   3.066   0.746   4.785
    3OL    H15S 7226   2.962   0.627   4.857
    3OL    C116 7227   2.893   0.831   4.853
    3OL    H16R 7228   2.792   0.801   4.881
    3OL    H16S 7229   2.893   0.917   4.786
    3OL    C117 7230   2.962   0.877   4.982
    3OL    H17R 7231   2.995   0.787   5.034
    3OL    H17S 7232   2.890   0.938   5.037
    3OL    C118 7233   3.088   0.962   4.960
    3OL    H18R 7234   3.064   1.049   4.898
    3OL    H18S 7235   3.166   0.898   4.919
    3OL    H18T 7236   3.118   1.007   5.055
    1PA    C116 7237   2.805   2.390   3.819
    1PA    H16R 7238   2.741   2.478   3.823
    1PA    H16S 7239   2.902   2.411   3.772
    1PA    H16T 7240   2.830   2.357   3.920
    1PA    C115 7241   2.733   2.275   3.748
    1PA    H15R 7242   2.683   2.313   3.659
    1PA    H15S 7243   2.818   2.216   3.713
    1PA    C114 7244   2.643   2.196   3.844
    1PA    H14R 7245   2.604   2.111   3.787
    1PA    H14S 7246   2.707   2.149   3.920
    1PA    C113 7247   2.539   2.284   3.913
    1PA    H13R 7248   2.582   2.344   3.994
    1PA    H13S 7249   2.499   2.357   3.842
    1PA    C112 7250   2.429   2.196   3.974
    1PA    H12R 7251   2.336   2.252   3.984
    1PA    H12S 7252   2.405   2.114   3.907
    1PA    C111 7253   2.471   2.131   4.107
    1PA    H11R 7254   2.554   2.062   4.091
    1PA    H11S 7255   2.521   2.202   4.174
    1PA    C110 7256   2.352   2.078   4.187
    1PA    H10R 7257   2.274   2.154   4.198
    1PA    H10S 7258   2.309   1.992   4.134
    1PA     C19 7259   2.400   2.040   4.328
    1PA     H9R 7260   2.464   1.951   4.320
    1PA     H9S 7261   2.450   2.122   4.378
    1PA     C18 7262   2.277   2.006   4.412
    1PA     H8R 7263   2.202   2.085   4.420
    1PA     H8S 7264   2.230   1.916   4.371
    1PA     C17 7265   2.311   1.981   4.560
    1PA     H7R 7266   2.395   1.912   4.571
    1PA     H7S 7267   2.340   2.069   4.617
    1PA     C16 7268   2.196   1.914   4.637
    1PA     H6R 7269   2.102   1.958   4.604
    1PA     H6S 7270   2.187   1.808   4.610
    1PA     C15 7271   2.213   1.920   4.789
    1PA     H5R 7272   2.223   2.026   4.816
    1PA     H5S 7273   2.125   1.871   4.831
    1PA     C14 7274   2.336   1.845   4.843
    1PA     H4R 7275   2.325   1.741   4.811
    1PA     H4S 7276   2.431   1.889   4.811
    1PA     C13 7277   2.331   1.851   4.996
    1PA     H3R 7278   2.313   1.956   5.021
    1PA     H3S 7279   2.245   1.795   5.034
    1PA     C12 7280   2.462   1.797   5.055
    1PA     H2R 7281   2.479   1.697   5.013
    1PA     H2S 7282   2.553   1.852   5.032
    2PC     C11 7283   2.459   1.785   5.205
    2PC     O12 7284   2.359   1.779   5.275
    2PC     O11 7285   2.583   1.802   5.254
    2PC      C1 7286   2.600   1.786   5.396
    2PC      HR 7287   2.701   1.811   5.427
    2PC      HS 7288   2.533   1.854   5.449
    2PC      C2 7289   2.562   1.645   5.442
    2PC      HX 7290   2.458   1.616   5.424
    2PC      C3 7291   2.591   1.628   5.592
    2PC      HA 7292   2.697   1.654   5.604
    2PC      HB 7293   2.530   1.705   5.639
    2PC     O31 7294   2.568   1.498   5.647
    2PC     P31 7295   2.589   1.476   5.805
    2PC     O32 7296   2.672   1.339   5.801
    2PC     C31 7297   2.742   1.311   5.924
    2PC     H1A 7298   2.805   1.398   5.941
    2PC     H1B 7299   2.675   1.305   6.010
    2PC     C32 7300   2.825   1.182   5.912
    2PC     H2A 7301   2.759   1.095   5.911
    2PC     H2B 7302   2.870   1.177   5.813
    2PC     N31 7303   2.929   1.156   6.016
    2PC     C33 7304   2.993   1.031   5.963
    2PC     H3A 7305   3.081   1.018   6.026
    2PC     H3B 7306   2.926   0.948   5.985
    2PC     H3C 7307   3.010   1.040   5.855
    2PC     C34 7308   3.021   1.273   6.030
    2PC     H4A 7309   3.087   1.276   6.117
    2PC     H4B 7310   3.078   1.281   5.937
    2PC     H4C 7311   2.959   1.362   6.045
    2PC     C35 7312   2.856   1.146   6.146
    2PC     H5A 7313   2.795   1.233   6.168
    2PC     H5B 7314   2.939   1.137   6.216
    2PC     H5C 7315   2.793   1.057   6.154
    2PC     O33 7316   2.657   1.582   5.882
    2PC     O34 7317   2.463   1.439   5.873
    2PC     O21 7318   2.652   1.556   5.373
    2PC     C21 7319   2.602   1.494   5.265
    2PC     O22 7320   2.483   1.477   5.248
    3OL     C12 7321   2.711   1.448   5.172
    3OL     H2R 7322   2.722   1.339   5.179
    3OL     H2S 7323   2.806   1.472   5.220
    3OL     C13 7324   2.697   1.509   5.032
    3OL     H3R 7325   2.696   1.618   5.030
    3OL     H3S 7326   2.604   1.472   4.987
    3OL     C14 7327   2.802   1.459   4.932
    3OL     H4R 7328   2.797   1.350   4.933
    3OL     H4S 7329   2.901   1.494   4.961
    3OL     C15 7330   2.782   1.500   4.785
    3OL     H5R 7331   2.709   1.438   4.732
    3OL     H5S 7332   2.876   1.498   4.730
    3OL     C16 7333   2.723   1.640   4.765
    3OL     H6R 7334   2.637   1.657   4.830
    3OL     H6S 7335   2.676   1.644   4.666
    3OL     C17 7336   2.825   1.754   4.771
    3OL     H7R 7337   2.907   1.748   4.699
    3OL     H7S 7338   2.860   1.746   4.874
    3OL     C18 7339   2.756   1.889   4.754
    3OL     H8R 7340   2.676   1.901   4.828
    3OL     H8S 7341   2.710   1.887   4.655
    3OL     C19 7342   2.859   1.999   4.767
    3OL     H9R 7343   2.918   2.002   4.859
    3OL    C110 7344   2.877   2.094   4.677
    3OL    H10R 7345   2.949   2.170   4.706
    3OL    C111 7346   2.827   2.101   4.535
    3OL    H11R 7347   2.845   2.202   4.497
    3OL    H11S 7348   2.720   2.082   4.530
    3OL    C112 7349   2.904   1.993   4.456
    3OL    H12R 7350   2.874   1.898   4.500
    3OL    H12S 7351   3.012   2.005   4.459
    3OL    C113 7352   2.861   2.004   4.309
    3OL    H13R 7353   2.896   2.100   4.271
    3OL    H13S 7354   2.752   1.995   4.311
    3OL    C114 7355   2.919   1.884   4.232
    3OL    H14R 7356   2.864   1.796   4.266
    3OL    H14S 7357   3.023   1.864   4.259
    3OL    C115 7358   2.888   1.902   4.083
    3OL    H15R 7359   2.787   1.937   4.062
    3OL    H15S 7360   2.901   1.809   4.026
    3OL    C116 7361   2.979   2.004   4.013
    3OL    H16R 7362   2.978   2.104   4.058
    3OL    H16S 7363   2.956   2.012   3.907
    3OL    C117 7364   3.125   1.957   4.010
    3OL    H17R 7365   3.129   1.854   3.974
    3OL    H17S 7366   3.161   1.958   4.113
    3OL    C118 7367   3.207   2.054   3.925
    3OL    H18R 7368   3.186   2.148   3.976
    3OL    H18S 7369   3.179   2.056   3.819
    3OL    H18T 7370   3.313   2.031   3.939
    1PA    C116 7371   5.306   5.719   4.640
    1PA    H16R 7372   5.248   5.789   4.701
    1PA    H16S 7373   5.412   5.731   4.664
    1PA    H16T 7374   5.267   5.619   4.655
    1PA    C115 7375   5.288   5.771   4.497
    1PA    H15R 7376   5.355   5.711   4.436
    1PA    H15S 7377   5.186   5.756   4.461
    1PA    C114 7378   5.341   5.914   4.482
    1PA    H14R 7379   5.437   5.933   4.533
    1PA    H14S 7380   5.360   5.931   4.376
    1PA    C113 7381   5.245   6.026   4.525
    1PA    H13R 7382   5.187   5.981   4.605
    1PA    H13S 7383   5.299   6.103   4.580
    1PA    C112 7384   5.174   6.111   4.418
    1PA    H12R 7385   5.136   6.199   4.470
    1PA    H12S 7386   5.241   6.146   4.339
    1PA    C111 7387   5.063   6.025   4.358
    1PA    H11R 7388   5.102   5.971   4.271
    1PA    H11S 7389   5.022   5.962   4.438
    1PA    C110 7390   4.953   6.121   4.310
    1PA    H10R 7391   4.913   6.162   4.403
    1PA    H10S 7392   5.004   6.199   4.253
    1PA     C19 7393   4.840   6.065   4.224
    1PA     H9R 7394   4.753   6.131   4.231
    1PA     H9S 7395   4.872   6.067   4.119
    1PA     C18 7396   4.812   5.920   4.268
    1PA     H8R 7397   4.885   5.849   4.229
    1PA     H8S 7398   4.818   5.908   4.376
    1PA     C17 7399   4.672   5.876   4.221
    1PA     H7R 7400   4.659   5.908   4.118
    1PA     H7S 7401   4.670   5.767   4.219
    1PA     C16 7402   4.566   5.922   4.321
    1PA     H6R 7403   4.599   6.016   4.367
    1PA     H6S 7404   4.472   5.945   4.269
    1PA     C15 7405   4.566   5.832   4.446
    1PA     H5R 7406   4.549   5.727   4.424
    1PA     H5S 7407   4.663   5.846   4.495
    1PA     C14 7408   4.457   5.880   4.542
    1PA     H4R 7409   4.483   5.983   4.567
    1PA     H4S 7410   4.353   5.884   4.510
    1PA     C13 7411   4.466   5.788   4.665
    1PA     H3R 7412   4.446   5.683   4.641
    1PA     H3S 7413   4.566   5.798   4.706
    1PA     C12 7414   4.370   5.844   4.771
    1PA     H2R 7415   4.332   5.944   4.749
    1PA     H2S 7416   4.281   5.781   4.775
    2PC     C11 7417   4.437   5.854   4.906
    2PC     O12 7418   4.498   5.952   4.945
    2PC     O11 7419   4.397   5.750   4.982
    2PC      C1 7420   4.445   5.740   5.117
    2PC      HR 7421   4.554   5.747   5.118
    2PC      HS 7422   4.394   5.817   5.176
    2PC      C2 7423   4.409   5.602   5.173
    2PC      HX 7424   4.300   5.599   5.175
    2PC      C3 7425   4.479   5.567   5.305
    2PC      HA 7426   4.558   5.493   5.287
    2PC      HB 7427   4.534   5.650   5.349
    2PC     O31 7428   4.383   5.514   5.398
    2PC     P31 7429   4.330   5.619   5.507
    2PC     O32 7430   4.178   5.572   5.520
    2PC     C31 7431   4.097   5.552   5.402
    2PC     H1A 7432   4.097   5.630   5.326
    2PC     H1B 7433   4.148   5.475   5.344
    2PC     C32 7434   3.957   5.499   5.433
    2PC     H2A 7435   3.900   5.514   5.341
    2PC     H2B 7436   3.962   5.393   5.458
    2PC     N31 7437   3.870   5.577   5.527
    2PC     C33 7438   3.832   5.705   5.460
    2PC     H3A 7439   3.922   5.766   5.469
    2PC     H3B 7440   3.803   5.694   5.355
    2PC     H3C 7441   3.748   5.744   5.518
    2PC     C34 7442   3.752   5.495   5.568
    2PC     H4A 7443   3.784   5.395   5.599
    2PC     H4B 7444   3.706   5.553   5.648
    2PC     H4C 7445   3.688   5.476   5.482
    2PC     C35 7446   3.939   5.614   5.655
    2PC     H5A 7447   4.005   5.539   5.699
    2PC     H5B 7448   3.866   5.655   5.725
    2PC     H5C 7449   4.005   5.699   5.639
    2PC     O33 7450   4.403   5.615   5.636
    2PC     O34 7451   4.340   5.757   5.454
    2PC     O21 7452   4.448   5.507   5.073
    2PC     C21 7453   4.364   5.404   5.052
    2PC     O22 7454   4.264   5.384   5.119
    3OL     C12 7455   4.423   5.304   4.956
    3OL     H2R 7456   4.453   5.216   5.013
    3OL     H2S 7457   4.516   5.338   4.909
    3OL     C13 7458   4.320   5.286   4.844
    3OL     H3R 7459   4.239   5.226   4.885
    3OL     H3S 7460   4.367   5.232   4.762
    3OL     C14 7461   4.270   5.421   4.789
    3OL     H4R 7462   4.363   5.478   4.793
    3OL     H4S 7463   4.208   5.473   4.862
    3OL     C15 7464   4.198   5.402   4.655
    3OL     H5R 7465   4.104   5.348   4.666
    3OL     H5S 7466   4.259   5.330   4.598
    3OL     C16 7467   4.172   5.530   4.575
    3OL     H6R 7468   4.256   5.600   4.567
    3OL     H6S 7469   4.088   5.578   4.627
    3OL     C17 7470   4.124   5.492   4.435
    3OL     H7R 7471   4.056   5.409   4.453
    3OL     H7S 7472   4.201   5.446   4.373
    3OL     C18 7473   4.048   5.602   4.359
    3OL     H8R 7474   3.970   5.642   4.424
    3OL     H8S 7475   4.007   5.568   4.264
    3OL     C19 7476   4.154   5.704   4.323
    3OL     H9R 7477   4.158   5.792   4.385
    3OL    C110 7478   4.224   5.700   4.210
    3OL    H10R 7479   4.286   5.787   4.192
    3OL    C111 7480   4.228   5.595   4.102
    3OL    H11R 7481   4.187   5.501   4.141
    3OL    H11S 7482   4.332   5.571   4.079
    3OL    C112 7483   4.164   5.644   3.971
    3OL    H12R 7484   4.201   5.742   3.944
    3OL    H12S 7485   4.056   5.641   3.987
    3OL    C113 7486   4.187   5.560   3.845
    3OL    H13R 7487   4.163   5.454   3.862
    3OL    H13S 7488   4.292   5.553   3.817
    3OL    C114 7489   4.106   5.614   3.726
    3OL    H14R 7490   4.014   5.661   3.761
    3OL    H14S 7491   4.086   5.535   3.654
    3OL    C115 7492   4.177   5.730   3.654
    3OL    H15R 7493   4.220   5.794   3.731
    3OL    H15S 7494   4.106   5.786   3.593
    3OL    C116 7495   4.287   5.670   3.564
    3OL    H16R 7496   4.244   5.626   3.474
    3OL    H16S 7497   4.341   5.595   3.622
    3OL    C117 7498   4.401   5.764   3.524
    3OL    H17R 7499   4.370   5.840   3.452
    3OL    H17S 7500   4.472   5.711   3.460
    3OL    C118 7501   4.469   5.833   3.643
    3OL    H18R 7502   4.500   5.756   3.714
    3OL    H18S 7503   4.396   5.894   3.696
    3OL    H18T 7504   4.548   5.898   3.604
    1PA    C116 7505   5.322   2.043   4.965
    1PA    H16R 7506   5.415   2.080   4.922
    1PA    H16S 7507   5.311   2.084   5.065
    1PA    H16T 7508   5.240   2.074   4.899
    1PA    C115 7509   5.333   1.890   4.981
    1PA    H15R 7510   5.386   1.869   5.074
    1PA    H15S 7511   5.230   1.855   4.978
    1PA    C114 7512   5.406   1.819   4.866
    1PA    H14R 7513   5.509   1.852   4.853
    1PA    H14S 7514   5.412   1.712   4.890
    1PA    C113 7515   5.343   1.844   4.729
    1PA    H13R 7516   5.356   1.755   4.666
    1PA    H13S 7517   5.237   1.867   4.741
    1PA    C112 7518   5.410   1.957   4.651
    1PA    H12R 7519   5.459   2.027   4.720
    1PA    H12S 7520   5.495   1.907   4.605
    1PA    C111 7521   5.324   2.031   4.547
    1PA    H11R 7522   5.376   2.085   4.467
    1PA    H11S 7523   5.264   1.954   4.498
    1PA    C110 7524   5.234   2.133   4.619
    1PA    H10R 7525   5.174   2.070   4.685
    1PA    H10S 7526   5.291   2.201   4.682
    1PA     C19 7527   5.132   2.194   4.522
    1PA     H9R 7528   5.188   2.220   4.432
    1PA     H9S 7529   5.046   2.136   4.488
    1PA     C18 7530   5.061   2.318   4.577
    1PA     H8R 7531   5.138   2.391   4.604
    1PA     H8S 7532   5.001   2.368   4.500
    1PA     C17 7533   4.987   2.285   4.707
    1PA     H7R 7534   4.899   2.350   4.710
    1PA     H7S 7535   4.961   2.180   4.719
    1PA     C16 7536   5.067   2.328   4.831
    1PA     H6R 7537   5.173   2.310   4.815
    1PA     H6S 7538   5.052   2.436   4.844
    1PA     C15 7539   5.007   2.263   4.956
    1PA     H5R 7540   4.909   2.305   4.978
    1PA     H5S 7541   4.995   2.155   4.942
    1PA     C14 7542   5.097   2.301   5.075
    1PA     H4R 7543   5.201   2.273   5.060
    1PA     H4S 7544   5.111   2.409   5.085
    1PA     C13 7545   5.040   2.237   5.202
    1PA     H3R 7546   5.003   2.136   5.184
    1PA     H3S 7547   5.126   2.228   5.269
    1PA     C12 7548   4.924   2.324   5.254
    1PA     H2R 7549   4.942   2.427   5.220
    1PA     H2S 7550   4.832   2.303   5.200
    2PC     C11 7551   4.908   2.324   5.404
    2PC     O12 7552   4.963   2.409   5.471
    2PC     O11 7553   4.837   2.224   5.457
    2PC      C1 7554   4.806   2.226   5.598
    2PC      HR 7555   4.766   2.127   5.622
    2PC      HS 7556   4.900   2.240   5.651
    2PC      C2 7557   4.703   2.336   5.629
    2PC      HX 7558   4.734   2.429   5.582
    2PC      C3 7559   4.689   2.333   5.782
    2PC      HA 7560   4.648   2.237   5.816
    2PC      HB 7561   4.788   2.330   5.827
    2PC     O31 7562   4.621   2.446   5.840
    2PC     P31 7563   4.711   2.563   5.903
    2PC     O32 7564   4.777   2.639   5.779
    2PC     C31 7565   4.737   2.771   5.735
    2PC     H1A 7566   4.779   2.794   5.637
    2PC     H1B 7567   4.628   2.780   5.736
    2PC     C32 7568   4.797   2.878   5.826
    2PC     H2A 7569   4.738   2.969   5.813
    2PC     H2B 7570   4.782   2.850   5.931
    2PC     N31 7571   4.946   2.897   5.819
    2PC     C33 7572   5.014   2.768   5.854
    2PC     H3A 7573   4.978   2.725   5.948
    2PC     H3B 7574   5.000   2.701   5.769
    2PC     H3C 7575   5.120   2.788   5.869
    2PC     C34 7576   4.986   2.960   5.689
    2PC     H4A 7577   5.093   2.982   5.693
    2PC     H4B 7578   4.984   2.885   5.610
    2PC     H4C 7579   4.935   3.053   5.663
    2PC     C35 7580   4.979   3.000   5.923
    2PC     H5A 7581   4.958   2.953   6.019
    2PC     H5B 7582   4.911   3.082   5.904
    2PC     H5C 7583   5.083   3.031   5.937
    2PC     O33 7584   4.638   2.649   5.999
    2PC     O34 7585   4.823   2.521   5.989
    2PC     O21 7586   4.572   2.311   5.575
    2PC     C21 7587   4.542   2.347   5.449
    2PC     O22 7588   4.606   2.424   5.380
    3OL     C12 7589   4.399   2.319   5.409
    3OL     H2R 7590   4.355   2.409   5.367
    3OL     H2S 7591   4.332   2.293   5.492
    3OL     C13 7592   4.396   2.211   5.300
    3OL     H3R 7593   4.297   2.165   5.296
    3OL     H3S 7594   4.465   2.127   5.317
    3OL     C14 7595   4.445   2.266   5.165
    3OL     H4R 7596   4.538   2.322   5.172
    3OL     H4S 7597   4.370   2.341   5.139
    3OL     C15 7598   4.449   2.162   5.052
    3OL     H5R 7599   4.350   2.116   5.043
    3OL     H5S 7600   4.520   2.094   5.099
    3OL     C16 7601   4.496   2.239   4.928
    3OL     H6R 7602   4.592   2.287   4.943
    3OL     H6S 7603   4.426   2.320   4.907
    3OL     C17 7604   4.507   2.142   4.809
    3OL     H7R 7605   4.417   2.083   4.791
    3OL     H7S 7606   4.572   2.062   4.845
    3OL     C18 7607   4.557   2.214   4.683
    3OL     H8R 7608   4.655   2.257   4.707
    3OL     H8S 7609   4.490   2.296   4.657
    3OL     C19 7610   4.579   2.126   4.562
    3OL     H9R 7611   4.539   2.025   4.564
    3OL    C110 7612   4.632   2.165   4.448
    3OL    H10R 7613   4.643   2.086   4.374
    3OL    C111 7614   4.679   2.303   4.409
    3OL    H11R 7615   4.780   2.310   4.449
    3OL    H11S 7616   4.618   2.382   4.454
    3OL    C112 7617   4.692   2.320   4.257
    3OL    H12R 7618   4.600   2.295   4.204
    3OL    H12S 7619   4.756   2.242   4.215
    3OL    C113 7620   4.749   2.458   4.220
    3OL    H13R 7621   4.852   2.459   4.256
    3OL    H13S 7622   4.684   2.539   4.253
    3OL    C114 7623   4.777   2.461   4.069
    3OL    H14R 7624   4.853   2.386   4.050
    3OL    H14S 7625   4.818   2.557   4.035
    3OL    C115 7626   4.653   2.441   3.982
    3OL    H15R 7627   4.578   2.519   4.000
    3OL    H15S 7628   4.617   2.340   4.005
    3OL    C116 7629   4.681   2.434   3.831
    3OL    H16R 7630   4.585   2.402   3.790
    3OL    H16S 7631   4.768   2.370   3.812
    3OL    C117 7632   4.722   2.570   3.772
    3OL    H17R 7633   4.818   2.608   3.807
    3OL    H17S 7634   4.641   2.638   3.800
    3OL    C118 7635   4.747   2.559   3.621
    3OL    H18R 7636   4.750   2.656   3.570
    3OL    H18S 7637   4.667   2.508   3.567
    3OL    H18T 7638   4.842   2.507   3.605
    1PA    C116 7639   5.488   1.756   4.342
    1PA    H16R 7640   5.434   1.834   4.289
    1PA    H16S 7641   5.570   1.800   4.400
    1PA    H16T 7642   5.404   1.719   4.400
    1PA    C115 7643   5.534   1.637   4.256
    1PA    H15R 7644   5.453   1.604   4.191
    1PA    H15S 7645   5.606   1.669   4.181
    1PA    C114 7646   5.579   1.521   4.346
    1PA    H14R 7647   5.529   1.524   4.443
    1PA    H14S 7648   5.556   1.425   4.299
    1PA    C113 7649   5.732   1.519   4.344
    1PA    H13R 7650   5.763   1.475   4.248
    1PA    H13S 7651   5.758   1.625   4.343
    1PA    C112 7652   5.807   1.448   4.457
    1PA    H12R 7653   5.909   1.486   4.447
    1PA    H12S 7654   5.775   1.482   4.556
    1PA    C111 7655   5.799   1.295   4.440
    1PA    H11R 7656   5.697   1.274   4.472
    1PA    H11S 7657   5.822   1.263   4.338
    1PA    C110 7658   5.891   1.227   4.543
    1PA    H10R 7659   5.993   1.266   4.546
    1PA    H10S 7660   5.840   1.242   4.638
    1PA     C19 7661   5.886   1.075   4.528
    1PA     H9R 7662   5.788   1.030   4.545
    1PA     H9S 7663   5.921   1.035   4.433
    1PA     C18 7664   5.984   1.014   4.630
    1PA     H8R 7665   6.085   1.043   4.599
    1PA     H8S 7666   5.955   1.058   4.725
    1PA     C17 7667   5.982   0.861   4.638
    1PA     H7R 7668   6.009   0.829   4.537
    1PA     H7S 7669   6.060   0.828   4.708
    1PA     C16 7670   5.846   0.802   4.676
    1PA     H6R 7671   5.778   0.825   4.594
    1PA     H6S 7672   5.845   0.694   4.662
    1PA     C15 7673   5.790   0.848   4.811
    1PA     H5R 7674   5.740   0.944   4.796
    1PA     H5S 7675   5.722   0.776   4.856
    1PA     C14 7676   5.898   0.861   4.920
    1PA     H4R 7677   5.951   0.766   4.928
    1PA     H4S 7678   5.976   0.932   4.892
    1PA     C13 7679   5.830   0.894   5.054
    1PA     H3R 7680   5.775   0.988   5.043
    1PA     H3S 7681   5.751   0.820   5.064
    1PA     C12 7682   5.924   0.891   5.175
    1PA     H2R 7683   5.967   0.790   5.183
    1PA     H2S 7684   6.003   0.965   5.166
    2PC     C11 7685   5.852   0.920   5.304
    2PC     O12 7686   5.839   1.033   5.346
    2PC     O11 7687   5.802   0.808   5.359
    2PC      C1 7688   5.732   0.813   5.485
    2PC      HR 7689   5.782   0.868   5.565
    2PC      HS 7690   5.632   0.854   5.469
    2PC      C2 7691   5.716   0.672   5.544
    2PC      HX 7692   5.667   0.680   5.641
    2PC      C3 7693   5.847   0.593   5.541
    2PC      HA 7694   5.869   0.562   5.438
    2PC      HB 7695   5.925   0.660   5.578
    2PC     O31 7696   5.829   0.488   5.638
    2PC     P31 7697   5.898   0.504   5.781
    2PC     O32 7698   5.777   0.574   5.860
    2PC     C31 7699   5.666   0.497   5.909
    2PC     H1A 7700   5.574   0.553   5.888
    2PC     H1B 7701   5.660   0.405   5.850
    2PC     C32 7702   5.688   0.457   6.055
    2PC     H2A 7703   5.598   0.415   6.100
    2PC     H2B 7704   5.768   0.383   6.057
    2PC     N31 7705   5.735   0.561   6.153
    2PC     C33 7706   5.635   0.670   6.174
    2PC     H3A 7707   5.670   0.722   6.263
    2PC     H3B 7708   5.623   0.735   6.087
    2PC     H3C 7709   5.536   0.629   6.198
    2PC     C34 7710   5.763   0.485   6.279
    2PC     H4A 7711   5.852   0.426   6.258
    2PC     H4B 7712   5.788   0.554   6.360
    2PC     H4C 7713   5.677   0.419   6.293
    2PC     C35 7714   5.863   0.626   6.110
    2PC     H5A 7715   5.915   0.659   6.200
    2PC     H5B 7716   5.849   0.710   6.042
    2PC     H5C 7717   5.927   0.552   6.060
    2PC     O33 7718   5.959   0.391   5.855
    2PC     O34 7719   6.007   0.603   5.787
    2PC     O21 7720   5.624   0.596   5.463
    2PC     C21 7721   5.491   0.616   5.469
    2PC     O22 7722   5.447   0.697   5.547
    3OL     C12 7723   5.405   0.525   5.385
    3OL     H2R 7724   5.321   0.583   5.348
    3OL     H2S 7725   5.376   0.442   5.450
    3OL     C13 7726   5.462   0.456   5.260
    3OL     H3R 7727   5.566   0.421   5.267
    3OL     H3S 7728   5.457   0.532   5.182
    3OL     C14 7729   5.377   0.337   5.215
    3OL     H4R 7730   5.271   0.361   5.204
    3OL     H4S 7731   5.382   0.259   5.291
    3OL     C15 7732   5.429   0.279   5.082
    3OL     H5R 7733   5.374   0.187   5.063
    3OL     H5S 7734   5.536   0.255   5.081
    3OL     C16 7735   5.393   0.357   4.955
    3OL     H6R 7736   5.413   0.462   4.978
    3OL     H6S 7737   5.286   0.351   4.934
    3OL     C17 7738   5.474   0.309   4.834
    3OL     H7R 7739   5.452   0.206   4.804
    3OL     H7S 7740   5.580   0.304   4.856
    3OL     C18 7741   5.469   0.405   4.714
    3OL     H8R 7742   5.555   0.392   4.648
    3OL     H8S 7743   5.491   0.499   4.766
    3OL     C19 7744   5.335   0.403   4.646
    3OL     H9R 7745   5.264   0.335   4.691
    3OL    C110 7746   5.309   0.452   4.526
    3OL    H10R 7747   5.223   0.434   4.462
    3OL    C111 7748   5.400   0.541   4.444
    3OL    H11R 7749   5.498   0.551   4.491
    3OL    H11S 7750   5.366   0.645   4.445
    3OL    C112 7751   5.406   0.511   4.294
    3OL    H12R 7752   5.308   0.535   4.254
    3OL    H12S 7753   5.430   0.404   4.286
    3OL    C113 7754   5.503   0.602   4.217
    3OL    H13R 7755   5.478   0.708   4.212
    3OL    H13S 7756   5.513   0.566   4.114
    3OL    C114 7757   5.642   0.600   4.282
    3OL    H14R 7758   5.677   0.497   4.298
    3OL    H14S 7759   5.656   0.653   4.377
    3OL    C115 7760   5.739   0.668   4.185
    3OL    H15R 7761   5.679   0.756   4.161
    3OL    H15S 7762   5.749   0.607   4.095
    3OL    C116 7763   5.868   0.706   4.259
    3OL    H16R 7764   5.901   0.616   4.311
    3OL    H16S 7765   5.849   0.775   4.342
    3OL    C117 7766   5.976   0.758   4.164
    3OL    H17R 7767   6.066   0.778   4.223
    3OL    H17S 7768   5.938   0.851   4.122
    3OL    C118 7769   6.009   0.666   4.045
    3OL    H18R 7770   6.115   0.667   4.018
    3OL    H18S 7771   5.958   0.701   3.955
    3OL    H18T 7772   5.989   0.561   4.068
    1PA    C116 7773   4.178   3.676   4.152
    1PA    H16R 7774   4.190   3.784   4.157
    1PA    H16S 7775   4.072   3.658   4.170
    1PA    H16T 7776   4.212   3.628   4.060
    1PA    C115 7777   4.263   3.609   4.261
    1PA    H15R 7778   4.364   3.647   4.239
    1PA    H15S 7779   4.234   3.660   4.354
    1PA    C114 7780   4.245   3.457   4.260
    1PA    H14R 7781   4.139   3.433   4.265
    1PA    H14S 7782   4.281   3.413   4.166
    1PA    C113 7783   4.334   3.382   4.360
    1PA    H13R 7784   4.438   3.412   4.353
    1PA    H13S 7785   4.301   3.413   4.459
    1PA    C112 7786   4.315   3.229   4.352
    1PA    H12R 7787   4.215   3.195   4.378
    1PA    H12S 7788   4.341   3.200   4.250
    1PA    C111 7789   4.418   3.158   4.441
    1PA    H11R 7790   4.519   3.189   4.415
    1PA    H11S 7791   4.394   3.186   4.544
    1PA    C110 7792   4.413   3.005   4.431
    1PA    H10R 7793   4.312   2.977   4.461
    1PA    H10S 7794   4.419   2.972   4.327
    1PA     C19 7795   4.511   2.923   4.516
    1PA     H9R 7796   4.614   2.941   4.483
    1PA     H9S 7797   4.507   2.947   4.622
    1PA     C18 7798   4.483   2.773   4.502
    1PA     H8R 7799   4.379   2.760   4.533
    1PA     H8S 7800   4.499   2.734   4.402
    1PA     C17 7801   4.557   2.694   4.611
    1PA     H7R 7802   4.527   2.742   4.704
    1PA     H7S 7803   4.524   2.591   4.593
    1PA     C16 7804   4.708   2.714   4.598
    1PA     H6R 7805   4.744   2.723   4.495
    1PA     H6S 7806   4.723   2.814   4.639
    1PA     C15 7807   4.797   2.618   4.678
    1PA     H5R 7808   4.775   2.516   4.645
    1PA     H5S 7809   4.900   2.620   4.640
    1PA     C14 7810   4.786   2.632   4.830
    1PA     H4R 7811   4.679   2.636   4.851
    1PA     H4S 7812   4.836   2.543   4.870
    1PA     C13 7813   4.882   2.745   4.868
    1PA     H3R 7814   4.981   2.718   4.830
    1PA     H3S 7815   4.846   2.838   4.823
    1PA     C12 7816   4.910   2.757   5.019
    1PA     H2R 7817   4.821   2.803   5.063
    1PA     H2S 7818   4.935   2.664   5.071
    2PC     C11 7819   5.023   2.847   5.061
    2PC     O12 7820   5.107   2.893   4.987
    2PC     O11 7821   5.031   2.854   5.195
    2PC      C1 7822   5.147   2.896   5.269
    2PC      HR 7823   5.124   2.880   5.375
    2PC      HS 7824   5.235   2.836   5.248
    2PC      C2 7825   5.181   3.044   5.246
    2PC      HX 7826   5.230   3.052   5.149
    2PC      C3 7827   5.266   3.108   5.358
    2PC      HA 7828   5.351   3.041   5.369
    2PC      HB 7829   5.292   3.208   5.323
    2PC     O31 7830   5.184   3.141   5.471
    2PC     P31 7831   5.256   3.193   5.604
    2PC     O32 7832   5.131   3.275   5.662
    2PC     C31 7833   5.106   3.406   5.608
    2PC     H1A 7834   5.191   3.474   5.600
    2PC     H1B 7835   5.069   3.389   5.506
    2PC     C32 7836   4.989   3.478   5.676
    2PC     H2A 7837   4.957   3.547   5.597
    2PC     H2B 7838   4.908   3.412   5.706
    2PC     N31 7839   5.032   3.552   5.799
    2PC     C33 7840   5.125   3.475   5.888
    2PC     H3A 7841   5.219   3.469   5.833
    2PC     H3B 7842   5.143   3.541   5.973
    2PC     H3C 7843   5.088   3.376   5.916
    2PC     C34 7844   5.101   3.680   5.762
    2PC     H4A 7845   5.135   3.703   5.863
    2PC     H4B 7846   5.186   3.665   5.696
    2PC     H4C 7847   5.023   3.748   5.729
    2PC     C35 7848   4.913   3.574   5.888
    2PC     H5A 7849   4.830   3.620   5.833
    2PC     H5B 7850   4.946   3.638   5.969
    2PC     H5C 7851   4.888   3.470   5.910
    2PC     O33 7852   5.305   3.082   5.689
    2PC     O34 7853   5.378   3.272   5.574
    2PC     O21 7854   5.059   3.118   5.233
    2PC     C21 7855   5.067   3.237   5.170
    2PC     O22 7856   5.170   3.288   5.130
    3OL     C12 7857   4.932   3.300   5.148
    3OL     H2R 7858   4.944   3.408   5.144
    3OL     H2S 7859   4.870   3.283   5.236
    3OL     C13 7860   4.865   3.231   5.029
    3OL     H3R 7861   4.849   3.130   5.068
    3OL     H3S 7862   4.943   3.233   4.952
    3OL     C14 7863   4.733   3.302   4.995
    3OL     H4R 7864   4.766   3.405   4.978
    3OL     H4S 7865   4.665   3.302   5.080
    3OL     C15 7866   4.655   3.244   4.876
    3OL     H5R 7867   4.613   3.144   4.885
    3OL     H5S 7868   4.724   3.222   4.794
    3OL     C16 7869   4.550   3.349   4.834
    3OL     H6R 7870   4.503   3.316   4.741
    3OL     H6S 7871   4.603   3.441   4.807
    3OL     C17 7872   4.439   3.367   4.939
    3OL     H7R 7873   4.370   3.445   4.908
    3OL     H7S 7874   4.474   3.395   5.038
    3OL     C18 7875   4.361   3.238   4.967
    3OL     H8R 7876   4.417   3.184   5.044
    3OL     H8S 7877   4.358   3.179   4.875
    3OL     C19 7878   4.224   3.277   5.017
    3OL     H9R 7879   4.223   3.296   5.124
    3OL    C110 7880   4.111   3.260   4.950
    3OL    H10R 7881   4.011   3.274   4.991
    3OL    C111 7882   4.104   3.247   4.800
    3OL    H11R 7883   4.201   3.243   4.750
    3OL    H11S 7884   4.051   3.327   4.749
    3OL    C112 7885   4.027   3.120   4.760
    3OL    H12R 7886   3.967   3.147   4.673
    3OL    H12S 7887   3.950   3.099   4.834
    3OL    C113 7888   4.111   2.993   4.737
    3OL    H13R 7889   4.187   3.017   4.663
    3OL    H13S 7890   4.036   2.931   4.687
    3OL    C114 7891   4.175   2.931   4.862
    3OL    H14R 7892   4.095   2.899   4.929
    3OL    H14S 7893   4.240   2.998   4.918
    3OL    C115 7894   4.251   2.801   4.829
    3OL    H15R 7895   4.330   2.834   4.762
    3OL    H15S 7896   4.175   2.745   4.773
    3OL    C116 7897   4.290   2.720   4.953
    3OL    H16R 7898   4.329   2.620   4.932
    3OL    H16S 7899   4.204   2.711   5.019
    3OL    C117 7900   4.408   2.782   5.029
    3OL    H17R 7901   4.381   2.885   5.055
    3OL    H17S 7902   4.496   2.794   4.965
    3OL    C118 7903   4.429   2.703   5.159
    3OL    H18R 7904   4.514   2.737   5.217
    3OL    H18S 7905   4.437   2.596   5.141
    3OL    H18T 7906   4.344   2.724   5.224
    1PA    C116 7907   3.783   0.775   3.635
    1PA    H16R 7908   3.736   0.711   3.559
    1PA    H16S 7909   3.878   0.819   3.605
    1PA    H16T 7910   3.714   0.857   3.658
    1PA    C115 7911   3.827   0.698   3.760
    1PA    H15R 7912   3.898   0.620   3.732
    1PA    H15S 7913   3.874   0.765   3.831
    1PA    C114 7914   3.705   0.627   3.820
    1PA    H14R 7915   3.635   0.595   3.743
    1PA    H14S 7916   3.737   0.541   3.879
    1PA    C113 7917   3.618   0.712   3.914
    1PA    H13R 7918   3.568   0.796   3.866
    1PA    H13S 7919   3.540   0.644   3.950
    1PA    C112 7920   3.689   0.757   4.042
    1PA    H12R 7921   3.708   0.663   4.094
    1PA    H12S 7922   3.780   0.811   4.017
    1PA    C111 7923   3.586   0.837   4.124
    1PA    H11R 7924   3.573   0.928   4.065
    1PA    H11S 7925   3.493   0.780   4.130
    1PA    C110 7926   3.645   0.863   4.263
    1PA    H10R 7927   3.663   0.767   4.313
    1PA    H10S 7928   3.735   0.924   4.252
    1PA     C19 7929   3.549   0.941   4.354
    1PA     H9R 7930   3.518   1.027   4.294
    1PA     H9S 7931   3.461   0.884   4.383
    1PA     C18 7932   3.624   0.986   4.481
    1PA     H8R 7933   3.674   0.895   4.516
    1PA     H8S 7934   3.695   1.065   4.458
    1PA     C17 7935   3.514   1.030   4.578
    1PA     H7R 7936   3.461   1.116   4.536
    1PA     H7S 7937   3.449   0.947   4.606
    1PA     C16 7938   3.588   1.082   4.701
    1PA     H6R 7939   3.639   1.005   4.760
    1PA     H6S 7940   3.662   1.158   4.675
    1PA     C15 7941   3.483   1.130   4.802
    1PA     H5R 7942   3.436   1.218   4.757
    1PA     H5S 7943   3.404   1.056   4.818
    1PA     C14 7944   3.536   1.180   4.937
    1PA     H4R 7945   3.638   1.218   4.920
    1PA     H4S 7946   3.479   1.270   4.963
    1PA     C13 7947   3.527   1.078   5.050
    1PA     H3R 7948   3.501   1.123   5.146
    1PA     H3S 7949   3.462   0.994   5.025
    1PA     C12 7950   3.659   1.004   5.077
    1PA     H2R 7951   3.631   0.905   5.116
    1PA     H2S 7952   3.719   0.997   4.986
    2PC     C11 7953   3.738   1.070   5.187
    2PC     O12 7954   3.751   1.191   5.192
    2PC     O11 7955   3.785   0.982   5.277
    2PC      C1 7956   3.841   1.018   5.404
    2PC      HR 7957   3.918   1.095   5.396
    2PC      HS 7958   3.760   1.055   5.468
    2PC      C2 7959   3.900   0.895   5.476
    2PC      HX 7960   3.829   0.813   5.459
    2PC      C3 7961   3.923   0.910   5.626
    2PC      HA 7962   3.827   0.902   5.678
    2PC      HB 7963   3.979   0.823   5.664
    2PC     O31 7964   3.986   1.036   5.655
    2PC     P31 7965   4.013   1.071   5.809
    2PC     O32 7966   4.170   1.100   5.819
    2PC     C31 7967   4.211   1.225   5.878
    2PC     H1A 7968   4.191   1.298   5.799
    2PC     H1B 7969   4.144   1.256   5.958
    2PC     C32 7970   4.363   1.220   5.903
    2PC     H2A 7971   4.411   1.171   5.818
    2PC     H2B 7972   4.406   1.319   5.912
    2PC     N31 7973   4.413   1.158   6.030
    2PC     C33 7974   4.563   1.161   6.037
    2PC     H3A 7975   4.602   1.088   5.966
    2PC     H3B 7976   4.609   1.258   6.020
    2PC     H3C 7977   4.578   1.133   6.141
    2PC     C34 7978   4.364   1.241   6.144
    2PC     H4A 7979   4.345   1.180   6.233
    2PC     H4B 7980   4.436   1.319   6.166
    2PC     H4C 7981   4.270   1.288   6.113
    2PC     C35 7982   4.364   1.018   6.053
    2PC     H5A 7983   4.393   0.945   5.977
    2PC     H5B 7984   4.257   1.014   6.070
    2PC     H5C 7985   4.407   0.993   6.150
    2PC     O33 7986   3.917   1.174   5.853
    2PC     O34 7987   3.984   0.977   5.919
    2PC     O21 7988   4.025   0.861   5.415
    2PC     C21 7989   4.091   0.746   5.438
    2PC     O22 7990   4.066   0.657   5.516
    3OL     C12 7991   4.210   0.755   5.345
    3OL     H2R 7992   4.279   0.679   5.383
    3OL     H2S 7993   4.256   0.854   5.348
    3OL     C13 7994   4.171   0.722   5.200
    3OL     H3R 7995   4.255   0.734   5.132
    3OL     H3S 7996   4.097   0.797   5.169
    3OL     C14 7997   4.096   0.589   5.190
    3OL     H4R 7998   4.001   0.583   5.245
    3OL     H4S 7999   4.153   0.504   5.227
    3OL     C15 8000   4.067   0.562   5.042
    3OL     H5R 8001   4.164   0.547   4.994
    3OL     H5S 8002   4.023   0.650   4.995
    3OL     C16 8003   3.976   0.441   5.015
    3OL     H6R 8004   4.017   0.356   5.069
    3OL     H6S 8005   3.973   0.412   4.910
    3OL     C17 8006   3.826   0.453   5.047
    3OL     H7R 8007   3.777   0.520   4.976
    3OL     H7S 8008   3.806   0.494   5.146
    3OL     C18 8009   3.759   0.315   5.039
    3OL     H8R 8010   3.652   0.336   5.041
    3OL     H8S 8011   3.787   0.250   5.122
    3OL     C19 8012   3.783   0.250   4.905
    3OL     H9R 8013   3.752   0.303   4.815
    3OL    C110 8014   3.856   0.143   4.877
    3OL    H10R 8015   3.864   0.114   4.772
    3OL    C111 8016   3.901   0.044   4.980
    3OL    H11R 8017   3.813   0.029   5.043
    3OL    H11S 8018   3.982   0.090   5.037
    3OL    C112 8019   3.960  -0.082   4.915
    3OL    H12R 8020   3.875  -0.134   4.869
    3OL    H12S 8021   3.993  -0.145   4.998
    3OL    C113 8022   4.077  -0.057   4.820
    3OL    H13R 8023   4.147   0.004   4.877
    3OL    H13S 8024   4.047  -0.006   4.728
    3OL    C114 8025   4.139  -0.194   4.790
    3OL    H14R 8026   4.059  -0.258   4.752
    3OL    H14S 8027   4.190  -0.220   4.883
    3OL    C115 8028   4.241  -0.173   4.678
    3OL    H15R 8029   4.322  -0.243   4.700
    3OL    H15S 8030   4.285  -0.073   4.685
    3OL    C116 8031   4.200  -0.202   4.533
    3OL    H16R 8032   4.189  -0.308   4.509
    3OL    H16S 8033   4.287  -0.174   4.473
    3OL    C117 8034   4.065  -0.140   4.496
    3OL    H17R 8035   4.052  -0.040   4.537
    3OL    H17S 8036   3.983  -0.199   4.536
    3OL    C118 8037   4.037  -0.148   4.345
    3OL    H18R 8038   4.051  -0.253   4.317
    3OL    H18S 8039   4.108  -0.088   4.288
    3OL    H18T 8040   3.938  -0.115   4.311
    1PA    C116 8041   3.579  -0.097   4.028
    1PA    H16R 8042   3.622  -0.184   4.077
    1PA    H16S 8043   3.527  -0.037   4.102
    1PA    H16T 8044   3.659  -0.031   3.995
    1PA    C115 8045   3.489  -0.137   3.910
    1PA    H15R 8046   3.418  -0.057   3.885
    1PA    H15S 8047   3.556  -0.160   3.827
    1PA    C114 8048   3.409  -0.267   3.927
    1PA    H14R 8049   3.346  -0.285   3.840
    1PA    H14S 8050   3.491  -0.339   3.930
    1PA    C113 8051   3.326  -0.264   4.057
    1PA    H13R 8052   3.302  -0.367   4.083
    1PA    H13S 8053   3.394  -0.216   4.128
    1PA    C112 8054   3.199  -0.181   4.038
    1PA    H12R 8055   3.203  -0.075   4.009
    1PA    H12S 8056   3.134  -0.234   3.968
    1PA    C111 8057   3.121  -0.157   4.168
    1PA    H11R 8058   3.017  -0.142   4.137
    1PA    H11S 8059   3.115  -0.252   4.221
    1PA    C110 8060   3.165  -0.040   4.257
    1PA    H10R 8061   3.274  -0.042   4.257
    1PA    H10S 8062   3.136   0.056   4.213
    1PA     C19 8063   3.111  -0.041   4.401
    1PA     H9R 8064   3.002  -0.042   4.395
    1PA     H9S 8065   3.140  -0.135   4.449
    1PA     C18 8066   3.157   0.084   4.476
    1PA     H8R 8067   3.266   0.081   4.484
    1PA     H8S 8068   3.115   0.163   4.414
    1PA     C17 8069   3.104   0.100   4.619
    1PA     H7R 8070   3.128   0.006   4.669
    1PA     H7S 8071   3.149   0.188   4.666
    1PA     C16 8072   2.954   0.134   4.626
    1PA     H6R 8073   2.941   0.227   4.570
    1PA     H6S 8074   2.899   0.055   4.575
    1PA     C15 8075   2.904   0.136   4.771
    1PA     H5R 8076   2.797   0.111   4.769
    1PA     H5S 8077   2.955   0.055   4.823
    1PA     C14 8078   2.943   0.270   4.834
    1PA     H4R 8079   3.051   0.283   4.841
    1PA     H4S 8080   2.907   0.354   4.774
    1PA     C13 8081   2.880   0.273   4.974
    1PA     H3R 8082   2.771   0.268   4.969
    1PA     H3S 8083   2.928   0.192   5.030
    1PA     C12 8084   2.908   0.408   5.041
    1PA     H2R 8085   3.016   0.424   5.037
    1PA     H2S 8086   2.868   0.483   4.971
    2PC     C11 8087   2.835   0.422   5.172
    2PC     O12 8088   2.774   0.329   5.221
    2PC     O11 8089   2.835   0.548   5.219
    2PC      C1 8090   2.745   0.588   5.324
    2PC      HR 8091   2.658   0.522   5.323
    2PC      HS 8092   2.801   0.573   5.416
    2PC      C2 8093   2.713   0.738   5.309
    2PC      HX 8094   2.808   0.791   5.303
    2PC      C3 8095   2.633   0.795   5.427
    2PC      HA 8096   2.691   0.806   5.519
    2PC      HB 8097   2.592   0.894   5.403
    2PC     O31 8098   2.516   0.715   5.453
    2PC     P31 8099   2.433   0.751   5.585
    2PC     O32 8100   2.370   0.886   5.527
    2PC     C31 8101   2.297   0.966   5.622
    2PC     H1A 8102   2.230   0.903   5.680
    2PC     H1B 8103   2.355   1.010   5.704
    2PC     C32 8104   2.224   1.071   5.537
    2PC     H2A 8105   2.168   1.021   5.458
    2PC     H2B 8106   2.157   1.132   5.597
    2PC     N31 8107   2.308   1.177   5.471
    2PC     C33 8108   2.232   1.298   5.428
    2PC     H3A 8109   2.180   1.349   5.510
    2PC     H3B 8110   2.297   1.369   5.377
    2PC     H3C 8111   2.156   1.256   5.362
    2PC     C34 8112   2.416   1.224   5.565
    2PC     H4A 8113   2.354   1.251   5.650
    2PC     H4B 8114   2.476   1.139   5.596
    2PC     H4C 8115   2.477   1.299   5.514
    2PC     C35 8116   2.364   1.121   5.344
    2PC     H5A 8117   2.295   1.082   5.269
    2PC     H5B 8118   2.444   1.051   5.370
    2PC     H5C 8119   2.421   1.202   5.298
    2PC     O33 8120   2.337   0.645   5.624
    2PC     O34 8121   2.528   0.769   5.697
    2PC     O21 8122   2.630   0.751   5.192
    2PC     C21 8123   2.621   0.876   5.144
    2PC     O22 8124   2.686   0.972   5.180
    3OL     C12 8125   2.526   0.879   5.027
    3OL     H2R 8126   2.427   0.853   5.065
    3OL     H2S 8127   2.545   0.804   4.950
    3OL     C13 8128   2.506   1.021   4.972
    3OL     H3R 8129   2.550   1.093   5.041
    3OL     H3S 8130   2.400   1.050   4.969
    3OL     C14 8131   2.585   1.048   4.844
    3OL     H4R 8132   2.681   0.998   4.860
    3OL     H4S 8133   2.596   1.157   4.842
    3OL     C15 8134   2.520   0.996   4.715
    3OL     H5R 8135   2.428   1.053   4.703
    3OL     H5S 8136   2.504   0.888   4.710
    3OL     C16 8137   2.623   1.021   4.604
    3OL     H6R 8138   2.716   0.964   4.615
    3OL     H6S 8139   2.648   1.127   4.602
    3OL     C17 8140   2.555   0.982   4.472
    3OL     H7R 8141   2.461   1.037   4.461
    3OL     H7S 8142   2.526   0.877   4.463
    3OL     C18 8143   2.651   1.019   4.358
    3OL     H8R 8144   2.736   0.951   4.367
    3OL     H8S 8145   2.693   1.119   4.371
    3OL     C19 8146   2.573   1.008   4.230
    3OL     H9R 8147   2.517   0.915   4.231
    3OL    C110 8148   2.562   1.091   4.127
    3OL    H10R 8149   2.486   1.080   4.050
    3OL    C111 8150   2.646   1.214   4.103
    3OL    H11R 8151   2.748   1.177   4.094
    3OL    H11S 8152   2.641   1.283   4.188
    3OL    C112 8153   2.583   1.283   3.982
    3OL    H12R 8154   2.486   1.328   4.006
    3OL    H12S 8155   2.562   1.201   3.913
    3OL    C113 8156   2.677   1.391   3.929
    3OL    H13R 8157   2.645   1.415   3.827
    3OL    H13S 8158   2.776   1.346   3.917
    3OL    C114 8159   2.706   1.518   4.010
    3OL    H14R 8160   2.791   1.566   3.961
    3OL    H14S 8161   2.736   1.486   4.110
    3OL    C115 8162   2.587   1.613   4.026
    3OL    H15R 8163   2.611   1.693   4.097
    3OL    H15S 8164   2.506   1.553   4.069
    3OL    C116 8165   2.543   1.680   3.895
    3OL    H16R 8166   2.527   1.614   3.810
    3OL    H16S 8167   2.624   1.750   3.875
    3OL    C117 8168   2.420   1.769   3.918
    3OL    H17R 8169   2.415   1.826   3.825
    3OL    H17S 8170   2.446   1.836   4.000
    3OL    C118 8171   2.292   1.690   3.950
    3OL    H18R 8172   2.305   1.633   4.042
    3OL    H18S 8173   2.269   1.623   3.867
    3OL    H18T 8174   2.204   1.754   3.962
    1PA    C116 8175   5.144   2.220   3.959
    1PA    H16R 8176   5.234   2.170   3.922
    1PA    H16S 8177   5.173   2.324   3.975
    1PA    H16T 8178   5.066   2.211   3.883
    1PA    C115 8179   5.091   2.172   4.094
    1PA    H15R 8180   5.178   2.157   4.158
    1PA    H15S 8181   5.018   2.244   4.131
    1PA    C114 8182   5.021   2.036   4.078
    1PA    H14R 8183   4.960   2.040   3.988
    1PA    H14S 8184   5.097   1.958   4.069
    1PA    C113 8185   4.934   2.005   4.201
    1PA    H13R 8186   5.000   2.016   4.287
    1PA    H13S 8187   4.852   2.076   4.192
    1PA    C112 8188   4.866   1.868   4.187
    1PA    H12R 8189   4.817   1.861   4.090
    1PA    H12S 8190   4.943   1.790   4.186
    1PA    C111 8191   4.769   1.834   4.301
    1PA    H11R 8192   4.806   1.849   4.402
    1PA    H11S 8193   4.677   1.893   4.288
    1PA    C110 8194   4.700   1.697   4.287
    1PA    H10R 8195   4.660   1.691   4.185
    1PA    H10S 8196   4.778   1.621   4.284
    1PA     C19 8197   4.601   1.668   4.400
    1PA     H9R 8198   4.587   1.560   4.404
    1PA     H9S 8199   4.651   1.695   4.493
    1PA     C18 8200   4.469   1.747   4.393
    1PA     H8R 8201   4.482   1.855   4.378
    1PA     H8S 8202   4.422   1.723   4.297
    1PA     C17 8203   4.371   1.727   4.509
    1PA     H7R 8204   4.271   1.726   4.466
    1PA     H7S 8205   4.387   1.628   4.551
    1PA     C16 8206   4.384   1.832   4.621
    1PA     H6R 8207   4.486   1.834   4.659
    1PA     H6S 8208   4.352   1.925   4.572
    1PA     C15 8209   4.287   1.808   4.737
    1PA     H5R 8210   4.286   1.897   4.801
    1PA     H5S 8211   4.183   1.794   4.707
    1PA     C14 8212   4.331   1.697   4.833
    1PA     H4R 8213   4.326   1.598   4.787
    1PA     H4S 8214   4.436   1.707   4.862
    1PA     C13 8215   4.269   1.696   4.973
    1PA     H3R 8216   4.160   1.689   4.969
    1PA     H3S 8217   4.307   1.605   5.020
    1PA     C12 8218   4.303   1.813   5.066
    1PA     H2R 8219   4.409   1.839   5.062
    1PA     H2S 8220   4.253   1.902   5.027
    2PC     C11 8221   4.258   1.804   5.209
    2PC     O12 8222   4.192   1.713   5.256
    2PC     O11 8223   4.295   1.909   5.284
    2PC      C1 8224   4.300   1.896   5.428
    2PC      HR 8225   4.327   1.990   5.477
    2PC      HS 8226   4.203   1.863   5.465
    2PC      C2 8227   4.413   1.799   5.468
    2PC      HX 8228   4.397   1.710   5.407
    2PC      C3 8229   4.416   1.777   5.620
    2PC      HA 8230   4.317   1.741   5.650
    2PC      HB 8231   4.483   1.695   5.649
    2PC     O31 8232   4.447   1.894   5.698
    2PC     P31 8233   4.485   1.890   5.854
    2PC     O32 8234   4.484   2.046   5.890
    2PC     C31 8235   4.357   2.113   5.876
    2PC     H1A 8236   4.338   2.111   5.769
    2PC     H1B 8237   4.275   2.065   5.931
    2PC     C32 8238   4.374   2.260   5.916
    2PC     H2A 8239   4.389   2.262   6.024
    2PC     H2B 8240   4.466   2.299   5.872
    2PC     N31 8241   4.269   2.357   5.870
    2PC     C33 8242   4.268   2.367   5.720
    2PC     H3A 8243   4.207   2.452   5.691
    2PC     H3B 8244   4.371   2.354   5.686
    2PC     H3C 8245   4.221   2.276   5.684
    2PC     C34 8246   4.132   2.314   5.912
    2PC     H4A 8247   4.119   2.225   5.850
    2PC     H4B 8248   4.136   2.289   6.018
    2PC     H4C 8249   4.052   2.382   5.883
    2PC     C35 8250   4.314   2.486   5.931
    2PC     H5A 8251   4.289   2.482   6.038
    2PC     H5B 8252   4.255   2.559   5.875
    2PC     H5C 8253   4.421   2.504   5.923
    2PC     O33 8254   4.375   1.825   5.928
    2PC     O34 8255   4.613   1.825   5.888
    2PC     O21 8256   4.540   1.861   5.441
    2PC     C21 8257   4.614   1.823   5.336
    2PC     O22 8258   4.582   1.736   5.257
    3OL     C12 8259   4.736   1.911   5.327
    3OL     H2R 8260   4.794   1.903   5.419
    3OL     H2S 8261   4.712   2.018   5.324
    3OL     C13 8262   4.826   1.868   5.211
    3OL     H3R 8263   4.833   1.760   5.210
    3OL     H3S 8264   4.928   1.903   5.229
    3OL     C14 8265   4.788   1.925   5.073
    3OL     H4R 8266   4.797   2.032   5.088
    3OL     H4S 8267   4.682   1.902   5.061
    3OL     C15 8268   4.862   1.870   4.950
    3OL     H5R 8269   4.844   1.762   4.949
    3OL     H5S 8270   4.971   1.874   4.960
    3OL     C16 8271   4.814   1.943   4.824
    3OL     H6R 8272   4.804   2.051   4.839
    3OL     H6S 8273   4.713   1.907   4.800
    3OL     C17 8274   4.910   1.921   4.707
    3OL     H7R 8275   5.006   1.969   4.725
    3OL     H7S 8276   4.869   1.975   4.621
    3OL     C18 8277   4.941   1.773   4.679
    3OL     H8R 8278   4.847   1.726   4.649
    3OL     H8S 8279   4.989   1.722   4.763
    3OL     C19 8280   5.022   1.772   4.552
    3OL     H9R 8281   5.028   1.872   4.510
    3OL    C110 8282   5.065   1.671   4.479
    3OL    H10R 8283   5.112   1.699   4.385
    3OL    C111 8284   5.093   1.531   4.530
    3OL    H11R 8285   5.034   1.462   4.470
    3OL    H11S 8286   5.049   1.512   4.628
    3OL    C112 8287   5.244   1.504   4.536
    3OL    H12R 8288   5.297   1.570   4.605
    3OL    H12S 8289   5.279   1.521   4.434
    3OL    C113 8290   5.283   1.356   4.551
    3OL    H13R 8291   5.378   1.342   4.500
    3OL    H13S 8292   5.208   1.296   4.499
    3OL    C114 8293   5.282   1.317   4.699
    3OL    H14R 8294   5.256   1.211   4.711
    3OL    H14S 8295   5.203   1.374   4.749
    3OL    C115 8296   5.425   1.338   4.751
    3OL    H15R 8297   5.440   1.446   4.760
    3OL    H15S 8298   5.493   1.301   4.675
    3OL    C116 8299   5.453   1.269   4.885
    3OL    H16R 8300   5.459   1.161   4.878
    3OL    H16S 8301   5.363   1.289   4.943
    3OL    C117 8302   5.572   1.328   4.963
    3OL    H17R 8303   5.573   1.308   5.070
    3OL    H17S 8304   5.571   1.437   4.949
    3OL    C118 8305   5.698   1.262   4.906
    3OL    H18R 8306   5.786   1.314   4.946
    3OL    H18S 8307   5.698   1.254   4.798
    3OL    H18T 8308   5.704   1.158   4.941
    1PA    C116 8309   3.724   1.915   4.078
    1PA    H16R 8310   3.789   1.839   4.121
    1PA    H16S 8311   3.684   1.985   4.151
    1PA    H16T 8312   3.786   1.966   4.004
    1PA    C115 8313   3.609   1.841   4.007
    1PA    H15R 8314   3.561   1.921   3.950
    1PA    H15S 8315   3.650   1.774   3.931
    1PA    C114 8316   3.522   1.769   4.111
    1PA    H14R 8317   3.447   1.707   4.061
    1PA    H14S 8318   3.586   1.706   4.174
    1PA    C113 8319   3.434   1.867   4.189
    1PA    H13R 8320   3.424   1.966   4.143
    1PA    H13S 8321   3.337   1.817   4.193
    1PA    C112 8322   3.487   1.903   4.329
    1PA    H12R 8323   3.483   1.803   4.373
    1PA    H12S 8324   3.593   1.923   4.342
    1PA    C111 8325   3.395   2.003   4.400
    1PA    H11R 8326   3.400   2.096   4.344
    1PA    H11S 8327   3.296   1.956   4.403
    1PA    C110 8328   3.437   2.011   4.548
    1PA    H10R 8329   3.506   1.931   4.576
    1PA    H10S 8330   3.498   2.101   4.557
    1PA     C19 8331   3.311   2.022   4.635
    1PA     H9R 8332   3.270   2.123   4.626
    1PA     H9S 8333   3.231   1.958   4.598
    1PA     C18 8334   3.345   1.989   4.781
    1PA     H8R 8335   3.252   1.970   4.836
    1PA     H8S 8336   3.411   1.903   4.778
    1PA     C17 8337   3.412   2.110   4.849
    1PA     H7R 8338   3.494   2.152   4.791
    1PA     H7S 8339   3.330   2.182   4.849
    1PA     C16 8340   3.449   2.085   4.996
    1PA     H6R 8341   3.357   2.063   5.050
    1PA     H6S 8342   3.512   1.996   4.994
    1PA     C15 8343   3.531   2.195   5.065
    1PA     H5R 8344   3.561   2.150   5.160
    1PA     H5S 8345   3.617   2.236   5.011
    1PA     C14 8346   3.436   2.310   5.102
    1PA     H4R 8347   3.369   2.322   5.017
    1PA     H4S 8348   3.374   2.288   5.189
    1PA     C13 8349   3.507   2.440   5.144
    1PA     H3R 8350   3.547   2.486   5.054
    1PA     H3S 8351   3.423   2.500   5.178
    1PA     C12 8352   3.606   2.437   5.261
    1PA     H2R 8353   3.682   2.363   5.234
    1PA     H2S 8354   3.648   2.536   5.283
    2PC     C11 8355   3.546   2.386   5.390
    2PC     O12 8356   3.447   2.434   5.441
    2PC     O11 8357   3.619   2.286   5.442
    2PC      C1 8358   3.571   2.200   5.546
    2PC      HR 8359   3.643   2.122   5.571
    2PC      HS 8360   3.559   2.268   5.632
    2PC      C2 8361   3.435   2.136   5.516
    2PC      HX 8362   3.370   2.209   5.468
    2PC      C3 8363   3.356   2.095   5.641
    2PC      HA 8364   3.307   2.185   5.679
    2PC      HB 8365   3.287   2.014   5.616
    2PC     O31 8366   3.450   2.051   5.741
    2PC     P31 8367   3.409   2.001   5.887
    2PC     O32 8368   3.496   1.871   5.921
    2PC     C31 8369   3.639   1.879   5.910
    2PC     H1A 8370   3.679   1.973   5.948
    2PC     H1B 8371   3.690   1.799   5.964
    2PC     C32 8372   3.687   1.864   5.765
    2PC     H2A 8373   3.674   1.952   5.702
    2PC     H2B 8374   3.795   1.858   5.780
    2PC     N31 8375   3.646   1.740   5.690
    2PC     C33 8376   3.671   1.619   5.774
    2PC     H3A 8377   3.592   1.609   5.849
    2PC     H3B 8378   3.664   1.530   5.710
    2PC     H3C 8379   3.771   1.621   5.818
    2PC     C34 8380   3.505   1.748   5.640
    2PC     H4A 8381   3.492   1.646   5.604
    2PC     H4B 8382   3.427   1.767   5.715
    2PC     H4C 8383   3.501   1.812   5.552
    2PC     C35 8384   3.731   1.727   5.567
    2PC     H5A 8385   3.742   1.823   5.517
    2PC     H5B 8386   3.683   1.667   5.490
    2PC     H5C 8387   3.822   1.683   5.607
    2PC     O33 8388   3.414   2.097   6.000
    2PC     O34 8389   3.269   1.954   5.883
    2PC     O21 8390   3.457   2.022   5.431
    2PC     C21 8391   3.360   1.976   5.350
    2PC     O22 8392   3.249   2.023   5.332
    3OL     C12 8393   3.401   1.846   5.286
    3OL     H2R 8394   3.345   1.836   5.193
    3OL     H2S 8395   3.367   1.760   5.345
    3OL     C13 8396   3.553   1.841   5.262
    3OL     H3R 8397   3.609   1.841   5.355
    3OL     H3S 8398   3.594   1.923   5.202
    3OL     C14 8399   3.589   1.709   5.194
    3OL     H4R 8400   3.528   1.627   5.232
    3OL     H4S 8401   3.691   1.685   5.227
    3OL     C15 8402   3.568   1.714   5.042
    3OL     H5R 8403   3.618   1.799   4.994
    3OL     H5S 8404   3.463   1.745   5.028
    3OL     C16 8405   3.610   1.588   4.966
    3OL     H6R 8406   3.547   1.572   4.878
    3OL     H6S 8407   3.588   1.507   5.035
    3OL     C17 8408   3.762   1.591   4.942
    3OL     H7R 8409   3.808   1.594   5.041
    3OL     H7S 8410   3.801   1.675   4.885
    3OL     C18 8411   3.805   1.471   4.857
    3OL     H8R 8412   3.755   1.478   4.760
    3OL     H8S 8413   3.765   1.378   4.899
    3OL     C19 8414   3.956   1.459   4.853
    3OL     H9R 8415   3.999   1.446   4.952
    3OL    C110 8416   4.029   1.450   4.743
    3OL    H10R 8417   4.132   1.416   4.746
    3OL    C111 8418   3.982   1.475   4.602
    3OL    H11R 8419   4.053   1.551   4.571
    3OL    H11S 8420   3.879   1.509   4.588
    3OL    C112 8421   4.008   1.351   4.515
    3OL    H12R 8422   3.949   1.268   4.553
    3OL    H12S 8423   4.111   1.315   4.525
    3OL    C113 8424   3.961   1.373   4.370
    3OL    H13R 8425   3.854   1.390   4.366
    3OL    H13S 8426   3.989   1.285   4.312
    3OL    C114 8427   4.014   1.501   4.304
    3OL    H14R 8428   4.123   1.504   4.310
    3OL    H14S 8429   3.975   1.585   4.362
    3OL    C115 8430   3.965   1.517   4.159
    3OL    H15R 8431   3.856   1.517   4.151
    3OL    H15S 8432   3.998   1.427   4.106
    3OL    C116 8433   4.006   1.643   4.083
    3OL    H16R 8434   3.975   1.736   4.132
    3OL    H16S 8435   3.956   1.623   3.988
    3OL    C117 8436   4.156   1.663   4.057
    3OL    H17R 8437   4.211   1.693   4.146
    3OL    H17S 8438   4.160   1.756   3.999
    3OL    C118 8439   4.222   1.554   3.971
    3OL    H18R 8440   4.292   1.604   3.904
    3OL    H18S 8441   4.151   1.502   3.906
    3OL    H18T 8442   4.283   1.482   4.026
    1PA    C116 8443   4.076   0.709   4.146
    1PA    H16R 8444   4.076   0.646   4.056
    1PA    H16S 8445   4.177   0.724   4.186
    1PA    H16T 8446   4.047   0.809   4.114
    1PA    C115 8447   3.989   0.658   4.261
    1PA    H15R 8448   3.887   0.633   4.231
    1PA    H15S 8449   4.025   0.569   4.313
    1PA    C114 8450   3.972   0.757   4.378
    1PA    H14R 8451   4.074   0.795   4.381
    1PA    H14S 8452   3.914   0.842   4.341
    1PA    C113 8453   3.918   0.690   4.505
    1PA    H13R 8454   3.814   0.661   4.489
    1PA    H13S 8455   3.985   0.605   4.524
    1PA    C112 8456   3.922   0.792   4.620
    1PA    H12R 8457   3.901   0.889   4.575
    1PA    H12S 8458   3.838   0.779   4.689
    1PA    C111 8459   4.060   0.800   4.686
    1PA    H11R 8460   4.080   0.712   4.748
    1PA    H11S 8461   4.133   0.798   4.605
    1PA    C110 8462   4.074   0.929   4.768
    1PA    H10R 8463   4.179   0.935   4.796
    1PA    H10S 8464   4.051   1.016   4.705
    1PA     C19 8465   3.979   0.939   4.888
    1PA     H9R 8466   3.875   0.938   4.852
    1PA     H9S 8467   3.995   0.853   4.953
    1PA     C18 8468   4.010   1.070   4.961
    1PA     H8R 8469   3.962   1.153   4.907
    1PA     H8S 8470   3.955   1.077   5.055
    1PA     C17 8471   4.159   1.094   4.986
    1PA     H7R 8472   4.216   1.015   5.035
    1PA     H7S 8473   4.217   1.107   4.895
    1PA     C16 8474   4.195   1.220   5.067
    1PA     H6R 8475   4.303   1.220   5.083
    1PA     H6S 8476   4.178   1.312   5.011
    1PA     C15 8477   4.141   1.233   5.210
    1PA     H5R 8478   4.033   1.251   5.206
    1PA     H5S 8479   4.155   1.141   5.267
    1PA     C14 8480   4.207   1.347   5.290
    1PA     H4R 8481   4.314   1.331   5.304
    1PA     H4S 8482   4.189   1.435   5.228
    1PA     C13 8483   4.139   1.352   5.427
    1PA     H3R 8484   4.031   1.366   5.428
    1PA     H3S 8485   4.168   1.271   5.494
    1PA     C12 8486   4.191   1.473   5.505
    1PA     H2R 8487   4.287   1.461   5.555
    1PA     H2S 8488   4.222   1.550   5.434
    2PC     C11 8489   4.093   1.515   5.613
    2PC     O12 8490   4.006   1.444   5.657
    2PC     O11 8491   4.113   1.644   5.647
    2PC      C1 8492   4.059   1.708   5.763
    2PC      HR 8493   3.955   1.677   5.781
    2PC      HS 8494   4.116   1.676   5.851
    2PC      C2 8495   4.077   1.860   5.763
    2PC      HX 8496   4.183   1.875   5.741
    2PC      C3 8497   4.036   1.926   5.895
    2PC      HA 8498   4.126   1.932   5.958
    2PC      HB 8499   4.003   2.028   5.874
    2PC     O31 8500   3.937   1.846   5.962
    2PC     P31 8501   3.922   1.838   6.121
    2PC     O32 8502   3.813   1.944   6.173
    2PC     C31 8503   3.849   2.083   6.179
    2PC     H1A 8504   3.930   2.088   6.253
    2PC     H1B 8505   3.880   2.119   6.081
    2PC     C32 8506   3.725   2.160   6.225
    2PC     H2A 8507   3.727   2.262   6.187
    2PC     H2B 8508   3.632   2.113   6.194
    2PC     N31 8509   3.695   2.173   6.371
    2PC     C33 8510   3.561   2.236   6.399
    2PC     H3A 8511   3.568   2.274   6.501
    2PC     H3B 8512   3.563   2.326   6.338
    2PC     H3C 8513   3.481   2.169   6.367
    2PC     C34 8514   3.680   2.035   6.428
    2PC     H4A 8515   3.601   1.978   6.378
    2PC     H4B 8516   3.770   1.974   6.419
    2PC     H4C 8517   3.649   2.041   6.533
    2PC     C35 8518   3.800   2.240   6.455
    2PC     H5A 8519   3.807   2.347   6.435
    2PC     H5B 8520   3.897   2.198   6.428
    2PC     H5C 8521   3.772   2.220   6.559
    2PC     O33 8522   3.861   1.714   6.174
    2PC     O34 8523   4.050   1.861   6.192
    2PC     O21 8524   3.990   1.914   5.661
    2PC     C21 8525   4.016   2.037   5.614
    2PC     O22 8526   4.100   2.118   5.648
    3OL     C12 8527   3.917   2.068   5.505
    3OL     H2R 8528   3.916   2.177   5.499
    3OL     H2S 8529   3.814   2.039   5.528
    3OL     C13 8530   3.973   2.006   5.376
    3OL     H3R 8531   3.972   1.897   5.385
    3OL     H3S 8532   4.080   2.028   5.367
    3OL     C14 8533   3.896   2.054   5.252
    3OL     H4R 8534   3.890   2.163   5.259
    3OL     H4S 8535   3.796   2.011   5.253
    3OL     C15 8536   3.970   2.023   5.121
    3OL     H5R 8537   3.989   1.917   5.106
    3OL     H5S 8538   4.069   2.070   5.121
    3OL     C16 8539   3.902   2.070   4.992
    3OL     H6R 8540   3.911   2.178   4.990
    3OL     H6S 8541   3.796   2.042   4.994
    3OL     C17 8542   3.958   2.006   4.864
    3OL     H7R 8543   3.960   1.897   4.870
    3OL     H7S 8544   4.060   2.038   4.842
    3OL     C18 8545   3.859   2.031   4.750
    3OL     H8R 8546   3.901   2.092   4.669
    3OL     H8S 8547   3.773   2.086   4.789
    3OL     C19 8548   3.805   1.900   4.698
    3OL     H9R 8549   3.752   1.835   4.766
    3OL    C110 8550   3.820   1.855   4.574
    3OL    H10R 8551   3.797   1.753   4.545
    3OL    C111 8552   3.883   1.933   4.461
    3OL    H11R 8553   3.856   2.038   4.477
    3OL    H11S 8554   3.826   1.901   4.373
    3OL    C112 8555   4.035   1.923   4.442
    3OL    H12R 8556   4.062   1.818   4.431
    3OL    H12S 8557   4.084   1.952   4.535
    3OL    C113 8558   4.072   2.008   4.320
    3OL    H13R 8559   4.050   2.114   4.334
    3OL    H13S 8560   4.024   1.959   4.235
    3OL    C114 8561   4.222   1.998   4.290
    3OL    H14R 8562   4.245   1.893   4.272
    3OL    H14S 8563   4.283   2.041   4.370
    3OL    C115 8564   4.241   2.082   4.163
    3OL    H15R 8565   4.201   2.183   4.178
    3OL    H15S 8566   4.194   2.044   4.072
    3OL    C116 8567   4.392   2.088   4.136
    3OL    H16R 8568   4.453   2.104   4.225
    3OL    H16S 8569   4.394   2.172   4.065
    3OL    C117 8570   4.445   1.966   4.060
    3OL    H17R 8571   4.385   1.943   3.972
    3OL    H17S 8572   4.432   1.884   4.131
    3OL    C118 8573   4.586   2.002   4.009
    3OL    H18R 8574   4.599   2.086   3.941
    3OL    H18S 8575   4.632   1.918   3.956
    3OL    H18T 8576   4.649   2.025   4.094
    1PA    C116 8577   6.440   3.743   4.250
    1PA    H16R 8578   6.501   3.822   4.205
    1PA    H16S 8579   6.501   3.711   4.334
    1PA    H16T 8580   6.355   3.798   4.290
    1PA    C115 8581   6.401   3.623   4.162
    1PA    H15R 8582   6.360   3.545   4.227
    1PA    H15S 8583   6.326   3.644   4.086
    1PA    C114 8584   6.525   3.566   4.092
    1PA    H14R 8585   6.620   3.591   4.141
    1PA    H14S 8586   6.514   3.458   4.082
    1PA    C113 8587   6.526   3.627   3.951
    1PA    H13R 8588   6.434   3.604   3.897
    1PA    H13S 8589   6.524   3.736   3.949
    1PA    C112 8590   6.644   3.589   3.859
    1PA    H12R 8591   6.727   3.655   3.885
    1PA    H12S 8592   6.665   3.482   3.863
    1PA    C111 8593   6.617   3.626   3.713
    1PA    H11R 8594   6.548   3.711   3.707
    1PA    H11S 8595   6.716   3.658   3.679
    1PA    C110 8596   6.572   3.502   3.635
    1PA    H10R 8597   6.645   3.423   3.654
    1PA    H10S 8598   6.479   3.458   3.670
    1PA     C19 8599   6.552   3.534   3.486
    1PA     H9R 8600   6.643   3.584   3.451
    1PA     H9S 8601   6.544   3.444   3.425
    1PA     C18 8602   6.442   3.637   3.456
    1PA     H8R 8603   6.345   3.604   3.492
    1PA     H8S 8604   6.468   3.734   3.501
    1PA     C17 8605   6.422   3.659   3.306
    1PA     H7R 8606   6.452   3.571   3.249
    1PA     H7S 8607   6.317   3.687   3.289
    1PA     C16 8608   6.494   3.785   3.256
    1PA     H6R 8609   6.452   3.870   3.310
    1PA     H6S 8610   6.601   3.774   3.274
    1PA     C15 8611   6.477   3.795   3.103
    1PA     H5R 8612   6.540   3.730   3.044
    1PA     H5S 8613   6.380   3.759   3.069
    1PA     C14 8614   6.495   3.939   3.052
    1PA     H4R 8615   6.410   3.998   3.088
    1PA     H4S 8616   6.578   4.000   3.090
    1PA     C13 8617   6.493   3.941   2.899
    1PA     H3R 8618   6.590   3.903   2.866
    1PA     H3S 8619   6.410   3.876   2.871
    1PA     C12 8620   6.482   4.084   2.844
    1PA     H2R 8621   6.420   4.141   2.913
    1PA     H2S 8622   6.580   4.134   2.847
    2PC     C11 8623   6.434   4.092   2.701
    2PC     O12 8624   6.424   4.002   2.620
    2PC     O11 8625   6.394   4.218   2.681
    2PC      C1 8626   6.318   4.251   2.563
    2PC      HR 8627   6.313   4.360   2.567
    2PC      HS 8628   6.371   4.223   2.471
    2PC      C2 8629   6.180   4.184   2.565
    2PC      HX 8630   6.185   4.077   2.587
    2PC      C3 8631   6.122   4.202   2.424
    2PC      HA 8632   6.018   4.168   2.420
    2PC      HB 8633   6.177   4.135   2.357
    2PC     O31 8634   6.127   4.340   2.385
    2PC     P31 8635   6.077   4.369   2.236
    2PC     O32 8636   5.974   4.484   2.280
    2PC     C31 8637   5.890   4.532   2.174
    2PC     H1A 8638   5.945   4.534   2.079
    2PC     H1B 8639   5.814   4.458   2.151
    2PC     C32 8640   5.821   4.665   2.208
    2PC     H2A 8641   5.765   4.701   2.122
    2PC     H2B 8642   5.753   4.651   2.292
    2PC     N31 8643   5.907   4.783   2.242
    2PC     C33 8644   5.980   4.762   2.371
    2PC     H3A 8645   5.958   4.668   2.422
    2PC     H3B 8646   6.083   4.755   2.336
    2PC     H3C 8647   5.964   4.855   2.425
    2PC     C34 8648   6.008   4.807   2.133
    2PC     H4A 8649   6.047   4.909   2.145
    2PC     H4B 8650   6.089   4.734   2.125
    2PC     H4C 8651   5.949   4.805   2.041
    2PC     C35 8652   5.828   4.910   2.251
    2PC     H5A 8653   5.752   4.889   2.326
    2PC     H5B 8654   5.783   4.942   2.157
    2PC     H5C 8655   5.900   4.985   2.284
    2PC     O33 8656   6.182   4.423   2.148
    2PC     O34 8657   6.000   4.257   2.177
    2PC     O21 8658   6.094   4.242   2.664
    2PC     C21 8659   5.975   4.187   2.692
    2PC     O22 8660   5.926   4.095   2.629
    3OL     C12 8661   5.900   4.258   2.802
    3OL     H2R 8662   5.868   4.358   2.771
    3OL     H2S 8663   5.965   4.271   2.889
    3OL     C13 8664   5.763   4.196   2.834
    3OL     H3R 8665   5.781   4.090   2.850
    3OL     H3S 8666   5.699   4.207   2.746
    3OL     C14 8667   5.691   4.248   2.959
    3OL     H4R 8668   5.586   4.222   2.940
    3OL     H4S 8669   5.703   4.357   2.951
    3OL     C15 8670   5.733   4.193   3.095
    3OL     H5R 8671   5.834   4.229   3.117
    3OL     H5S 8672   5.743   4.085   3.084
    3OL     C16 8673   5.628   4.238   3.198
    3OL     H6R 8674   5.534   4.206   3.152
    3OL     H6S 8675   5.617   4.346   3.207
    3OL     C17 8676   5.640   4.171   3.335
    3OL     H7R 8677   5.742   4.204   3.358
    3OL     H7S 8678   5.652   4.063   3.322
    3OL     C18 8679   5.539   4.207   3.444
    3OL     H8R 8680   5.448   4.149   3.428
    3OL     H8S 8681   5.506   4.309   3.424
    3OL     C19 8682   5.585   4.181   3.585
    3OL     H9R 8683   5.604   4.078   3.615
    3OL    C110 8684   5.592   4.276   3.677
    3OL    H10R 8685   5.624   4.246   3.776
    3OL    C111 8686   5.581   4.424   3.649
    3OL    H11R 8687   5.534   4.446   3.553
    3OL    H11S 8688   5.676   4.474   3.631
    3OL    C112 8689   5.495   4.502   3.749
    3OL    H12R 8690   5.389   4.479   3.737
    3OL    H12S 8691   5.503   4.604   3.711
    3OL    C113 8692   5.537   4.493   3.896
    3OL    H13R 8693   5.642   4.519   3.914
    3OL    H13S 8694   5.517   4.393   3.933
    3OL    C114 8695   5.469   4.603   3.979
    3OL    H14R 8696   5.444   4.566   4.079
    3OL    H14S 8697   5.372   4.633   3.938
    3OL    C115 8698   5.564   4.723   3.985
    3OL    H15R 8699   5.571   4.774   3.888
    3OL    H15S 8700   5.665   4.696   4.017
    3OL    C116 8701   5.545   4.833   4.091
    3OL    H16R 8702   5.616   4.914   4.074
    3OL    H16S 8703   5.571   4.784   4.185
    3OL    C117 8704   5.407   4.901   4.095
    3OL    H17R 8705   5.338   4.837   4.150
    3OL    H17S 8706   5.360   4.918   3.997
    3OL    C118 8707   5.422   5.033   4.172
    3OL    H18R 8708   5.463   5.027   4.272
    3OL    H18S 8709   5.317   5.060   4.185
    3OL    H18T 8710   5.471   5.115   4.118
    1PA    C116 8711   0.501   3.963   4.242
    1PA    H16R 8712   0.514   3.968   4.350
    1PA    H16S 8713   0.523   4.064   4.207
    1PA    H16T 8714   0.571   3.891   4.200
    1PA    C115 8715   0.357   3.917   4.218
    1PA    H15R 8716   0.345   3.818   4.262
    1PA    H15S 8717   0.295   3.996   4.260
    1PA    C114 8718   0.314   3.929   4.070
    1PA    H14R 8719   0.358   3.848   4.011
    1PA    H14S 8720   0.207   3.911   4.072
    1PA    C113 8721   0.328   4.064   4.000
    1PA    H13R 8722   0.263   4.129   4.059
    1PA    H13S 8723   0.431   4.092   4.022
    1PA    C112 8724   0.292   4.064   3.851
    1PA    H12R 8725   0.186   4.044   3.832
    1PA    H12S 8726   0.310   4.164   3.812
    1PA    C111 8727   0.371   3.968   3.761
    1PA    H11R 8728   0.476   3.971   3.792
    1PA    H11S 8729   0.352   3.861   3.774
    1PA    C110 8730   0.359   3.998   3.611
    1PA    H10R 8731   0.255   4.003   3.578
    1PA    H10S 8732   0.389   4.103   3.603
    1PA     C19 8733   0.441   3.898   3.527
    1PA     H9R 8734   0.546   3.903   3.559
    1PA     H9S 8735   0.405   3.797   3.546
    1PA     C18 8736   0.432   3.942   3.381
    1PA     H8R 8737   0.330   3.958   3.345
    1PA     H8S 8738   0.476   4.042   3.374
    1PA     C17 8739   0.501   3.848   3.281
    1PA     H7R 8740   0.455   3.749   3.289
    1PA     H7S 8741   0.470   3.873   3.179
    1PA     C16 8742   0.652   3.838   3.304
    1PA     H6R 8743   0.696   3.937   3.290
    1PA     H6S 8744   0.675   3.807   3.406
    1PA     C15 8745   0.723   3.751   3.199
    1PA     H5R 8746   0.830   3.763   3.220
    1PA     H5S 8747   0.705   3.643   3.196
    1PA     C14 8748   0.696   3.804   3.057
    1PA     H4R 8749   0.597   3.762   3.039
    1PA     H4S 8750   0.699   3.913   3.048
    1PA     C13 8751   0.790   3.745   2.951
    1PA     H3R 8752   0.889   3.780   2.980
    1PA     H3S 8753   0.775   3.637   2.949
    1PA     C12 8754   0.774   3.808   2.812
    1PA     H2R 8755   0.671   3.799   2.776
    1PA     H2S 8756   0.802   3.912   2.823
    2PC     C11 8757   0.862   3.749   2.705
    2PC     O12 8758   0.927   3.646   2.712
    2PC     O11 8759   0.857   3.825   2.594
    2PC      C1 8760   0.945   3.787   2.487
    2PC      HR 8761   1.050   3.806   2.512
    2PC      HS 8762   0.946   3.682   2.455
    2PC      C2 8763   0.910   3.872   2.365
    2PC      HX 8764   0.805   3.860   2.338
    2PC      C3 8765   0.993   3.849   2.238
    2PC      HA 8766   1.099   3.871   2.258
    2PC      HB 8767   0.970   3.746   2.209
    2PC     O31 8768   0.936   3.929   2.133
    2PC     P31 8769   1.016   3.948   1.995
    2PC     O32 8770   0.909   4.036   1.915
    2PC     C31 8771   0.894   4.176   1.946
    2PC     H1A 8772   0.877   4.189   2.053
    2PC     H1B 8773   0.982   4.237   1.926
    2PC     C32 8774   0.781   4.232   1.858
    2PC     H2A 8775   0.688   4.175   1.865
    2PC     H2B 8776   0.756   4.331   1.895
    2PC     N31 8777   0.796   4.262   1.711
    2PC     C33 8778   0.830   4.406   1.689
    2PC     H3A 8779   0.845   4.417   1.581
    2PC     H3B 8780   0.750   4.469   1.728
    2PC     H3C 8781   0.914   4.427   1.755
    2PC     C34 8782   0.904   4.174   1.654
    2PC     H4A 8783   0.903   4.203   1.549
    2PC     H4B 8784   1.001   4.186   1.703
    2PC     H4C 8785   0.870   4.071   1.664
    2PC     C35 8786   0.668   4.238   1.638
    2PC     H5A 8787   0.665   4.288   1.541
    2PC     H5B 8788   0.583   4.277   1.695
    2PC     H5C 8789   0.658   4.131   1.619
    2PC     O33 8790   1.150   4.010   1.994
    2PC     O34 8791   1.040   3.828   1.912
    2PC     O21 8792   0.935   4.007   2.409
    2PC     C21 8793   0.852   4.107   2.376
    2PC     O22 8794   0.759   4.099   2.299
    3OL     C12 8795   0.879   4.240   2.442
    3OL     H2R 8796   0.825   4.318   2.388
    3OL     H2S 8797   0.987   4.260   2.445
    3OL     C13 8798   0.833   4.239   2.589
    3OL     H3R 8799   0.865   4.149   2.643
    3OL     H3S 8800   0.725   4.224   2.582
    3OL     C14 8801   0.866   4.370   2.662
    3OL     H4R 8802   0.810   4.446   2.608
    3OL     H4S 8803   0.966   4.413   2.657
    3OL     C15 8804   0.812   4.369   2.805
    3OL     H5R 8805   0.716   4.319   2.821
    3OL     H5S 8806   0.793   4.475   2.828
    3OL     C16 8807   0.911   4.311   2.907
    3OL     H6R 8808   0.999   4.373   2.888
    3OL     H6S 8809   0.930   4.204   2.894
    3OL     C17 8810   0.864   4.331   3.052
    3OL     H7R 8811   0.768   4.282   3.071
    3OL     H7S 8812   0.854   4.438   3.070
    3OL     C18 8813   0.970   4.265   3.142
    3OL     H8R 8814   1.069   4.290   3.104
    3OL     H8S 8815   0.958   4.157   3.135
    3OL     C19 8816   0.956   4.300   3.288
    3OL     H9R 8817   0.967   4.406   3.305
    3OL    C110 8818   0.953   4.222   3.395
    3OL    H10R 8819   0.935   4.270   3.491
    3OL    C111 8820   0.960   4.072   3.403
    3OL    H11R 8821   1.062   4.036   3.421
    3OL    H11S 8822   0.932   4.026   3.308
    3OL    C112 8823   0.871   4.004   3.507
    3OL    H12R 8824   0.884   3.896   3.504
    3OL    H12S 8825   0.765   4.030   3.495
    3OL    C113 8826   0.891   4.041   3.655
    3OL    H13R 8827   0.813   3.978   3.699
    3OL    H13S 8828   0.874   4.148   3.670
    3OL    C114 8829   1.028   4.001   3.711
    3OL    H14R 8830   1.023   4.022   3.819
    3OL    H14S 8831   1.088   4.082   3.669
    3OL    C115 8832   1.084   3.863   3.674
    3OL    H15R 8833   1.068   3.841   3.568
    3OL    H15S 8834   1.040   3.788   3.739
    3OL    C116 8835   1.236   3.848   3.691
    3OL    H16R 8836   1.261   3.743   3.672
    3OL    H16S 8837   1.260   3.877   3.793
    3OL    C117 8838   1.321   3.927   3.592
    3OL    H17R 8839   1.303   4.035   3.598
    3OL    H17S 8840   1.294   3.897   3.490
    3OL    C118 8841   1.470   3.902   3.619
    3OL    H18R 8842   1.539   3.927   3.538
    3OL    H18S 8843   1.485   3.793   3.621
    3OL    H18T 8844   1.501   3.938   3.718
    1PA    C116 8845   0.899   6.000   4.076
    1PA    H16R 8846   0.874   6.009   4.182
    1PA    H16S 8847   1.005   5.986   4.056
    1PA    H16T 8848   0.854   5.906   4.040
    1PA    C115 8849   0.844   6.115   3.991
    1PA    H15R 8850   0.737   6.099   4.004
    1PA    H15S 8851   0.859   6.209   4.045
    1PA    C114 8852   0.881   6.112   3.842
    1PA    H14R 8853   0.987   6.089   3.828
    1PA    H14S 8854   0.812   6.036   3.805
    1PA    C113 8855   0.839   6.237   3.764
    1PA    H13R 8856   0.731   6.246   3.756
    1PA    H13S 8857   0.883   6.321   3.818
    1PA    C112 8858   0.905   6.237   3.625
    1PA    H12R 8859   0.883   6.134   3.597
    1PA    H12S 8860   0.852   6.300   3.554
    1PA    C111 8861   1.054   6.272   3.630
    1PA    H11R 8862   1.065   6.351   3.705
    1PA    H11S 8863   1.117   6.187   3.659
    1PA    C110 8864   1.107   6.326   3.497
    1PA    H10R 8865   1.094   6.258   3.412
    1PA    H10S 8866   1.050   6.416   3.472
    1PA     C19 8867   1.257   6.358   3.510
    1PA     H9R 8868   1.286   6.427   3.431
    1PA     H9S 8869   1.263   6.407   3.607
    1PA     C18 8870   1.353   6.239   3.504
    1PA     H8R 8871   1.453   6.276   3.528
    1PA     H8S 8872   1.328   6.174   3.588
    1PA     C17 8873   1.353   6.154   3.377
    1PA     H7R 8874   1.259   6.100   3.375
    1PA     H7S 8875   1.349   6.216   3.287
    1PA     C16 8876   1.475   6.061   3.377
    1PA     H6R 8877   1.568   6.115   3.360
    1PA     H6S 8878   1.484   6.014   3.475
    1PA     C15 8879   1.457   5.949   3.273
    1PA     H5R 8880   1.531   5.870   3.290
    1PA     H5S 8881   1.354   5.913   3.276
    1PA     C14 8882   1.484   6.000   3.130
    1PA     H4R 8883   1.403   6.056   3.082
    1PA     H4S 8884   1.578   6.054   3.125
    1PA     C13 8885   1.510   5.883   3.036
    1PA     H3R 8886   1.581   5.812   3.080
    1PA     H3S 8887   1.416   5.829   3.047
    1PA     C12 8888   1.547   5.921   2.892
    1PA     H2R 8889   1.460   5.969   2.847
    1PA     H2S 8890   1.631   5.990   2.879
    2PC     C11 8891   1.573   5.795   2.814
    2PC     O12 8892   1.485   5.715   2.791
    2PC     O11 8893   1.697   5.791   2.763
    2PC      C1 8894   1.738   5.692   2.667
    2PC      HR 8895   1.729   5.589   2.704
    2PC      HS 8896   1.668   5.688   2.583
    2PC      C2 8897   1.884   5.721   2.630
    2PC      HX 8898   1.888   5.830   2.633
    2PC      C3 8899   1.923   5.659   2.495
    2PC      HA 8900   1.883   5.721   2.414
    2PC      HB 8901   2.031   5.650   2.484
    2PC     O31 8902   1.861   5.530   2.482
    2PC     P31 8903   1.905   5.444   2.355
    2PC     O32 8904   1.795   5.494   2.250
    2PC     C31 8905   1.765   5.422   2.129
    2PC     H1A 8906   1.857   5.421   2.069
    2PC     H1B 8907   1.746   5.320   2.161
    2PC     C32 8908   1.654   5.489   2.046
    2PC     H2A 8909   1.552   5.467   2.077
    2PC     H2B 8910   1.677   5.595   2.061
    2PC     N31 8911   1.655   5.465   1.898
    2PC     C33 8912   1.786   5.490   1.830
    2PC     H3A 8913   1.818   5.591   1.858
    2PC     H3B 8914   1.860   5.415   1.859
    2PC     H3C 8915   1.770   5.475   1.724
    2PC     C34 8916   1.620   5.322   1.872
    2PC     H4A 8917   1.519   5.307   1.910
    2PC     H4B 8918   1.621   5.316   1.763
    2PC     H4C 8919   1.689   5.259   1.928
    2PC     C35 8920   1.564   5.563   1.831
    2PC     H5A 8921   1.588   5.563   1.725
    2PC     H5B 8922   1.568   5.663   1.876
    2PC     H5C 8923   1.462   5.533   1.858
    2PC     O33 8924   2.034   5.480   2.292
    2PC     O34 8925   1.901   5.296   2.358
    2PC     O21 8926   1.969   5.656   2.727
    2PC     C21 8927   2.098   5.690   2.737
    2PC     O22 8928   2.151   5.774   2.667
    3OL     C12 8929   2.164   5.603   2.841
    3OL     H2R 8930   2.193   5.668   2.923
    3OL     H2S 8931   2.263   5.570   2.808
    3OL     C13 8932   2.083   5.500   2.920
    3OL     H3R 8933   2.001   5.542   2.980
    3OL     H3S 8934   2.150   5.466   2.999
    3OL     C14 8935   2.037   5.380   2.836
    3OL     H4R 8936   2.127   5.326   2.805
    3OL     H4S 8937   1.983   5.420   2.751
    3OL     C15 8938   1.944   5.280   2.908
    3OL     H5R 8939   2.000   5.254   2.997
    3OL     H5S 8940   1.937   5.188   2.849
    3OL     C16 8941   1.802   5.335   2.930
    3OL     H6R 8942   1.800   5.435   2.973
    3OL     H6S 8943   1.763   5.264   3.003
    3OL     C17 8944   1.711   5.332   2.807
    3OL     H7R 8945   1.697   5.231   2.767
    3OL     H7S 8946   1.754   5.402   2.734
    3OL     C18 8947   1.570   5.384   2.840
    3OL     H8R 8948   1.511   5.394   2.749
    3OL     H8S 8949   1.586   5.485   2.877
    3OL     C19 8950   1.501   5.284   2.929
    3OL     H9R 8951   1.473   5.193   2.877
    3OL    C110 8952   1.482   5.300   3.059
    3OL    H10R 8953   1.440   5.219   3.117
    3OL    C111 8954   1.492   5.432   3.132
    3OL    H11R 8955   1.479   5.514   3.062
    3OL    H11S 8956   1.591   5.447   3.176
    3OL    C112 8957   1.387   5.441   3.244
    3OL    H12R 8958   1.395   5.354   3.309
    3OL    H12S 8959   1.285   5.432   3.204
    3OL    C113 8960   1.395   5.577   3.316
    3OL    H13R 8961   1.408   5.663   3.249
    3OL    H13S 8962   1.481   5.569   3.381
    3OL    C114 8963   1.268   5.603   3.398
    3OL    H14R 8964   1.232   5.510   3.442
    3OL    H14S 8965   1.196   5.629   3.321
    3OL    C115 8966   1.280   5.716   3.502
    3OL    H15R 8967   1.314   5.803   3.445
    3OL    H15S 8968   1.357   5.695   3.577
    3OL    C116 8969   1.146   5.750   3.568
    3OL    H16R 8970   1.112   5.656   3.613
    3OL    H16S 8971   1.081   5.779   3.486
    3OL    C117 8972   1.165   5.868   3.665
    3OL    H17R 8973   1.073   5.924   3.677
    3OL    H17S 8974   1.230   5.936   3.609
    3OL    C118 8975   1.209   5.830   3.807
    3OL    H18R 8976   1.314   5.800   3.807
    3OL    H18S 8977   1.145   5.748   3.841
    3OL    H18T 8978   1.196   5.912   3.877
    1PA    C116 8979   0.663   4.688   4.184
    1PA    H16R 8980   0.657   4.591   4.234
    1PA    H16S 8981   0.618   4.680   4.085
    1PA    H16T 8982   0.599   4.762   4.232
    1PA    C115 8983   0.809   4.733   4.174
    1PA    H15R 8984   0.848   4.763   4.272
    1PA    H15S 8985   0.873   4.647   4.149
    1PA    C114 8986   0.837   4.838   4.067
    1PA    H14R 8987   0.770   4.925   4.071
    1PA    H14S 8988   0.933   4.887   4.081
    1PA    C113 8989   0.837   4.775   3.927
    1PA    H13R 8990   0.881   4.676   3.937
    1PA    H13S 8991   0.738   4.760   3.883
    1PA    C112 8992   0.924   4.854   3.828
    1PA    H12R 8993   0.883   4.955   3.818
    1PA    H12S 8994   1.029   4.853   3.857
    1PA    C111 8995   0.926   4.791   3.688
    1PA    H11R 8996   1.014   4.824   3.633
    1PA    H11S 8997   0.933   4.682   3.699
    1PA    C110 8998   0.809   4.828   3.596
    1PA    H10R 8999   0.715   4.801   3.645
    1PA    H10S 9000   0.811   4.936   3.582
    1PA     C19 9001   0.814   4.746   3.466
    1PA     H9R 9002   0.912   4.771   3.423
    1PA     H9S 9003   0.810   4.639   3.487
    1PA     C18 9004   0.700   4.781   3.370
    1PA     H8R 9005   0.600   4.751   3.404
    1PA     H8S 9006   0.692   4.888   3.350
    1PA     C17 9007   0.717   4.717   3.231
    1PA     H7R 9008   0.805   4.749   3.174
    1PA     H7S 9009   0.719   4.609   3.245
    1PA     C16 9010   0.588   4.747   3.153
    1PA     H6R 9011   0.505   4.697   3.203
    1PA     H6S 9012   0.580   4.856   3.157
    1PA     C15 9013   0.603   4.699   3.009
    1PA     H5R 9014   0.690   4.742   2.960
    1PA     H5S 9015   0.621   4.591   3.009
    1PA     C14 9016   0.482   4.731   2.920
    1PA     H4R 9017   0.479   4.661   2.836
    1PA     H4S 9018   0.396   4.693   2.976
    1PA     C13 9019   0.471   4.879   2.884
    1PA     H3R 9020   0.476   4.934   2.978
    1PA     H3S 9021   0.558   4.910   2.826
    1PA     C12 9022   0.347   4.920   2.803
    1PA     H2R 9023   0.259   4.885   2.858
    1PA     H2S 9024   0.355   5.029   2.799
    2PC     C11 9025   0.333   4.863   2.664
    2PC     O12 9026   0.425   4.848   2.586
    2PC     O11 9027   0.206   4.843   2.628
    2PC      C1 9028   0.168   4.811   2.493
    2PC      HR 9029   0.059   4.818   2.496
    2PC      HS 9030   0.208   4.881   2.420
    2PC      C2 9031   0.198   4.668   2.445
    2PC      HX 9032   0.304   4.643   2.456
    2PC      C3 9033   0.153   4.655   2.299
    2PC      HA 9034   0.044   4.653   2.301
    2PC      HB 9035   0.186   4.743   2.243
    2PC     O31 9036   0.217   4.538   2.247
    2PC     P31 9037   0.181   4.487   2.100
    2PC     O32 9038   0.129   4.344   2.149
    2PC     C31 9039  -0.014   4.329   2.154
    2PC     H1A 9040  -0.050   4.369   2.248
    2PC     H1B 9041  -0.064   4.375   2.068
    2PC     C32 9042  -0.038   4.177   2.153
    2PC     H2A 9043   0.020   4.136   2.236
    2PC     H2B 9044  -0.142   4.158   2.178
    2PC     N31 9045  -0.005   4.104   2.026
    2PC     C33 9046   0.142   4.075   2.021
    2PC     H3A 9047   0.161   4.017   1.930
    2PC     H3B 9048   0.195   4.170   2.009
    2PC     H3C 9049   0.174   4.019   2.109
    2PC     C34 9050  -0.082   3.975   2.023
    2PC     H4A 9051  -0.068   3.914   1.934
    2PC     H4B 9052  -0.058   3.926   2.118
    2PC     H4C 9053  -0.188   3.998   2.035
    2PC     C35 9054  -0.048   4.182   1.906
    2PC     H5A 9055  -0.032   4.124   1.815
    2PC     H5B 9056   0.019   4.268   1.916
    2PC     H5C 9057  -0.153   4.212   1.908
    2PC     O33 9058   0.077   4.565   2.028
    2PC     O34 9059   0.296   4.518   2.011
    2PC     O21 9060   0.111   4.584   2.524
    2PC     C21 9061   0.161   4.547   2.643
    2PC     O22 9062   0.277   4.553   2.678
    3OL     C12 9063   0.053   4.507   2.740
    3OL     H2R 9064   0.069   4.400   2.753
    3OL     H2S 9065  -0.044   4.527   2.694
    3OL     C13 9066   0.054   4.590   2.869
    3OL     H3R 9067   0.062   4.694   2.839
    3OL     H3S 9068   0.150   4.569   2.917
    3OL     C14 9069  -0.067   4.570   2.962
    3OL     H4R 9070  -0.041   4.611   3.060
    3OL     H4S 9071  -0.078   4.462   2.965
    3OL     C15 9072  -0.194   4.632   2.903
    3OL     H5R 9073  -0.226   4.575   2.815
    3OL     H5S 9074  -0.173   4.734   2.870
    3OL     C16 9075  -0.310   4.635   3.003
    3OL     H6R 9076  -0.385   4.705   2.964
    3OL     H6S 9077  -0.263   4.674   3.094
    3OL     C17 9078  -0.362   4.493   3.032
    3OL     H7R 9079  -0.292   4.432   3.090
    3OL     H7S 9080  -0.392   4.444   2.939
    3OL     C18 9081  -0.487   4.493   3.120
    3OL     H8R 9082  -0.470   4.533   3.220
    3OL     H8S 9083  -0.514   4.389   3.137
    3OL     C19 9084  -0.606   4.572   3.068
    3OL     H9R 9085  -0.603   4.577   2.960
    3OL    C110 9086  -0.693   4.635   3.145
    3OL    H10R 9087  -0.767   4.695   3.092
    3OL    C111 9088  -0.694   4.649   3.295
    3OL    H11R 9089  -0.622   4.588   3.349
    3OL    H11S 9090  -0.792   4.622   3.335
    3OL    C112 9091  -0.678   4.796   3.337
    3OL    H12R 9092  -0.757   4.857   3.292
    3OL    H12S 9093  -0.589   4.846   3.299
    3OL    C113 9094  -0.677   4.817   3.489
    3OL    H13R 9095  -0.590   4.762   3.525
    3OL    H13S 9096  -0.760   4.766   3.538
    3OL    C114 9097  -0.673   4.967   3.525
    3OL    H14R 9098  -0.775   5.003   3.509
    3OL    H14S 9099  -0.594   5.015   3.467
    3OL    C115 9100  -0.648   4.963   3.676
    3OL    H15R 9101  -0.721   4.893   3.718
    3OL    H15S 9102  -0.686   5.059   3.713
    3OL    C116 9103  -0.504   4.934   3.720
    3OL    H16R 9104  -0.437   5.020   3.710
    3OL    H16S 9105  -0.455   4.862   3.653
    3OL    C117 9106  -0.497   4.870   3.859
    3OL    H17R 9107  -0.546   4.926   3.939
    3OL    H17S 9108  -0.395   4.884   3.894
    3OL    C118 9109  -0.539   4.722   3.864
    3OL    H18R 9110  -0.644   4.721   3.833
    3OL    H18S 9111  -0.526   4.675   3.961
    3OL    H18T 9112  -0.483   4.673   3.784
    1PA    C116 9113   1.284   3.607   3.325
    1PA    H16R 9114   1.381   3.618   3.276
    1PA    H16S 9115   1.268   3.701   3.377
    1PA    H16T 9116   1.195   3.593   3.262
    1PA    C115 9117   1.287   3.499   3.434
    1PA    H15R 9118   1.353   3.422   3.393
    1PA    H15S 9119   1.335   3.540   3.524
    1PA    C114 9120   1.147   3.444   3.465
    1PA    H14R 9121   1.115   3.378   3.384
    1PA    H14S 9122   1.151   3.363   3.539
    1PA    C113 9123   1.041   3.544   3.512
    1PA    H13R 9124   1.071   3.608   3.596
    1PA    H13S 9125   1.024   3.618   3.433
    1PA    C112 9126   0.905   3.486   3.552
    1PA    H12R 9127   0.869   3.426   3.469
    1PA    H12S 9128   0.925   3.418   3.635
    1PA    C111 9129   0.808   3.600   3.585
    1PA    H11R 9130   0.855   3.688   3.629
    1PA    H11S 9131   0.774   3.643   3.491
    1PA    C110 9132   0.682   3.555   3.660
    1PA    H10R 9133   0.709   3.506   3.753
    1PA    H10S 9134   0.618   3.638   3.690
    1PA     C19 9135   0.600   3.442   3.595
    1PA     H9R 9136   0.658   3.351   3.576
    1PA     H9S 9137   0.537   3.406   3.676
    1PA     C18 9138   0.521   3.480   3.468
    1PA     H8R 9139   0.460   3.570   3.481
    1PA     H8S 9140   0.589   3.495   3.384
    1PA     C17 9141   0.433   3.361   3.430
    1PA     H7R 9142   0.492   3.273   3.403
    1PA     H7S 9143   0.372   3.330   3.515
    1PA     C16 9144   0.345   3.393   3.308
    1PA     H6R 9145   0.257   3.329   3.314
    1PA     H6S 9146   0.309   3.496   3.322
    1PA     C15 9147   0.433   3.365   3.186
    1PA     H5R 9148   0.528   3.419   3.192
    1PA     H5S 9149   0.463   3.260   3.182
    1PA     C14 9150   0.365   3.397   3.052
    1PA     H4R 9151   0.416   3.350   2.968
    1PA     H4S 9152   0.259   3.373   3.051
    1PA     C13 9153   0.371   3.547   3.021
    1PA     H3R 9154   0.329   3.605   3.104
    1PA     H3S 9155   0.474   3.582   3.014
    1PA     C12 9156   0.285   3.575   2.897
    1PA     H2R 9157   0.180   3.545   2.893
    1PA     H2S 9158   0.295   3.680   2.871
    2PC     C11 9159   0.355   3.503   2.784
    2PC     O12 9160   0.311   3.412   2.717
    2PC     O11 9161   0.478   3.556   2.767
    2PC      C1 9162   0.547   3.528   2.644
    2PC      HR 9163   0.647   3.573   2.642
    2PC      HS 9164   0.557   3.421   2.625
    2PC      C2 9165   0.489   3.596   2.519
    2PC      HX 9166   0.380   3.584   2.521
    2PC      C3 9167   0.549   3.540   2.389
    2PC      HA 9168   0.521   3.434   2.389
    2PC      HB 9169   0.522   3.582   2.292
    2PC     O31 9170   0.692   3.537   2.397
    2PC     P31 9171   0.776   3.479   2.273
    2PC     O32 9172   0.737   3.605   2.182
    2PC     C31 9173   0.768   3.598   2.042
    2PC     H1A 9174   0.874   3.578   2.024
    2PC     H1B 9175   0.709   3.519   1.995
    2PC     C32 9176   0.735   3.730   1.972
    2PC     H2A 9177   0.783   3.814   2.022
    2PC     H2B 9178   0.769   3.723   1.868
    2PC     N31 9179   0.590   3.767   1.973
    2PC     C33 9180   0.573   3.867   1.864
    2PC     H3A 9181   0.468   3.897   1.854
    2PC     H3B 9182   0.629   3.956   1.892
    2PC     H3C 9183   0.611   3.817   1.775
    2PC     C34 9184   0.504   3.650   1.934
    2PC     H4A 9185   0.519   3.574   2.011
    2PC     H4B 9186   0.401   3.684   1.929
    2PC     H4C 9187   0.550   3.604   1.846
    2PC     C35 9188   0.536   3.819   2.103
    2PC     H5A 9189   0.435   3.849   2.073
    2PC     H5B 9190   0.601   3.898   2.142
    2PC     H5C 9191   0.523   3.737   2.173
    2PC     O33 9192   0.919   3.471   2.308
    2PC     O34 9193   0.719   3.351   2.223
    2PC     O21 9194   0.525   3.734   2.536
    2PC     C21 9195   0.461   3.830   2.468
    2PC     O22 9196   0.383   3.806   2.378
    3OL     C12 9197   0.492   3.968   2.520
    3OL     H2R 9198   0.467   4.045   2.446
    3OL     H2S 9199   0.598   3.971   2.549
    3OL     C13 9200   0.410   4.004   2.645
    3OL     H3R 9201   0.320   4.057   2.614
    3OL     H3S 9202   0.381   3.907   2.685
    3OL     C14 9203   0.489   4.091   2.743
    3OL     H4R 9204   0.509   4.191   2.703
    3OL     H4S 9205   0.585   4.055   2.781
    3OL     C15 9206   0.403   4.111   2.869
    3OL     H5R 9207   0.360   4.021   2.913
    3OL     H5S 9208   0.320   4.172   2.834
    3OL     C16 9209   0.470   4.201   2.974
    3OL     H6R 9210   0.481   4.298   2.924
    3OL     H6S 9211   0.562   4.151   3.007
    3OL     C17 9212   0.376   4.217   3.094
    3OL     H7R 9213   0.376   4.116   3.136
    3OL     H7S 9214   0.277   4.241   3.056
    3OL     C18 9215   0.429   4.323   3.192
    3OL     H8R 9216   0.346   4.353   3.256
    3OL     H8S 9217   0.463   4.406   3.129
    3OL     C19 9218   0.548   4.276   3.272
    3OL     H9R 9219   0.608   4.196   3.229
    3OL    C110 9220   0.585   4.309   3.395
    3OL    H10R 9221   0.676   4.265   3.433
    3OL    C111 9222   0.520   4.412   3.484
    3OL    H11R 9223   0.411   4.417   3.475
    3OL    H11S 9224   0.561   4.508   3.454
    3OL    C112 9225   0.562   4.400   3.632
    3OL    H12R 9226   0.671   4.401   3.638
    3OL    H12S 9227   0.528   4.302   3.667
    3OL    C113 9228   0.508   4.516   3.717
    3OL    H13R 9229   0.565   4.606   3.691
    3OL    H13S 9230   0.534   4.501   3.822
    3OL    C114 9231   0.359   4.551   3.702
    3OL    H14R 9232   0.293   4.471   3.736
    3OL    H14S 9233   0.333   4.569   3.598
    3OL    C115 9234   0.329   4.675   3.788
    3OL    H15R 9235   0.316   4.642   3.891
    3OL    H15S 9236   0.233   4.713   3.752
    3OL    C116 9237   0.427   4.790   3.766
    3OL    H16R 9238   0.453   4.816   3.664
    3OL    H16S 9239   0.523   4.776   3.817
    3OL    C117 9240   0.401   4.919   3.846
    3OL    H17R 9241   0.395   4.885   3.950
    3OL    H17S 9242   0.304   4.960   3.819
    3OL    C118 9243   0.502   5.031   3.817
    3OL    H18R 9244   0.483   5.077   3.719
    3OL    H18S 9245   0.603   4.991   3.831
    3OL    H18T 9246   0.498   5.120   3.880
    1PA    C116 9247   0.388   2.883   3.594
    1PA    H16R 9248   0.441   2.823   3.520
    1PA    H16S 9249   0.328   2.817   3.657
    1PA    H16T 9250   0.458   2.922   3.668
    1PA    C115 9251   0.298   2.994   3.537
    1PA    H15R 9252   0.362   3.065   3.484
    1PA    H15S 9253   0.229   2.943   3.469
    1PA    C114 9254   0.206   3.060   3.639
    1PA    H14R 9255   0.230   3.038   3.744
    1PA    H14S 9256   0.240   3.164   3.645
    1PA    C113 9257   0.054   3.050   3.619
    1PA    H13R 9258   0.032   2.949   3.583
    1PA    H13S 9259  -0.002   3.070   3.710
    1PA    C112 9260   0.009   3.158   3.520
    1PA    H12R 9261   0.026   3.251   3.575
    1PA    H12S 9262   0.071   3.155   3.430
    1PA    C111 9263  -0.139   3.140   3.486
    1PA    H11R 9264  -0.141   3.060   3.411
    1PA    H11S 9265  -0.194   3.109   3.576
    1PA    C110 9266  -0.191   3.273   3.432
    1PA    H10R 9267  -0.194   3.351   3.509
    1PA    H10S 9268  -0.123   3.297   3.350
    1PA     C19 9269  -0.337   3.266   3.384
    1PA     H9R 9270  -0.351   3.186   3.311
    1PA     H9S 9271  -0.404   3.247   3.468
    1PA     C18 9272  -0.370   3.400   3.315
    1PA     H8R 9273  -0.478   3.397   3.297
    1PA     H8S 9274  -0.344   3.484   3.379
    1PA     C17 9275  -0.306   3.420   3.178
    1PA     H7R 9276  -0.277   3.525   3.169
    1PA     H7S 9277  -0.205   3.377   3.175
    1PA     C16 9278  -0.395   3.375   3.062
    1PA     H6R 9279  -0.498   3.373   3.098
    1PA     H6S 9280  -0.391   3.459   2.992
    1PA     C15 9281  -0.358   3.242   2.994
    1PA     H5R 9282  -0.258   3.261   2.953
    1PA     H5S 9283  -0.349   3.165   3.070
    1PA     C14 9284  -0.453   3.194   2.883
    1PA     H4R 9285  -0.537   3.142   2.928
    1PA     H4S 9286  -0.499   3.278   2.831
    1PA     C13 9287  -0.400   3.092   2.781
    1PA     H3R 9288  -0.484   3.058   2.720
    1PA     H3S 9289  -0.334   3.141   2.710
    1PA     C12 9290  -0.324   2.971   2.839
    1PA     H2R 9291  -0.240   3.000   2.902
    1PA     H2S 9292  -0.397   2.909   2.891
    2PC     C11 9293  -0.272   2.893   2.721
    2PC     O12 9294  -0.315   2.783   2.692
    2PC     O11 9295  -0.173   2.959   2.658
    2PC      C1 9296  -0.130   2.903   2.533
    2PC      HR 9297  -0.083   2.805   2.551
    2PC      HS 9298  -0.218   2.885   2.472
    2PC      C2 9299  -0.035   3.007   2.472
    2PC      HX 9300  -0.064   3.106   2.506
    2PC      C3 9301  -0.012   2.994   2.321
    2PC      HA 9302  -0.090   3.044   2.262
    2PC      HB 9303   0.086   3.036   2.298
    2PC     O31 9304  -0.032   2.860   2.273
    2PC     P31 9305  -0.029   2.833   2.115
    2PC     O32 9306  -0.025   2.673   2.112
    2PC     C31 9307  -0.119   2.596   2.190
    2PC     H1A 9308  -0.106   2.613   2.297
    2PC     H1B 9309  -0.222   2.617   2.162
    2PC     C32 9310  -0.096   2.447   2.159
    2PC     H2A 9311   0.010   2.424   2.175
    2PC     H2B 9312  -0.160   2.387   2.224
    2PC     N31 9313  -0.127   2.396   2.021
    2PC     C33 9314  -0.269   2.423   1.983
    2PC     H3A 9315  -0.287   2.531   1.988
    2PC     H3B 9316  -0.280   2.392   1.879
    2PC     H3C 9317  -0.341   2.372   2.048
    2PC     C34 9318  -0.029   2.449   1.921
    2PC     H4A 9319   0.048   2.372   1.915
    2PC     H4B 9320  -0.080   2.437   1.826
    2PC     H4C 9321  -0.006   2.554   1.945
    2PC     C35 9322  -0.116   2.247   2.029
    2PC     H5A 9323  -0.019   2.217   2.068
    2PC     H5B 9324  -0.133   2.205   1.929
    2PC     H5C 9325  -0.193   2.209   2.097
    2PC     O33 9326  -0.156   2.879   2.055
    2PC     O34 9327   0.089   2.901   2.057
    2PC     O21 9328   0.095   2.992   2.532
    2PC     C21 9329   0.138   3.076   2.628
    2PC     O22 9330   0.083   3.179   2.662
    3OL     C12 9331   0.254   3.012   2.700
    3OL     H2R 9332   0.334   3.042   2.633
    3OL     H2S 9333   0.241   2.903   2.695
    3OL     C13 9334   0.285   3.063   2.841
    3OL     H3R 9335   0.325   3.165   2.835
    3OL     H3S 9336   0.365   3.000   2.880
    3OL     C14 9337   0.170   3.044   2.941
    3OL     H4R 9338   0.115   2.951   2.928
    3OL     H4S 9339   0.093   3.122   2.935
    3OL     C15 9340   0.222   3.065   3.083
    3OL     H5R 9341   0.131   3.046   3.140
    3OL     H5S 9342   0.251   3.164   3.119
    3OL     C16 9343   0.317   2.952   3.126
    3OL     H6R 9344   0.357   2.971   3.226
    3OL     H6S 9345   0.411   2.954   3.070
    3OL     C17 9346   0.256   2.811   3.123
    3OL     H7R 9347   0.234   2.768   3.025
    3OL     H7S 9348   0.158   2.813   3.171
    3OL     C18 9349   0.355   2.715   3.191
    3OL     H8R 9350   0.307   2.620   3.215
    3OL     H8S 9351   0.393   2.760   3.283
    3OL     C19 9352   0.467   2.696   3.092
    3OL     H9R 9353   0.428   2.663   2.996
    3OL    C110 9354   0.587   2.752   3.097
    3OL    H10R 9355   0.640   2.750   3.002
    3OL    C111 9356   0.664   2.796   3.219
    3OL    H11R 9357   0.767   2.760   3.210
    3OL    H11S 9358   0.624   2.761   3.314
    3OL    C112 9359   0.689   2.947   3.216
    3OL    H12R 9360   0.592   2.990   3.190
    3OL    H12S 9361   0.756   2.971   3.133
    3OL    C113 9362   0.742   3.007   3.346
    3OL    H13R 9363   0.715   2.944   3.432
    3OL    H13S 9364   0.702   3.106   3.370
    3OL    C114 9365   0.893   3.035   3.348
    3OL    H14R 9366   0.917   3.091   3.438
    3OL    H14S 9367   0.908   3.104   3.264
    3OL    C115 9368   0.964   2.900   3.361
    3OL    H15R 9369   0.941   2.848   3.267
    3OL    H15S 9370   0.925   2.833   3.437
    3OL    C116 9371   1.117   2.912   3.374
    3OL    H16R 9372   1.154   2.965   3.462
    3OL    H16S 9373   1.147   2.970   3.287
    3OL    C117 9374   1.190   2.778   3.358
    3OL    H17R 9375   1.140   2.710   3.428
    3OL    H17S 9376   1.291   2.790   3.397
    3OL    C118 9377   1.203   2.706   3.223
    3OL    H18R 9378   1.249   2.608   3.240
    3OL    H18S 9379   1.276   2.766   3.167
    3OL    H18T 9380   1.106   2.698   3.173
    1PA    C116 9381   1.638   4.418   4.582
    1PA    H16R 9382   1.623   4.525   4.596
    1PA    H16S 9383   1.746   4.403   4.593
    1PA    H16T 9384   1.585   4.353   4.652
    1PA    C115 9385   1.573   4.379   4.449
    1PA    H15R 9386   1.584   4.271   4.438
    1PA    H15S 9387   1.470   4.415   4.461
    1PA    C114 9388   1.630   4.458   4.330
    1PA    H14R 9389   1.600   4.561   4.351
    1PA    H14S 9390   1.739   4.448   4.326
    1PA    C113 9391   1.581   4.414   4.191
    1PA    H13R 9392   1.629   4.319   4.168
    1PA    H13S 9393   1.473   4.406   4.180
    1PA    C112 9394   1.636   4.523   4.098
    1PA    H12R 9395   1.595   4.623   4.116
    1PA    H12S 9396   1.741   4.544   4.116
    1PA    C111 9397   1.629   4.494   3.947
    1PA    H11R 9398   1.681   4.401   3.924
    1PA    H11S 9399   1.527   4.487   3.907
    1PA    C110 9400   1.721   4.595   3.878
    1PA    H10R 9401   1.684   4.692   3.910
    1PA    H10S 9402   1.824   4.579   3.912
    1PA     C19 9403   1.719   4.585   3.724
    1PA     H9R 9404   1.821   4.594   3.689
    1PA     H9S 9405   1.680   4.488   3.693
    1PA     C18 9406   1.638   4.696   3.656
    1PA     H8R 9407   1.541   4.714   3.703
    1PA     H8S 9408   1.694   4.788   3.671
    1PA     C17 9409   1.626   4.679   3.504
    1PA     H7R 9410   1.723   4.681   3.455
    1PA     H7S 9411   1.598   4.579   3.468
    1PA     C16 9412   1.534   4.789   3.450
    1PA     H6R 9413   1.433   4.768   3.484
    1PA     H6S 9414   1.569   4.880   3.501
    1PA     C15 9415   1.541   4.803   3.298
    1PA     H5R 9416   1.643   4.787   3.262
    1PA     H5S 9417   1.487   4.719   3.252
    1PA     C14 9418   1.473   4.932   3.250
    1PA     H4R 9419   1.370   4.921   3.285
    1PA     H4S 9420   1.511   5.028   3.286
    1PA     C13 9421   1.475   4.938   3.097
    1PA     H3R 9422   1.426   4.854   3.048
    1PA     H3S 9423   1.424   5.031   3.073
    1PA     C12 9424   1.618   4.953   3.041
    1PA     H2R 9425   1.664   5.046   3.074
    1PA     H2S 9426   1.680   4.870   3.075
    2PC     C11 9427   1.628   4.956   2.891
    2PC     O12 9428   1.730   4.983   2.831
    2PC     O11 9429   1.512   4.927   2.829
    2PC      C1 9430   1.498   4.976   2.695
    2PC      HR 9431   1.506   5.085   2.698
    2PC      HS 9432   1.581   4.943   2.632
    2PC      C2 9433   1.365   4.928   2.635
    2PC      HX 9434   1.355   4.820   2.647
    2PC      C3 9435   1.363   4.960   2.485
    2PC      HA 9436   1.355   5.067   2.467
    2PC      HB 9437   1.452   4.919   2.436
    2PC     O31 9438   1.254   4.890   2.423
    2PC     P31 9439   1.214   4.925   2.271
    2PC     O32 9440   1.120   5.051   2.299
    2PC     C31 9441   1.017   5.047   2.400
    2PC     H1A 9442   0.985   4.943   2.405
    2PC     H1B 9443   1.073   5.078   2.489
    2PC     C32 9444   0.899   5.129   2.348
    2PC     H2A 9445   0.870   5.086   2.252
    2PC     H2B 9446   0.807   5.130   2.407
    2PC     N31 9447   0.929   5.270   2.309
    2PC     C33 9448   1.020   5.344   2.402
    2PC     H3A 9449   1.088   5.276   2.455
    2PC     H3B 9450   1.066   5.431   2.355
    2PC     H3C 9451   0.948   5.380   2.475
    2PC     C34 9452   0.992   5.276   2.173
    2PC     H4A 9453   0.933   5.213   2.108
    2PC     H4B 9454   0.996   5.381   2.142
    2PC     H4C 9455   1.092   5.234   2.184
    2PC     C35 9456   0.801   5.345   2.286
    2PC     H5A 9457   0.752   5.339   2.383
    2PC     H5B 9458   0.737   5.287   2.219
    2PC     H5C 9459   0.824   5.450   2.266
    2PC     O33 9460   1.323   4.962   2.178
    2PC     O34 9461   1.137   4.826   2.193
    2PC     O21 9462   1.254   4.975   2.714
    2PC     C21 9463   1.219   5.105   2.723
    2PC     O22 9464   1.276   5.200   2.673
    3OL     C12 9465   1.107   5.124   2.821
    3OL     H2R 9466   1.035   5.045   2.800
    3OL     H2S 9467   1.066   5.225   2.809
    3OL     C13 9468   1.158   5.110   2.965
    3OL     H3R 9469   1.215   5.201   2.987
    3OL     H3S 9470   1.224   5.023   2.959
    3OL     C14 9471   1.049   5.091   3.072
    3OL     H4R 9472   1.006   4.992   3.061
    3OL     H4S 9473   0.971   5.164   3.051
    3OL     C15 9474   1.109   5.112   3.212
    3OL     H5R 9475   1.160   5.208   3.221
    3OL     H5S 9476   1.191   5.044   3.235
    3OL     C16 9477   0.996   5.107   3.316
    3OL     H6R 9478   0.938   5.016   3.298
    3OL     H6S 9479   0.934   5.194   3.295
    3OL     C17 9480   1.046   5.137   3.457
    3OL     H7R 9481   0.960   5.125   3.523
    3OL     H7S 9482   1.076   5.243   3.459
    3OL     C18 9483   1.155   5.040   3.505
    3OL     H8R 9484   1.247   5.059   3.450
    3OL     H8S 9485   1.117   4.938   3.509
    3OL     C19 9486   1.187   5.077   3.648
    3OL     H9R 9487   1.144   5.022   3.731
    3OL    C110 9488   1.245   5.189   3.688
    3OL    H10R 9489   1.271   5.202   3.793
    3OL    C111 9490   1.307   5.290   3.595
    3OL    H11R 9491   1.248   5.382   3.602
    3OL    H11S 9492   1.279   5.262   3.493
    3OL    C112 9493   1.452   5.336   3.616
    3OL    H12R 9494   1.461   5.357   3.722
    3OL    H12S 9495   1.461   5.429   3.559
    3OL    C113 9496   1.547   5.226   3.569
    3OL    H13R 9497   1.527   5.206   3.463
    3OL    H13S 9498   1.517   5.138   3.626
    3OL    C114 9499   1.694   5.265   3.590
    3OL    H14R 9500   1.714   5.283   3.696
    3OL    H14S 9501   1.713   5.362   3.543
    3OL    C115 9502   1.796   5.166   3.533
    3OL    H15R 9503   1.770   5.062   3.557
    3OL    H15S 9504   1.892   5.180   3.582
    3OL    C116 9505   1.812   5.160   3.380
    3OL    H16R 9506   1.727   5.115   3.328
    3OL    H16S 9507   1.900   5.102   3.354
    3OL    C117 9508   1.815   5.296   3.310
    3OL    H17R 9509   1.723   5.354   3.321
    3OL    H17S 9510   1.801   5.280   3.203
    3OL    C118 9511   1.937   5.387   3.335
    3OL    H18R 9512   2.027   5.326   3.346
    3OL    H18S 9513   1.922   5.442   3.428
    3OL    H18T 9514   1.949   5.447   3.245
    1PA    C116 9515   2.494   2.682   3.772
    1PA    H16R 9516   2.521   2.675   3.666
    1PA    H16S 9517   2.385   2.676   3.776
    1PA    H16T 9518   2.548   2.597   3.815
    1PA    C115 9519   2.535   2.812   3.841
    1PA    H15R 9520   2.515   2.800   3.948
    1PA    H15S 9521   2.644   2.814   3.845
    1PA    C114 9522   2.462   2.932   3.779
    1PA    H14R 9523   2.456   2.928   3.670
    1PA    H14S 9524   2.359   2.923   3.813
    1PA    C113 9525   2.527   3.057   3.840
    1PA    H13R 9526   2.501   3.054   3.946
    1PA    H13S 9527   2.636   3.057   3.830
    1PA    C112 9528   2.466   3.186   3.784
    1PA    H12R 9529   2.364   3.186   3.823
    1PA    H12S 9530   2.519   3.276   3.816
    1PA    C111 9531   2.454   3.182   3.631
    1PA    H11R 9532   2.552   3.174   3.585
    1PA    H11S 9533   2.386   3.101   3.603
    1PA    C110 9534   2.392   3.316   3.587
    1PA    H10R 9535   2.292   3.322   3.630
    1PA    H10S 9536   2.444   3.406   3.617
    1PA     C19 9537   2.382   3.320   3.434
    1PA     H9R 9538   2.480   3.304   3.388
    1PA     H9S 9539   2.312   3.244   3.399
    1PA     C18 9540   2.318   3.451   3.386
    1PA     H8R 9541   2.209   3.446   3.391
    1PA     H8S 9542   2.368   3.532   3.439
    1PA     C17 9543   2.339   3.467   3.235
    1PA     H7R 9544   2.445   3.470   3.209
    1PA     H7S 9545   2.303   3.380   3.179
    1PA     C16 9546   2.276   3.595   3.177
    1PA     H6R 9547   2.169   3.573   3.176
    1PA     H6S 9548   2.288   3.675   3.250
    1PA     C15 9549   2.341   3.632   3.044
    1PA     H5R 9550   2.450   3.634   3.048
    1PA     H5S 9551   2.314   3.549   2.977
    1PA     C14 9552   2.283   3.766   2.998
    1PA     H4R 9553   2.177   3.769   3.022
    1PA     H4S 9554   2.322   3.841   3.068
    1PA     C13 9555   2.331   3.799   2.856
    1PA     H3R 9556   2.439   3.813   2.845
    1PA     H3S 9557   2.308   3.709   2.798
    1PA     C12 9558   2.261   3.929   2.816
    1PA     H2R 9559   2.152   3.919   2.825
    1PA     H2S 9560   2.293   4.005   2.887
    2PC     C11 9561   2.290   3.973   2.675
    2PC     O12 9562   2.203   3.971   2.590
    2PC     O11 9563   2.411   4.028   2.659
    2PC      C1 9564   2.447   4.104   2.542
    2PC      HR 9565   2.555   4.118   2.542
    2PC      HS 9566   2.420   4.047   2.453
    2PC      C2 9567   2.365   4.233   2.526
    2PC      HX 9568   2.258   4.221   2.548
    2PC      C3 9569   2.366   4.295   2.385
    2PC      HA 9570   2.319   4.235   2.307
    2PC      HB 9571   2.307   4.386   2.384
    2PC     O31 9572   2.495   4.331   2.334
    2PC     P31 9573   2.508   4.387   2.184
    2PC     O32 9574   2.541   4.535   2.235
    2PC     C31 9575   2.655   4.563   2.318
    2PC     H1A 9576   2.637   4.506   2.410
    2PC     H1B 9577   2.748   4.528   2.272
    2PC     C32 9578   2.658   4.709   2.364
    2PC     H2A 9579   2.745   4.733   2.425
    2PC     H2B 9580   2.656   4.774   2.276
    2PC     N31 9581   2.548   4.767   2.448
    2PC     C33 9582   2.561   4.697   2.580
    2PC     H3A 9583   2.659   4.721   2.622
    2PC     H3B 9584   2.478   4.736   2.639
    2PC     H3C 9585   2.532   4.593   2.574
    2PC     C34 9586   2.583   4.911   2.470
    2PC     H4A 9587   2.595   4.962   2.374
    2PC     H4B 9588   2.499   4.952   2.526
    2PC     H4C 9589   2.671   4.921   2.533
    2PC     C35 9590   2.409   4.747   2.395
    2PC     H5A 9591   2.351   4.780   2.481
    2PC     H5B 9592   2.402   4.639   2.378
    2PC     H5C 9593   2.384   4.823   2.321
    2PC     O33 9594   2.625   4.328   2.115
    2PC     O34 9595   2.392   4.390   2.091
    2PC     O21 9596   2.414   4.331   2.618
    2PC     C21 9597   2.379   4.328   2.748
    2PC     O22 9598   2.296   4.250   2.791
    3OL     C12 9599   2.450   4.434   2.828
    3OL     H2R 9600   2.503   4.505   2.765
    3OL     H2S 9601   2.510   4.387   2.906
    3OL     C13 9602   2.342   4.515   2.900
    3OL     H3R 9603   2.400   4.554   2.984
    3OL     H3S 9604   2.276   4.442   2.949
    3OL     C14 9605   2.268   4.617   2.813
    3OL     H4R 9606   2.239   4.558   2.725
    3OL     H4S 9607   2.335   4.695   2.775
    3OL     C15 9608   2.146   4.675   2.886
    3OL     H5R 9609   2.097   4.593   2.939
    3OL     H5S 9610   2.077   4.711   2.809
    3OL     C16 9611   2.177   4.790   2.982
    3OL     H6R 9612   2.186   4.881   2.922
    3OL     H6S 9613   2.276   4.785   3.027
    3OL     C17 9614   2.068   4.820   3.087
    3OL     H7R 9615   1.973   4.779   3.051
    3OL     H7S 9616   2.046   4.927   3.094
    3OL     C18 9617   2.110   4.761   3.222
    3OL     H8R 9618   2.208   4.798   3.250
    3OL     H8S 9619   2.130   4.655   3.205
    3OL     C19 9620   2.006   4.789   3.328
    3OL     H9R 9621   1.906   4.756   3.302
    3OL    C110 9622   2.033   4.829   3.451
    3OL    H10R 9623   1.950   4.828   3.522
    3OL    C111 9624   2.167   4.869   3.508
    3OL    H11R 9625   2.198   4.973   3.496
    3OL    H11S 9626   2.243   4.818   3.447
    3OL    C112 9627   2.186   4.817   3.651
    3OL    H12R 9628   2.284   4.838   3.693
    3OL    H12S 9629   2.180   4.708   3.647
    3OL    C113 9630   2.076   4.873   3.743
    3OL    H13R 9631   1.975   4.850   3.709
    3OL    H13S 9632   2.085   4.982   3.748
    3OL    C114 9633   2.081   4.818   3.886
    3OL    H14R 9634   2.178   4.838   3.932
    3OL    H14S 9635   2.064   4.711   3.893
    3OL    C115 9636   1.960   4.869   3.966
    3OL    H15R 9637   1.869   4.829   3.921
    3OL    H15S 9638   1.942   4.976   3.959
    3OL    C116 9639   1.952   4.812   4.108
    3OL    H16R 9640   2.041   4.848   4.161
    3OL    H16S 9641   1.947   4.704   4.121
    3OL    C117 9642   1.828   4.858   4.185
    3OL    H17R 9643   1.734   4.838   4.133
    3OL    H17S 9644   1.834   4.967   4.191
    3OL    C118 9645   1.822   4.799   4.326
    3OL    H18R 9646   1.812   4.690   4.335
    3OL    H18S 9647   1.728   4.829   4.373
    3OL    H18T 9648   1.905   4.830   4.390
    1PA    C116 9649   0.155   5.486   4.103
    1PA    H16R 9650   0.202   5.478   4.201
    1PA    H16S 9651   0.062   5.429   4.109
    1PA    H16T 9652   0.122   5.589   4.086
    1PA    C115 9653   0.238   5.436   3.984
    1PA    H15R 9654   0.316   5.510   3.963
    1PA    H15S 9655   0.285   5.338   3.987
    1PA    C114 9656   0.152   5.423   3.857
    1PA    H14R 9657   0.217   5.386   3.778
    1PA    H14S 9658   0.079   5.346   3.883
    1PA    C113 9659   0.065   5.543   3.818
    1PA    H13R 9660  -0.015   5.516   3.748
    1PA    H13S 9661   0.002   5.591   3.893
    1PA    C112 9662   0.147   5.649   3.744
    1PA    H12R 9663   0.092   5.742   3.758
    1PA    H12S 9664   0.240   5.648   3.802
    1PA    C111 9665   0.162   5.623   3.593
    1PA    H11R 9666   0.191   5.519   3.577
    1PA    H11S 9667   0.066   5.635   3.542
    1PA    C110 9668   0.276   5.714   3.546
    1PA    H10R 9669   0.250   5.820   3.540
    1PA    H10S 9670   0.361   5.706   3.615
    1PA     C19 9671   0.321   5.681   3.403
    1PA     H9R 9672   0.430   5.688   3.397
    1PA     H9S 9673   0.299   5.577   3.376
    1PA     C18 9674   0.256   5.771   3.297
    1PA     H8R 9675   0.147   5.771   3.306
    1PA     H8S 9676   0.296   5.872   3.310
    1PA     C17 9677   0.294   5.727   3.154
    1PA     H7R 9678   0.403   5.727   3.147
    1PA     H7S 9679   0.252   5.628   3.135
    1PA     C16 9680   0.239   5.826   3.052
    1PA     H6R 9681   0.136   5.850   3.080
    1PA     H6S 9682   0.299   5.916   3.067
    1PA     C15 9683   0.246   5.766   2.911
    1PA     H5R 9684   0.347   5.732   2.885
    1PA     H5S 9685   0.189   5.673   2.908
    1PA     C14 9686   0.179   5.857   2.807
    1PA     H4R 9687   0.071   5.847   2.817
    1PA     H4S 9688   0.210   5.960   2.826
    1PA     C13 9689   0.218   5.818   2.664
    1PA     H3R 9690   0.187   5.902   2.602
    1PA     H3S 9691   0.325   5.807   2.645
    1PA     C12 9692   0.137   5.695   2.617
    1PA     H2R 9693   0.167   5.620   2.691
    1PA     H2S 9694   0.031   5.712   2.635
    2PC     C11 9695   0.174   5.642   2.481
    2PC     O12 9696   0.247   5.547   2.466
    2PC     O11 9697   0.109   5.703   2.380
    2PC      C1 9698   0.143   5.652   2.250
    2PC      HR 9699   0.128   5.734   2.180
    2PC      HS 9700   0.250   5.636   2.234
    2PC      C2 9701   0.043   5.541   2.211
    2PC      HX 9702   0.069   5.518   2.108
    2PC      C3 9703  -0.101   5.594   2.207
    2PC      HA 9704  -0.143   5.620   2.305
    2PC      HB 9705  -0.103   5.688   2.150
    2PC     O31 9706  -0.191   5.503   2.142
    2PC     P31 9707  -0.178   5.481   1.984
    2PC     O32 9708  -0.089   5.349   1.972
    2PC     C31 9709  -0.123   5.254   1.869
    2PC     H1A 9710  -0.211   5.194   1.892
    2PC     H1B 9711  -0.131   5.303   1.772
    2PC     C32 9712  -0.001   5.161   1.858
    2PC     H2A 9713   0.005   5.125   1.961
    2PC     H2B 9714  -0.028   5.078   1.792
    2PC     N31 9715   0.132   5.221   1.823
    2PC     C33 9716   0.128   5.295   1.693
    2PC     H3A 9717   0.228   5.298   1.651
    2PC     H3B 9718   0.068   5.230   1.629
    2PC     H3C 9719   0.084   5.393   1.711
    2PC     C34 9720   0.192   5.317   1.923
    2PC     H4A 9721   0.290   5.352   1.893
    2PC     H4B 9722   0.127   5.403   1.941
    2PC     H4C 9723   0.197   5.266   2.019
    2PC     C35 9724   0.219   5.101   1.805
    2PC     H5A 9725   0.227   5.046   1.899
    2PC     H5B 9726   0.315   5.142   1.773
    2PC     H5C 9727   0.183   5.034   1.727
    2PC     O33 9728  -0.314   5.443   1.940
    2PC     O34 9729  -0.131   5.598   1.906
    2PC     O21 9730   0.048   5.426   2.297
    2PC     C21 9731   0.156   5.348   2.281
    2PC     O22 9732   0.244   5.367   2.199
    3OL     C12 9733   0.143   5.218   2.356
    3OL     H2R 9734   0.244   5.180   2.370
    3OL     H2S 9735   0.074   5.153   2.301
    3OL     C13 9736   0.079   5.256   2.490
    3OL     H3R 9737  -0.024   5.291   2.485
    3OL     H3S 9738   0.126   5.346   2.532
    3OL     C14 9739   0.099   5.143   2.591
    3OL     H4R 9740   0.206   5.121   2.606
    3OL     H4S 9741   0.053   5.050   2.555
    3OL     C15 9742   0.037   5.195   2.721
    3OL     H5R 9743  -0.052   5.255   2.698
    3OL     H5S 9744   0.113   5.247   2.780
    3OL     C16 9745  -0.007   5.077   2.810
    3OL     H6R 9746   0.070   4.999   2.807
    3OL     H6S 9747  -0.093   5.019   2.777
    3OL     C17 9748  -0.028   5.131   2.952
    3OL     H7R 9749  -0.080   5.227   2.941
    3OL     H7S 9750   0.074   5.140   2.989
    3OL     C18 9751  -0.106   5.042   3.049
    3OL     H8R 9752  -0.040   4.960   3.078
    3OL     H8S 9753  -0.193   5.009   2.991
    3OL     C19 9754  -0.151   5.111   3.176
    3OL     H9R 9755  -0.117   5.214   3.186
    3OL    C110 9756  -0.228   5.055   3.268
    3OL    H10R 9757  -0.257   5.117   3.353
    3OL    C111 9758  -0.284   4.916   3.257
    3OL    H11R 9759  -0.257   4.881   3.157
    3OL    H11S 9760  -0.392   4.928   3.254
    3OL    C112 9761  -0.260   4.800   3.356
    3OL    H12R 9762  -0.313   4.711   3.322
    3OL    H12S 9763  -0.303   4.823   3.454
    3OL    C113 9764  -0.113   4.757   3.355
    3OL    H13R 9765  -0.053   4.814   3.426
    3OL    H13S 9766  -0.078   4.763   3.251
    3OL    C114 9767  -0.100   4.610   3.396
    3OL    H14R 9768  -0.149   4.544   3.324
    3OL    H14S 9769  -0.137   4.592   3.497
    3OL    C115 9770   0.046   4.563   3.389
    3OL    H15R 9771   0.102   4.620   3.463
    3OL    H15S 9772   0.094   4.584   3.293
    3OL    C116 9773   0.056   4.413   3.420
    3OL    H16R 9774  -0.002   4.386   3.508
    3OL    H16S 9775   0.157   4.395   3.458
    3OL    C117 9776   0.030   4.333   3.292
    3OL    H17R 9777   0.098   4.348   3.208
    3OL    H17S 9778  -0.076   4.352   3.274
    3OL    C118 9779   0.035   4.185   3.332
    3OL    H18R 9780   0.130   4.144   3.366
    3OL    H18S 9781   0.002   4.122   3.249
    3OL    H18T 9782  -0.039   4.166   3.411
    1PA    C116 9783   5.923   5.873   3.775
    1PA    H16R 9784   5.988   5.899   3.860
    1PA    H16S 9785   5.939   5.766   3.758
    1PA    H16T 9786   5.821   5.895   3.805
    1PA    C115 9787   5.959   5.955   3.651
    1PA    H15R 9788   5.880   5.950   3.575
    1PA    H15S 9789   5.951   6.061   3.678
    1PA    C114 9790   6.099   5.926   3.595
    1PA    H14R 9791   6.084   5.826   3.555
    1PA    H14S 9792   6.116   5.998   3.515
    1PA    C113 9793   6.213   5.931   3.697
    1PA    H13R 9794   6.189   6.010   3.768
    1PA    H13S 9795   6.214   5.838   3.755
    1PA    C112 9796   6.350   5.954   3.632
    1PA    H12R 9797   6.431   5.921   3.698
    1PA    H12S 9798   6.353   5.901   3.536
    1PA    C111 9799   6.382   6.104   3.630
    1PA    H11R 9800   6.295   6.159   3.593
    1PA    H11S 9801   6.386   6.142   3.733
    1PA    C110 9802   6.502   6.133   3.539
    1PA    H10R 9803   6.527   6.239   3.548
    1PA    H10S 9804   6.588   6.072   3.568
    1PA     C19 9805   6.460   6.094   3.397
    1PA     H9R 9806   6.446   5.986   3.383
    1PA     H9S 9807   6.363   6.144   3.386
    1PA     C18 9808   6.556   6.140   3.287
    1PA     H8R 9809   6.603   6.236   3.310
    1PA     H8S 9810   6.639   6.069   3.284
    1PA     C17 9811   6.507   6.138   3.142
    1PA     H7R 9812   6.469   6.039   3.116
    1PA     H7S 9813   6.422   6.207   3.134
    1PA     C16 9814   6.617   6.188   3.047
    1PA     H6R 9815   6.655   6.290   3.060
    1PA     H6S 9816   6.701   6.119   3.050
    1PA     C15 9817   6.573   6.189   2.900
    1PA     H5R 9818   6.539   6.092   2.862
    1PA     H5S 9819   6.487   6.256   2.898
    1PA     C14 9820   6.686   6.244   2.811
    1PA     H4R 9821   6.727   6.334   2.855
    1PA     H4S 9822   6.772   6.178   2.816
    1PA     C13 9823   6.636   6.266   2.667
    1PA     H3R 9824   6.611   6.173   2.616
    1PA     H3S 9825   6.542   6.320   2.680
    1PA     C12 9826   6.732   6.358   2.590
    1PA     H2R 9827   6.750   6.454   2.638
    1PA     H2S 9828   6.836   6.324   2.580
    2PC     C11 9829   6.675   6.393   2.455
    2PC     O12 9830   6.733   6.388   2.349
    2PC     O11 9831   6.546   6.431   2.453
    2PC      C1 9832   6.474   6.428   2.328
    2PC      HR 9833   6.384   6.489   2.336
    2PC      HS 9834   6.535   6.485   2.258
    2PC      C2 9835   6.449   6.288   2.271
    2PC      HX 9836   6.544   6.234   2.275
    2PC      C3 9837   6.413   6.305   2.122
    2PC      HA 9838   6.492   6.357   2.069
    2PC      HB 9839   6.403   6.206   2.078
    2PC     O31 9840   6.284   6.368   2.107
    2PC     P31 9841   6.232   6.386   1.957
    2PC     O32 9842   6.214   6.230   1.923
    2PC     C31 9843   6.099   6.162   1.978
    2PC     H1A 9844   6.125   6.112   2.072
    2PC     H1B 9845   6.015   6.230   1.989
    2PC     C32 9846   6.071   6.050   1.877
    2PC     H2A 9847   5.966   6.020   1.881
    2PC     H2B 9848   6.076   6.099   1.780
    2PC     N31 9849   6.154   5.926   1.875
    2PC     C33 9850   6.089   5.831   1.779
    2PC     H3A 9851   6.108   5.864   1.676
    2PC     H3B 9852   6.119   5.726   1.782
    2PC     H3C 9853   5.984   5.830   1.810
    2PC     C34 9854   6.298   5.945   1.839
    2PC     H4A 9855   6.298   6.010   1.752
    2PC     H4B 9856   6.352   5.990   1.923
    2PC     H4C 9857   6.346   5.852   1.806
    2PC     C35 9858   6.144   5.859   2.009
    2PC     H5A 9859   6.141   5.752   1.992
    2PC     H5B 9860   6.044   5.874   2.049
    2PC     H5C 9861   6.216   5.900   2.080
    2PC     O33 9862   6.101   6.456   1.955
    2PC     O34 9863   6.319   6.456   1.860
    2PC     O21 9864   6.356   6.218   2.355
    2PC     C21 9865   6.361   6.084   2.346
    2PC     O22 9866   6.430   6.020   2.269
    3OL     C12 9867   6.264   6.026   2.446
    3OL     H2R 9868   6.247   5.920   2.428
    3OL     H2S 9869   6.176   6.090   2.432
    3OL     C13 9870   6.328   6.050   2.584
    3OL     H3R 9871   6.355   6.155   2.596
    3OL     H3S 9872   6.420   5.993   2.598
    3OL     C14 9873   6.219   6.000   2.681
    3OL     H4R 9874   6.191   5.897   2.662
    3OL     H4S 9875   6.126   6.054   2.663
    3OL     C15 9876   6.252   6.025   2.829
    3OL     H5R 9877   6.269   6.130   2.851
    3OL     H5S 9878   6.341   5.970   2.856
    3OL     C16 9879   6.136   5.979   2.919
    3OL     H6R 9880   6.110   5.874   2.905
    3OL     H6S 9881   6.058   6.055   2.905
    3OL     C17 9882   6.191   5.994   3.061
    3OL     H7R 9883   6.243   6.088   3.078
    3OL     H7S 9884   6.266   5.915   3.069
    3OL     C18 9885   6.086   5.973   3.171
    3OL     H8R 9886   6.133   5.978   3.270
    3OL     H8S 9887   6.050   5.870   3.160
    3OL     C19 9888   5.968   6.067   3.164
    3OL     H9R 9889   5.996   6.172   3.156
    3OL    C110 9890   5.841   6.030   3.169
    3OL    H10R 9891   5.767   6.109   3.174
    3OL    C111 9892   5.802   5.887   3.196
    3OL    H11R 9893   5.702   5.880   3.238
    3OL    H11S 9894   5.865   5.847   3.276
    3OL    C112 9895   5.804   5.805   3.066
    3OL    H12R 9896   5.896   5.814   3.007
    3OL    H12S 9897   5.724   5.838   2.999
    3OL    C113 9898   5.796   5.658   3.107
    3OL    H13R 9899   5.704   5.641   3.164
    3OL    H13S 9900   5.880   5.631   3.172
    3OL    C114 9901   5.799   5.574   2.978
    3OL    H14R 9902   5.866   5.620   2.906
    3OL    H14S 9903   5.698   5.573   2.935
    3OL    C115 9904   5.861   5.435   2.996
    3OL    H15R 9905   5.817   5.388   3.084
    3OL    H15S 9906   5.968   5.451   3.007
    3OL    C116 9907   5.843   5.351   2.869
    3OL    H16R 9908   5.897   5.391   2.782
    3OL    H16S 9909   5.738   5.364   2.841
    3OL    C117 9910   5.868   5.201   2.890
    3OL    H17R 9911   5.809   5.145   2.817
    3OL    H17S 9912   5.850   5.179   2.995
    3OL    C118 9913   6.011   5.145   2.874
    3OL    H18R 9914   6.045   5.161   2.772
    3OL    H18S 9915   6.008   5.037   2.893
    3OL    H18T 9916   6.093   5.185   2.934
    1PA    C116 9917   0.664   6.592   3.608
    1PA    H16R 9918   0.653   6.508   3.539
    1PA    H16S 9919   0.572   6.600   3.665
    1PA    H16T 9920   0.747   6.586   3.679
    1PA    C115 9921   0.678   6.721   3.525
    1PA    H15R 9922   0.683   6.811   3.587
    1PA    H15S 9923   0.773   6.703   3.475
    1PA    C114 9924   0.557   6.721   3.431
    1PA    H14R 9925   0.549   6.629   3.372
    1PA    H14S 9926   0.471   6.727   3.498
    1PA    C113 9927   0.553   6.852   3.351
    1PA    H13R 9928   0.563   6.935   3.421
    1PA    H13S 9929   0.640   6.849   3.286
    1PA    C112 9930   0.419   6.863   3.277
    1PA    H12R 9931   0.408   6.784   3.202
    1PA    H12S 9932   0.343   6.853   3.355
    1PA    C111 9933   0.407   6.995   3.200
    1PA    H11R 9934   0.331   6.969   3.127
    1PA    H11S 9935   0.364   7.068   3.270
    1PA    C110 9936   0.537   7.048   3.138
    1PA    H10R 9937   0.515   7.151   3.108
    1PA    H10S 9938   0.622   7.054   3.206
    1PA     C19 9939   0.579   6.970   3.013
    1PA     H9R 9940   0.587   6.867   3.048
    1PA     H9S 9941   0.503   6.963   2.934
    1PA     C18 9942   0.702   7.040   2.955
    1PA     H8R 9943   0.674   7.131   2.902
    1PA     H8S 9944   0.758   7.074   3.043
    1PA     C17 9945   0.781   6.940   2.871
    1PA     H7R 9946   0.814   6.851   2.926
    1PA     H7S 9947   0.700   6.897   2.811
    1PA     C16 9948   0.896   7.005   2.793
    1PA     H6R 9949   0.853   7.095   2.747
    1PA     H6S 9950   0.972   7.037   2.864
    1PA     C15 9951   0.947   6.904   2.689
    1PA     H5R 9952   0.871   6.826   2.675
    1PA     H5S 9953   0.957   6.961   2.596
    1PA     C14 9954   1.092   6.859   2.716
    1PA     H4R 9955   1.150   6.948   2.743
    1PA     H4S 9956   1.088   6.782   2.792
    1PA     C13 9957   1.163   6.801   2.593
    1PA     H3R 9958   1.099   6.731   2.539
    1PA     H3S 9959   1.181   6.876   2.515
    1PA     C12 9960   1.296   6.733   2.627
    1PA     H2R 9961   1.381   6.800   2.622
    1PA     H2S 9962   1.287   6.688   2.726
    2PC     C11 9963   1.329   6.630   2.522
    2PC     O12 9964   1.249   6.579   2.445
    2PC     O11 9965   1.460   6.602   2.530
    2PC      C1 9966   1.512   6.501   2.442
    2PC      HR 9967   1.457   6.485   2.348
    2PC      HS 9968   1.613   6.537   2.425
    2PC      C2 9969   1.516   6.369   2.520
    2PC      HX 9970   1.586   6.375   2.603
    2PC      C3 9971   1.565   6.262   2.420
    2PC      HA 9972   1.660   6.304   2.384
    2PC      HB 9973   1.572   6.169   2.477
    2PC     O31 9974   1.467   6.254   2.316
    2PC     P31 9975   1.495   6.133   2.214
    2PC     O32 9976   1.597   6.196   2.107
    2PC     C31 9977   1.549   6.215   1.973
    2PC     H1A 9978   1.521   6.114   1.939
    2PC     H1B 9979   1.463   6.282   1.968
    2PC     C32 9980   1.658   6.276   1.883
    2PC     H2A 9981   1.624   6.248   1.783
    2PC     H2B 9982   1.669   6.384   1.890
    2PC     N31 9983   1.795   6.215   1.886
    2PC     C33 9984   1.800   6.066   1.899
    2PC     H3A 9985   1.750   6.026   1.811
    2PC     H3B 9986   1.904   6.032   1.896
    2PC     H3C 9987   1.758   6.032   1.994
    2PC     C34 9988   1.853   6.250   1.752
    2PC     H4A 9989   1.795   6.199   1.675
    2PC     H4B 9990   1.858   6.357   1.727
    2PC     H4C 9991   1.956   6.213   1.755
    2PC     C35 9992   1.875   6.287   1.990
    2PC     H5A 9993   1.833   6.387   1.991
    2PC     H5B 9994   1.977   6.285   1.953
    2PC     H5C 9995   1.856   6.249   2.091
    2PC     O33 9996   1.557   6.023   2.291
    2PC     O34 9997   1.370   6.092   2.145
    2PC     O21 9998   1.382   6.341   2.565
    2PC     C21 9999   1.335   6.235   2.632
    2PC     O2210000   1.404   6.136   2.651
    3OL     C1210001   1.191   6.255   2.670
    3OL     H2R10002   1.136   6.276   2.578
    3OL     H2S10003   1.182   6.346   2.729
    3OL     C1310004   1.127   6.130   2.733
    3OL     H3R10005   1.172   6.049   2.674
    3OL     H3S10006   1.020   6.116   2.713
    3OL     C1410007   1.176   6.107   2.876
    3OL     H4R10008   1.279   6.140   2.882
    3OL     H4S10009   1.165   5.999   2.890
    3OL     C1510010   1.084   6.178   2.976
    3OL     H5R10011   0.979   6.171   2.946
    3OL     H5S10012   1.109   6.285   2.975
    3OL     C1610013   1.093   6.123   3.119
    3OL     H6R10014   1.050   6.199   3.184
    3OL     H6S10015   1.197   6.128   3.153
    3OL     C1710016   1.029   5.984   3.136
    3OL     H7R10017   1.092   5.922   3.201
    3OL     H7S10018   1.018   5.936   3.039
    3OL     C1810019   0.898   6.010   3.211
    3OL     H8R10020   0.832   6.072   3.150
    3OL     H8S10021   0.925   6.069   3.299
    3OL     C1910022   0.829   5.882   3.252
    3OL     H9R10023   0.867   5.823   3.335
    3OL    C11010024   0.710   5.845   3.209
    3OL    H10R10025   0.660   5.756   3.249
    3OL    C11110026   0.644   5.909   3.090
    3OL    H11R10027   0.604   6.005   3.121
    3OL    H11S10028   0.551   5.857   3.066
    3OL    C11210029   0.721   5.908   2.957
    3OL    H12R10030   0.748   5.808   2.923
    3OL    H12S10031   0.815   5.961   2.971
    3OL    C11310032   0.648   5.993   2.852
    3OL    H13R10033   0.642   6.099   2.876
    3OL    H13S10034   0.550   5.948   2.832
    3OL    C11410035   0.732   5.982   2.724
    3OL    H14R10036   0.744   5.876   2.700
    3OL    H14S10037   0.836   6.006   2.745
    3OL    C11510038   0.684   6.071   2.609
    3OL    H15R10039   0.764   6.062   2.535
    3OL    H15S10040   0.678   6.171   2.652
    3OL    C11610041   0.549   6.026   2.551
    3OL    H16R10042   0.475   6.060   2.625
    3OL    H16S10043   0.543   5.917   2.548
    3OL    C11710044   0.513   6.095   2.419
    3OL    H17R10045   0.591   6.075   2.345
    3OL    H17S10046   0.508   6.204   2.426
    3OL    C11810047   0.377   6.038   2.375
    3OL    H18R10048   0.299   6.058   2.448
    3OL    H18S10049   0.356   6.084   2.278
    3OL    H18T10050   0.388   5.932   2.350
    1PA    C11610051   1.441   4.078   4.184
    1PA    H16R10052   1.508   3.998   4.215
    1PA    H16S10053   1.485   4.146   4.111
    1PA    H16T10054   1.409   4.132   4.273
    1PA    C11510055   1.311   4.030   4.117
    1PA    H15R10056   1.328   3.952   4.043
    1PA    H15S10057   1.242   3.992   4.193
    1PA    C11410058   1.237   4.144   4.045
    1PA    H14R10059   1.140   4.102   4.019
    1PA    H14S10060   1.228   4.235   4.104
    1PA    C11310061   1.313   4.198   3.923
    1PA    H13R10062   1.411   4.244   3.938
    1PA    H13S10063   1.328   4.119   3.850
    1PA    C11210064   1.230   4.301   3.845
    1PA    H12R10065   1.135   4.255   3.818
    1PA    H12S10066   1.204   4.385   3.910
    1PA    C11110067   1.290   4.350   3.713
    1PA    H11R10068   1.391   4.387   3.732
    1PA    H11S10069   1.299   4.271   3.639
    1PA    C11010070   1.192   4.457   3.662
    1PA    H10R10071   1.092   4.412   3.663
    1PA    H10S10072   1.200   4.544   3.727
    1PA     C1910073   1.232   4.494   3.518
    1PA     H9R10074   1.333   4.536   3.525
    1PA     H9S10075   1.248   4.399   3.468
    1PA     C1810076   1.128   4.572   3.437
    1PA     H8R10077   1.028   4.528   3.433
    1PA     H8S10078   1.119   4.671   3.482
    1PA     C1710079   1.178   4.590   3.293
    1PA     H7R10080   1.266   4.654   3.297
    1PA     H7S10081   1.209   4.495   3.247
    1PA     C1610082   1.072   4.652   3.200
    1PA     H6R10083   0.977   4.597   3.196
    1PA     H6S10084   1.058   4.754   3.237
    1PA     C1510085   1.124   4.666   3.057
    1PA     H5R10086   1.212   4.729   3.043
    1PA     H5S10087   1.152   4.566   3.025
    1PA     C1410088   1.017   4.711   2.956
    1PA     H4R10089   0.927   4.650   2.965
    1PA     H4S10090   0.983   4.814   2.969
    1PA     C1310091   1.071   4.701   2.813
    1PA     H3R10092   1.170   4.746   2.810
    1PA     H3S10093   1.091   4.595   2.796
    1PA     C1210094   0.969   4.753   2.710
    1PA     H2R10095   0.869   4.725   2.745
    1PA     H2S10096   0.971   4.862   2.706
    2PC     C1110097   0.984   4.695   2.572
    2PC     O1210098   0.895   4.666   2.495
    2PC     O1110099   1.112   4.662   2.548
    2PC      C110100   1.140   4.570   2.442
    2PC      HR10101   1.091   4.475   2.463
    2PC      HS10102   1.100   4.614   2.351
    2PC      C210103   1.293   4.552   2.440
    2PC      HX10104   1.334   4.652   2.427
    2PC      C310105   1.336   4.456   2.328
    2PC      HA10106   1.316   4.351   2.350
    2PC      HB10107   1.286   4.488   2.236
    2PC     O3110108   1.479   4.453   2.313
    2PC     P3110109   1.535   4.381   2.181
    2PC     O3210110   1.685   4.373   2.236
    2PC     C3110111   1.780   4.480   2.229
    2PC     H1A10112   1.729   4.577   2.217
    2PC     H1B10113   1.846   4.476   2.316
    2PC     C3210114   1.866   4.476   2.102
    2PC     H2A10115   1.824   4.422   2.017
    2PC     H2B10116   1.874   4.576   2.059
    2PC     N3110117   2.000   4.411   2.115
    2PC     C3310118   2.077   4.439   1.989
    2PC     H3A10119   2.162   4.371   1.990
    2PC     H3B10120   2.021   4.422   1.896
    2PC     H3C10121   2.118   4.539   1.982
    2PC     C3410122   2.088   4.468   2.222
    2PC     H4A10123   2.032   4.475   2.315
    2PC     H4B10124   2.178   4.407   2.234
    2PC     H4C10125   2.124   4.566   2.189
    2PC     C3510126   1.981   4.264   2.137
    2PC     H5A10127   1.927   4.224   2.052
    2PC     H5B10128   1.944   4.250   2.239
    2PC     H5C10129   2.082   4.222   2.136
    2PC     O3310130   1.472   4.248   2.162
    2PC     O3410131   1.516   4.465   2.060
    2PC     O2110132   1.341   4.504   2.567
    2PC     C2110133   1.469   4.537   2.591
    2PC     O2210134   1.536   4.615   2.526
    3OL     C1210135   1.519   4.461   2.711
    3OL     H2R10136   1.627   4.448   2.708
    3OL     H2S10137   1.471   4.363   2.703
    3OL     C1310138   1.465   4.542   2.829
    3OL     H3R10139   1.356   4.551   2.833
    3OL     H3S10140   1.512   4.641   2.830
    3OL     C1410141   1.513   4.465   2.952
    3OL     H4R10142   1.518   4.358   2.930
    3OL     H4S10143   1.450   4.486   3.039
    3OL     C1510144   1.652   4.516   2.991
    3OL     H5R10145   1.655   4.624   3.010
    3OL     H5S10146   1.716   4.483   2.909
    3OL     C1610147   1.695   4.440   3.117
    3OL     H6R10148   1.689   4.332   3.101
    3OL     H6S10149   1.635   4.470   3.203
    3OL     C1710150   1.839   4.462   3.166
    3OL     H7R10151   1.831   4.469   3.275
    3OL     H7S10152   1.871   4.557   3.123
    3OL     C1810153   1.936   4.357   3.110
    3OL     H8R10154   1.930   4.379   3.003
    3OL     H8S10155   1.889   4.261   3.134
    3OL     C1910156   2.079   4.356   3.156
    3OL     H9R10157   2.131   4.450   3.140
    3OL    C11010158   2.156   4.255   3.195
    3OL    H10R10159   2.260   4.266   3.225
    3OL    C11110160   2.115   4.111   3.212
    3OL    H11R10161   2.142   4.058   3.121
    3OL    H11S10162   2.010   4.096   3.236
    3OL    C11210163   2.194   4.049   3.328
    3OL    H12R10164   2.200   4.119   3.411
    3OL    H12S10165   2.294   4.041   3.284
    3OL    C11310166   2.145   3.913   3.381
    3OL    H13R10167   2.149   3.837   3.303
    3OL    H13S10168   2.040   3.919   3.413
    3OL    C11410169   2.232   3.867   3.498
    3OL    H14R10170   2.249   3.949   3.568
    3OL    H14S10171   2.328   3.826   3.465
    3OL    C11510172   2.152   3.759   3.573
    3OL    H15R10173   2.099   3.693   3.505
    3OL    H15S10174   2.077   3.813   3.632
    3OL    C11610175   2.241   3.678   3.668
    3OL    H16R10176   2.282   3.748   3.741
    3OL    H16S10177   2.323   3.635   3.611
    3OL    C11710178   2.153   3.581   3.748
    3OL    H17R10179   2.134   3.499   3.678
    3OL    H17S10180   2.064   3.627   3.790
    3OL    C11810181   2.239   3.520   3.859
    3OL    H18R10182   2.327   3.467   3.821
    3OL    H18S10183   2.192   3.439   3.916
    3OL    H18T10184   2.276   3.604   3.918
    1PA    C11610185   5.413   2.418   4.224
    1PA    H16R10186   5.418   2.366   4.128
    1PA    H16S10187   5.309   2.404   4.255
    1PA    H16T10188   5.471   2.371   4.304
    1PA    C11510189   5.441   2.567   4.200
    1PA    H15R10190   5.355   2.604   4.145
    1PA    H15S10191   5.461   2.607   4.300
    1PA    C11410192   5.569   2.588   4.117
    1PA    H14R10193   5.616   2.677   4.159
    1PA    H14S10194   5.637   2.507   4.143
    1PA    C11310195   5.550   2.608   3.966
    1PA    H13R10196   5.500   2.519   3.927
    1PA    H13S10197   5.482   2.692   3.951
    1PA    C11210198   5.685   2.623   3.894
    1PA    H12R10199   5.761   2.556   3.933
    1PA    H12S10200   5.675   2.592   3.789
    1PA    C11110201   5.724   2.771   3.889
    1PA    H11R10202   5.647   2.834   3.845
    1PA    H11S10203   5.722   2.798   3.995
    1PA    C11010204   5.865   2.786   3.830
    1PA    H10R10205   5.926   2.860   3.883
    1PA    H10S10206   5.912   2.688   3.834
    1PA     C1910207   5.854   2.819   3.681
    1PA     H9R10208   5.808   2.739   3.622
    1PA     H9S10209   5.794   2.911   3.679
    1PA     C1810210   5.986   2.845   3.607
    1PA     H8R10211   6.023   2.934   3.659
    1PA     H8S10212   6.049   2.756   3.616
    1PA     C1710213   5.979   2.891   3.461
    1PA     H7R10214   6.006   2.996   3.449
    1PA     H7S10215   6.052   2.826   3.412
    1PA     C1610216   5.847   2.868   3.386
    1PA     H6R10217   5.806   2.768   3.404
    1PA     H6S10218   5.773   2.932   3.434
    1PA     C1510219   5.852   2.900   3.236
    1PA     H5R10220   5.882   3.004   3.221
    1PA     H5S10221   5.918   2.836   3.177
    1PA     C1410222   5.716   2.877   3.168
    1PA     H4R10223   5.685   2.772   3.171
    1PA     H4S10224   5.647   2.946   3.217
    1PA     C1310225   5.719   2.915   3.019
    1PA     H3R10226   5.613   2.910   2.994
    1PA     H3S10227   5.747   3.021   3.015
    1PA     C1210228   5.782   2.814   2.923
    1PA     H2R10229   5.887   2.815   2.950
    1PA     H2S10230   5.747   2.712   2.940
    2PC     C1110231   5.762   2.863   2.781
    2PC     O1210232   5.657   2.905   2.737
    2PC     O1110233   5.876   2.858   2.710
    2PC      C110234   5.869   2.873   2.567
    2PC      HR10235   5.800   2.954   2.542
    2PC      HS10236   5.964   2.906   2.523
    2PC      C210237   5.842   2.738   2.501
    2PC      HX10238   5.902   2.654   2.539
    2PC      C310239   5.878   2.757   2.353
    2PC      HA10240   5.978   2.800   2.349
    2PC      HB10241   5.889   2.662   2.299
    2PC     O3110242   5.781   2.843   2.292
    2PC     P3110243   5.787   2.859   2.133
    2PC     O3210244   5.687   2.983   2.125
    2PC     C3110245   5.648   3.025   1.993
    2PC     H1A10246   5.732   3.088   1.960
    2PC     H1B10247   5.648   2.958   1.907
    2PC     C3210248   5.530   3.123   2.005
    2PC     H2A10249   5.551   3.190   2.088
    2PC     H2B10250   5.531   3.178   1.911
    2PC     N3110251   5.390   3.075   2.027
    2PC     C3310252   5.316   3.205   2.036
    2PC     H3A10253   5.368   3.253   2.119
    2PC     H3B10254   5.325   3.265   1.945
    2PC     H3C10255   5.213   3.187   2.065
    2PC     C3410256   5.338   2.984   1.920
    2PC     H4A10257   5.231   2.993   1.939
    2PC     H4B10258   5.370   3.031   1.827
    2PC     H4C10259   5.371   2.881   1.938
    2PC     C3510260   5.371   3.004   2.158
    2PC     H5A10261   5.420   3.068   2.232
    2PC     H5B10262   5.418   2.907   2.143
    2PC     H5C10263   5.266   2.984   2.176
    2PC     O3310264   5.906   2.899   2.053
    2PC     O3410265   5.723   2.746   2.061
    2PC     O2110266   5.702   2.707   2.514
    2PC     C2110267   5.652   2.594   2.461
    2PC     O2210268   5.721   2.516   2.398
    3OL     C1210269   5.503   2.580   2.483
    3OL     H2R10270   5.470   2.477   2.465
    3OL     H2S10271   5.450   2.652   2.420
    3OL     C1310272   5.469   2.605   2.630
    3OL     H3R10273   5.367   2.633   2.659
    3OL     H3S10274   5.526   2.693   2.657
    3OL     C1410275   5.514   2.483   2.712
    3OL     H4R10276   5.620   2.465   2.694
    3OL     H4S10277   5.442   2.402   2.695
    3OL     C1510278   5.507   2.513   2.863
    3OL     H5R10279   5.405   2.531   2.900
    3OL     H5S10280   5.566   2.603   2.881
    3OL     C1610281   5.544   2.391   2.948
    3OL     H6R10282   5.646   2.371   2.915
    3OL     H6S10283   5.473   2.311   2.925
    3OL     C1710284   5.536   2.426   3.097
    3OL     H7R10285   5.439   2.474   3.109
    3OL     H7S10286   5.608   2.503   3.123
    3OL     C1810287   5.539   2.308   3.195
    3OL     H8R10288   5.540   2.348   3.297
    3OL     H8S10289   5.626   2.242   3.188
    3OL     C1910290   5.427   2.209   3.172
    3OL     H9R10291   5.438   2.124   3.106
    3OL    C11010292   5.307   2.228   3.226
    3OL    H10R10293   5.224   2.163   3.197
    3OL    C11110294   5.265   2.324   3.334
    3OL    H11R10295   5.170   2.363   3.296
    3OL    H11S10296   5.330   2.412   3.331
    3OL    C11210297   5.249   2.256   3.471
    3OL    H12R10298   5.344   2.245   3.524
    3OL    H12S10299   5.220   2.153   3.448
    3OL    C11310300   5.140   2.310   3.564
    3OL    H13R10301   5.095   2.226   3.616
    3OL    H13S10302   5.065   2.364   3.505
    3OL    C11410303   5.205   2.408   3.662
    3OL    H14R10304   5.266   2.479   3.606
    3OL    H14S10305   5.268   2.348   3.729
    3OL    C11510306   5.111   2.496   3.746
    3OL    H15R10307   5.042   2.433   3.803
    3OL    H15S10308   5.059   2.554   3.669
    3OL    C11610309   5.198   2.587   3.835
    3OL    H16R10310   5.281   2.632   3.780
    3OL    H16S10311   5.244   2.525   3.911
    3OL    C11710312   5.113   2.685   3.917
    3OL    H17R10313   5.182   2.722   3.992
    3OL    H17S10314   5.047   2.620   3.975
    3OL    C11810315   5.063   2.810   3.844
    3OL    H18R10316   5.028   2.883   3.917
    3OL    H18S10317   4.989   2.787   3.767
    3OL    H18T10318   5.147   2.856   3.791
    1PA    C11610319   0.128   2.761   4.278
    1PA    H16R10320   0.041   2.807   4.327
    1PA    H16S10321   0.172   2.853   4.238
    1PA    H16T10322   0.197   2.712   4.347
    1PA    C11510323   0.064   2.669   4.173
    1PA    H15R10324   0.012   2.589   4.227
    1PA    H15S10325  -0.011   2.717   4.110
    1PA    C11410326   0.156   2.595   4.075
    1PA    H14R10327   0.211   2.521   4.132
    1PA    H14S10328   0.098   2.551   3.994
    1PA    C11310329   0.243   2.694   3.995
    1PA    H13R10330   0.180   2.767   3.943
    1PA    H13S10331   0.303   2.744   4.070
    1PA    C11210332   0.334   2.633   3.887
    1PA    H12R10333   0.411   2.701   3.850
    1PA    H12S10334   0.387   2.553   3.939
    1PA    C11110335   0.270   2.561   3.768
    1PA    H11R10336   0.196   2.490   3.805
    1PA    H11S10337   0.218   2.640   3.712
    1PA    C11010338   0.357   2.486   3.667
    1PA    H10R10339   0.441   2.551   3.643
    1PA    H10S10340   0.395   2.394   3.713
    1PA     C1910341   0.289   2.435   3.539
    1PA     H9R10342   0.213   2.357   3.549
    1PA     H9S10343   0.232   2.516   3.493
    1PA     C1810344   0.392   2.374   3.443
    1PA     H8R10345   0.461   2.453   3.414
    1PA     H8S10346   0.440   2.289   3.492
    1PA     C1710347   0.325   2.319   3.316
    1PA     H7R10348   0.251   2.242   3.337
    1PA     H7S10349   0.269   2.406   3.281
    1PA     C1610350   0.421   2.286   3.200
    1PA     H6R10351   0.498   2.362   3.186
    1PA     H6S10352   0.470   2.192   3.226
    1PA     C1510353   0.340   2.273   3.070
    1PA     H5R10354   0.274   2.187   3.073
    1PA     H5S10355   0.276   2.361   3.058
    1PA     C1410356   0.434   2.252   2.950
    1PA     H4R10357   0.491   2.339   2.916
    1PA     H4S10358   0.505   2.171   2.965
    1PA     C1310359   0.362   2.211   2.822
    1PA     H3R10360   0.327   2.107   2.827
    1PA     H3S10361   0.273   2.274   2.808
    1PA     C1210362   0.452   2.227   2.699
    1PA     H2R10363   0.484   2.330   2.680
    1PA     H2S10364   0.548   2.177   2.714
    2PC     C1110365   0.395   2.182   2.566
    2PC     O1210366   0.277   2.174   2.542
    2PC     O1110367   0.492   2.152   2.478
    2PC      C110368   0.450   2.102   2.350
    2PC      HR10369   0.373   2.026   2.365
    2PC      HS10370   0.393   2.180   2.299
    2PC      C210371   0.572   2.066   2.264
    2PC      HX10372   0.657   2.135   2.261
    2PC      C310373   0.534   2.051   2.116
    2PC      HA10374   0.534   2.152   2.073
    2PC      HB10375   0.602   1.983   2.063
    2PC     O3110376   0.396   2.012   2.105
    2PC     P3110377   0.330   1.979   1.963
    2PC     O3210378   0.415   1.854   1.909
    2PC     C3110379   0.367   1.797   1.786
    2PC     H1A10380   0.282   1.732   1.809
    2PC     H1B10381   0.338   1.880   1.721
    2PC     C3210382   0.482   1.709   1.735
    2PC     H2A10383   0.556   1.770   1.684
    2PC     H2B10384   0.543   1.683   1.822
    2PC     N3110385   0.439   1.591   1.654
    2PC     C3310386   0.382   1.481   1.739
    2PC     H3A10387   0.279   1.505   1.767
    2PC     H3B10388   0.370   1.396   1.672
    2PC     H3C10389   0.441   1.464   1.829
    2PC     C3410390   0.353   1.630   1.538
    2PC     H4A10391   0.366   1.542   1.476
    2PC     H4B10392   0.257   1.651   1.584
    2PC     H4C10393   0.392   1.725   1.501
    2PC     C3510394   0.561   1.530   1.593
    2PC     H5A10395   0.596   1.593   1.511
    2PC     H5B10396   0.535   1.431   1.555
    2PC     H5C10397   0.640   1.533   1.669
    2PC     O3310398   0.192   1.931   1.981
    2PC     O3410399   0.333   2.092   1.868
    2PC     O2110400   0.628   1.945   2.318
    2PC     C2110401   0.760   1.922   2.320
    2PC     O2210402   0.831   1.996   2.254
    3OL     C1210403   0.819   1.798   2.382
    3OL     H2R10404   0.928   1.798   2.381
    3OL     H2S10405   0.791   1.709   2.326
    3OL     C1310406   0.773   1.769   2.526
    3OL     H3R10407   0.794   1.662   2.536
    3OL     H3S10408   0.666   1.772   2.544
    3OL     C1410409   0.851   1.856   2.627
    3OL     H4R10410   0.898   1.929   2.562
    3OL     H4S10411   0.930   1.799   2.675
    3OL     C1510412   0.756   1.916   2.732
    3OL     H5R10413   0.655   1.939   2.699
    3OL     H5S10414   0.802   2.010   2.764
    3OL     C1610415   0.744   1.832   2.860
    3OL     H6R10416   0.841   1.806   2.903
    3OL     H6S10417   0.706   1.731   2.841
    3OL     C1710418   0.669   1.907   2.971
    3OL     H7R10419   0.569   1.935   2.937
    3OL     H7S10420   0.714   2.006   2.978
    3OL     C1810421   0.679   1.858   3.116
    3OL     H8R10422   0.781   1.823   3.137
    3OL     H8S10423   0.626   1.762   3.116
    3OL     C1910424   0.634   1.955   3.222
    3OL     H9R10425   0.528   1.953   3.245
    3OL    C11010426   0.706   2.039   3.296
    3OL    H10R10427   0.654   2.096   3.372
    3OL    C11110428   0.852   2.072   3.287
    3OL    H11R10429   0.909   1.982   3.263
    3OL    H11S10430   0.892   2.088   3.387
    3OL    C11210431   0.895   2.175   3.182
    3OL    H12R10432   0.870   2.148   3.079
    3OL    H12S10433   1.004   2.179   3.188
    3OL    C11310434   0.846   2.318   3.211
    3OL    H13R10435   0.861   2.342   3.316
    3OL    H13S10436   0.739   2.323   3.190
    3OL    C11410437   0.920   2.420   3.123
    3OL    H14R10438   1.025   2.431   3.151
    3OL    H14S10439   0.873   2.517   3.143
    3OL    C11510440   0.917   2.389   2.973
    3OL    H15R10441   0.813   2.398   2.943
    3OL    H15S10442   0.949   2.285   2.965
    3OL    C11610443   0.994   2.486   2.882
    3OL    H16R10444   1.009   2.431   2.789
    3OL    H16S10445   1.090   2.517   2.924
    3OL    C11710446   0.916   2.613   2.843
    3OL    H17R10447   0.886   2.655   2.939
    3OL    H17S10448   0.823   2.583   2.793
    3OL    C11810449   1.001   2.710   2.760
    3OL    H18R10450   1.062   2.655   2.688
    3OL    H18S10451   1.064   2.766   2.829
    3OL    H18T10452   0.940   2.788   2.713
    1PA    C11610453   6.021   4.272   3.808
    1PA    H16R10454   5.955   4.226   3.881
    1PA    H16S10455   6.091   4.334   3.865
    1PA    H16T10456   6.085   4.196   3.765
    1PA    C11510457   5.945   4.367   3.714
    1PA    H15R10458   5.867   4.307   3.667
    1PA    H15S10459   5.892   4.448   3.765
    1PA    C11410460   6.030   4.434   3.605
    1PA    H14R10461   5.956   4.493   3.551
    1PA    H14S10462   6.097   4.512   3.642
    1PA    C11310463   6.119   4.344   3.518
    1PA    H13R10464   6.166   4.398   3.436
    1PA    H13S10465   6.195   4.289   3.575
    1PA    C11210466   6.038   4.236   3.445
    1PA    H12R10467   5.979   4.187   3.523
    1PA    H12S10468   5.963   4.285   3.383
    1PA    C11110469   6.116   4.131   3.365
    1PA    H11R10470   6.180   4.178   3.290
    1PA    H11S10471   6.179   4.067   3.427
    1PA    C11010472   6.029   4.033   3.286
    1PA    H10R10473   5.950   3.996   3.352
    1PA    H10S10474   5.972   4.079   3.204
    1PA     C1910475   6.110   3.917   3.227
    1PA     H9R10476   6.175   3.947   3.145
    1PA     H9S10477   6.177   3.878   3.304
    1PA     C1810478   6.029   3.794   3.184
    1PA     H8R10479   6.094   3.706   3.192
    1PA     H8S10480   5.944   3.783   3.252
    1PA     C1710481   5.991   3.803   3.036
    1PA     H7R10482   5.915   3.728   3.015
    1PA     H7S10483   5.951   3.904   3.028
    1PA     C1610484   6.108   3.793   2.936
    1PA     H6R10485   6.153   3.891   2.947
    1PA     H6S10486   6.172   3.710   2.966
    1PA     C1510487   6.045   3.761   2.799
    1PA     H5R10488   5.957   3.698   2.804
    1PA     H5S10489   6.015   3.856   2.754
    1PA     C1410490   6.152   3.717   2.698
    1PA     H4R10491   6.143   3.773   2.605
    1PA     H4S10492   6.242   3.738   2.756
    1PA     C1310493   6.143   3.566   2.675
    1PA     H3R10494   6.229   3.518   2.628
    1PA     H3S10495   6.132   3.522   2.775
    1PA     C1210496   6.026   3.516   2.589
    1PA     H2R10497   5.993   3.415   2.614
    1PA     H2S10498   5.940   3.582   2.604
    2PC     C1110499   6.051   3.531   2.441
    2PC     O1210500   6.124   3.617   2.397
    2PC     O1110501   5.999   3.428   2.373
    2PC      C110502   6.001   3.440   2.230
    2PC      HR10503   5.954   3.532   2.193
    2PC      HS10504   6.107   3.441   2.203
    2PC      C210505   5.930   3.316   2.173
    2PC      HX10506   5.954   3.220   2.220
    2PC      C310507   5.936   3.312   2.020
    2PC      HA10508   6.025   3.257   1.988
    2PC      HB10509   5.844   3.265   1.985
    2PC     O3110510   5.939   3.445   1.965
    2PC     P3110511   5.940   3.465   1.806
    2PC     O3210512   6.078   3.387   1.778
    2PC     C3110513   6.120   3.369   1.642
    2PC     H1A10514   6.043   3.380   1.566
    2PC     H1B10515   6.191   3.451   1.625
    2PC     C3210516   6.197   3.237   1.623
    2PC     H2A10517   6.303   3.250   1.646
    2PC     H2B10518   6.165   3.150   1.680
    2PC     N3110519   6.191   3.189   1.482
    2PC     C3310520   6.270   3.064   1.453
    2PC     H3A10521   6.232   2.978   1.508
    2PC     H3B10522   6.273   3.053   1.345
    2PC     H3C10523   6.371   3.098   1.475
    2PC     C3410524   6.051   3.146   1.449
    2PC     H4A10525   6.055   3.130   1.341
    2PC     H4B10526   6.019   3.060   1.507
    2PC     H4C10527   5.982   3.228   1.470
    2PC     C3510528   6.241   3.299   1.393
    2PC     H5A10529   6.188   3.393   1.410
    2PC     H5B10530   6.250   3.277   1.287
    2PC     H5C10531   6.348   3.315   1.409
    2PC     O3310532   5.823   3.420   1.727
    2PC     O3410533   5.960   3.611   1.801
    2PC     O2110534   5.794   3.336   2.214
    2PC     C2110535   5.744   3.305   2.334
    2PC     O2210536   5.807   3.229   2.405
    3OL     C1210537   5.607   3.361   2.363
    3OL     H2R10538   5.536   3.310   2.297
    3OL     H2S10539   5.607   3.468   2.341
    3OL     C1310540   5.568   3.333   2.509
    3OL     H3R10541   5.552   3.226   2.522
    3OL     H3S10542   5.465   3.368   2.518
    3OL     C1410543   5.654   3.405   2.614
    3OL     H4R10544   5.648   3.513   2.597
    3OL     H4S10545   5.758   3.374   2.601
    3OL     C1510546   5.618   3.378   2.760
    3OL     H5R10547   5.640   3.271   2.769
    3OL     H5S10548   5.510   3.388   2.773
    3OL     C1610549   5.685   3.471   2.862
    3OL     H6R10550   5.656   3.575   2.845
    3OL     H6S10551   5.792   3.461   2.846
    3OL     C1710552   5.651   3.427   3.005
    3OL     H7R10553   5.544   3.434   3.028
    3OL     H7S10554   5.708   3.480   3.081
    3OL     C1810555   5.685   3.281   3.039
    3OL     H8R10556   5.779   3.261   2.987
    3OL     H8S10557   5.605   3.221   2.996
    3OL     C1910558   5.713   3.250   3.184
    3OL     H9R10559   5.813   3.217   3.211
    3OL    C11010560   5.629   3.280   3.282
    3OL    H10R10561   5.663   3.260   3.383
    3OL    C11110562   5.486   3.327   3.282
    3OL    H11R10563   5.441   3.331   3.183
    3OL    H11S10564   5.489   3.428   3.325
    3OL    C11210565   5.393   3.247   3.373
    3OL    H12R10566   5.379   3.150   3.324
    3OL    H12S10567   5.297   3.298   3.386
    3OL    C11310568   5.448   3.230   3.516
    3OL    H13R10569   5.459   3.327   3.566
    3OL    H13S10570   5.538   3.169   3.508
    3OL    C11410571   5.345   3.163   3.607
    3OL    H14R10572   5.256   3.225   3.623
    3OL    H14S10573   5.382   3.158   3.710
    3OL    C11510574   5.295   3.027   3.555
    3OL    H15R10575   5.265   3.027   3.450
    3OL    H15S10576   5.204   2.996   3.607
    3OL    C11610577   5.399   2.919   3.585
    3OL    H16R10578   5.421   2.924   3.692
    3OL    H16S10579   5.493   2.944   3.535
    3OL    C11710580   5.344   2.781   3.547
    3OL    H17R10581   5.293   2.785   3.451
    3OL    H17S10582   5.263   2.756   3.616
    3OL    C11810583   5.449   2.669   3.548
    3OL    H18R10584   5.540   2.699   3.496
    3OL    H18S10585   5.413   2.586   3.486
    3OL    H18T10586   5.467   2.631   3.649
    1PA    C11610587   2.076   4.447   3.653
    1PA    H16R10588   2.034   4.514   3.729
    1PA    H16S10589   2.070   4.496   3.556
    1PA    H16T10590   2.181   4.439   3.681
    1PA    C11510591   2.010   4.308   3.655
    1PA    H15R10592   2.068   4.242   3.719
    1PA    H15S10593   1.913   4.308   3.704
    1PA    C11410594   1.979   4.249   3.516
    1PA    H14R10595   2.052   4.293   3.448
    1PA    H14S10596   1.997   4.142   3.523
    1PA    C11310597   1.839   4.280   3.461
    1PA    H13R10598   1.816   4.385   3.479
    1PA    H13S10599   1.830   4.272   3.353
    1PA    C11210600   1.725   4.195   3.520
    1PA    H12R10601   1.742   4.092   3.488
    1PA    H12S10602   1.720   4.201   3.628
    1PA    C11110603   1.587   4.242   3.473
    1PA    H11R10604   1.522   4.186   3.541
    1PA    H11S10605   1.572   4.349   3.489
    1PA    C11010606   1.550   4.202   3.329
    1PA    H10R10607   1.627   4.245   3.266
    1PA    H10S10608   1.553   4.093   3.327
    1PA     C1910609   1.409   4.247   3.288
    1PA     H9R10610   1.328   4.224   3.358
    1PA     H9S10611   1.411   4.356   3.289
    1PA     C1810612   1.384   4.182   3.151
    1PA     H8R10613   1.302   4.227   3.095
    1PA     H8S10614   1.473   4.191   3.088
    1PA     C1710615   1.342   4.035   3.152
    1PA     H7R10616   1.421   3.979   3.204
    1PA     H7S10617   1.255   4.030   3.219
    1PA     C1610618   1.317   3.990   3.008
    1PA     H6R10619   1.387   4.034   2.936
    1PA     H6S10620   1.325   3.882   2.991
    1PA     C1510621   1.173   4.018   2.963
    1PA     H5R10622   1.105   3.949   3.013
    1PA     H5S10623   1.142   4.120   2.984
    1PA     C1410624   1.156   4.003   2.811
    1PA     H4R10625   1.182   3.903   2.775
    1PA     H4S10626   1.049   4.010   2.793
    1PA     C1310627   1.218   4.123   2.737
    1PA     H3R10628   1.174   4.216   2.774
    1PA     H3S10629   1.325   4.129   2.757
    1PA     C1210630   1.182   4.117   2.588
    1PA     H2R10631   1.088   4.064   2.571
    1PA     H2S10632   1.186   4.221   2.554
    2PC     C1110633   1.279   4.047   2.497
    2PC     O1210634   1.252   3.938   2.451
    2PC     O1110635   1.401   4.102   2.501
    2PC      C110636   1.514   4.056   2.424
    2PC      HR10637   1.529   3.954   2.461
    2PC      HS10638   1.496   4.055   2.316
    2PC      C210639   1.640   4.137   2.454
    2PC      HX10640   1.603   4.240   2.444
    2PC      C310641   1.743   4.106   2.344
    2PC      HA10642   1.703   4.130   2.245
    2PC      HB10643   1.823   4.176   2.367
    2PC     O3110644   1.786   3.969   2.348
    2PC     P3110645   1.861   3.922   2.214
    2PC     O3210646   1.833   3.765   2.204
    2PC     C3110647   1.695   3.725   2.214
    2PC     H1A10648   1.669   3.723   2.321
    2PC     H1B10649   1.632   3.790   2.153
    2PC     C3210650   1.692   3.582   2.158
    2PC     H2A10651   1.789   3.537   2.180
    2PC     H2B10652   1.612   3.530   2.210
    2PC     N3110653   1.671   3.572   2.010
    2PC     C3310654   1.703   3.430   1.972
    2PC     H3A10655   1.642   3.367   2.037
    2PC     H3B10656   1.676   3.415   1.868
    2PC     H3C10657   1.809   3.408   1.989
    2PC     C3410658   1.531   3.608   1.973
    2PC     H4A10659   1.508   3.702   2.023
    2PC     H4B10660   1.530   3.610   1.864
    2PC     H4C10661   1.476   3.522   2.012
    2PC     C3510662   1.764   3.666   1.939
    2PC     H5A10663   1.797   3.623   1.844
    2PC     H5B10664   1.860   3.681   1.988
    2PC     H5C10665   1.715   3.760   1.912
    2PC     O3310666   1.818   3.999   2.095
    2PC     O3410667   2.007   3.942   2.221
    2PC     O2110668   1.682   4.107   2.588
    2PC     C2110669   1.777   4.182   2.646
    2PC     O2210670   1.805   4.295   2.613
    3OL     C1210671   1.844   4.101   2.755
    3OL     H2R10672   1.924   4.161   2.798
    3OL     H2S10673   1.890   4.020   2.700
    3OL     C1310674   1.742   4.055   2.861
    3OL     H3R10675   1.663   3.999   2.811
    3OL     H3S10676   1.698   4.146   2.903
    3OL     C1410677   1.806   3.970   2.972
    3OL     H4R10678   1.882   4.020   3.031
    3OL     H4S10679   1.846   3.878   2.928
    3OL     C1510680   1.707   3.921   3.078
    3OL     H5R10681   1.628   3.869   3.023
    3OL     H5S10682   1.676   4.014   3.126
    3OL     C1610683   1.770   3.829   3.184
    3OL     H6R10684   1.835   3.889   3.249
    3OL     H6S10685   1.836   3.757   3.136
    3OL     C1710686   1.683   3.759   3.288
    3OL     H7R10687   1.614   3.693   3.235
    3OL     H7S10688   1.626   3.833   3.344
    3OL     C1810689   1.774   3.665   3.370
    3OL     H8R10690   1.843   3.730   3.423
    3OL     H8S10691   1.829   3.603   3.299
    3OL     C1910692   1.690   3.573   3.454
    3OL     H9R10693   1.624   3.506   3.399
    3OL    C11010694   1.695   3.577   3.586
    3OL    H10R10695   1.648   3.502   3.650
    3OL    C11110696   1.776   3.681   3.659
    3OL    H11R10697   1.742   3.778   3.623
    3OL    H11S10698   1.882   3.670   3.634
    3OL    C11210699   1.764   3.662   3.811
    3OL    H12R10700   1.666   3.687   3.852
    3OL    H12S10701   1.839   3.730   3.854
    3OL    C11310702   1.807   3.521   3.853
    3OL    H13R10703   1.892   3.493   3.790
    3OL    H13S10704   1.723   3.454   3.836
    3OL    C11410705   1.845   3.525   4.002
    3OL    H14R10706   1.771   3.581   4.059
    3OL    H14S10707   1.938   3.582   4.004
    3OL    C11510708   1.869   3.389   4.069
    3OL    H15R10709   1.936   3.331   4.004
    3OL    H15S10710   1.773   3.338   4.081
    3OL    C11610711   1.942   3.405   4.203
    3OL    H16R10712   1.891   3.481   4.261
    3OL    H16S10713   2.045   3.434   4.182
    3OL    C11710714   1.927   3.269   4.272
    3OL    H17R10715   1.978   3.198   4.206
    3OL    H17S10716   1.832   3.220   4.294
    3OL    C11810717   2.008   3.269   4.402
    3OL    H18R10718   2.073   3.182   4.409
    3OL    H18S10719   1.938   3.268   4.486
    3OL    H18T10720   2.081   3.350   4.409
    1PA    C11610721   0.243   0.972   3.696
    1PA    H16R10722   0.328   0.935   3.639
    1PA    H16S10723   0.181   0.888   3.728
    1PA    H16T10724   0.295   1.017   3.780
    1PA    C11510725   0.166   1.078   3.616
    1PA    H15R10726   0.097   1.131   3.682
    1PA    H15S10727   0.234   1.157   3.583
    1PA    C11410728   0.091   1.023   3.494
    1PA    H14R10729   0.036   0.931   3.513
    1PA    H14S10730   0.022   1.098   3.455
    1PA    C11310731   0.203   0.983   3.396
    1PA    H13R10732   0.265   1.065   3.359
    1PA    H13S10733   0.274   0.908   3.431
    1PA    C11210734   0.134   0.925   3.271
    1PA    H12R10735   0.070   0.845   3.309
    1PA    H12S10736   0.068   0.996   3.221
    1PA    C11110737   0.228   0.869   3.164
    1PA    H11R10738   0.308   0.942   3.152
    1PA    H11S10739   0.280   0.785   3.211
    1PA    C11010740   0.159   0.825   3.034
    1PA    H10R10741   0.095   0.743   3.064
    1PA    H10S10742   0.088   0.900   2.998
    1PA     C1910743   0.260   0.776   2.929
    1PA     H9R10744   0.338   0.850   2.908
    1PA     H9S10745   0.302   0.684   2.970
    1PA     C1810746   0.178   0.725   2.810
    1PA     H8R10747   0.094   0.669   2.851
    1PA     H8S10748   0.142   0.804   2.743
    1PA     C1710749   0.257   0.628   2.720
    1PA     H7R10750   0.275   0.532   2.768
    1PA     H7S10751   0.182   0.607   2.643
    1PA     C1610752   0.379   0.679   2.641
    1PA     H6R10753   0.359   0.780   2.604
    1PA     H6S10754   0.455   0.684   2.719
    1PA     C1510755   0.424   0.581   2.532
    1PA     H5R10756   0.519   0.615   2.491
    1PA     H5S10757   0.458   0.491   2.583
    1PA     C1410758   0.320   0.550   2.424
    1PA     H4R10759   0.234   0.498   2.465
    1PA     H4S10760   0.287   0.645   2.381
    1PA     C1310761   0.387   0.466   2.315
    1PA     H3R10762   0.472   0.524   2.279
    1PA     H3S10763   0.432   0.377   2.359
    1PA     C1210764   0.300   0.420   2.197
    1PA     H2R10765   0.227   0.343   2.222
    1PA     H2S10766   0.248   0.511   2.165
    2PC     C1110767   0.386   0.368   2.085
    2PC     O1210768   0.401   0.425   1.979
    2PC     O1110769   0.449   0.259   2.130
    2PC      C110770   0.533   0.187   2.038
    2PC      HR10771   0.532   0.083   2.072
    2PC      HS10772   0.480   0.185   1.943
    2PC      C210773   0.676   0.242   2.027
    2PC      HX10774   0.674   0.352   2.021
    2PC      C310775   0.739   0.187   1.899
    2PC      HA10776   0.672   0.208   1.816
    2PC      HB10777   0.837   0.234   1.887
    2PC     O3110778   0.748   0.043   1.906
    2PC     P3110779   0.786  -0.039   1.774
    2PC     O3210780   0.778  -0.190   1.827
    2PC     C3110781   0.651  -0.248   1.860
    2PC     H1A10782   0.630  -0.208   1.959
    2PC     H1B10783   0.576  -0.217   1.786
    2PC     C3210784   0.660  -0.401   1.865
    2PC     H2A10785   0.733  -0.430   1.941
    2PC     H2B10786   0.564  -0.436   1.903
    2PC     N3110787   0.679  -0.476   1.737
    2PC     C3310788   0.816  -0.448   1.684
    2PC     H3A10789   0.831  -0.516   1.599
    2PC     H3B10790   0.803  -0.343   1.659
    2PC     H3C10791   0.885  -0.477   1.763
    2PC     C3410792   0.684  -0.622   1.770
    2PC     H4A10793   0.731  -0.667   1.682
    2PC     H4B10794   0.750  -0.645   1.853
    2PC     H4C10795   0.581  -0.658   1.777
    2PC     C3510796   0.570  -0.455   1.636
    2PC     H5A10797   0.594  -0.507   1.543
    2PC     H5B10798   0.562  -0.348   1.615
    2PC     H5C10799   0.472  -0.486   1.671
    2PC     O3310800   0.694  -0.011   1.661
    2PC     O3410801   0.916   0.006   1.718
    2PC     O2110802   0.749   0.188   2.138
    2PC     C2110803   0.763   0.259   2.252
    2PC     O2210804   0.730   0.375   2.256
    3OL     C1210805   0.815   0.180   2.370
    3OL     H2R10806   0.911   0.228   2.391
    3OL     H2S10807   0.846   0.079   2.344
    3OL     C1310808   0.718   0.188   2.489
    3OL     H3R10809   0.615   0.180   2.456
    3OL     H3S10810   0.726   0.282   2.545
    3OL     C1410811   0.754   0.078   2.591
    3OL     H4R10812   0.851   0.105   2.632
    3OL     H4S10813   0.769  -0.021   2.548
    3OL     C1510814   0.655   0.078   2.709
    3OL     H5R10815   0.555   0.057   2.672
    3OL     H5S10816   0.656   0.176   2.757
    3OL     C1610817   0.669  -0.036   2.811
    3OL     H6R10818   0.772  -0.055   2.841
    3OL     H6S10819   0.631  -0.128   2.766
    3OL     C1710820   0.570  -0.011   2.925
    3OL     H7R10821   0.475   0.035   2.894
    3OL     H7S10822   0.607   0.075   2.981
    3OL     C1810823   0.559  -0.144   3.000
    3OL     H8R10824   0.653  -0.195   3.023
    3OL     H8S10825   0.518  -0.214   2.927
    3OL     C1910826   0.467  -0.126   3.118
    3OL     H9R10827   0.369  -0.086   3.092
    3OL    C11010828   0.490  -0.153   3.245
    3OL    H10R10829   0.422  -0.114   3.321
    3OL    C11110830   0.607  -0.228   3.302
    3OL    H11R10831   0.656  -0.163   3.374
    3OL    H11S10832   0.685  -0.258   3.231
    3OL    C11210833   0.570  -0.350   3.389
    3OL    H12R10834   0.660  -0.391   3.435
    3OL    H12S10835   0.522  -0.418   3.319
    3OL    C11310836   0.473  -0.299   3.497
    3OL    H13R10837   0.376  -0.264   3.462
    3OL    H13S10838   0.533  -0.219   3.542
    3OL    C11410839   0.455  -0.411   3.600
    3OL    H14R10840   0.558  -0.431   3.632
    3OL    H14S10841   0.423  -0.507   3.559
    3OL    C11510842   0.380  -0.361   3.724
    3OL    H15R10843   0.280  -0.328   3.697
    3OL    H15S10844   0.437  -0.278   3.768
    3OL    C11610845   0.362  -0.464   3.836
    3OL    H16R10846   0.294  -0.544   3.805
    3OL    H16S10847   0.309  -0.420   3.921
    3OL    C11710848   0.503  -0.497   3.886
    3OL    H17R10849   0.481  -0.519   3.991
    3OL    H17S10850   0.578  -0.419   3.875
    3OL    C11810851   0.550  -0.627   3.819
    3OL    H18R10852   0.467  -0.698   3.830
    3OL    H18S10853   0.639  -0.666   3.867
    3OL    H18T10854   0.573  -0.620   3.713
    1PA    C11610855  -0.199   2.620   3.863
    1PA    H16R10856  -0.163   2.568   3.952
    1PA    H16S10857  -0.307   2.607   3.854
    1PA    H16T10858  -0.176   2.723   3.891
    1PA    C11510859  -0.114   2.570   3.745
    1PA    H15R10860  -0.012   2.598   3.772
    1PA    H15S10861  -0.116   2.462   3.727
    1PA    C11410862  -0.159   2.640   3.616
    1PA    H14R10863  -0.259   2.606   3.588
    1PA    H14S10864  -0.148   2.749   3.621
    1PA    C11310865  -0.073   2.590   3.500
    1PA    H13R10866   0.033   2.612   3.516
    1PA    H13S10867  -0.082   2.481   3.499
    1PA    C11210868  -0.117   2.645   3.363
    1PA    H12R10869  -0.222   2.618   3.353
    1PA    H12S10870  -0.103   2.753   3.358
    1PA    C11110871  -0.040   2.571   3.253
    1PA    H11R10872   0.067   2.573   3.271
    1PA    H11S10873  -0.075   2.468   3.260
    1PA    C11010874  -0.092   2.624   3.118
    1PA    H10R10875  -0.195   2.589   3.122
    1PA    H10S10876  -0.093   2.733   3.113
    1PA     C1910877  -0.008   2.565   3.003
    1PA     H9R10878   0.093   2.604   3.014
    1PA     H9S10879  -0.009   2.456   3.002
    1PA     C1810880  -0.069   2.609   2.869
    1PA     H8R10881  -0.169   2.565   2.864
    1PA     H8S10882  -0.077   2.717   2.878
    1PA     C1710883   0.002   2.560   2.742
    1PA     H7R10884   0.013   2.452   2.741
    1PA     H7S10885  -0.062   2.583   2.657
    1PA     C1610886   0.134   2.638   2.738
    1PA     H6R10887   0.123   2.747   2.740
    1PA     H6S10888   0.184   2.608   2.830
    1PA     C1510889   0.229   2.588   2.628
    1PA     H5R10890   0.325   2.637   2.647
    1PA     H5S10891   0.247   2.481   2.629
    1PA     C1410892   0.186   2.639   2.490
    1PA     H4R10893   0.090   2.599   2.457
    1PA     H4S10894   0.169   2.747   2.494
    1PA     C1310895   0.300   2.612   2.391
    1PA     H3R10896   0.342   2.712   2.395
    1PA     H3S10897   0.372   2.539   2.429
    1PA     C1210898   0.259   2.573   2.248
    1PA     H2R10899   0.221   2.471   2.256
    1PA     H2S10900   0.182   2.640   2.209
    2PC     C1110901   0.383   2.586   2.162
    2PC     O1210902   0.421   2.690   2.112
    2PC     O1110903   0.445   2.469   2.139
    2PC      C110904   0.571   2.470   2.068
    2PC      HR10905   0.609   2.374   2.032
    2PC      HS10906   0.562   2.523   1.973
    2PC      C210907   0.677   2.540   2.154
    2PC      HX10908   0.651   2.644   2.175
    2PC      C310909   0.813   2.540   2.082
    2PC      HA10910   0.802   2.585   1.983
    2PC      HB10911   0.896   2.583   2.139
    2PC     O3110912   0.845   2.400   2.069
    2PC     P3110913   0.987   2.376   1.997
    2PC     O3210914   1.083   2.441   2.108
    2PC     C3110915   1.221   2.402   2.115
    2PC     H1A10916   1.230   2.293   2.119
    2PC     H1B10917   1.267   2.452   2.030
    2PC     C3210918   1.289   2.462   2.239
    2PC     H2A10919   1.267   2.569   2.240
    2PC     H2B10920   1.245   2.415   2.327
    2PC     N3110921   1.437   2.441   2.256
    2PC     C3310922   1.479   2.302   2.218
    2PC     H3A10923   1.415   2.229   2.268
    2PC     H3B10924   1.452   2.295   2.112
    2PC     H3C10925   1.587   2.297   2.224
    2PC     C3410926   1.509   2.543   2.175
    2PC     H4A10927   1.485   2.644   2.210
    2PC     H4B10928   1.618   2.536   2.170
    2PC     H4C10929   1.471   2.534   2.073
    2PC     C3510930   1.464   2.473   2.400
    2PC     H5A10931   1.571   2.455   2.412
    2PC     H5B10932   1.407   2.409   2.468
    2PC     H5C10933   1.434   2.577   2.416
    2PC     O3310934   1.023   2.236   1.966
    2PC     O3410935   1.008   2.437   1.864
    2PC     O2110936   0.696   2.476   2.281
    2PC     C2110937   0.757   2.541   2.382
    2PC     O2210938   0.804   2.652   2.369
    3OL     C1210939   0.762   2.454   2.505
    3OL     H2R10940   0.659   2.425   2.530
    3OL     H2S10941   0.806   2.506   2.591
    3OL     C1310942   0.849   2.329   2.490
    3OL     H3R10943   0.832   2.270   2.399
    3OL     H3S10944   0.840   2.257   2.571
    3OL     C1410945   1.000   2.354   2.498
    3OL     H4R10946   1.022   2.449   2.547
    3OL     H4S10947   1.040   2.354   2.397
    3OL     C1510948   1.069   2.237   2.571
    3OL     H5R10949   1.054   2.146   2.514
    3OL     H5S10950   1.017   2.221   2.666
    3OL     C1610951   1.220   2.257   2.585
    3OL     H6R10952   1.222   2.349   2.643
    3OL     H6S10953   1.258   2.276   2.484
    3OL     C1710954   1.302   2.153   2.663
    3OL     H7R10955   1.391   2.207   2.698
    3OL     H7S10956   1.334   2.071   2.599
    3OL     C1810957   1.231   2.091   2.784
    3OL     H8R10958   1.151   2.025   2.749
    3OL     H8S10959   1.175   2.168   2.838
    3OL     C1910960   1.333   2.021   2.870
    3OL     H9R10961   1.436   2.039   2.839
    3OL    C11010962   1.307   1.929   2.962
    3OL    H10R10963   1.387   1.872   3.008
    3OL    C11110964   1.167   1.901   3.008
    3OL    H11R10965   1.112   1.829   2.948
    3OL    H11S10966   1.106   1.990   3.027
    3OL    C11210967   1.183   1.833   3.145
    3OL    H12R10968   1.233   1.738   3.129
    3OL    H12S10969   1.089   1.803   3.193
    3OL    C11310970   1.264   1.900   3.257
    3OL    H13R10971   1.363   1.922   3.218
    3OL    H13S10972   1.280   1.832   3.342
    3OL    C11410973   1.201   2.028   3.312
    3OL    H14R10974   1.108   2.006   3.364
    3OL    H14S10975   1.181   2.090   3.225
    3OL    C11510976   1.302   2.107   3.397
    3OL    H15R10977   1.386   2.141   3.335
    3OL    H15S10978   1.346   2.047   3.477
    3OL    C11610979   1.238   2.232   3.459
    3OL    H16R10980   1.149   2.202   3.516
    3OL    H16S10981   1.202   2.304   3.385
    3OL    C11710982   1.327   2.309   3.558
    3OL    H17R10983   1.417   2.335   3.503
    3OL    H17S10984   1.371   2.240   3.631
    3OL    C11810985   1.269   2.443   3.605
    3OL    H18R10986   1.163   2.444   3.631
    3OL    H18S10987   1.276   2.517   3.525
    3OL    H18T10988   1.329   2.483   3.687
    1PA    C11610989  -0.057   4.691   3.765
    1PA    H16R10990  -0.002   4.700   3.859
    1PA    H16S10991   0.009   4.654   3.687
    1PA    H16T10992  -0.137   4.620   3.788
    1PA    C11510993  -0.103   4.834   3.731
    1PA    H15R10994  -0.165   4.821   3.642
    1PA    H15S10995  -0.156   4.886   3.811
    1PA    C11410996   0.007   4.933   3.692
    1PA    H14R10997   0.087   4.951   3.764
    1PA    H14S10998   0.070   4.895   3.611
    1PA    C11310999  -0.047   5.068   3.644
    1PA    H13R11000  -0.101   5.055   3.550
    1PA    H13S11001  -0.120   5.100   3.720
    1PA    C11211002   0.067   5.166   3.611
    1PA    H12R11003   0.013   5.260   3.602
    1PA    H12S11004   0.131   5.167   3.699
    1PA    C11111005   0.141   5.139   3.479
    1PA    H11R11006   0.199   5.049   3.501
    1PA    H11S11007   0.064   5.123   3.403
    1PA    C11011008   0.233   5.259   3.453
    1PA    H10R11009   0.170   5.348   3.442
    1PA    H10S11010   0.297   5.275   3.541
    1PA     C1911011   0.335   5.233   3.342
    1PA     H9R11012   0.409   5.311   3.322
    1PA     H9S11013   0.396   5.143   3.355
    1PA     C1811014   0.270   5.215   3.204
    1PA     H8R11015   0.206   5.127   3.208
    1PA     H8S11016   0.204   5.301   3.192
    1PA     C1711017   0.373   5.200   3.090
    1PA     H7R11018   0.442   5.131   3.140
    1PA     H7S11019   0.331   5.142   3.008
    1PA     C1611020   0.435   5.329   3.036
    1PA     H6R11021   0.348   5.391   3.010
    1PA     H6S11022   0.493   5.377   3.116
    1PA     C1511023   0.536   5.312   2.922
    1PA     H5R11024   0.624   5.251   2.942
    1PA     H5S11025   0.498   5.259   2.834
    1PA     C1411026   0.587   5.447   2.869
    1PA     H4R11027   0.590   5.515   2.954
    1PA     H4S11028   0.686   5.430   2.826
    1PA     C1311029   0.480   5.499   2.771
    1PA     H3R11030   0.432   5.422   2.711
    1PA     H3S11031   0.404   5.553   2.828
    1PA     C1211032   0.532   5.612   2.681
    1PA     H2R11033   0.458   5.651   2.610
    1PA     H2S11034   0.546   5.701   2.743
    2PC     C1111035   0.660   5.599   2.603
    2PC     O1211036   0.751   5.527   2.640
    2PC     O1111037   0.676   5.686   2.502
    2PC      C111038   0.792   5.679   2.418
    2PC      HR11039   0.844   5.584   2.439
    2PC      HS11040   0.767   5.674   2.312
    2PC      C211041   0.886   5.798   2.440
    2PC      HX11042   0.831   5.892   2.428
    2PC      C311043   0.995   5.800   2.332
    2PC      HA11044   0.949   5.863   2.255
    2PC      HB11045   1.085   5.847   2.374
    2PC     O3111046   1.025   5.667   2.286
    2PC     P3111047   1.121   5.647   2.159
    2PC     O3211048   1.245   5.583   2.239
    2PC     C3111049   1.319   5.664   2.331
    2PC     H1A11050   1.358   5.752   2.280
    2PC     H1B11051   1.249   5.698   2.408
    2PC     C3211052   1.438   5.586   2.389
    2PC     H2A11053   1.512   5.574   2.309
    2PC     H2B11054   1.488   5.650   2.461
    2PC     N3111055   1.418   5.456   2.460
    2PC     C3311056   1.341   5.479   2.586
    2PC     H3A11057   1.234   5.477   2.564
    2PC     H3B11058   1.357   5.388   2.644
    2PC     H3C11059   1.373   5.572   2.633
    2PC     C3411060   1.367   5.348   2.370
    2PC     H4A11061   1.336   5.269   2.438
    2PC     H4B11062   1.276   5.388   2.324
    2PC     H4C11063   1.448   5.316   2.304
    2PC     C3511064   1.555   5.411   2.502
    2PC     H5A11065   1.622   5.415   2.416
    2PC     H5B11066   1.541   5.313   2.549
    2PC     H5C11067   1.590   5.479   2.580
    2PC     O3311068   1.075   5.553   2.055
    2PC     O3411069   1.151   5.775   2.091
    2PC     O2111070   0.946   5.793   2.570
    2PC     C2111071   1.016   5.687   2.613
    2PC     O2211072   1.073   5.605   2.544
    3OL     C1211073   1.020   5.686   2.764
    3OL     H2R11074   0.913   5.696   2.786
    3OL     H2S11075   1.060   5.781   2.798
    3OL     C1311076   1.097   5.563   2.814
    3OL     H3R11077   1.201   5.575   2.784
    3OL     H3S11078   1.048   5.479   2.763
    3OL     C1411079   1.096   5.551   2.967
    3OL     H4R11080   1.130   5.649   3.003
    3OL     H4S11081   1.164   5.471   2.997
    3OL     C1511082   0.952   5.523   3.013
    3OL     H5R11083   0.924   5.428   2.967
    3OL     H5S11084   0.878   5.592   2.971
    3OL     C1611085   0.940   5.514   3.166
    3OL     H6R11086   0.956   5.614   3.207
    3OL     H6S11087   1.004   5.436   3.207
    3OL     C1711088   0.797   5.475   3.205
    3OL     H7R11089   0.776   5.369   3.188
    3OL     H7S11090   0.732   5.537   3.144
    3OL     C1811091   0.779   5.495   3.356
    3OL     H8R11092   0.808   5.597   3.382
    3OL     H8S11093   0.832   5.416   3.410
    3OL     C1911094   0.634   5.474   3.393
    3OL     H9R11095   0.572   5.493   3.306
    3OL    C11011096   0.592   5.429   3.511
    3OL    H10R11097   0.488   5.423   3.540
    3OL    C11111098   0.670   5.398   3.636
    3OL    H11R11099   0.733   5.309   3.631
    3OL    H11S11100   0.592   5.372   3.708
    3OL    C11211101   0.749   5.515   3.696
    3OL    H12R11102   0.685   5.597   3.730
    3OL    H12S11103   0.828   5.558   3.635
    3OL    C11311104   0.831   5.477   3.821
    3OL    H13R11105   0.897   5.561   3.840
    3OL    H13S11106   0.898   5.398   3.787
    3OL    C11411107   0.738   5.456   3.942
    3OL    H14R11108   0.642   5.507   3.931
    3OL    H14S11109   0.784   5.496   4.032
    3OL    C11511110   0.703   5.308   3.964
    3OL    H15R11111   0.701   5.264   3.865
    3OL    H15S11112   0.607   5.305   4.015
    3OL    C11611113   0.800   5.249   4.068
    3OL    H16R11114   0.792   5.141   4.052
    3OL    H16S11115   0.771   5.284   4.167
    3OL    C11711116   0.950   5.278   4.056
    3OL    H17R11117   0.999   5.260   4.152
    3OL    H17S11118   0.980   5.376   4.019
    3OL    C11811119   1.009   5.179   3.954
    3OL    H18R11120   0.987   5.079   3.992
    3OL    H18S11121   1.117   5.188   3.943
    3OL    H18T11122   0.962   5.185   3.856
    1PA    C11611123   0.646   2.889   2.704
    1PA    H16R11124   0.639   2.784   2.733
    1PA    H16S11125   0.727   2.907   2.633
    1PA    H16T11126   0.550   2.915   2.659
    1PA    C11511127   0.686   2.964   2.832
    1PA    H15R11128   0.618   2.937   2.913
    1PA    H15S11129   0.787   2.939   2.865
    1PA    C11411130   0.657   3.113   2.809
    1PA    H14R11131   0.696   3.130   2.709
    1PA    H14S11132   0.550   3.132   2.817
    1PA    C11311133   0.719   3.207   2.914
    1PA    H13R11134   0.668   3.304   2.915
    1PA    H13S11135   0.703   3.165   3.013
    1PA    C11211136   0.868   3.231   2.885
    1PA    H12R11137   0.924   3.137   2.880
    1PA    H12S11138   0.867   3.275   2.785
    1PA    C11111139   0.934   3.320   2.991
    1PA    H11R11140   0.884   3.417   2.997
    1PA    H11S11141   0.915   3.274   3.088
    1PA    C11011142   1.085   3.345   2.984
    1PA    H10R11143   1.120   3.362   3.086
    1PA    H10S11144   1.138   3.255   2.951
    1PA     C1911145   1.113   3.467   2.895
    1PA     H9R11146   1.058   3.455   2.801
    1PA     H9S11147   1.071   3.553   2.948
    1PA     C1811148   1.259   3.509   2.872
    1PA     H8R11149   1.316   3.529   2.963
    1PA     H8S11150   1.310   3.425   2.825
    1PA     C1711151   1.268   3.637   2.788
    1PA     H7R11152   1.225   3.617   2.690
    1PA     H7S11153   1.208   3.708   2.847
    1PA     C1611154   1.412   3.685   2.770
    1PA     H6R11155   1.408   3.793   2.753
    1PA     H6S11156   1.468   3.673   2.863
    1PA     C1511157   1.476   3.630   2.642
    1PA     H5R11158   1.474   3.521   2.638
    1PA     H5S11159   1.417   3.655   2.553
    1PA     C1411160   1.619   3.672   2.608
    1PA     H4R11161   1.644   3.626   2.512
    1PA     H4S11162   1.615   3.781   2.604
    1PA     C1311163   1.717   3.616   2.713
    1PA     H3R11164   1.703   3.646   2.817
    1PA     H3S11165   1.717   3.507   2.717
    1PA     C1211166   1.856   3.667   2.671
    1PA     H2R11167   1.843   3.765   2.626
    1PA     H2S11168   1.929   3.675   2.751
    2PC     C1111169   1.926   3.580   2.569
    2PC     O1211170   1.881   3.490   2.501
    2PC     O1111171   2.056   3.613   2.563
    2PC      C111172   2.126   3.577   2.443
    2PC      HR11173   2.142   3.470   2.426
    2PC      HS11174   2.066   3.605   2.356
    2PC      C211175   2.263   3.646   2.452
    2PC      HX11176   2.241   3.739   2.506
    2PC      C311177   2.322   3.687   2.317
    2PC      HA11178   2.260   3.768   2.279
    2PC      HB11179   2.425   3.723   2.330
    2PC     O3111180   2.330   3.575   2.226
    2PC     P3111181   2.400   3.598   2.084
    2PC     O3211182   2.449   3.451   2.045
    2PC     C3111183   2.345   3.367   1.992
    2PC     H1A11184   2.274   3.338   2.070
    2PC     H1B11185   2.283   3.416   1.916
    2PC     C3211186   2.408   3.236   1.943
    2PC     H2A11187   2.476   3.204   2.022
    2PC     H2B11188   2.326   3.166   1.931
    2PC     N3111189   2.482   3.238   1.812
    2PC     C3311190   2.599   3.332   1.811
    2PC     H3A11191   2.570   3.433   1.841
    2PC     H3B11192   2.676   3.298   1.881
    2PC     H3C11193   2.641   3.320   1.711
    2PC     C3411194   2.548   3.108   1.779
    2PC     H4A11195   2.645   3.104   1.829
    2PC     H4B11196   2.482   3.026   1.808
    2PC     H4C11197   2.568   3.098   1.672
    2PC     C3511198   2.380   3.268   1.707
    2PC     H5A11199   2.349   3.372   1.716
    2PC     H5B11200   2.289   3.211   1.726
    2PC     H5C11201   2.415   3.249   1.605
    2PC     O3311202   2.315   3.662   1.981
    2PC     O3411203   2.512   3.693   2.101
    2PC     O2111204   2.360   3.571   2.527
    2PC     C2111205   2.471   3.638   2.563
    2PC     O2211206   2.490   3.758   2.552
    3OL     C1211207   2.581   3.547   2.611
    3OL     H2R11208   2.672   3.607   2.601
    3OL     H2S11209   2.591   3.466   2.539
    3OL     C1311210   2.544   3.504   2.754
    3OL     H3R11211   2.516   3.399   2.753
    3OL     H3S11212   2.455   3.561   2.784
    3OL     C1411213   2.661   3.533   2.848
    3OL     H4R11214   2.657   3.639   2.876
    3OL     H4S11215   2.755   3.514   2.797
    3OL     C1511216   2.654   3.442   2.972
    3OL     H5R11217   2.666   3.338   2.941
    3OL     H5S11218   2.554   3.454   3.015
    3OL     C1611219   2.766   3.471   3.073
    3OL     H6R11220   2.755   3.571   3.114
    3OL     H6S11221   2.862   3.471   3.022
    3OL     C1711222   2.777   3.375   3.192
    3OL     H7R11223   2.778   3.270   3.161
    3OL     H7S11224   2.691   3.387   3.258
    3OL     C1811225   2.898   3.389   3.286
    3OL     H8R11226   2.880   3.326   3.374
    3OL     H8S11227   2.911   3.491   3.321
    3OL     C1911228   3.030   3.357   3.221
    3OL     H9R11229   3.035   3.280   3.144
    3OL    C11011230   3.150   3.405   3.249
    3OL    H10R11231   3.244   3.370   3.206
    3OL    C11111232   3.186   3.516   3.344
    3OL    H11R11233   3.101   3.584   3.361
    3OL    H11S11234   3.258   3.580   3.293
    3OL    C11211235   3.249   3.469   3.476
    3OL    H12R11236   3.349   3.427   3.464
    3OL    H12S11237   3.193   3.387   3.521
    3OL    C11311238   3.264   3.581   3.580
    3OL    H13R11239   3.164   3.616   3.607
    3OL    H13S11240   3.313   3.663   3.527
    3OL    C11411241   3.335   3.528   3.705
    3OL    H14R11242   3.434   3.487   3.687
    3OL    H14S11243   3.271   3.445   3.735
    3OL    C11511244   3.332   3.629   3.821
    3OL    H15R11245   3.232   3.657   3.854
    3OL    H15S11246   3.386   3.719   3.794
    3OL    C11611247   3.408   3.582   3.946
    3OL    H16R11248   3.403   3.660   4.022
    3OL    H16S11249   3.513   3.588   3.918
    3OL    C11711250   3.372   3.443   4.001
    3OL    H17R11251   3.443   3.407   4.076
    3OL    H17S11252   3.377   3.362   3.928
    3OL    C11811253   3.237   3.445   4.074
    3OL    H18R11254   3.239   3.506   4.165
    3OL    H18S11255   3.189   3.354   4.112
    3OL    H18T11256   3.167   3.494   4.006
    1PA    C11611257   2.627   1.869   3.604
    1PA    H16R11258   2.599   1.885   3.709
    1PA    H16S11259   2.557   1.928   3.546
    1PA    H16T11260   2.732   1.898   3.594
    1PA    C11511261   2.617   1.719   3.573
    1PA    H15R11262   2.690   1.664   3.633
    1PA    H15S11263   2.518   1.687   3.607
    1PA    C11411264   2.639   1.693   3.423
    1PA    H14R11265   2.592   1.604   3.383
    1PA    H14S11266   2.587   1.777   3.376
    1PA    C11311267   2.787   1.708   3.385
    1PA    H13R11268   2.832   1.802   3.417
    1PA    H13S11269   2.838   1.624   3.434
    1PA    C11211270   2.803   1.695   3.233
    1PA    H12R11271   2.902   1.652   3.213
    1PA    H12S11272   2.737   1.615   3.197
    1PA    C11111273   2.796   1.832   3.164
    1PA    H11R11274   2.693   1.864   3.180
    1PA    H11S11275   2.851   1.900   3.228
    1PA    C11011276   2.847   1.838   3.019
    1PA    H10R11277   2.954   1.815   3.016
    1PA    H10S11278   2.796   1.762   2.960
    1PA     C1911279   2.836   1.973   2.946
    1PA     H9R11280   2.878   1.962   2.845
    1PA     H9S11281   2.731   1.996   2.929
    1PA     C1811282   2.900   2.086   3.027
    1PA     H8R11283   2.825   2.140   3.085
    1PA     H8S11284   2.982   2.053   3.091
    1PA     C1711285   2.949   2.185   2.920
    1PA     H7R11286   3.031   2.150   2.857
    1PA     H7S11287   2.875   2.210   2.844
    1PA     C1611288   2.997   2.313   2.989
    1PA     H6R11289   2.910   2.351   3.044
    1PA     H6S11290   3.079   2.292   3.058
    1PA     C1511291   3.042   2.408   2.878
    1PA     H5R11292   3.117   2.351   2.824
    1PA     H5S11293   2.963   2.416   2.802
    1PA     C1411294   3.086   2.546   2.929
    1PA     H4R11295   2.998   2.600   2.964
    1PA     H4S11296   3.157   2.535   3.011
    1PA     C1311297   3.150   2.644   2.829
    1PA     H3R11298   3.195   2.731   2.875
    1PA     H3S11299   3.225   2.589   2.772
    1PA     C1211300   3.057   2.702   2.721
    1PA     H2R11301   3.009   2.623   2.663
    1PA     H2S11302   2.982   2.769   2.763
    2PC     C1111303   3.129   2.795   2.626
    2PC     O1211304   3.107   2.784   2.507
    2PC     O1111305   3.214   2.875   2.693
    2PC      C111306   3.298   2.962   2.615
    2PC      HR11307   3.386   2.987   2.675
    2PC      HS11308   3.329   2.907   2.526
    2PC      C211309   3.231   3.097   2.587
    2PC      HX11310   3.124   3.081   2.601
    2PC      C311311   3.239   3.133   2.438
    2PC      HA11312   3.167   3.073   2.381
    2PC      HB11313   3.218   3.240   2.429
    2PC     O3111314   3.373   3.104   2.393
    2PC     P3111315   3.413   3.104   2.238
    2PC     O3211316   3.544   3.196   2.234
    2PC     C3111317   3.547   3.336   2.266
    2PC     H1A11318   3.474   3.388   2.204
    2PC     H1B11319   3.525   3.340   2.373
    2PC     C3211320   3.676   3.415   2.243
    2PC     H2A11321   3.661   3.523   2.238
    2PC     H2B11322   3.740   3.402   2.331
    2PC     N3111323   3.765   3.377   2.129
    2PC     C3311324   3.845   3.261   2.180
    2PC     H3A11325   3.926   3.244   2.110
    2PC     H3B11326   3.892   3.293   2.273
    2PC     H3C11327   3.777   3.179   2.204
    2PC     C3411328   3.685   3.335   2.009
    2PC     H4A11329   3.756   3.304   1.932
    2PC     H4B11330   3.619   3.253   2.039
    2PC     H4C11331   3.630   3.422   1.975
    2PC     C3511332   3.857   3.489   2.089
    2PC     H5A11333   3.906   3.524   2.180
    2PC     H5B11334   3.785   3.565   2.056
    2PC     H5C11335   3.927   3.460   2.011
    2PC     O3311336   3.443   2.971   2.179
    2PC     O3411337   3.308   3.146   2.142
    2PC     O2111338   3.286   3.201   2.670
    2PC     C2111339   3.216   3.314   2.694
    2PC     O2211340   3.100   3.332   2.664
    3OL     C1211341   3.295   3.406   2.784
    3OL     H2R11342   3.343   3.482   2.723
    3OL     H2S11343   3.373   3.355   2.840
    3OL     C1311344   3.200   3.483   2.877
    3OL     H3R11345   3.145   3.416   2.943
    3OL     H3S11346   3.130   3.523   2.804
    3OL     C1411347   3.262   3.601   2.954
    3OL     H4R11348   3.315   3.665   2.884
    3OL     H4S11349   3.331   3.556   3.025
    3OL     C1511350   3.158   3.684   3.030
    3OL     H5R11351   3.100   3.634   3.109
    3OL     H5S11352   3.080   3.725   2.967
    3OL     C1611353   3.222   3.806   3.099
    3OL     H6R11354   3.282   3.856   3.023
    3OL     H6S11355   3.286   3.769   3.179
    3OL     C1711356   3.111   3.894   3.158
    3OL     H7R11357   3.030   3.916   3.089
    3OL     H7S11358   3.169   3.985   3.177
    3OL     C1811359   3.061   3.836   3.291
    3OL     H8R11360   3.146   3.791   3.343
    3OL     H8S11361   2.990   3.755   3.272
    3OL     C1911362   2.990   3.930   3.385
    3OL     H9R11363   2.903   3.981   3.344
    3OL    C11011364   3.012   3.958   3.512
    3OL    H10R11365   2.938   4.015   3.567
    3OL    C11111366   3.129   3.916   3.598
    3OL    H11R11367   3.198   3.852   3.544
    3OL    H11S11368   3.088   3.844   3.670
    3OL    C11211369   3.192   4.040   3.663
    3OL    H12R11370   3.120   4.078   3.736
    3OL    H12S11371   3.215   4.118   3.590
    3OL    C11311372   3.328   4.006   3.726
    3OL    H13R11373   3.383   3.940   3.659
    3OL    H13S11374   3.305   3.943   3.812
    3OL    C11411375   3.409   4.126   3.776
    3OL    H14R11376   3.442   4.186   3.690
    3OL    H14S11377   3.505   4.097   3.817
    3OL    C11511378   3.322   4.208   3.873
    3OL    H15R11379   3.289   4.148   3.957
    3OL    H15S11380   3.239   4.257   3.822
    3OL    C11611381   3.410   4.316   3.938
    3OL    H16R11382   3.461   4.366   3.856
    3OL    H16S11383   3.477   4.266   4.008
    3OL    C11711384   3.329   4.413   4.025
    3OL    H17R11385   3.260   4.463   3.956
    3OL    H17S11386   3.385   4.496   4.067
    3OL    C11811387   3.240   4.349   4.132
    3OL    H18R11388   3.302   4.286   4.197
    3OL    H18S11389   3.149   4.301   4.093
    3OL    H18T11390   3.202   4.424   4.201
    1PA    C11611391   5.088   5.625   3.439
    1PA    H16R11392   5.042   5.596   3.345
    1PA    H16S11393   5.191   5.656   3.421
    1PA    H16T11394   5.034   5.713   3.475
    1PA    C11511395   5.093   5.530   3.560
    1PA    H15R11396   5.183   5.470   3.549
    1PA    H15S11397   5.107   5.596   3.647
    1PA    C11411398   4.975   5.434   3.577
    1PA    H14R11399   4.984   5.365   3.493
    1PA    H14S11400   4.980   5.378   3.671
    1PA    C11311401   4.839   5.506   3.575
    1PA    H13R11402   4.845   5.576   3.658
    1PA    H13S11403   4.826   5.561   3.481
    1PA    C11211404   4.727   5.402   3.585
    1PA    H12R11405   4.759   5.325   3.656
    1PA    H12S11406   4.641   5.456   3.625
    1PA    C11111407   4.673   5.317   3.469
    1PA    H11R11408   4.759   5.292   3.406
    1PA    H11S11409   4.634   5.225   3.513
    1PA    C11011410   4.555   5.385   3.398
    1PA    H10R11411   4.503   5.307   3.341
    1PA    H10S11412   4.482   5.427   3.467
    1PA     C1911413   4.616   5.487   3.300
    1PA     H9R11414   4.647   5.573   3.358
    1PA     H9S11415   4.693   5.435   3.242
    1PA     C1811416   4.511   5.546   3.204
    1PA     H8R11417   4.483   5.476   3.126
    1PA     H8S11418   4.417   5.559   3.257
    1PA     C1711419   4.554   5.679   3.140
    1PA     H7R11420   4.469   5.716   3.082
    1PA     H7S11421   4.568   5.764   3.208
    1PA     C1611422   4.682   5.663   3.057
    1PA     H6R11423   4.771   5.658   3.120
    1PA     H6S11424   4.684   5.571   2.999
    1PA     C1511425   4.716   5.795   2.986
    1PA     H5R11426   4.634   5.824   2.920
    1PA     H5S11427   4.726   5.874   3.061
    1PA     C1411428   4.841   5.781   2.899
    1PA     H4R11429   4.924   5.755   2.965
    1PA     H4S11430   4.819   5.706   2.823
    1PA     C1311431   4.864   5.915   2.826
    1PA     H3R11432   4.775   5.960   2.784
    1PA     H3S11433   4.882   5.993   2.900
    1PA     C1211434   4.980   5.898   2.726
    1PA     H2R11435   5.010   5.994   2.685
    1PA     H2S11436   5.066   5.861   2.782
    2PC     C1111437   4.954   5.798   2.617
    2PC     O1211438   4.848   5.785   2.558
    2PC     O1111439   5.062   5.721   2.599
    2PC      C111440   5.051   5.614   2.503
    2PC      HR11441   4.949   5.606   2.464
    2PC      HS11442   5.124   5.641   2.427
    2PC      C211443   5.085   5.494   2.594
    2PC      HX11444   5.154   5.523   2.673
    2PC      C311445   5.136   5.377   2.509
    2PC      HA11446   5.237   5.406   2.479
    2PC      HB11447   5.130   5.287   2.571
    2PC     O3111448   5.061   5.340   2.392
    2PC     P3111449   5.105   5.204   2.319
    2PC     O3211450   5.040   5.105   2.427
    2PC     C3111451   5.051   4.968   2.386
    2PC     H1A11452   4.973   4.951   2.311
    2PC     H1B11453   5.147   4.939   2.341
    2PC     C3211454   5.018   4.875   2.504
    2PC     H2A11455   5.011   4.772   2.469
    2PC     H2B11456   5.100   4.867   2.575
    2PC     N3111457   4.892   4.895   2.583
    2PC     C3311458   4.913   4.818   2.710
    2PC     H3A11459   4.939   4.715   2.686
    2PC     H3B11460   4.997   4.867   2.758
    2PC     H3C11461   4.822   4.812   2.769
    2PC     C3411462   4.872   5.036   2.630
    2PC     H4A11463   4.788   5.047   2.698
    2PC     H4B11464   4.959   5.070   2.687
    2PC     H4C11465   4.845   5.093   2.541
    2PC     C3511466   4.777   4.844   2.501
    2PC     H5A11467   4.708   4.806   2.576
    2PC     H5B11468   4.791   4.771   2.422
    2PC     H5C11469   4.738   4.936   2.456
    2PC     O3311470   5.031   5.210   2.191
    2PC     O3411471   5.246   5.185   2.280
    2PC     O2111472   4.967   5.443   2.659
    2PC     C2111473   4.978   5.350   2.756
    2PC     O2211474   5.079   5.306   2.805
    3OL     C1211475   4.841   5.320   2.812
    3OL     H2R11476   4.774   5.278   2.737
    3OL     H2S11477   4.801   5.420   2.830
    3OL     C1311478   4.846   5.241   2.943
    3OL     H3R11479   4.915   5.292   3.010
    3OL     H3S11480   4.884   5.140   2.927
    3OL     C1411481   4.706   5.239   3.006
    3OL     H4R11482   4.661   5.337   2.989
    3OL     H4S11483   4.704   5.216   3.112
    3OL     C1511484   4.621   5.133   2.934
    3OL     H5R11485   4.674   5.038   2.938
    3OL     H5S11486   4.610   5.144   2.826
    3OL     C1611487   4.482   5.118   2.999
    3OL     H6R11488   4.414   5.061   2.936
    3OL     H6S11489   4.442   5.220   3.004
    3OL     C1711490   4.483   5.059   3.140
    3OL     H7R11491   4.554   5.117   3.199
    3OL     H7S11492   4.526   4.959   3.127
    3OL     C1811493   4.344   5.035   3.201
    3OL     H8R11494   4.359   4.958   3.277
    3OL     H8S11495   4.286   4.984   3.123
    3OL     C1911496   4.264   5.157   3.241
    3OL     H9R11497   4.222   5.213   3.158
    3OL    C11011498   4.232   5.197   3.363
    3OL    H10R11499   4.164   5.282   3.365
    3OL    C11111500   4.295   5.159   3.495
    3OL    H11R11501   4.402   5.151   3.478
    3OL    H11S11502   4.271   5.055   3.519
    3OL    C11211503   4.271   5.265   3.603
    3OL    H12R11504   4.176   5.234   3.647
    3OL    H12S11505   4.259   5.367   3.566
    3OL    C11311506   4.380   5.265   3.711
    3OL    H13R11507   4.340   5.335   3.784
    3OL    H13S11508   4.470   5.312   3.670
    3OL    C11411509   4.398   5.127   3.775
    3OL    H14R11510   4.445   5.060   3.703
    3OL    H14S11511   4.300   5.086   3.801
    3OL    C11511512   4.473   5.129   3.910
    3OL    H15R11513   4.408   5.168   3.988
    3OL    H15S11514   4.562   5.192   3.901
    3OL    C11611515   4.512   4.983   3.934
    3OL    H16R11516   4.579   4.953   3.853
    3OL    H16S11517   4.424   4.919   3.939
    3OL    C11711518   4.600   4.981   4.060
    3OL    H17R11519   4.553   5.026   4.148
    3OL    H17S11520   4.693   5.035   4.039
    3OL    C11811521   4.638   4.835   4.085
    3OL    H18R11522   4.713   4.846   4.164
    3OL    H18S11523   4.683   4.782   4.000
    3OL    H18T11524   4.550   4.781   4.122
    1PA    C11611525   2.672   3.092   4.276
    1PA    H16R11526   2.573   3.117   4.237
    1PA    H16S11527   2.693   3.152   4.364
    1PA    H16T11528   2.669   2.988   4.311
    1PA    C11511529   2.780   3.123   4.172
    1PA    H15R11530   2.877   3.120   4.222
    1PA    H15S11531   2.774   3.040   4.102
    1PA    C11411532   2.746   3.254   4.099
    1PA    H14R11533   2.640   3.251   4.074
    1PA    H14S11534   2.760   3.333   4.173
    1PA    C11311535   2.836   3.264   3.975
    1PA    H13R11536   2.942   3.269   4.004
    1PA    H13S11537   2.818   3.177   3.911
    1PA    C11211538   2.800   3.393   3.901
    1PA    H12R11539   2.707   3.373   3.847
    1PA    H12S11540   2.783   3.475   3.972
    1PA    C11111541   2.908   3.439   3.803
    1PA    H11R11542   3.006   3.435   3.851
    1PA    H11S11543   2.906   3.366   3.721
    1PA    C11011544   2.869   3.572   3.737
    1PA    H10R11545   2.846   3.648   3.812
    1PA    H10S11546   2.954   3.591   3.672
    1PA     C1911547   2.747   3.563   3.645
    1PA     H9R11548   2.741   3.463   3.600
    1PA     H9S11549   2.658   3.562   3.708
    1PA     C1811550   2.734   3.686   3.554
    1PA     H8R11551   2.731   3.777   3.614
    1PA     H8S11552   2.828   3.698   3.500
    1PA     C1711553   2.609   3.677   3.465
    1PA     H7R11554   2.603   3.582   3.413
    1PA     H7S11555   2.530   3.681   3.541
    1PA     C1611556   2.603   3.803   3.378
    1PA     H6R11557   2.497   3.818   3.359
    1PA     H6S11558   2.627   3.896   3.430
    1PA     C1511559   2.679   3.795   3.245
    1PA     H5R11560   2.787   3.779   3.251
    1PA     H5S11561   2.626   3.723   3.182
    1PA     C1411562   2.650   3.925   3.169
    1PA     H4R11563   2.542   3.938   3.156
    1PA     H4S11564   2.698   4.010   3.217
    1PA     C1311565   2.705   3.917   3.026
    1PA     H3R11566   2.811   3.887   3.030
    1PA     H3S11567   2.657   3.829   2.982
    1PA     C1211568   2.678   4.036   2.933
    1PA     H2R11569   2.575   4.053   2.904
    1PA     H2S11570   2.719   4.124   2.983
    2PC     C1111571   2.767   4.023   2.811
    2PC     O1211572   2.831   3.923   2.787
    2PC     O1111573   2.768   4.135   2.737
    2PC      C111574   2.826   4.126   2.606
    2PC      HR11575   2.932   4.126   2.632
    2PC      HS11576   2.803   4.032   2.556
    2PC      C211577   2.792   4.245   2.515
    2PC      HX11578   2.691   4.276   2.544
    2PC      C311579   2.811   4.231   2.364
    2PC      HA11580   2.718   4.194   2.317
    2PC      HB11581   2.826   4.336   2.339
    2PC     O3111582   2.928   4.150   2.340
    2PC     P3111583   3.024   4.172   2.214
    2PC     O3211584   2.951   4.084   2.102
    2PC     C3111585   2.958   3.941   2.113
    2PC     H1A11586   3.059   3.902   2.134
    2PC     H1B11587   2.884   3.913   2.189
    2PC     C3211588   2.910   3.869   1.987
    2PC     H2A11589   2.891   3.766   2.018
    2PC     H2B11590   2.815   3.903   1.944
    2PC     N3111591   3.002   3.870   1.868
    2PC     C3311592   3.131   3.797   1.889
    2PC     H3A11593   3.120   3.691   1.910
    2PC     H3B11594   3.185   3.806   1.795
    2PC     H3C11595   3.194   3.833   1.971
    2PC     C3411596   2.933   3.792   1.760
    2PC     H4A11597   2.941   3.689   1.793
    2PC     H4B11598   2.826   3.817   1.755
    2PC     H4C11599   2.982   3.799   1.663
    2PC     C3511600   3.025   4.010   1.821
    2PC     H5A11601   3.062   4.066   1.907
    2PC     H5B11602   2.924   4.037   1.789
    2PC     H5C11603   3.090   4.005   1.734
    2PC     O3311604   3.030   4.318   2.192
    2PC     O3411605   3.167   4.137   2.225
    2PC     O2111606   2.887   4.347   2.554
    2PC     C2111607   2.856   4.455   2.627
    2PC     O2211608   2.740   4.489   2.635
    3OL     C1211609   2.971   4.520   2.700
    3OL     H2R11610   2.986   4.624   2.670
    3OL     H2S11611   3.057   4.457   2.675
    3OL     C1311612   2.949   4.507   2.851
    3OL     H3R11613   2.844   4.529   2.874
    3OL     H3S11614   3.001   4.579   2.915
    3OL     C1411615   2.988   4.367   2.901
    3OL     H4R11616   3.095   4.357   2.918
    3OL     H4S11617   2.960   4.287   2.832
    3OL     C1511618   2.936   4.328   3.040
    3OL     H5R11619   2.944   4.220   3.053
    3OL     H5S11620   2.830   4.354   3.041
    3OL     C1611621   2.997   4.399   3.162
    3OL     H6R11622   2.931   4.370   3.245
    3OL     H6S11623   2.980   4.504   3.139
    3OL     C1711624   3.145   4.374   3.192
    3OL     H7R11625   3.211   4.443   3.139
    3OL     H7S11626   3.186   4.278   3.161
    3OL     C1811627   3.170   4.388   3.343
    3OL     H8R11628   3.278   4.401   3.348
    3OL     H8S11629   3.138   4.302   3.402
    3OL     C1911630   3.109   4.509   3.409
    3OL     H9R11631   3.145   4.607   3.380
    3OL    C11011632   3.010   4.514   3.498
    3OL    H10R11633   2.975   4.610   3.533
    3OL    C11111634   2.946   4.392   3.559
    3OL    H11R11635   2.963   4.305   3.496
    3OL    H11S11636   2.840   4.421   3.555
    3OL    C11211637   2.999   4.364   3.700
    3OL    H12R11638   3.106   4.364   3.682
    3OL    H12S11639   2.965   4.267   3.735
    3OL    C11311640   2.963   4.464   3.811
    3OL    H13R11641   2.993   4.567   3.789
    3OL    H13S11642   3.019   4.452   3.904
    3OL    C11411643   2.811   4.461   3.834
    3OL    H14R11644   2.778   4.357   3.837
    3OL    H14S11645   2.772   4.493   3.737
    3OL    C11511646   2.760   4.555   3.944
    3OL    H15R11647   2.653   4.575   3.936
    3OL    H15S11648   2.807   4.652   3.929
    3OL    C11611649   2.781   4.491   4.082
    3OL    H16R11650   2.875   4.435   4.077
    3OL    H16S11651   2.701   4.419   4.101
    3OL    C11711652   2.791   4.603   4.186
    3OL    H17R11653   2.701   4.666   4.184
    3OL    H17S11654   2.874   4.668   4.159
    3OL    C11811655   2.806   4.557   4.331
    3OL    H18R11656   2.908   4.526   4.355
    3OL    H18S11657   2.740   4.473   4.351
    3OL    H18T11658   2.772   4.634   4.402
    1PA    C11611659   6.245   5.223   4.227
    1PA    H16R11660   6.336   5.272   4.260
    1PA    H16S11661   6.214   5.150   4.302
    1PA    H16T11662   6.169   5.300   4.237
    1PA    C11511663   6.270   5.176   4.083
    1PA    H15R11664   6.366   5.126   4.067
    1PA    H15S11665   6.189   5.107   4.061
    1PA    C11411666   6.258   5.287   3.978
    1PA    H14R11667   6.302   5.379   4.018
    1PA    H14S11668   6.324   5.253   3.898
    1PA    C11311669   6.110   5.305   3.940
    1PA    H13R11670   6.064   5.220   3.890
    1PA    H13S11671   6.045   5.308   4.028
    1PA    C11211672   6.083   5.425   3.849
    1PA    H12R11673   5.975   5.441   3.845
    1PA    H12S11674   6.132   5.515   3.886
    1PA    C11111675   6.122   5.407   3.702
    1PA    H11R11676   6.228   5.384   3.689
    1PA    H11S11677   6.057   5.328   3.663
    1PA    C11011678   6.094   5.538   3.627
    1PA    H10R11679   5.988   5.567   3.627
    1PA    H10S11680   6.143   5.621   3.679
    1PA     C1911681   6.137   5.526   3.480
    1PA     H9R11682   6.127   5.421   3.451
    1PA     H9S11683   6.083   5.588   3.408
    1PA     C1811684   6.288   5.550   3.465
    1PA     H8R11685   6.301   5.658   3.473
    1PA     H8S11686   6.345   5.493   3.539
    1PA     C1711687   6.331   5.500   3.326
    1PA     H7R11688   6.437   5.475   3.328
    1PA     H7S11689   6.280   5.407   3.300
    1PA     C1611690   6.298   5.598   3.213
    1PA     H6R11691   6.192   5.624   3.214
    1PA     H6S11692   6.351   5.693   3.229
    1PA     C1511693   6.345   5.544   3.077
    1PA     H5R11694   6.449   5.515   3.058
    1PA     H5S11695   6.295   5.450   3.052
    1PA     C1411696   6.310   5.646   2.969
    1PA     H4R11697   6.211   5.684   2.993
    1PA     H4S11698   6.379   5.731   2.980
    1PA     C1311699   6.312   5.603   2.821
    1PA     H3R11700   6.299   5.696   2.765
    1PA     H3S11701   6.404   5.550   2.799
    1PA     C1211702   6.197   5.509   2.781
    1PA     H2R11703   6.211   5.407   2.817
    1PA     H2S11704   6.108   5.552   2.826
    2PC     C1111705   6.184   5.504   2.631
    2PC     O1211706   6.275   5.487   2.552
    2PC     O1111707   6.058   5.537   2.601
    2PC      C111708   6.020   5.530   2.462
    2PC      HR11709   6.074   5.607   2.407
    2PC      HS11710   6.036   5.430   2.420
    2PC      C211711   5.869   5.559   2.471
    2PC      HX11712   5.826   5.485   2.539
    2PC      C311713   5.793   5.530   2.340
    2PC      HA11714   5.810   5.430   2.299
    2PC      HB11715   5.687   5.551   2.356
    2PC     O3111716   5.838   5.618   2.236
    2PC     P3111717   5.767   5.602   2.093
    2PC     O3211718   5.628   5.679   2.114
    2PC     C3111719   5.504   5.606   2.108
    2PC     H1A11720   5.496   5.558   2.010
    2PC     H1B11721   5.502   5.529   2.185
    2PC     C3211722   5.392   5.710   2.124
    2PC     H2A11723   5.402   5.779   2.208
    2PC     H2B11724   5.404   5.778   2.039
    2PC     N3111725   5.250   5.665   2.107
    2PC     C3311726   5.223   5.554   2.205
    2PC     H3A11727   5.280   5.464   2.179
    2PC     H3B11728   5.249   5.574   2.309
    2PC     H3C11729   5.116   5.535   2.195
    2PC     C3411730   5.158   5.779   2.136
    2PC     H4A11731   5.180   5.862   2.068
    2PC     H4B11732   5.054   5.749   2.117
    2PC     H4C11733   5.166   5.810   2.240
    2PC     C3511734   5.216   5.628   1.966
    2PC     H5A11735   5.108   5.617   1.957
    2PC     H5B11736   5.255   5.528   1.947
    2PC     H5C11737   5.260   5.702   1.900
    2PC     O3311738   5.840   5.662   1.979
    2PC     O3411739   5.758   5.461   2.051
    2PC     O2111740   5.846   5.693   2.518
    2PC     C2111741   5.752   5.718   2.611
    2PC     O2211742   5.682   5.641   2.675
    3OL     C1211743   5.730   5.866   2.626
    3OL     H2R11744   5.637   5.878   2.683
    3OL     H2S11745   5.722   5.904   2.524
    3OL     C1311746   5.846   5.941   2.692
    3OL     H3R11747   5.934   5.923   2.630
    3OL     H3S11748   5.863   5.897   2.790
    3OL     C1411749   5.832   6.094   2.702
    3OL     H4R11750   5.811   6.135   2.603
    3OL     H4S11751   5.925   6.145   2.725
    3OL     C1511752   5.725   6.127   2.807
    3OL     H5R11753   5.753   6.108   2.911
    3OL     H5S11754   5.632   6.074   2.790
    3OL     C1611755   5.705   6.280   2.806
    3OL     H6R11756   5.677   6.318   2.708
    3OL     H6S11757   5.797   6.329   2.839
    3OL     C1711758   5.603   6.326   2.912
    3OL     H7R11759   5.618   6.267   3.003
    3OL     H7S11760   5.509   6.284   2.876
    3OL     C1811761   5.612   6.477   2.935
    3OL     H8R11762   5.521   6.489   2.993
    3OL     H8S11763   5.591   6.520   2.836
    3OL     C1911764   5.739   6.520   3.004
    3OL     H9R11765   5.818   6.549   2.936
    3OL    C11011766   5.765   6.532   3.133
    3OL    H10R11767   5.862   6.567   3.170
    3OL    C11111768   5.675   6.514   3.253
    3OL    H11R11769   5.576   6.497   3.209
    3OL    H11S11770   5.680   6.605   3.313
    3OL    C11211771   5.725   6.386   3.321
    3OL    H12R11772   5.834   6.395   3.330
    3OL    H12S11773   5.708   6.292   3.268
    3OL    C11311774   5.682   6.380   3.468
    3OL    H13R11775   5.573   6.381   3.474
    3OL    H13S11776   5.729   6.466   3.515
    3OL    C11411777   5.727   6.251   3.539
    3OL    H14R11778   5.829   6.239   3.502
    3OL    H14S11779   5.670   6.165   3.502
    3OL    C11511780   5.717   6.271   3.691
    3OL    H15R11781   5.740   6.376   3.706
    3OL    H15S11782   5.798   6.212   3.734
    3OL    C11611783   5.578   6.228   3.740
    3OL    H16R11784   5.594   6.168   3.830
    3OL    H16S11785   5.519   6.179   3.661
    3OL    C11711786   5.501   6.353   3.785
    3OL    H17R11787   5.489   6.404   3.690
    3OL    H17S11788   5.559   6.418   3.851
    3OL    C11811789   5.367   6.319   3.853
    3OL    H18R11790   5.310   6.408   3.879
    3OL    H18S11791   5.388   6.258   3.941
    3OL    H18T11792   5.305   6.263   3.783
    1PA    C11611793   4.635   4.776   3.590
    1PA    H16R11794   4.636   4.881   3.559
    1PA    H16S11795   4.592   4.776   3.691
    1PA    H16T11796   4.575   4.708   3.530
    1PA    C11511797   4.775   4.712   3.594
    1PA    H15R11798   4.827   4.735   3.687
    1PA    H15S11799   4.760   4.603   3.592
    1PA    C11411800   4.857   4.760   3.474
    1PA    H14R11801   4.947   4.699   3.464
    1PA    H14S11802   4.790   4.750   3.388
    1PA    C11311803   4.901   4.906   3.483
    1PA    H13R11804   4.819   4.977   3.492
    1PA    H13S11805   4.955   4.923   3.576
    1PA    C11211806   4.995   4.946   3.367
    1PA    H12R11807   5.085   4.885   3.369
    1PA    H12S11808   4.949   4.917   3.272
    1PA    C11111809   5.022   5.097   3.366
    1PA    H11R11810   4.924   5.145   3.367
    1PA    H11S11811   5.078   5.130   3.454
    1PA    C11011812   5.099   5.130   3.238
    1PA    H10R11813   5.185   5.065   3.220
    1PA    H10S11814   5.037   5.130   3.148
    1PA     C1911815   5.151   5.273   3.262
    1PA     H9R11816   5.070   5.343   3.285
    1PA     H9S11817   5.215   5.277   3.350
    1PA     C1811818   5.226   5.330   3.141
    1PA     H8R11819   5.317   5.271   3.125
    1PA     H8S11820   5.161   5.323   3.054
    1PA     C1711821   5.268   5.478   3.148
    1PA     H7R11822   5.182   5.541   3.172
    1PA     H7S11823   5.348   5.498   3.219
    1PA     C1611824   5.313   5.521   3.007
    1PA     H6R11825   5.378   5.439   2.973
    1PA     H6S11826   5.229   5.534   2.939
    1PA     C1511827   5.404   5.645   3.010
    1PA     H5R11828   5.453   5.649   3.107
    1PA     H5S11829   5.484   5.629   2.937
    1PA     C1411830   5.331   5.772   2.965
    1PA     H4R11831   5.257   5.768   2.885
    1PA     H4S11832   5.270   5.805   3.049
    1PA     C1311833   5.431   5.886   2.944
    1PA     H3R11834   5.488   5.921   3.030
    1PA     H3S11835   5.509   5.845   2.879
    1PA     C1211836   5.373   6.013   2.882
    1PA     H2R11837   5.270   6.017   2.918
    1PA     H2S11838   5.431   6.095   2.925
    2PC     C1111839   5.355   6.018   2.732
    2PC     O1211840   5.367   5.922   2.659
    2PC     O1111841   5.332   6.142   2.686
    2PC      C111842   5.344   6.177   2.546
    2PC      HR11843   5.351   6.286   2.541
    2PC      HS11844   5.426   6.117   2.507
    2PC      C211845   5.217   6.125   2.477
    2PC      HX11846   5.203   6.024   2.516
    2PC      C311847   5.226   6.125   2.324
    2PC      HA11848   5.306   6.054   2.304
    2PC      HB11849   5.137   6.075   2.283
    2PC     O3111850   5.250   6.258   2.273
    2PC     P3111851   5.204   6.282   2.122
    2PC     O3211852   5.255   6.426   2.074
    2PC     C3111853   5.282   6.533   2.167
    2PC     H1A11854   5.371   6.502   2.223
    2PC     H1B11855   5.314   6.622   2.111
    2PC     C3211856   5.165   6.560   2.262
    2PC     H2A11857   5.128   6.476   2.321
    2PC     H2B11858   5.182   6.639   2.336
    2PC     N3111859   5.050   6.631   2.198
    2PC     C3311860   4.929   6.630   2.287
    2PC     H3A11861   4.905   6.528   2.317
    2PC     H3B11862   4.940   6.681   2.382
    2PC     H3C11863   4.845   6.675   2.234
    2PC     C3411864   5.085   6.770   2.156
    2PC     H4A11865   5.149   6.762   2.067
    2PC     H4B11866   4.996   6.828   2.132
    2PC     H4C11867   5.140   6.826   2.232
    2PC     C3511868   4.996   6.568   2.072
    2PC     H5A11869   4.899   6.602   2.037
    2PC     H5B11870   4.990   6.464   2.104
    2PC     H5C11871   5.072   6.578   1.994
    2PC     O3311872   5.280   6.179   2.047
    2PC     O3411873   5.058   6.271   2.101
    2PC     O2111874   5.109   6.209   2.522
    2PC     C2111875   4.979   6.180   2.503
    2PC     O2211876   4.939   6.072   2.466
    3OL     C1211877   4.897   6.294   2.556
    3OL     H2R11878   4.789   6.280   2.547
    3OL     H2S11879   4.934   6.389   2.517
    3OL     C1311880   4.938   6.302   2.704
    3OL     H3R11881   5.041   6.340   2.706
    3OL     H3S11882   4.926   6.205   2.752
    3OL     C1411883   4.846   6.399   2.779
    3OL     H4R11884   4.743   6.364   2.772
    3OL     H4S11885   4.856   6.492   2.723
    3OL     C1511886   4.884   6.422   2.926
    3OL     H5R11887   4.984   6.466   2.929
    3OL     H5S11888   4.897   6.324   2.971
    3OL     C1611889   4.778   6.507   2.997
    3OL     H6R11890   4.682   6.458   3.014
    3OL     H6S11891   4.750   6.591   2.934
    3OL     C1711892   4.826   6.565   3.131
    3OL     H7R11893   4.760   6.645   3.165
    3OL     H7S11894   4.914   6.625   3.108
    3OL     C1811895   4.861   6.468   3.244
    3OL     H8R11896   4.940   6.399   3.212
    3OL     H8S11897   4.775   6.402   3.257
    3OL     C1911898   4.892   6.536   3.375
    3OL     H9R11899   4.990   6.568   3.409
    3OL    C11011900   4.795   6.567   3.460
    3OL    H10R11901   4.820   6.634   3.541
    3OL    C11111902   4.647   6.555   3.433
    3OL    H11R11903   4.624   6.485   3.353
    3OL    H11S11904   4.593   6.647   3.410
    3OL    C11211905   4.584   6.514   3.567
    3OL    H12R11906   4.475   6.506   3.556
    3OL    H12S11907   4.611   6.582   3.647
    3OL    C11311908   4.614   6.366   3.596
    3OL    H13R11909   4.721   6.345   3.599
    3OL    H13S11910   4.564   6.300   3.525
    3OL    C11411911   4.551   6.331   3.731
    3OL    H14R11912   4.443   6.337   3.714
    3OL    H14S11913   4.585   6.394   3.814
    3OL    C11511914   4.567   6.184   3.773
    3OL    H15R11915   4.674   6.161   3.763
    3OL    H15S11916   4.523   6.111   3.704
    3OL    C11611917   4.525   6.164   3.919
    3OL    H16R11918   4.591   6.224   3.983
    3OL    H16S11919   4.548   6.060   3.943
    3OL    C11711920   4.378   6.198   3.944
    3OL    H17R11921   4.313   6.131   3.888
    3OL    H17S11922   4.355   6.304   3.930
    3OL    C11811923   4.352   6.171   4.093
    3OL    H18R11924   4.439   6.207   4.147
    3OL    H18S11925   4.333   6.064   4.103
    3OL    H18T11926   4.260   6.217   4.130
    1PA    C11611927   1.152   6.445   4.120
    1PA    H16R11928   1.063   6.382   4.125
    1PA    H16S11929   1.142   6.523   4.044
    1PA    H16T11930   1.162   6.494   4.217
    1PA    C11511931   1.271   6.360   4.075
    1PA    H15R11932   1.342   6.439   4.050
    1PA    H15S11933   1.288   6.323   4.176
    1PA    C11411934   1.229   6.256   3.970
    1PA    H14R11935   1.155   6.186   4.008
    1PA    H14S11936   1.183   6.317   3.893
    1PA    C11311937   1.351   6.173   3.928
    1PA    H13R11938   1.398   6.114   4.007
    1PA    H13S11939   1.326   6.098   3.852
    1PA    C11211940   1.462   6.257   3.863
    1PA    H12R11941   1.425   6.339   3.801
    1PA    H12S11942   1.508   6.314   3.944
    1PA    C11111943   1.570   6.165   3.806
    1PA    H11R11944   1.606   6.089   3.875
    1PA    H11S11945   1.525   6.107   3.724
    1PA    C11011946   1.672   6.252   3.731
    1PA    H10R11947   1.611   6.324   3.675
    1PA    H10S11948   1.728   6.300   3.811
    1PA     C1911949   1.761   6.163   3.643
    1PA     H9R11950   1.819   6.091   3.700
    1PA     H9S11951   1.696   6.096   3.586
    1PA     C1811952   1.852   6.249   3.554
    1PA     H8R11953   1.794   6.314   3.489
    1PA     H8S11954   1.903   6.322   3.617
    1PA     C1711955   1.941   6.165   3.461
    1PA     H7R11956   2.020   6.110   3.512
    1PA     H7S11957   1.884   6.089   3.406
    1PA     C1611958   2.018   6.252   3.361
    1PA     H6R11959   1.999   6.226   3.257
    1PA     H6S11960   1.985   6.356   3.360
    1PA     C1511961   2.171   6.254   3.374
    1PA     H5R11962   2.210   6.254   3.476
    1PA     H5S11963   2.200   6.166   3.316
    1PA     C1411964   2.237   6.373   3.303
    1PA     H4R11965   2.191   6.467   3.336
    1PA     H4S11966   2.343   6.388   3.322
    1PA     C1311967   2.224   6.368   3.150
    1PA     H3R11968   2.129   6.320   3.124
    1PA     H3S11969   2.244   6.467   3.109
    1PA     C1211970   2.342   6.291   3.089
    1PA     H2R11971   2.438   6.343   3.100
    1PA     H2S11972   2.354   6.193   3.135
    2PC     C1111973   2.330   6.274   2.940
    2PC     O1211974   2.424   6.245   2.869
    2PC     O1111975   2.209   6.311   2.894
    2PC      C111976   2.177   6.313   2.754
    2PC      HR11977   2.082   6.367   2.742
    2PC      HS11978   2.248   6.371   2.694
    2PC      C211979   2.162   6.170   2.701
    2PC      HX11980   2.252   6.110   2.715
    2PC      C311981   2.135   6.166   2.550
    2PC      HA11982   2.226   6.185   2.492
    2PC      HB11983   2.103   6.068   2.515
    2PC     O3111984   2.035   6.264   2.515
    2PC     P3111985   2.028   6.295   2.358
    2PC     O3211986   2.171   6.360   2.326
    2PC     C3111987   2.197   6.484   2.393
    2PC     H1A11988   2.108   6.548   2.399
    2PC     H1B11989   2.219   6.462   2.498
    2PC     C3211990   2.322   6.548   2.331
    2PC     H2A11991   2.323   6.645   2.382
    2PC     H2B11992   2.410   6.488   2.352
    2PC     N3111993   2.326   6.570   2.182
    2PC     C3311994   2.465   6.618   2.152
    2PC     H3A11995   2.534   6.534   2.152
    2PC     H3B11996   2.462   6.663   2.053
    2PC     H3C11997   2.492   6.690   2.229
    2PC     C3411998   2.312   6.450   2.094
    2PC     H4A11999   2.380   6.373   2.129
    2PC     H4B12000   2.218   6.397   2.113
    2PC     H4C12001   2.333   6.466   1.988
    2PC     C3512002   2.221   6.673   2.152
    2PC     H5A12003   2.256   6.767   2.193
    2PC     H5B12004   2.124   6.651   2.198
    2PC     H5C12005   2.202   6.684   2.045
    2PC     O3312006   1.983   6.177   2.281
    2PC     O3412007   1.929   6.404   2.339
    2PC     O2112008   2.050   6.107   2.767
    2PC     C2112009   2.077   6.041   2.881
    2PC     O2212010   2.190   6.012   2.916
    3OL     C1212011   1.959   6.008   2.970
    3OL     H2R12012   1.882   5.969   2.903
    3OL     H2S12013   1.922   6.106   3.000
    3OL     C1312014   2.003   5.913   3.082
    3OL     H3R12015   2.082   5.959   3.141
    3OL     H3S12016   2.029   5.816   3.038
    3OL     C1412017   1.880   5.879   3.168
    3OL     H4R12018   1.795   5.836   3.115
    3OL     H4S12019   1.842   5.973   3.208
    3OL     C1512020   1.921   5.784   3.281
    3OL     H5R12021   1.998   5.819   3.349
    3OL     H5S12022   1.957   5.687   3.245
    3OL     C1612023   1.802   5.738   3.367
    3OL     H6R12024   1.816   5.634   3.396
    3OL     H6S12025   1.718   5.736   3.297
    3OL     C1712026   1.780   5.823   3.493
    3OL     H7R12027   1.769   5.927   3.462
    3OL     H7S12028   1.880   5.824   3.537
    3OL     C1812029   1.662   5.768   3.575
    3OL     H8R12030   1.576   5.772   3.509
    3OL     H8S12031   1.638   5.840   3.653
    3OL     C1912032   1.686   5.629   3.628
    3OL     H9R12033   1.705   5.550   3.556
    3OL    C11012034   1.705   5.606   3.757
    3OL    H10R12035   1.741   5.510   3.793
    3OL    C11112036   1.655   5.692   3.870
    3OL    H11R12037   1.624   5.790   3.832
    3OL    H11S12038   1.738   5.719   3.935
    3OL    C11212039   1.537   5.643   3.955
    3OL    H12R12040   1.551   5.545   4.001
    3OL    H12S12041   1.442   5.633   3.902
    3OL    C11312042   1.504   5.750   4.060
    3OL    H13R12043   1.486   5.848   4.014
    3OL    H13S12044   1.600   5.764   4.109
    3OL    C11412045   1.393   5.701   4.154
    3OL    H14R12046   1.419   5.622   4.224
    3OL    H14S12047   1.307   5.677   4.091
    3OL    C11512048   1.347   5.823   4.235
    3OL    H15R12049   1.306   5.904   4.174
    3OL    H15S12050   1.434   5.863   4.287
    3OL    C11612051   1.248   5.782   4.345
    3OL    H16R12052   1.256   5.846   4.434
    3OL    H16S12053   1.285   5.688   4.384
    3OL    C11712054   1.100   5.779   4.304
    3OL    H17R12055   1.092   5.693   4.236
    3OL    H17S12056   1.069   5.870   4.252
    3OL    C11812057   1.004   5.759   4.422
    3OL    H18R12058   1.001   5.660   4.467
    3OL    H18S12059   0.904   5.783   4.387
    3OL    H18T12060   1.025   5.822   4.509
    1PA    C11612061   4.089   5.185   4.210
    1PA    H16R12062   4.140   5.280   4.227
    1PA    H16S12063   4.149   5.094   4.218
    1PA    H16T12064   4.001   5.193   4.275
    1PA    C11512065   4.046   5.179   4.063
    1PA    H15R12066   4.021   5.278   4.026
    1PA    H15S12067   4.127   5.145   3.999
    1PA    C11412068   3.924   5.088   4.038
    1PA    H14R12069   3.961   4.993   4.079
    1PA    H14S12070   3.839   5.126   4.095
    1PA    C11312071   3.888   5.085   3.889
    1PA    H13R12072   3.850   5.184   3.865
    1PA    H13S12073   3.979   5.056   3.835
    1PA    C11212074   3.781   4.977   3.870
    1PA    H12R12075   3.836   4.884   3.889
    1PA    H12S12076   3.700   4.979   3.943
    1PA    C11112077   3.724   4.966   3.728
    1PA    H11R12078   3.655   4.881   3.717
    1PA    H11S12079   3.652   5.044   3.703
    1PA    C11012080   3.828   4.976   3.615
    1PA    H10R12081   3.868   5.078   3.611
    1PA    H10S12082   3.909   4.905   3.633
    1PA     C1912083   3.767   4.948   3.477
    1PA     H9R12084   3.728   4.846   3.471
    1PA     H9S12085   3.688   5.024   3.466
    1PA     C1812086   3.886   4.950   3.381
    1PA     H8R12087   3.936   5.047   3.379
    1PA     H8S12088   3.955   4.871   3.412
    1PA     C1712089   3.845   4.928   3.234
    1PA     H7R12090   3.796   4.833   3.211
    1PA     H7S12091   3.770   4.999   3.197
    1PA     C1612092   3.969   4.940   3.145
    1PA     H6R12093   4.017   5.037   3.154
    1PA     H6S12094   4.043   4.861   3.160
    1PA     C1512095   3.931   4.923   2.997
    1PA     H5R12096   3.904   4.818   2.986
    1PA     H5S12097   3.850   4.993   2.976
    1PA     C1412098   4.051   4.948   2.903
    1PA     H4R12099   4.097   5.047   2.906
    1PA     H4S12100   4.138   4.884   2.917
    1PA     C1312101   4.003   4.939   2.758
    1PA     H3R12102   3.971   4.838   2.731
    1PA     H3S12103   3.920   5.008   2.742
    1PA     C1212104   4.119   4.979   2.666
    1PA     H2R12105   4.148   5.084   2.678
    1PA     H2S12106   4.195   4.908   2.698
    2PC     C1112107   4.093   4.959   2.519
    2PC     O1212108   4.109   4.855   2.458
    2PC     O1112109   4.068   5.073   2.454
    2PC      C112110   4.033   5.084   2.315
    2PC      HR12111   4.045   5.188   2.284
    2PC      HS12112   4.103   5.024   2.256
    2PC      C212113   3.889   5.039   2.286
    2PC      HX12114   3.871   4.940   2.330
    2PC      C312115   3.882   5.025   2.133
    2PC      HA12116   3.884   5.127   2.093
    2PC      HB12117   3.958   4.956   2.095
    2PC     O3112118   3.758   4.963   2.096
    2PC     P3112119   3.707   4.955   1.944
    2PC     O3212120   3.815   4.850   1.890
    2PC     C3112121   3.831   4.827   1.749
    2PC     H1A12122   3.742   4.786   1.699
    2PC     H1B12123   3.871   4.922   1.713
    2PC     C3212124   3.952   4.735   1.733
    2PC     H2A12125   3.997   4.742   1.633
    2PC     H2B12126   4.031   4.780   1.794
    2PC     N3112127   3.927   4.598   1.787
    2PC     C3312128   3.937   4.609   1.936
    2PC     H3A12129   4.032   4.654   1.964
    2PC     H3B12130   3.848   4.663   1.967
    2PC     H3C12131   3.943   4.505   1.970
    2PC     C3412132   3.797   4.540   1.738
    2PC     H4A12133   3.788   4.557   1.631
    2PC     H4B12134   3.782   4.438   1.772
    2PC     H4C12135   3.726   4.606   1.787
    2PC     C3512136   4.035   4.505   1.740
    2PC     H5A12137   4.122   4.519   1.804
    2PC     H5B12138   4.069   4.538   1.642
    2PC     H5C12139   3.999   4.402   1.740
    2PC     O3312140   3.572   4.894   1.934
    2PC     O3412141   3.696   5.096   1.900
    2PC     O2112142   3.801   5.143   2.332
    2PC     C2112143   3.761   5.138   2.460
    2PC     O2212144   3.787   5.053   2.543
    3OL     C1212145   3.677   5.258   2.497
    3OL     H2R12146   3.582   5.240   2.447
    3OL     H2S12147   3.714   5.355   2.463
    3OL     C1312148   3.634   5.262   2.645
    3OL     H3R12149   3.603   5.166   2.687
    3OL     H3S12150   3.553   5.333   2.657
    3OL     C1412151   3.753   5.299   2.735
    3OL     H4R12152   3.823   5.362   2.681
    3OL     H4S12153   3.807   5.215   2.780
    3OL     C1512154   3.699   5.368   2.861
    3OL     H5R12155   3.637   5.454   2.834
    3OL     H5S12156   3.788   5.412   2.908
    3OL     C1612157   3.635   5.282   2.971
    3OL     H6R12158   3.712   5.207   2.994
    3OL     H6S12159   3.552   5.225   2.929
    3OL     C1712160   3.597   5.355   3.100
    3OL     H7R12161   3.689   5.404   3.135
    3OL     H7S12162   3.569   5.284   3.178
    3OL     C1812163   3.482   5.455   3.084
    3OL     H8R12164   3.394   5.407   3.041
    3OL     H8S12165   3.518   5.538   3.023
    3OL     C1912166   3.436   5.508   3.218
    3OL     H9R12167   3.510   5.573   3.265
    3OL    C11012168   3.323   5.481   3.281
    3OL    H10R12169   3.299   5.531   3.375
    3OL    C11112170   3.227   5.369   3.252
    3OL    H11R12171   3.212   5.308   3.342
    3OL    H11S12172   3.263   5.312   3.167
    3OL    C11212173   3.091   5.423   3.207
    3OL    H12R12174   3.111   5.480   3.115
    3OL    H12S12175   3.045   5.484   3.285
    3OL    C11312176   2.998   5.310   3.160
    3OL    H13R12177   3.052   5.254   3.083
    3OL    H13S12178   2.911   5.356   3.115
    3OL    C11412179   2.964   5.201   3.263
    3OL    H14R12180   3.060   5.152   3.279
    3OL    H14S12181   2.903   5.124   3.214
    3OL    C11512182   2.885   5.250   3.385
    3OL    H15R12183   2.803   5.310   3.345
    3OL    H15S12184   2.947   5.326   3.433
    3OL    C11612185   2.844   5.139   3.483
    3OL    H16R12186   2.788   5.064   3.427
    3OL    H16S12187   2.774   5.187   3.552
    3OL    C11712188   2.956   5.063   3.556
    3OL    H17R12189   2.999   5.140   3.621
    3OL    H17S12190   3.029   5.014   3.493
    3OL    C11812191   2.887   4.952   3.636
    3OL    H18R12192   2.836   4.883   3.569
    3OL    H18S12193   2.830   5.001   3.715
    3OL    H18T12194   2.967   4.903   3.693
    1PA    C11612195   4.322   3.026   3.378
    1PA    H16R12196   4.398   3.104   3.366
    1PA    H16S12197   4.262   3.049   3.466
    1PA    H16T12198   4.259   3.029   3.290
    1PA    C11512199   4.401   2.894   3.376
    1PA    H15R12200   4.465   2.904   3.464
    1PA    H15S12201   4.325   2.818   3.387
    1PA    C11412202   4.488   2.884   3.249
    1PA    H14R12203   4.433   2.870   3.156
    1PA    H14S12204   4.549   2.974   3.243
    1PA    C11312205   4.581   2.763   3.262
    1PA    H13R12206   4.657   2.768   3.184
    1PA    H13S12207   4.630   2.767   3.359
    1PA    C11212208   4.502   2.632   3.249
    1PA    H12R12209   4.440   2.630   3.339
    1PA    H12S12210   4.458   2.623   3.150
    1PA    C11112211   4.586   2.506   3.276
    1PA    H11R12212   4.663   2.514   3.353
    1PA    H11S12213   4.512   2.429   3.299
    1PA    C11012214   4.662   2.457   3.151
    1PA    H10R12215   4.602   2.456   3.061
    1PA    H10S12216   4.747   2.522   3.130
    1PA     C1912217   4.725   2.321   3.182
    1PA     H9R12218   4.791   2.331   3.268
    1PA     H9S12219   4.648   2.250   3.214
    1PA     C1812220   4.789   2.268   3.053
    1PA     H8R12221   4.791   2.158   3.050
    1PA     H8S12222   4.723   2.282   2.967
    1PA     C1712223   4.930   2.325   3.034
    1PA     H7R12224   4.917   2.434   3.027
    1PA     H7S12225   4.986   2.304   3.125
    1PA     C1612226   5.002   2.273   2.909
    1PA     H6R12227   4.938   2.288   2.821
    1PA     H6S12228   5.085   2.340   2.888
    1PA     C1512229   5.040   2.125   2.919
    1PA     H5R12230   5.113   2.109   2.998
    1PA     H5S12231   4.953   2.059   2.932
    1PA     C1412232   5.113   2.081   2.791
    1PA     H4R12233   5.127   1.973   2.801
    1PA     H4S12234   5.038   2.087   2.712
    1PA     C1312235   5.250   2.148   2.777
    1PA     H3R12236   5.244   2.257   2.778
    1PA     H3S12237   5.316   2.123   2.860
    1PA     C1212238   5.318   2.098   2.649
    1PA     H2R12239   5.408   2.160   2.647
    1PA     H2S12240   5.331   1.990   2.655
    2PC     C1112241   5.246   2.132   2.521
    2PC     O1212242   5.167   2.057   2.466
    2PC     O1112243   5.256   2.261   2.483
    2PC      C112244   5.175   2.304   2.372
    2PC      HR12245   5.210   2.405   2.348
    2PC      HS12246   5.185   2.238   2.285
    2PC      C212247   5.028   2.318   2.413
    2PC      HX12248   4.997   2.223   2.457
    2PC      C312249   4.944   2.341   2.287
    2PC      HA12250   4.895   2.246   2.266
    2PC      HB12251   4.862   2.410   2.308
    2PC     O3112252   5.024   2.404   2.185
    2PC     P3112253   4.956   2.399   2.040
    2PC     O3212254   5.014   2.261   1.982
    2PC     C3112255   4.945   2.210   1.867
    2PC     H1A12256   4.919   2.299   1.808
    2PC     H1B12257   5.015   2.147   1.811
    2PC     C3212258   4.829   2.119   1.910
    2PC     H2A12259   4.859   2.058   1.995
    2PC     H2B12260   4.759   2.196   1.943
    2PC     N3112261   4.766   2.036   1.801
    2PC     C3312262   4.719   2.122   1.688
    2PC     H3A12263   4.809   2.158   1.639
    2PC     H3B12264   4.658   2.066   1.617
    2PC     H3C12265   4.653   2.198   1.731
    2PC     C3412266   4.868   1.940   1.747
    2PC     H4A12267   4.894   1.861   1.818
    2PC     H4B12268   4.818   1.907   1.656
    2PC     H4C12269   4.959   1.997   1.729
    2PC     C3512270   4.652   1.958   1.857
    2PC     H5A12271   4.580   2.031   1.894
    2PC     H5B12272   4.703   1.904   1.937
    2PC     H5C12273   4.605   1.890   1.786
    2PC     O3312274   4.808   2.398   2.036
    2PC     O3412275   4.985   2.523   1.963
    2PC     O2112276   5.019   2.428   2.506
    2PC     C2112277   4.899   2.443   2.565
    2PC     O2212278   4.810   2.361   2.565
    3OL     C1212279   4.893   2.581   2.627
    3OL     H2R12280   4.901   2.647   2.540
    3OL     H2S12281   4.988   2.586   2.681
    3OL     C1312282   4.762   2.601   2.705
    3OL     H3R12283   4.741   2.508   2.758
    3OL     H3S12284   4.676   2.619   2.639
    3OL     C1412285   4.785   2.720   2.799
    3OL     H4R12286   4.873   2.777   2.767
    3OL     H4S12287   4.823   2.676   2.891
    3OL     C1512288   4.666   2.813   2.827
    3OL     H5R12289   4.604   2.759   2.899
    3OL     H5S12290   4.608   2.835   2.737
    3OL     C1612291   4.722   2.944   2.886
    3OL     H6R12292   4.790   2.991   2.814
    3OL     H6S12293   4.784   2.934   2.975
    3OL     C1712294   4.606   3.043   2.902
    3OL     H7R12295   4.525   2.988   2.950
    3OL     H7S12296   4.569   3.069   2.802
    3OL     C1812297   4.645   3.170   2.979
    3OL     H8R12298   4.720   3.221   2.918
    3OL     H8S12299   4.682   3.141   3.078
    3OL     C1912300   4.529   3.264   2.995
    3OL     H9R12301   4.446   3.245   2.927
    3OL    C11012302   4.516   3.363   3.083
    3OL    H10R12303   4.434   3.433   3.087
    3OL    C11112304   4.628   3.401   3.177
    3OL    H11R12305   4.698   3.463   3.121
    3OL    H11S12306   4.680   3.312   3.216
    3OL    C11212307   4.574   3.477   3.299
    3OL    H12R12308   4.468   3.454   3.301
    3OL    H12S12309   4.592   3.584   3.284
    3OL    C11312310   4.621   3.408   3.427
    3OL    H13R12311   4.590   3.303   3.433
    3OL    H13S12312   4.569   3.467   3.502
    3OL    C11412313   4.773   3.413   3.454
    3OL    H14R12314   4.805   3.516   3.465
    3OL    H14S12315   4.833   3.369   3.374
    3OL    C11512316   4.800   3.337   3.585
    3OL    H15R12317   4.782   3.231   3.566
    3OL    H15S12318   4.732   3.376   3.660
    3OL    C11612319   4.941   3.358   3.641
    3OL    H16R12320   4.959   3.465   3.642
    3OL    H16S12321   5.011   3.314   3.570
    3OL    C11712322   4.975   3.293   3.776
    3OL    H17R12323   4.888   3.312   3.839
    3OL    H17S12324   5.073   3.322   3.815
    3OL    C11812325   4.981   3.140   3.764
    3OL    H18R12326   4.897   3.090   3.717
    3OL    H18S12327   4.994   3.094   3.863
    3OL    H18T12328   5.070   3.104   3.711
    1PA    C11612329   5.798   1.825   3.795
    1PA    H16R12330   5.769   1.735   3.740
    1PA    H16S12331   5.860   1.800   3.881
    1PA    H16T12332   5.846   1.897   3.728
    1PA    C11512333   5.672   1.889   3.856
    1PA    H15R12334   5.587   1.855   3.796
    1PA    H15S12335   5.661   1.838   3.952
    1PA    C11412336   5.665   2.042   3.858
    1PA    H14R12337   5.580   2.079   3.916
    1PA    H14S12338   5.751   2.082   3.913
    1PA    C11312339   5.656   2.095   3.715
    1PA    H13R12340   5.743   2.061   3.659
    1PA    H13S12341   5.567   2.050   3.669
    1PA    C11212342   5.653   2.249   3.720
    1PA    H12R12343   5.551   2.260   3.759
    1PA    H12S12344   5.716   2.292   3.798
    1PA    C11112345   5.679   2.314   3.584
    1PA    H11R12346   5.625   2.254   3.510
    1PA    H11S12347   5.637   2.415   3.582
    1PA    C11012348   5.825   2.327   3.537
    1PA    H10R12349   5.879   2.375   3.619
    1PA    H10S12350   5.868   2.227   3.526
    1PA     C1912351   5.838   2.412   3.409
    1PA     H9R12352   5.763   2.381   3.337
    1PA     H9S12353   5.833   2.520   3.425
    1PA     C1812354   5.982   2.388   3.359
    1PA     H8R12355   6.055   2.411   3.437
    1PA     H8S12356   5.995   2.283   3.334
    1PA     C1712357   6.014   2.476   3.238
    1PA     H7R12358   5.977   2.578   3.250
    1PA     H7S12359   6.123   2.473   3.228
    1PA     C1612360   5.959   2.435   3.100
    1PA     H6R12361   5.965   2.327   3.088
    1PA     H6S12362   5.858   2.469   3.076
    1PA     C1512363   6.045   2.492   2.987
    1PA     H5R12364   6.077   2.595   3.007
    1PA     H5S12365   6.136   2.432   2.979
    1PA     C1412366   5.976   2.503   2.851
    1PA     H4R12367   5.874   2.533   2.872
    1PA     H4S12368   6.023   2.582   2.791
    1PA     C1312369   5.977   2.365   2.783
    1PA     H3R12370   6.069   2.306   2.778
    1PA     H3S12371   5.900   2.297   2.820
    1PA     C1212372   5.951   2.377   2.632
    1PA     H2R12373   5.854   2.427   2.624
    1PA     H2S12374   6.016   2.441   2.573
    2PC     C1112375   5.950   2.238   2.574
    2PC     O1212376   6.049   2.194   2.519
    2PC     O1112377   5.833   2.173   2.575
    2PC      C112378   5.822   2.056   2.492
    2PC      HR12379   5.869   2.078   2.395
    2PC      HS12380   5.869   1.966   2.533
    2PC      C212381   5.673   2.024   2.474
    2PC      HX12382   5.665   1.938   2.407
    2PC      C312383   5.604   2.150   2.420
    2PC      HA12384   5.569   2.215   2.501
    2PC      HB12385   5.669   2.206   2.353
    2PC     O3112386   5.489   2.105   2.346
    2PC     P3112387   5.510   2.037   2.202
    2PC     O3212388   5.408   2.125   2.117
    2PC     C3112389   5.436   2.264   2.090
    2PC     H1A12390   5.436   2.324   2.182
    2PC     H1B12391   5.532   2.279   2.040
    2PC     C3212392   5.332   2.309   1.987
    2PC     H2A12393   5.235   2.277   2.027
    2PC     H2B12394   5.341   2.418   1.989
    2PC     N3112395   5.342   2.267   1.844
    2PC     C3312396   5.291   2.127   1.833
    2PC     H3A12397   5.189   2.111   1.867
    2PC     H3B12398   5.295   2.105   1.726
    2PC     H3C12399   5.355   2.061   1.892
    2PC     C3412400   5.247   2.351   1.764
    2PC     H4A12401   5.293   2.445   1.732
    2PC     H4B12402   5.216   2.302   1.671
    2PC     H4C12403   5.153   2.364   1.819
    2PC     C3512404   5.481   2.283   1.790
    2PC     H5A12405   5.481   2.253   1.686
    2PC     H5B12406   5.554   2.218   1.839
    2PC     H5C12407   5.497   2.390   1.806
    2PC     O3312408   5.642   2.028   2.136
    2PC     O3412409   5.457   1.899   2.213
    2PC     O2112410   5.616   1.998   2.603
    2PC     C2112411   5.657   1.895   2.679
    2PC     O2212412   5.729   1.800   2.654
    3OL     C1212413   5.590   1.914   2.813
    3OL     H2R12414   5.528   2.004   2.807
    3OL     H2S12415   5.658   1.929   2.897
    3OL     C1312416   5.498   1.796   2.847
    3OL     H3R12417   5.555   1.706   2.870
    3OL     H3S12418   5.426   1.781   2.766
    3OL     C1412419   5.405   1.819   2.966
    3OL     H4R12420   5.334   1.736   2.972
    3OL     H4S12421   5.356   1.916   2.958
    3OL     C1512422   5.476   1.808   3.102
    3OL     H5R12423   5.546   1.891   3.114
    3OL     H5S12424   5.533   1.715   3.112
    3OL     C1612425   5.373   1.812   3.216
    3OL     H6R12426   5.299   1.732   3.209
    3OL     H6S12427   5.324   1.909   3.206
    3OL     C1712428   5.432   1.828   3.357
    3OL     H7R12429   5.346   1.850   3.420
    3OL     H7S12430   5.494   1.917   3.371
    3OL     C1812431   5.505   1.705   3.411
    3OL     H8R12432   5.556   1.718   3.507
    3OL     H8S12433   5.596   1.683   3.354
    3OL     C1912434   5.417   1.583   3.404
    3OL     H9R12435   5.408   1.530   3.309
    3OL    C11012436   5.326   1.548   3.493
    3OL    H10R12437   5.261   1.463   3.480
    3OL    C11112438   5.312   1.623   3.624
    3OL    H11R12439   5.206   1.631   3.651
    3OL    H11S12440   5.332   1.728   3.606
    3OL    C11212441   5.380   1.564   3.748
    3OL    H12R12442   5.330   1.469   3.768
    3OL    H12S12443   5.370   1.634   3.832
    3OL    C11312444   5.526   1.524   3.727
    3OL    H13R12445   5.572   1.619   3.698
    3OL    H13S12446   5.543   1.452   3.646
    3OL    C11412447   5.594   1.479   3.857
    3OL    H14R12448   5.577   1.544   3.943
    3OL    H14S12449   5.702   1.483   3.845
    3OL    C11512450   5.549   1.342   3.910
    3OL    H15R12451   5.558   1.264   3.834
    3OL    H15S12452   5.443   1.330   3.935
    3OL    C11612453   5.633   1.293   4.028
    3OL    H16R12454   5.572   1.221   4.083
    3OL    H16S12455   5.654   1.375   4.097
    3OL    C11712456   5.764   1.220   3.996
    3OL    H17R12457   5.824   1.208   4.087
    3OL    H17S12458   5.829   1.282   3.933
    3OL    C11812459   5.759   1.076   3.944
    3OL    H18R12460   5.696   1.022   4.016
    3OL    H18S12461   5.855   1.025   3.939
    3OL    H18T12462   5.716   1.072   3.844
    1PA    C11612463   1.072   2.079   4.015
    1PA    H16R12464   1.082   2.047   3.911
    1PA    H16S12465   0.996   2.156   4.027
    1PA    H16T12466   1.056   1.992   4.080
    1PA    C11512467   1.205   2.142   4.058
    1PA    H15R12468   1.213   2.234   4.001
    1PA    H15S12469   1.197   2.169   4.164
    1PA    C11412470   1.335   2.059   4.055
    1PA    H14R12471   1.414   2.108   4.113
    1PA    H14S12472   1.318   1.965   4.108
    1PA    C11312473   1.378   2.034   3.910
    1PA    H13R12474   1.290   1.979   3.878
    1PA    H13S12475   1.388   2.131   3.860
    1PA    C11212476   1.516   1.967   3.905
    1PA    H12R12477   1.587   2.028   3.963
    1PA    H12S12478   1.503   1.866   3.943
    1PA    C11112479   1.555   1.952   3.758
    1PA    H11R12480   1.484   1.882   3.713
    1PA    H11S12481   1.541   2.036   3.689
    1PA    C11012482   1.699   1.897   3.752
    1PA    H10R12483   1.768   1.966   3.799
    1PA    H10S12484   1.701   1.805   3.811
    1PA     C1912485   1.739   1.874   3.606
    1PA     H9R12486   1.677   1.794   3.565
    1PA     H9S12487   1.721   1.968   3.554
    1PA     C1812488   1.886   1.833   3.588
    1PA     H8R12489   1.945   1.914   3.632
    1PA     H8S12490   1.897   1.747   3.654
    1PA     C1712491   1.928   1.794   3.446
    1PA     H7R12492   1.856   1.722   3.407
    1PA     H7S12493   1.925   1.880   3.378
    1PA     C1612494   2.070   1.735   3.440
    1PA     H6R12495   2.126   1.775   3.524
    1PA     H6S12496   2.057   1.628   3.458
    1PA     C1512497   2.139   1.765   3.306
    1PA     H5R12498   2.082   1.717   3.226
    1PA     H5S12499   2.131   1.873   3.291
    1PA     C1412500   2.287   1.725   3.304
    1PA     H4R12501   2.334   1.794   3.375
    1PA     H4S12502   2.305   1.625   3.345
    1PA     C1312503   2.344   1.733   3.162
    1PA     H3R12504   2.424   1.660   3.150
    1PA     H3S12505   2.265   1.715   3.089
    1PA     C1212506   2.388   1.879   3.148
    1PA     H2R12507   2.303   1.945   3.169
    1PA     H2S12508   2.465   1.911   3.218
    2PC     C1112509   2.441   1.904   3.008
    2PC     O1212510   2.513   1.827   2.948
    2PC     O1112511   2.397   2.023   2.964
    2PC      C112512   2.403   2.067   2.827
    2PC      HR12513   2.365   2.169   2.818
    2PC      HS12514   2.508   2.071   2.797
    2PC      C212515   2.319   1.979   2.733
    2PC      HX12516   2.351   1.875   2.732
    2PC      C312517   2.321   2.040   2.592
    2PC      HA12518   2.267   2.135   2.590
    2PC      HB12519   2.423   2.059   2.558
    2PC     O3112520   2.266   1.943   2.500
    2PC     P3112521   2.283   1.953   2.341
    2PC     O3212522   2.371   1.820   2.333
    2PC     C3112523   2.513   1.835   2.354
    2PC     H1A12524   2.558   1.924   2.310
    2PC     H1B12525   2.530   1.837   2.462
    2PC     C3212526   2.570   1.703   2.300
    2PC     H2A12527   2.552   1.618   2.365
    2PC     H2B12528   2.521   1.675   2.206
    2PC     N3112529   2.716   1.698   2.269
    2PC     C3312530   2.752   1.795   2.160
    2PC     H3A12531   2.753   1.892   2.210
    2PC     H3B12532   2.851   1.767   2.123
    2PC     H3C12533   2.676   1.783   2.082
    2PC     C3412534   2.799   1.721   2.391
    2PC     H4A12535   2.795   1.821   2.434
    2PC     H4B12536   2.772   1.652   2.471
    2PC     H4C12537   2.903   1.696   2.366
    2PC     C3512538   2.749   1.562   2.212
    2PC     H5A12539   2.705   1.566   2.112
    2PC     H5B12540   2.707   1.481   2.272
    2PC     H5C12541   2.855   1.541   2.203
    2PC     O3312542   2.159   1.929   2.263
    2PC     O3412543   2.337   2.086   2.304
    2PC     O2112544   2.186   1.986   2.786
    2PC     C2112545   2.135   1.872   2.837
    2PC     O2212546   2.198   1.769   2.845
    3OL     C1212547   1.994   1.886   2.887
    3OL     H2R12548   1.939   1.792   2.896
    3OL     H2S12549   1.936   1.942   2.813
    3OL     C1312550   1.988   1.958   3.022
    3OL     H3R12551   2.072   2.027   3.018
    3OL     H3S12552   1.999   1.889   3.106
    3OL     C1412553   1.862   2.045   3.033
    3OL     H4R12554   1.780   1.979   3.005
    3OL     H4S12555   1.869   2.113   2.948
    3OL     C1512556   1.830   2.102   3.172
    3OL     H5R12557   1.925   2.137   3.214
    3OL     H5S12558   1.784   2.023   3.232
    3OL     C1612559   1.736   2.223   3.168
    3OL     H6R12560   1.785   2.297   3.104
    3OL     H6S12561   1.735   2.276   3.264
    3OL     C1712562   1.598   2.181   3.115
    3OL     H7R12563   1.549   2.113   3.185
    3OL     H7S12564   1.598   2.136   3.016
    3OL     C1812565   1.514   2.309   3.115
    3OL     H8R12566   1.574   2.394   3.083
    3OL     H8S12567   1.486   2.333   3.218
    3OL     C1912568   1.386   2.309   3.035
    3OL     H9R12569   1.325   2.223   3.060
    3OL    C11012570   1.344   2.396   2.945
    3OL    H10R12571   1.251   2.368   2.896
    3OL    C11112572   1.402   2.526   2.893
    3OL    H11R12573   1.462   2.582   2.964
    3OL    H11S12574   1.319   2.595   2.878
    3OL    C11212575   1.480   2.517   2.762
    3OL    H12R12576   1.520   2.612   2.723
    3OL    H12S12577   1.410   2.475   2.689
    3OL    C11312578   1.606   2.430   2.767
    3OL    H13R12579   1.624   2.386   2.669
    3OL    H13S12580   1.588   2.340   2.827
    3OL    C11412581   1.726   2.509   2.821
    3OL    H14R12582   1.700   2.544   2.921
    3OL    H14S12583   1.739   2.597   2.759
    3OL    C11512584   1.856   2.427   2.831
    3OL    H15R12585   1.893   2.391   2.734
    3OL    H15S12586   1.841   2.337   2.890
    3OL    C11612587   1.969   2.503   2.901
    3OL    H16R12588   1.940   2.508   3.006
    3OL    H16S12589   1.973   2.608   2.869
    3OL    C11712590   2.100   2.423   2.892
    3OL    H17R12591   2.117   2.388   2.790
    3OL    H17S12592   2.081   2.329   2.945
    3OL    C11812593   2.222   2.485   2.961
    3OL    H18R12594   2.187   2.522   3.058
    3OL    H18S12595   2.254   2.569   2.899
    3OL    H18T12596   2.297   2.408   2.978
    1PA    C11612597   1.203   0.957   3.832
    1PA    H16R12598   1.143   1.046   3.848
    1PA    H16S12599   1.302   0.986   3.796
    1PA    H16T12600   1.218   0.897   3.922
    1PA    C11512601   1.129   0.862   3.737
    1PA    H15R12602   1.172   0.762   3.739
    1PA    H15S12603   1.024   0.862   3.768
    1PA    C11412604   1.152   0.910   3.593
    1PA    H14R12605   1.258   0.925   3.575
    1PA    H14S12606   1.121   0.835   3.520
    1PA    C11312607   1.069   1.037   3.569
    1PA    H13R12608   0.963   1.010   3.573
    1PA    H13S12609   1.089   1.116   3.641
    1PA    C11212610   1.104   1.092   3.430
    1PA    H12R12611   1.213   1.096   3.430
    1PA    H12S12612   1.069   1.021   3.355
    1PA    C11112613   1.033   1.227   3.408
    1PA    H11R12614   0.927   1.208   3.423
    1PA    H11S12615   1.059   1.300   3.484
    1PA    C11012616   1.056   1.284   3.267
    1PA    H10R12617   1.165   1.287   3.256
    1PA    H10S12618   1.021   1.208   3.197
    1PA     C1912619   1.001   1.426   3.244
    1PA     H9R12620   0.893   1.425   3.258
    1PA     H9S12621   1.036   1.478   3.334
    1PA     C1812622   1.049   1.489   3.113
    1PA     H8R12623   1.030   1.595   3.132
    1PA     H8S12624   1.158   1.486   3.114
    1PA     C1712625   0.979   1.428   2.991
    1PA     H7R12626   1.017   1.326   2.988
    1PA     H7S12627   0.870   1.422   3.003
    1PA     C1612628   1.021   1.495   2.860
    1PA     H6R12629   0.998   1.601   2.863
    1PA     H6S12630   1.130   1.489   2.853
    1PA     C1512631   0.946   1.432   2.741
    1PA     H5R12632   0.956   1.323   2.742
    1PA     H5S12633   0.844   1.470   2.739
    1PA     C1412634   1.004   1.483   2.609
    1PA     H4R12635   1.008   1.592   2.605
    1PA     H4S12636   1.110   1.455   2.603
    1PA     C1312637   0.919   1.417   2.499
    1PA     H3R12638   0.929   1.308   2.504
    1PA     H3S12639   0.812   1.435   2.504
    1PA     C1212640   0.968   1.464   2.362
    1PA     H2R12641   0.957   1.572   2.344
    1PA     H2S12642   1.075   1.443   2.356
    2PC     C1112643   0.885   1.400   2.253
    2PC     O1212644   0.900   1.287   2.212
    2PC     O1112645   0.798   1.491   2.206
    2PC      C112646   0.733   1.464   2.080
    2PC      HR12647   0.792   1.396   2.018
    2PC      HS12648   0.642   1.407   2.100
    2PC      C212649   0.695   1.597   2.015
    2PC      HX12650   0.653   1.583   1.916
    2PC      C312651   0.817   1.689   2.005
    2PC      HA12652   0.786   1.779   1.950
    2PC      HB12653   0.846   1.715   2.107
    2PC     O3112654   0.928   1.623   1.941
    2PC     P3112655   0.943   1.625   1.782
    2PC     O3212656   1.038   1.753   1.764
    2PC     C3112657   1.172   1.737   1.713
    2PC     H1A12658   1.230   1.674   1.781
    2PC     H1B12659   1.169   1.682   1.619
    2PC     C3212660   1.231   1.877   1.693
    2PC     H2A12661   1.201   1.951   1.767
    2PC     H2B12662   1.339   1.869   1.686
    2PC     N3112663   1.197   1.939   1.560
    2PC     C3312664   1.256   1.858   1.449
    2PC     H3A12665   1.195   1.770   1.428
    2PC     H3B12666   1.272   1.916   1.358
    2PC     H3C12667   1.359   1.833   1.476
    2PC     C3412668   1.051   1.969   1.545
    2PC     H4A12669   1.004   2.038   1.615
    2PC     H4B12670   1.039   2.018   1.449
    2PC     H4C12671   0.997   1.874   1.546
    2PC     C3512672   1.261   2.074   1.556
    2PC     H5A12673   1.260   2.128   1.651
    2PC     H5B12674   1.224   2.129   1.469
    2PC     H5C12675   1.362   2.038   1.542
    2PC     O3312676   0.995   1.508   1.708
    2PC     O3412677   0.815   1.651   1.712
    2PC     O2112678   0.597   1.666   2.096
    2PC     C2112679   0.467   1.633   2.100
    2PC     O2212680   0.414   1.554   2.024
    3OL     C1212681   0.398   1.720   2.202
    3OL     H2R12682   0.306   1.754   2.154
    3OL     H2S12683   0.467   1.802   2.223
    3OL     C1312684   0.360   1.642   2.329
    3OL     H3R12685   0.460   1.635   2.373
    3OL     H3S12686   0.331   1.542   2.296
    3OL     C1412687   0.275   1.713   2.435
    3OL     H4R12688   0.177   1.738   2.395
    3OL     H4S12689   0.333   1.800   2.466
    3OL     C1512690   0.256   1.614   2.551
    3OL     H5R12691   0.319   1.527   2.527
    3OL     H5S12692   0.151   1.584   2.545
    3OL     C1612693   0.295   1.678   2.685
    3OL     H6R12694   0.394   1.724   2.680
    3OL     H6S12695   0.296   1.591   2.751
    3OL     C1712696   0.197   1.783   2.738
    3OL     H7R12697   0.094   1.745   2.741
    3OL     H7S12698   0.196   1.868   2.671
    3OL     C1812699   0.236   1.835   2.877
    3OL     H8R12700   0.179   1.926   2.895
    3OL     H8S12701   0.343   1.858   2.875
    3OL     C1912702   0.205   1.731   2.982
    3OL     H9R12703   0.157   1.642   2.942
    3OL    C11012704   0.240   1.736   3.110
    3OL    H10R12705   0.217   1.645   3.163
    3OL    C11112706   0.315   1.842   3.187
    3OL    H11R12707   0.338   1.925   3.119
    3OL    H11S12708   0.419   1.813   3.202
    3OL    C11212709   0.235   1.887   3.309
    3OL    H12R12710   0.136   1.920   3.277
    3OL    H12S12711   0.289   1.970   3.356
    3OL    C11312712   0.208   1.772   3.407
    3OL    H13R12713   0.300   1.733   3.451
    3OL    H13S12714   0.157   1.687   3.359
    3OL    C11412715   0.114   1.815   3.520
    3OL    H14R12716   0.015   1.838   3.480
    3OL    H14S12717   0.154   1.906   3.565
    3OL    C11512718   0.101   1.698   3.618
    3OL    H15R12719   0.197   1.653   3.646
    3OL    H15S12720   0.042   1.616   3.575
    3OL    C11612721   0.052   1.736   3.758
    3OL    H16R12722   0.051   1.844   3.774
    3OL    H16S12723   0.123   1.692   3.828
    3OL    C11712724  -0.085   1.679   3.797
    3OL    H17R12725  -0.086   1.686   3.906
    3OL    H17S12726  -0.082   1.570   3.783
    3OL    C11812727  -0.207   1.744   3.730
    3OL    H18R12728  -0.209   1.853   3.724
    3OL    H18S12729  -0.307   1.734   3.772
    3OL    H18T12730  -0.209   1.698   3.630
    1PA    C11612731   0.289   0.012   3.568
    1PA    H16R12732   0.309   0.050   3.668
    1PA    H16S12733   0.378   0.038   3.510
    1PA    H16T12734   0.268  -0.095   3.571
    1PA    C11512735   0.172   0.108   3.541
    1PA    H15R12736   0.099   0.086   3.619
    1PA    H15S12737   0.197   0.214   3.538
    1PA    C11412738   0.095   0.074   3.412
    1PA    H14R12739   0.072  -0.032   3.407
    1PA    H14S12740  -0.002   0.125   3.414
    1PA    C11312741   0.181   0.115   3.292
    1PA    H13R12742   0.203   0.220   3.311
    1PA    H13S12743   0.274   0.063   3.271
    1PA    C11212744   0.096   0.096   3.165
    1PA    H12R12745   0.074  -0.011   3.156
    1PA    H12S12746   0.005   0.156   3.168
    1PA    C11112747   0.168   0.142   3.038
    1PA    H11R12748   0.220   0.238   3.051
    1PA    H11S12749   0.252   0.075   3.018
    1PA    C11012750   0.080   0.140   2.913
    1PA    H10R12751   0.055   0.037   2.890
    1PA    H10S12752  -0.016   0.189   2.936
    1PA     C1912753   0.140   0.211   2.791
    1PA     H9R12754   0.156   0.315   2.821
    1PA     H9S12755   0.226   0.156   2.752
    1PA     C1812756   0.033   0.206   2.681
    1PA     H8R12757   0.009   0.107   2.641
    1PA     H8S12758  -0.059   0.251   2.720
    1PA     C1712759   0.083   0.293   2.566
    1PA     H7R12760   0.109   0.394   2.599
    1PA     H7S12761   0.176   0.258   2.521
    1PA     C1612762  -0.016   0.311   2.450
    1PA     H6R12763   0.041   0.349   2.365
    1PA     H6S12764  -0.060   0.215   2.424
    1PA     C1512765  -0.125   0.414   2.484
    1PA     H5R12766  -0.214   0.395   2.424
    1PA     H5S12767  -0.162   0.398   2.586
    1PA     C1412768  -0.089   0.562   2.468
    1PA     H4R12769  -0.168   0.617   2.520
    1PA     H4S12770   0.001   0.587   2.525
    1PA     C1312771  -0.079   0.592   2.318
    1PA     H3R12772   0.011   0.541   2.282
    1PA     H3S12773  -0.169   0.562   2.264
    1PA     C1212774  -0.063   0.743   2.299
    1PA     H2R12775  -0.150   0.800   2.332
    1PA     H2S12776   0.016   0.779   2.366
    2PC     C1112777  -0.033   0.780   2.156
    2PC     O1212778  -0.061   0.713   2.059
    2PC     O1112779   0.042   0.891   2.150
    2PC      C112780   0.081   0.939   2.019
    2PC      HR12781   0.160   0.872   1.984
    2PC      HS12782  -0.002   0.926   1.948
    2PC      C212783   0.114   1.088   2.007
    2PC      HX12784   0.028   1.132   2.058
    2PC      C312785   0.120   1.133   1.860
    2PC      HA12786   0.021   1.115   1.818
    2PC      HB12787   0.152   1.237   1.850
    2PC     O3112788   0.204   1.045   1.783
    2PC     P3112789   0.215   1.069   1.624
    2PC     O3212790   0.105   0.965   1.571
    2PC     C3112791   0.071   0.840   1.633
    2PC     H1A12792   0.031   0.860   1.733
    2PC     H1B12793  -0.006   0.801   1.567
    2PC     C3212794   0.196   0.752   1.650
    2PC     H2A12795   0.247   0.749   1.554
    2PC     H2B12796   0.265   0.803   1.717
    2PC     N3112797   0.183   0.608   1.689
    2PC     C3312798   0.109   0.529   1.586
    2PC     H3A12799   0.013   0.577   1.569
    2PC     H3B12800   0.179   0.516   1.503
    2PC     H3C12801   0.082   0.434   1.631
    2PC     C3412802   0.322   0.555   1.706
    2PC     H4A12803   0.378   0.616   1.778
    2PC     H4B12804   0.314   0.452   1.741
    2PC     H4C12805   0.358   0.565   1.604
    2PC     C3512806   0.108   0.587   1.817
    2PC     H5A12807   0.004   0.620   1.811
    2PC     H5B12808   0.153   0.635   1.904
    2PC     H5C12809   0.104   0.480   1.835
    2PC     O3312810   0.174   1.204   1.580
    2PC     O3412811   0.344   1.028   1.565
    2PC     O2112812   0.236   1.122   2.074
    2PC     C2112813   0.252   1.242   2.132
    2PC     O2212814   0.179   1.339   2.135
    3OL     C1212815   0.390   1.249   2.192
    3OL     H2R12816   0.431   1.347   2.166
    3OL     H2S12817   0.453   1.175   2.143
    3OL     C1312818   0.394   1.240   2.346
    3OL     H3R12819   0.350   1.147   2.381
    3OL     H3S12820   0.330   1.318   2.388
    3OL     C1412821   0.538   1.262   2.393
    3OL     H4R12822   0.553   1.370   2.384
    3OL     H4S12823   0.608   1.215   2.323
    3OL     C1512824   0.552   1.228   2.542
    3OL     H5R12825   0.657   1.231   2.572
    3OL     H5S12826   0.509   1.128   2.557
    3OL     C1612827   0.485   1.329   2.637
    3OL     H6R12828   0.378   1.337   2.615
    3OL     H6S12829   0.523   1.430   2.622
    3OL     C1712830   0.508   1.290   2.784
    3OL     H7R12831   0.611   1.308   2.815
    3OL     H7S12832   0.480   1.185   2.791
    3OL     C1812833   0.412   1.365   2.877
    3OL     H8R12834   0.320   1.380   2.821
    3OL     H8S12835   0.449   1.465   2.903
    3OL     C1912836   0.379   1.289   3.003
    3OL     H9R12837   0.309   1.208   2.986
    3OL    C11012838   0.418   1.327   3.124
    3OL    H10R12839   0.396   1.273   3.215
    3OL    C11112840   0.494   1.455   3.151
    3OL    H11R12841   0.430   1.540   3.127
    3OL    H11S12842   0.586   1.467   3.094
    3OL    C11212843   0.523   1.465   3.301
    3OL    H12R12844   0.576   1.375   3.335
    3OL    H12S12845   0.429   1.457   3.356
    3OL    C11312846   0.605   1.592   3.328
    3OL    H13R12847   0.545   1.683   3.316
    3OL    H13S12848   0.695   1.597   3.268
    3OL    C11412849   0.645   1.609   3.476
    3OL    H14R12850   0.713   1.532   3.514
    3OL    H14S12851   0.553   1.626   3.532
    3OL    C11512852   0.707   1.748   3.497
    3OL    H15R12853   0.630   1.825   3.488
    3OL    H15S12854   0.788   1.764   3.426
    3OL    C11612855   0.755   1.740   3.643
    3OL    H16R12856   0.826   1.657   3.654
    3OL    H16S12857   0.670   1.722   3.709
    3OL    C11712858   0.832   1.868   3.676
    3OL    H17R12859   0.854   1.866   3.783
    3OL    H17S12860   0.775   1.958   3.650
    3OL    C11812861   0.973   1.864   3.615
    3OL    H18R12862   1.032   1.781   3.656
    3OL    H18S12863   1.022   1.954   3.652
    3OL    H18T12864   0.970   1.851   3.507
    1PA    C11612865   1.937   2.775   4.536
    1PA    H16R12866   2.043   2.759   4.515
    1PA    H16S12867   1.898   2.673   4.543
    1PA    H16T12868   1.922   2.836   4.626
    1PA    C11512869   1.871   2.850   4.419
    1PA    H15R12870   1.771   2.890   4.436
    1PA    H15S12871   1.930   2.942   4.423
    1PA    C11412872   1.882   2.793   4.277
    1PA    H14R12873   1.985   2.769   4.247
    1PA    H14S12874   1.821   2.703   4.271
    1PA    C11312875   1.827   2.893   4.174
    1PA    H13R12876   1.719   2.903   4.184
    1PA    H13S12877   1.869   2.989   4.206
    1PA    C11212878   1.851   2.859   4.026
    1PA    H12R12879   1.879   2.947   3.968
    1PA    H12S12880   1.936   2.792   4.023
    1PA    C11112881   1.727   2.791   3.966
    1PA    H11R12882   1.717   2.689   4.002
    1PA    H11S12883   1.634   2.844   3.986
    1PA    C11012884   1.756   2.791   3.815
    1PA    H10R12885   1.755   2.893   3.778
    1PA    H10S12886   1.845   2.730   3.796
    1PA     C1912887   1.641   2.715   3.745
    1PA     H9R12888   1.635   2.618   3.794
    1PA     H9S12889   1.551   2.775   3.757
    1PA     C1812890   1.681   2.694   3.599
    1PA     H8R12891   1.689   2.795   3.559
    1PA     H8S12892   1.772   2.636   3.584
    1PA     C1712893   1.569   2.636   3.510
    1PA     H7R12894   1.533   2.563   3.582
    1PA     H7S12895   1.494   2.714   3.496
    1PA     C1612896   1.629   2.558   3.392
    1PA     H6R12897   1.729   2.525   3.420
    1PA     H6S12898   1.574   2.466   3.373
    1PA     C1512899   1.634   2.635   3.259
    1PA     H5R12900   1.681   2.564   3.190
    1PA     H5S12901   1.531   2.651   3.228
    1PA     C1412902   1.703   2.772   3.250
    1PA     H4R12903   1.647   2.851   3.299
    1PA     H4S12904   1.799   2.773   3.302
    1PA     C1312905   1.729   2.814   3.105
    1PA     H3R12906   1.794   2.735   3.067
    1PA     H3S12907   1.630   2.820   3.058
    1PA     C1212908   1.801   2.949   3.095
    1PA     H2R12909   1.742   3.028   3.142
    1PA     H2S12910   1.893   2.949   3.154
    2PC     C1112911   1.837   2.974   2.951
    2PC     O1212912   1.900   2.901   2.877
    2PC     O1112913   1.789   3.094   2.912
    2PC      C112914   1.822   3.131   2.777
    2PC      HR12915   1.832   3.239   2.771
    2PC      HS12916   1.914   3.081   2.744
    2PC      C212917   1.711   3.094   2.677
    2PC      HX12918   1.720   2.986   2.663
    2PC      C312919   1.720   3.154   2.536
    2PC      HA12920   1.680   3.254   2.555
    2PC      HB12921   1.824   3.159   2.501
    2PC     O3112922   1.625   3.093   2.447
    2PC     P3112923   1.601   3.161   2.304
    2PC     O3212924   1.443   3.135   2.298
    2PC     C3112925   1.395   3.090   2.170
    2PC     H1A12926   1.409   3.164   2.090
    2PC     H1B12927   1.453   3.003   2.138
    2PC     C3212928   1.248   3.052   2.192
    2PC     H2A12929   1.214   2.982   2.115
    2PC     H2B12930   1.244   3.001   2.288
    2PC     N3112931   1.143   3.159   2.202
    2PC     C3312932   1.165   3.237   2.328
    2PC     H3A12933   1.071   3.285   2.359
    2PC     H3B12934   1.184   3.163   2.405
    2PC     H3C12935   1.254   3.300   2.319
    2PC     C3412936   1.149   3.239   2.076
    2PC     H4A12937   1.051   3.249   2.030
    2PC     H4B12938   1.187   3.333   2.114
    2PC     H4C12939   1.217   3.185   2.009
    2PC     C3512940   1.005   3.103   2.224
    2PC     H5A12941   0.938   3.189   2.229
    2PC     H5B12942   0.987   3.037   2.309
    2PC     H5C12943   0.974   3.056   2.131
    2PC     O3312944   1.627   3.307   2.303
    2PC     O3412945   1.688   3.088   2.209
    2PC     O2112946   1.584   3.134   2.732
    2PC     C2112947   1.515   3.043   2.802
    2PC     O2212948   1.539   2.924   2.799
    3OL     C1212949   1.415   3.113   2.890
    3OL     H2R12950   1.316   3.075   2.867
    3OL     H2S12951   1.427   3.221   2.876
    3OL     C1312952   1.451   3.079   3.035
    3OL     H3R12953   1.549   3.111   3.072
    3OL     H3S12954   1.443   2.971   3.048
    3OL     C1412955   1.348   3.132   3.135
    3OL     H4R12956   1.249   3.094   3.109
    3OL     H4S12957   1.341   3.241   3.131
    3OL     C1512958   1.371   3.093   3.282
    3OL     H5R12959   1.384   2.985   3.292
    3OL     H5S12960   1.284   3.122   3.341
    3OL     C1612961   1.494   3.160   3.342
    3OL     H6R12962   1.477   3.268   3.332
    3OL     H6S12963   1.585   3.145   3.284
    3OL     C1712964   1.519   3.098   3.481
    3OL     H7R12965   1.612   3.135   3.524
    3OL     H7S12966   1.533   2.990   3.471
    3OL     C1812967   1.415   3.128   3.590
    3OL     H8R12968   1.414   3.042   3.657
    3OL     H8S12969   1.312   3.119   3.553
    3OL     C1912970   1.433   3.264   3.651
    3OL     H9R12971   1.374   3.342   3.605
    3OL    C11012972   1.499   3.281   3.765
    3OL    H10R12973   1.501   3.382   3.804
    3OL    C11112974   1.585   3.183   3.841
    3OL    H11R12975   1.690   3.210   3.829
    3OL    H11S12976   1.581   3.078   3.809
    3OL    C11212977   1.540   3.172   3.988
    3OL    H12R12978   1.531   3.275   4.023
    3OL    H12S12979   1.605   3.114   4.055
    3OL    C11312980   1.398   3.116   3.993
    3OL    H13R12981   1.345   3.148   3.903
    3OL    H13S12982   1.346   3.146   4.085
    3OL    C11412983   1.409   2.963   4.002
    3OL    H14R12984   1.473   2.937   4.087
    3OL    H14S12985   1.472   2.929   3.920
    3OL    C11512986   1.272   2.893   3.997
    3OL    H15R12987   1.217   2.928   3.910
    3OL    H15S12988   1.214   2.920   4.086
    3OL    C11612989   1.294   2.741   3.999
    3OL    H16R12990   1.353   2.711   4.086
    3OL    H16S12991   1.347   2.712   3.907
    3OL    C11712992   1.166   2.657   4.011
    3OL    H17R12993   1.110   2.689   3.923
    3OL    H17S12994   1.111   2.677   4.104
    3OL    C11812995   1.187   2.505   4.005
    3OL    H18R12996   1.227   2.493   3.904
    3OL    H18S12997   1.094   2.451   4.023
    3OL    H18T12998   1.264   2.470   4.075
    1PA    C11612999   6.236   0.374   3.752
    1PA    H16R13000   6.322   0.306   3.755
    1PA    H16S13001   6.268   0.477   3.765
    1PA    H16T13002   6.181   0.360   3.659
    1PA    C11513003   6.150   0.326   3.870
    1PA    H15R13004   6.217   0.349   3.953
    1PA    H15S13005   6.061   0.390   3.869
    1PA    C11413006   6.106   0.180   3.860
    1PA    H14R13007   6.198   0.123   3.873
    1PA    H14S13008   6.052   0.150   3.951
    1PA    C11313009   6.025   0.143   3.735
    1PA    H13R13010   5.929   0.192   3.755
    1PA    H13S13011   6.067   0.185   3.644
    1PA    C11213012   6.020  -0.010   3.726
    1PA    H12R13013   5.980  -0.041   3.823
    1PA    H12S13014   5.945  -0.039   3.653
    1PA    C11113015   6.159  -0.068   3.694
    1PA    H11R13016   6.218  -0.067   3.786
    1PA    H11S13017   6.134  -0.172   3.677
    1PA    C11013018   6.230  -0.013   3.570
    1PA    H10R13019   6.256   0.091   3.591
    1PA    H10S13020   6.315  -0.081   3.557
    1PA     C1913021   6.140  -0.030   3.447
    1PA     H9R13022   6.111  -0.136   3.444
    1PA     H9S13023   6.047   0.027   3.451
    1PA     C1813024   6.225   0.006   3.324
    1PA     H8R13025   6.248   0.113   3.326
    1PA     H8S13026   6.322  -0.044   3.324
    1PA     C1713027   6.153  -0.042   3.197
    1PA     H7R13028   6.144  -0.150   3.208
    1PA     H7S13029   6.052  -0.003   3.203
    1PA     C1613030   6.222  -0.001   3.066
    1PA     H6R13031   6.261   0.101   3.065
    1PA     H6S13032   6.300  -0.074   3.044
    1PA     C1513033   6.125  -0.017   2.947
    1PA     H5R13034   6.095  -0.121   2.955
    1PA     H5S13035   6.031   0.034   2.968
    1PA     C1413036   6.191   0.010   2.811
    1PA     H4R13037   6.197   0.118   2.797
    1PA     H4S13038   6.293  -0.030   2.800
    1PA     C1313039   6.102  -0.051   2.702
    1PA     H3R13040   6.103  -0.160   2.712
    1PA     H3S13041   6.001  -0.010   2.709
    1PA     C1213042   6.167  -0.016   2.568
    1PA     H2R13043   6.179   0.092   2.571
    1PA     H2S13044   6.260  -0.073   2.565
    2PC     C1113045   6.088  -0.056   2.445
    2PC     O1213046   6.095   0.008   2.342
    2PC     O1113047   6.016  -0.168   2.465
    2PC      C113048   5.937  -0.223   2.358
    2PC      HR13049   5.981  -0.208   2.259
    2PC      HS13050   5.928  -0.330   2.374
    2PC      C213051   5.797  -0.158   2.358
    2PC      HX13052   5.738  -0.191   2.443
    2PC      C313053   5.721  -0.212   2.236
    2PC      HA13054   5.728  -0.318   2.213
    2PC      HB13055   5.616  -0.187   2.253
    2PC     O3113056   5.757  -0.141   2.116
    2PC     P3113057   5.710  -0.197   1.973
    2PC     O3213058   5.580  -0.106   1.949
    2PC     C3113059   5.600   0.032   1.916
    2PC     H1A13060   5.600   0.093   2.007
    2PC     H1B13061   5.696   0.049   1.865
    2PC     C3213062   5.484   0.065   1.821
    2PC     H2A13063   5.394   0.050   1.880
    2PC     H2B13064   5.499   0.165   1.780
    2PC     N3113065   5.465  -0.021   1.699
    2PC     C3313066   5.399  -0.150   1.738
    2PC     H3A13067   5.480  -0.221   1.754
    2PC     H3B13068   5.347  -0.147   1.833
    2PC     H3C13069   5.339  -0.172   1.649
    2PC     C3413070   5.363   0.058   1.623
    2PC     H4A13071   5.331   0.019   1.526
    2PC     H4B13072   5.277   0.071   1.688
    2PC     H4C13073   5.412   0.153   1.602
    2PC     C3513074   5.591  -0.055   1.626
    2PC     H5A13075   5.574  -0.131   1.549
    2PC     H5B13076   5.662  -0.097   1.697
    2PC     H5C13077   5.636   0.031   1.576
    2PC     O3313078   5.800  -0.180   1.857
    2PC     O3413079   5.677  -0.341   1.976
    2PC     O2113080   5.813  -0.015   2.360
    2PC     C2113081   5.703   0.060   2.382
    2PC     O2213082   5.603   0.015   2.433
    3OL     C1213083   5.720   0.205   2.346
    3OL     H2R13084   5.642   0.267   2.392
    3OL     H2S13085   5.724   0.208   2.237
    3OL     C1313086   5.852   0.264   2.398
    3OL     H3R13087   5.874   0.357   2.345
    3OL     H3S13088   5.933   0.195   2.375
    3OL     C1413089   5.848   0.278   2.551
    3OL     H4R13090   5.844   0.176   2.589
    3OL     H4S13091   5.763   0.343   2.574
    3OL     C1513092   5.979   0.344   2.597
    3OL     H5R13093   5.980   0.438   2.541
    3OL     H5S13094   6.074   0.297   2.572
    3OL     C1613095   5.987   0.362   2.749
    3OL     H6R13096   5.983   0.264   2.797
    3OL     H6S13097   5.902   0.422   2.783
    3OL     C1713098   6.115   0.436   2.788
    3OL     H7R13099   6.131   0.518   2.717
    3OL     H7S13100   6.193   0.360   2.784
    3OL     C1813101   6.100   0.492   2.930
    3OL     H8R13102   6.098   0.414   3.005
    3OL     H8S13103   6.007   0.549   2.937
    3OL     C1913104   6.207   0.594   2.962
    3OL     H9R13105   6.199   0.684   2.901
    3OL    C11013106   6.312   0.580   3.040
    3OL    H10R13107   6.386   0.657   3.060
    3OL    C11113108   6.347   0.454   3.116
    3OL    H11R13109   6.446   0.417   3.089
    3OL    H11S13110   6.282   0.368   3.096
    3OL    C11213111   6.358   0.488   3.265
    3OL    H12R13112   6.383   0.395   3.316
    3OL    H12S13113   6.266   0.532   3.304
    3OL    C11313114   6.483   0.575   3.288
    3OL    H13R13115   6.477   0.669   3.232
    3OL    H13S13116   6.565   0.505   3.272
    3OL    C11413117   6.491   0.618   3.435
    3OL    H14R13118   6.402   0.678   3.456
    3OL    H14S13119   6.576   0.684   3.448
    3OL    C11513120   6.517   0.504   3.535
    3OL    H15R13121   6.606   0.447   3.504
    3OL    H15S13122   6.437   0.432   3.520
    3OL    C11613123   6.541   0.544   3.681
    3OL    H16R13124   6.529   0.458   3.748
    3OL    H16S13125   6.459   0.611   3.706
    3OL    C11713126   6.678   0.609   3.706
    3OL    H17R13127   6.687   0.652   3.806
    3OL    H17S13128   6.708   0.684   3.633
    3OL    C11813129   6.787   0.501   3.695
    3OL    H18R13130   6.884   0.546   3.719
    3OL    H18S13131   6.779   0.462   3.594
    3OL    H18T13132   6.778   0.423   3.771
    1PA    C11613133   5.862   0.427   3.566
    1PA    H16R13134   5.766   0.479   3.569
    1PA    H16S13135   5.931   0.480   3.632
    1PA    H16T13136   5.841   0.325   3.600
    1PA    C11513137   5.921   0.436   3.425
    1PA    H15R13138   6.023   0.402   3.407
    1PA    H15S13139   5.853   0.387   3.355
    1PA    C11413140   5.915   0.584   3.384
    1PA    H14R13141   5.911   0.577   3.275
    1PA    H14S13142   5.824   0.637   3.414
    1PA    C11313143   6.033   0.658   3.449
    1PA    H13R13144   6.032   0.643   3.557
    1PA    H13S13145   6.111   0.593   3.409
    1PA    C11213146   6.039   0.805   3.404
    1PA    H12R13147   5.938   0.847   3.405
    1PA    H12S13148   6.102   0.864   3.471
    1PA    C11113149   6.104   0.815   3.266
    1PA    H11R13150   6.196   0.757   3.274
    1PA    H11S13151   6.033   0.783   3.190
    1PA    C11013152   6.123   0.962   3.225
    1PA    H10R13153   6.033   1.022   3.206
    1PA    H10S13154   6.168   1.008   3.314
    1PA     C1913155   6.205   0.978   3.097
    1PA     H9R13156   6.267   1.067   3.105
    1PA     H9S13157   6.272   0.893   3.083
    1PA     C1813158   6.106   0.979   2.980
    1PA     H8R13159   6.049   0.886   2.970
    1PA     H8S13160   6.033   1.061   2.988
    1PA     C1713161   6.180   1.023   2.853
    1PA     H7R13162   6.212   1.126   2.869
    1PA     H7S13163   6.268   0.959   2.850
    1PA     C1613164   6.094   1.019   2.726
    1PA     H6R13165   5.994   1.056   2.749
    1PA     H6S13166   6.135   1.081   2.645
    1PA     C1513167   6.085   0.877   2.669
    1PA     H5R13168   6.183   0.853   2.628
    1PA     H5S13169   6.052   0.800   2.739
    1PA     C1413170   5.977   0.873   2.560
    1PA     H4R13171   5.880   0.915   2.590
    1PA     H4S13172   6.007   0.923   2.468
    1PA     C1313173   5.942   0.732   2.509
    1PA     H3R13174   6.028   0.682   2.465
    1PA     H3S13175   5.904   0.661   2.584
    1PA     C1213176   5.835   0.727   2.399
    1PA     H2R13177   5.816   0.628   2.355
    1PA     H2S13178   5.741   0.752   2.449
    2PC     C1113179   5.860   0.822   2.285
    2PC     O1213180   5.782   0.910   2.254
    2PC     O1113181   5.979   0.802   2.226
    2PC      C113182   6.028   0.868   2.109
    2PC      HR13183   6.108   0.807   2.067
    2PC      HS13184   5.944   0.872   2.039
    2PC      C213185   6.077   1.011   2.139
    2PC      HX13186   6.004   1.076   2.186
    2PC      C313187   6.109   1.088   2.010
    2PC      HA13188   6.010   1.111   1.971
    2PC      HB13189   6.147   1.185   2.042
    2PC     O3113190   6.189   1.019   1.913
    2PC     P3113191   6.121   0.966   1.777
    2PC     O3213192   6.236   0.998   1.671
    2PC     C3113193   6.208   1.066   1.548
    2PC     H1A13194   6.134   1.012   1.488
    2PC     H1B13195   6.178   1.170   1.564
    2PC     C3213196   6.338   1.083   1.468
    2PC     H2A13197   6.412   1.131   1.533
    2PC     H2B13198   6.376   0.981   1.453
    2PC     N3113199   6.310   1.133   1.330
    2PC     C3313200   6.449   1.162   1.283
    2PC     H3A13201   6.498   1.230   1.353
    2PC     H3B13202   6.507   1.071   1.267
    2PC     H3C13203   6.431   1.213   1.188
    2PC     C3413204   6.246   1.020   1.255
    2PC     H4A13205   6.276   1.014   1.150
    2PC     H4B13206   6.269   0.922   1.297
    2PC     H4C13207   6.138   1.036   1.252
    2PC     C3513208   6.230   1.260   1.332
    2PC     H5A13209   6.224   1.285   1.226
    2PC     H5B13210   6.277   1.331   1.399
    2PC     H5C13211   6.128   1.242   1.366
    2PC     O3313212   6.105   0.819   1.774
    2PC     O3413213   5.995   1.039   1.752
    2PC     O2113214   6.196   1.013   2.220
    2PC     C2113215   6.232   1.123   2.289
    2PC     O2213216   6.151   1.207   2.323
    3OL     C1213217   6.375   1.127   2.336
    3OL     H2R13218   6.419   1.219   2.298
    3OL     H2S13219   6.437   1.048   2.292
    3OL     C1313220   6.378   1.121   2.489
    3OL     H3R13221   6.335   1.026   2.519
    3OL     H3S13222   6.312   1.199   2.529
    3OL     C1413223   6.525   1.140   2.530
    3OL     H4R13224   6.563   1.237   2.496
    3OL     H4S13225   6.594   1.068   2.486
    3OL     C1513226   6.534   1.133   2.683
    3OL     H5R13227   6.639   1.129   2.713
    3OL     H5S13228   6.495   1.040   2.724
    3OL     C1613229   6.473   1.261   2.744
    3OL     H6R13230   6.365   1.262   2.727
    3OL     H6S13231   6.531   1.350   2.720
    3OL     C1713232   6.477   1.243   2.896
    3OL     H7R13233   6.572   1.200   2.928
    3OL     H7S13234   6.401   1.177   2.936
    3OL     C1813235   6.474   1.379   2.968
    3OL     H8R13236   6.384   1.436   2.943
    3OL     H8S13237   6.549   1.449   2.933
    3OL     C1913238   6.480   1.350   3.116
    3OL     H9R13239   6.582   1.345   3.152
    3OL    C11013240   6.380   1.340   3.203
    3OL    H10R13241   6.410   1.294   3.297
    3OL    C11113242   6.232   1.350   3.177
    3OL    H11R13243   6.180   1.261   3.212
    3OL    H11S13244   6.206   1.371   3.073
    3OL    C11213245   6.182   1.468   3.261
    3OL    H12R13246   6.204   1.444   3.365
    3OL    H12S13247   6.073   1.472   3.250
    3OL    C11313248   6.254   1.600   3.230
    3OL    H13R13249   6.255   1.609   3.121
    3OL    H13S13250   6.358   1.591   3.261
    3OL    C11413251   6.195   1.727   3.292
    3OL    H14R13252   6.269   1.808   3.286
    3OL    H14S13253   6.176   1.712   3.399
    3OL    C11513254   6.071   1.767   3.212
    3OL    H15R13255   6.003   1.682   3.220
    3OL    H15S13256   6.109   1.789   3.112
    3OL    C11613257   6.005   1.886   3.284
    3OL    H16R13258   6.073   1.970   3.283
    3OL    H16S13259   5.981   1.855   3.386
    3OL    C11713260   5.874   1.928   3.214
    3OL    H17R13261   5.795   1.964   3.280
    3OL    H17S13262   5.822   1.845   3.168
    3OL    C11813263   5.894   2.030   3.101
    3OL    H18R13264   5.981   2.007   3.038
    3OL    H18S13265   5.926   2.131   3.129
    3OL    H18T13266   5.806   2.042   3.037
    1PA    C11613267   6.089   3.533   4.405
    1PA    H16R13268   6.158   3.618   4.409
    1PA    H16S13269   6.117   3.452   4.337
    1PA    H16T13270   6.095   3.495   4.507
    1PA    C11513271   5.952   3.590   4.366
    1PA    H15R13272   5.880   3.512   4.393
    1PA    H15S13273   5.924   3.676   4.427
    1PA    C11413274   5.956   3.618   4.215
    1PA    H14R13275   6.006   3.539   4.159
    1PA    H14S13276   5.853   3.628   4.180
    1PA    C11313277   6.027   3.749   4.181
    1PA    H13R13278   5.992   3.835   4.239
    1PA    H13S13279   6.134   3.733   4.197
    1PA    C11213280   5.998   3.751   4.030
    1PA    H12R13281   6.027   3.660   3.978
    1PA    H12S13282   5.890   3.756   4.014
    1PA    C11113283   6.059   3.872   3.958
    1PA    H11R13284   6.061   3.970   4.006
    1PA    H11S13285   6.166   3.853   3.956
    1PA    C11013286   6.005   3.885   3.815
    1PA    H10R13287   5.896   3.876   3.803
    1PA    H10S13288   6.033   3.988   3.791
    1PA     C1913289   6.065   3.782   3.720
    1PA     H9R13290   6.112   3.840   3.640
    1PA     H9S13291   6.144   3.718   3.760
    1PA     C1813292   5.964   3.691   3.649
    1PA     H8R13293   6.010   3.615   3.585
    1PA     H8S13294   5.911   3.635   3.727
    1PA     C1713295   5.876   3.773   3.554
    1PA     H7R13296   5.822   3.849   3.612
    1PA     H7S13297   5.935   3.822   3.477
    1PA     C1613298   5.777   3.679   3.484
    1PA     H6R13299   5.832   3.600   3.432
    1PA     H6S13300   5.714   3.625   3.555
    1PA     C1513301   5.690   3.764   3.390
    1PA     H5R13302   5.656   3.845   3.454
    1PA     H5S13303   5.747   3.799   3.304
    1PA     C1413304   5.581   3.681   3.320
    1PA     H4R13305   5.616   3.596   3.261
    1PA     H4S13306   5.525   3.631   3.399
    1PA     C1313307   5.491   3.775   3.239
    1PA     H3R13308   5.387   3.740   3.235
    1PA     H3S13309   5.485   3.865   3.299
    1PA     C1213310   5.550   3.807   3.101
    1PA     H2R13311   5.652   3.845   3.098
    1PA     H2S13312   5.562   3.717   3.041
    2PC     C1113313   5.462   3.900   3.020
    2PC     O1213314   5.506   3.960   2.924
    2PC     O1113315   5.337   3.908   3.069
    2PC      C113316   5.236   3.986   3.002
    2PC      HR13317   5.157   3.986   3.077
    2PC      HS13318   5.278   4.086   2.989
    2PC      C213319   5.181   3.909   2.881
    2PC      HX13320   5.262   3.889   2.810
    2PC      C313321   5.077   3.977   2.792
    2PC      HA13322   4.981   3.975   2.844
    2PC      HB13323   5.105   4.079   2.765
    2PC     O3113324   5.077   3.905   2.668
    2PC     P3113325   4.963   3.936   2.559
    2PC     O3213326   4.878   3.799   2.558
    2PC     C3113327   4.947   3.682   2.605
    2PC     H1A13328   5.053   3.692   2.583
    2PC     H1B13329   4.944   3.680   2.715
    2PC     C3213330   4.880   3.562   2.536
    2PC     H2A13331   4.897   3.475   2.599
    2PC     H2B13332   4.774   3.585   2.526
    2PC     N3113333   4.916   3.515   2.398
    2PC     C3313334   5.057   3.466   2.391
    2PC     H3A13335   5.075   3.409   2.299
    2PC     H3B13336   5.120   3.555   2.387
    2PC     H3C13337   5.071   3.400   2.477
    2PC     C3413338   4.829   3.393   2.382
    2PC     H4A13339   4.740   3.410   2.443
    2PC     H4B13340   4.813   3.388   2.275
    2PC     H4C13341   4.886   3.309   2.422
    2PC     C3513342   4.874   3.611   2.291
    2PC     H5A13343   4.898   3.574   2.192
    2PC     H5B13344   4.916   3.707   2.322
    2PC     H5C13345   4.768   3.638   2.290
    2PC     O3313346   4.877   4.042   2.616
    2PC     O3413347   5.012   3.983   2.427
    2PC     O2113348   5.114   3.791   2.929
    2PC     C2113349   5.189   3.681   2.948
    2PC     O2213350   5.308   3.673   2.925
    3OL     C1213351   5.108   3.558   2.982
    3OL     H2R13352   5.110   3.489   2.898
    3OL     H2S13353   5.006   3.588   3.008
    3OL     C1313354   5.177   3.486   3.100
    3OL     H3R13355   5.217   3.555   3.175
    3OL     H3S13356   5.261   3.436   3.052
    3OL     C1413357   5.086   3.386   3.172
    3OL     H4R13358   4.987   3.432   3.183
    3OL     H4S13359   5.122   3.380   3.274
    3OL     C1513360   5.087   3.253   3.096
    3OL     H5R13361   5.189   3.214   3.102
    3OL     H5S13362   5.058   3.261   2.991
    3OL     C1613363   4.993   3.145   3.151
    3OL     H6R13364   4.995   3.059   3.083
    3OL     H6S13365   4.891   3.185   3.151
    3OL     C1713366   5.021   3.097   3.294
    3OL     H7R13367   5.025   3.171   3.374
    3OL     H7S13368   5.116   3.043   3.290
    3OL     C1813369   4.912   2.997   3.334
    3OL     H8R13370   4.886   2.935   3.248
    3OL     H8S13371   4.824   3.057   3.358
    3OL     C1913372   4.962   2.910   3.447
    3OL     H9R13373   4.984   2.958   3.541
    3OL    C11013374   4.973   2.778   3.447
    3OL    H10R13375   5.020   2.720   3.526
    3OL    C11113376   4.932   2.694   3.328
    3OL    H11R13377   4.861   2.745   3.262
    3OL    H11S13378   4.870   2.612   3.368
    3OL    C11213379   5.057   2.640   3.258
    3OL    H12R13380   5.039   2.558   3.187
    3OL    H12S13381   5.128   2.596   3.329
    3OL    C11313382   5.125   2.755   3.182
    3OL    H13R13383   5.158   2.828   3.256
    3OL    H13S13384   5.057   2.810   3.117
    3OL    C11413385   5.245   2.699   3.105
    3OL    H14R13386   5.218   2.611   3.046
    3OL    H14S13387   5.316   2.658   3.177
    3OL    C11513388   5.315   2.808   3.023
    3OL    H15R13389   5.405   2.766   2.977
    3OL    H15S13390   5.346   2.891   3.087
    3OL    C11613391   5.221   2.865   2.916
    3OL    H16R13392   5.128   2.910   2.951
    3OL    H16S13393   5.190   2.780   2.855
    3OL    C11713394   5.293   2.958   2.818
    3OL    H17R13395   5.209   2.980   2.753
    3OL    H17S13396   5.373   2.906   2.764
    3OL    C11813397   5.333   3.092   2.882
    3OL    H18R13398   5.392   3.072   2.971
    3OL    H18S13399   5.244   3.144   2.917
    3OL    H18T13400   5.391   3.159   2.818
    1PA    C11613401   0.716   0.662   3.746
    1PA    H16R13402   0.671   0.645   3.844
    1PA    H16S13403   0.825   0.665   3.750
    1PA    H16T13404   0.695   0.570   3.692
    1PA    C11513405   0.648   0.780   3.675
    1PA    H15R13406   0.545   0.748   3.664
    1PA    H15S13407   0.656   0.869   3.737
    1PA    C11413408   0.717   0.808   3.540
    1PA    H14R13409   0.822   0.831   3.565
    1PA    H14S13410   0.722   0.721   3.475
    1PA    C11313411   0.643   0.923   3.470
    1PA    H13R13412   0.538   0.900   3.447
    1PA    H13S13413   0.636   1.003   3.543
    1PA    C11213414   0.720   0.956   3.341
    1PA    H12R13415   0.824   0.972   3.368
    1PA    H12S13416   0.729   0.875   3.268
    1PA    C11113417   0.659   1.072   3.262
    1PA    H11R13418   0.553   1.056   3.241
    1PA    H11S13419   0.658   1.162   3.324
    1PA    C11013420   0.732   1.098   3.130
    1PA    H10R13421   0.715   1.194   3.079
    1PA    H10S13422   0.837   1.118   3.153
    1PA     C1913423   0.727   0.984   3.027
    1PA     H9R13424   0.797   0.907   3.060
    1PA     H9S13425   0.631   0.934   3.033
    1PA     C1813426   0.776   1.034   2.890
    1PA     H8R13427   0.698   1.103   2.860
    1PA     H8S13428   0.872   1.086   2.897
    1PA     C1713429   0.793   0.922   2.787
    1PA     H7R13430   0.874   0.862   2.831
    1PA     H7S13431   0.703   0.860   2.781
    1PA     C1613432   0.815   0.984   2.648
    1PA     H6R13433   0.720   1.029   2.619
    1PA     H6S13434   0.887   1.065   2.656
    1PA     C1513435   0.858   0.880   2.543
    1PA     H5R13436   0.803   0.790   2.570
    1PA     H5S13437   0.831   0.910   2.442
    1PA     C1413438   1.006   0.842   2.544
    1PA     H4R13439   1.066   0.933   2.533
    1PA     H4S13440   1.025   0.795   2.641
    1PA     C1313441   1.044   0.744   2.432
    1PA     H3R13442   0.971   0.665   2.416
    1PA     H3S13443   1.041   0.791   2.333
    1PA     C1213444   1.184   0.685   2.453
    1PA     H2R13445   1.251   0.770   2.439
    1PA     H2S13446   1.189   0.651   2.557
    2PC     C1113447   1.218   0.570   2.362
    2PC     O1213448   1.139   0.508   2.292
    2PC     O1113449   1.352   0.558   2.357
    2PC      C113450   1.394   0.455   2.266
    2PC      HR13451   1.360   0.358   2.304
    2PC      HS13452   1.347   0.473   2.169
    2PC      C213453   1.547   0.450   2.259
    2PC      HX13454   1.592   0.549   2.247
    2PC      C313455   1.596   0.380   2.131
    2PC      HA13456   1.541   0.419   2.045
    2PC      HB13457   1.704   0.381   2.116
    2PC     O3113458   1.564   0.241   2.143
    2PC     P3113459   1.573   0.148   2.013
    2PC     O3213460   1.481   0.029   2.068
    2PC     C3113461   1.339   0.045   2.052
    2PC     H1A13462   1.312   0.144   2.092
    2PC     H1B13463   1.314   0.032   1.946
    2PC     C3213464   1.273  -0.061   2.141
    2PC     H2A13465   1.306  -0.160   2.111
    2PC     H2B13466   1.308  -0.030   2.239
    2PC     N3113467   1.123  -0.076   2.143
    2PC     C3313468   1.076  -0.184   2.051
    2PC     H3A13469   1.069  -0.156   1.946
    2PC     H3B13470   1.140  -0.271   2.060
    2PC     H3C13471   0.970  -0.195   2.076
    2PC     C3413472   1.090  -0.112   2.285
    2PC     H4A13473   1.108  -0.025   2.349
    2PC     H4B13474   0.984  -0.135   2.294
    2PC     H4C13475   1.148  -0.201   2.307
    2PC     C3513476   1.052   0.051   2.107
    2PC     H5A13477   0.943   0.044   2.116
    2PC     H5B13478   1.080   0.084   2.007
    2PC     H5C13479   1.078   0.128   2.180
    2PC     O3313480   1.518   0.227   1.900
    2PC     O3413481   1.706   0.110   1.958
    2PC     O2113482   1.598   0.386   2.377
    2PC     C2113483   1.725   0.405   2.418
    2PC     O2213484   1.802   0.479   2.361
    3OL     C1213485   1.757   0.315   2.535
    3OL     H2R13486   1.773   0.214   2.496
    3OL     H2S13487   1.670   0.311   2.600
    3OL     C1313488   1.882   0.367   2.607
    3OL     H3R13489   1.866   0.458   2.665
    3OL     H3S13490   1.959   0.397   2.536
    3OL     C1413491   1.947   0.261   2.698
    3OL     H4R13492   2.041   0.298   2.740
    3OL     H4S13493   1.974   0.176   2.635
    3OL     C1513494   1.868   0.222   2.823
    3OL     H5R13495   1.777   0.165   2.804
    3OL     H5S13496   1.841   0.314   2.875
    3OL     C1613497   1.968   0.137   2.904
    3OL     H6R13498   2.060   0.192   2.922
    3OL     H6S13499   1.996   0.056   2.837
    3OL     C1713500   1.910   0.078   3.033
    3OL     H7R13501   1.829   0.145   3.062
    3OL     H7S13502   1.983   0.076   3.113
    3OL     C1813503   1.863  -0.065   3.000
    3OL     H8R13504   1.951  -0.129   3.010
    3OL     H8S13505   1.826  -0.062   2.897
    3OL     C1913506   1.753  -0.116   3.089
    3OL     H9R13507   1.795  -0.145   3.186
    3OL    C11013508   1.623  -0.134   3.069
    3OL    H10R13509   1.564  -0.172   3.152
    3OL    C11113510   1.556  -0.129   2.934
    3OL    H11R13511   1.497  -0.219   2.913
    3OL    H11S13512   1.635  -0.126   2.859
    3OL    C11213513   1.456  -0.014   2.924
    3OL    H12R13514   1.416  -0.012   2.823
    3OL    H12S13515   1.516   0.077   2.930
    3OL    C11313516   1.353  -0.011   3.038
    3OL    H13R13517   1.398  -0.002   3.137
    3OL    H13S13518   1.298  -0.106   3.032
    3OL    C11413519   1.248   0.100   3.025
    3OL    H14R13520   1.201   0.094   2.927
    3OL    H14S13521   1.291   0.201   3.024
    3OL    C11513522   1.143   0.085   3.136
    3OL    H15R13523   1.193   0.108   3.230
    3OL    H15S13524   1.103  -0.017   3.132
    3OL    C11613525   1.033   0.191   3.122
    3OL    H16R13526   0.985   0.179   3.024
    3OL    H16S13527   1.077   0.290   3.133
    3OL    C11713528   0.939   0.169   3.241
    3OL    H17R13529   0.873   0.254   3.254
    3OL    H17S13530   0.992   0.156   3.336
    3OL    C11813531   0.836   0.058   3.215
    3OL    H18R13532   0.883  -0.028   3.166
    3OL    H18S13533   0.760   0.102   3.150
    3OL    H18T13534   0.787   0.024   3.307
    1PA    C11613535   3.757   4.598   3.712
    1PA    H16R13536   3.679   4.654   3.659
    1PA    H16S13537   3.816   4.655   3.784
    1PA    H16T13538   3.690   4.526   3.759
    1PA    C11513539   3.849   4.531   3.610
    1PA    H15R13540   3.904   4.604   3.550
    1PA    H15S13541   3.921   4.467   3.662
    1PA    C11413542   3.770   4.442   3.513
    1PA    H14R13543   3.673   4.486   3.488
    1PA    H14S13544   3.831   4.431   3.423
    1PA    C11313545   3.743   4.300   3.565
    1PA    H13R13546   3.837   4.254   3.595
    1PA    H13S13547   3.687   4.304   3.658
    1PA    C11213548   3.683   4.201   3.464
    1PA    H12R13549   3.748   4.207   3.376
    1PA    H12S13550   3.674   4.101   3.508
    1PA    C11113551   3.544   4.244   3.418
    1PA    H11R13552   3.475   4.256   3.502
    1PA    H11S13553   3.554   4.335   3.359
    1PA    C11013554   3.477   4.138   3.329
    1PA    H10R13555   3.483   4.035   3.365
    1PA    H10S13556   3.374   4.170   3.321
    1PA     C1913557   3.531   4.148   3.185
    1PA     H9R13558   3.512   4.248   3.145
    1PA     H9S13559   3.634   4.115   3.177
    1PA     C1813560   3.439   4.052   3.107
    1PA     H8R13561   3.444   3.951   3.148
    1PA     H8S13562   3.335   4.084   3.106
    1PA     C1713563   3.477   4.030   2.960
    1PA     H7R13564   3.392   3.997   2.899
    1PA     H7S13565   3.514   4.129   2.930
    1PA     C1613566   3.579   3.916   2.947
    1PA     H6R13567   3.666   3.946   3.006
    1PA     H6S13568   3.533   3.831   2.997
    1PA     C1513569   3.614   3.880   2.802
    1PA     H5R13570   3.556   3.790   2.783
    1PA     H5S13571   3.587   3.962   2.735
    1PA     C1413572   3.757   3.826   2.788
    1PA     H4R13573   3.834   3.895   2.823
    1PA     H4S13574   3.775   3.746   2.860
    1PA     C1313575   3.779   3.768   2.648
    1PA     H3R13576   3.700   3.695   2.630
    1PA     H3S13577   3.764   3.840   2.568
    1PA     C1213578   3.918   3.703   2.637
    1PA     H2R13579   3.993   3.781   2.622
    1PA     H2S13580   3.942   3.645   2.726
    2PC     C1113581   3.936   3.612   2.518
    2PC     O1213582   3.865   3.608   2.420
    2PC     O1113583   4.047   3.538   2.536
    2PC      C113584   4.092   3.456   2.427
    2PC      HR13585   4.016   3.384   2.395
    2PC      HS13586   4.124   3.517   2.342
    2PC      C213587   4.214   3.382   2.484
    2PC      HX13588   4.282   3.454   2.530
    2PC      C313589   4.285   3.314   2.366
    2PC      HA13590   4.340   3.390   2.310
    2PC      HB13591   4.355   3.237   2.402
    2PC     O3113592   4.183   3.257   2.282
    2PC     P3113593   4.218   3.201   2.137
    2PC     O3213594   4.098   3.102   2.101
    2PC     C3113595   4.078   3.055   1.966
    2PC     H1A13596   3.982   3.004   1.956
    2PC     H1B13597   4.073   3.143   1.901
    2PC     C3213598   4.195   2.961   1.937
    2PC     H2A13599   4.288   3.015   1.923
    2PC     H2B13600   4.213   2.884   2.013
    2PC     N3113601   4.180   2.875   1.815
    2PC     C3313602   4.070   2.775   1.836
    2PC     H3A13603   4.090   2.712   1.922
    2PC     H3B13604   3.981   2.839   1.837
    2PC     H3C13605   4.059   2.711   1.749
    2PC     C3413606   4.152   2.953   1.691
    2PC     H4A13607   4.236   3.022   1.680
    2PC     H4B13608   4.150   2.880   1.610
    2PC     H4C13609   4.052   2.995   1.709
    2PC     C3513610   4.310   2.804   1.791
    2PC     H5A13611   4.336   2.745   1.879
    2PC     H5B13612   4.387   2.878   1.770
    2PC     H5C13613   4.297   2.733   1.708
    2PC     O3313614   4.221   3.323   2.053
    2PC     O3413615   4.352   3.139   2.118
    2PC     O2113616   4.169   3.297   2.591
    2PC     C2113617   4.263   3.247   2.673
    2PC     O2213618   4.382   3.271   2.665
    3OL     C1213619   4.200   3.149   2.769
    3OL     H2R13620   4.277   3.082   2.807
    3OL     H2S13621   4.116   3.097   2.722
    3OL     C1313622   4.161   3.222   2.898
    3OL     H3R13623   4.088   3.295   2.863
    3OL     H3S13624   4.238   3.280   2.948
    3OL     C1413625   4.105   3.121   3.000
    3OL     H4R13626   4.173   3.035   3.004
    3OL     H4S13627   4.008   3.082   2.973
    3OL     C1513628   4.090   3.190   3.137
    3OL     H5R13629   4.035   3.284   3.124
    3OL     H5S13630   4.186   3.221   3.180
    3OL     C1613631   4.014   3.097   3.232
    3OL     H6R13632   4.068   3.011   3.272
    3OL     H6S13633   3.930   3.058   3.174
    3OL     C1713634   3.956   3.174   3.351
    3OL     H7R13635   3.895   3.256   3.313
    3OL     H7S13636   4.039   3.225   3.400
    3OL     C1813637   3.884   3.084   3.453
    3OL     H8R13638   3.927   2.986   3.473
    3OL     H8S13639   3.788   3.073   3.401
    3OL     C1913640   3.867   3.159   3.582
    3OL     H9R13641   3.829   3.260   3.567
    3OL    C11013642   3.908   3.124   3.703
    3OL    H10R13643   3.890   3.189   3.788
    3OL    C11113644   3.970   2.993   3.744
    3OL    H11R13645   4.049   2.995   3.820
    3OL    H11S13646   4.035   2.968   3.659
    3OL    C11213647   3.882   2.870   3.769
    3OL    H12R13648   3.936   2.775   3.760
    3OL    H12S13649   3.798   2.867   3.699
    3OL    C11313650   3.807   2.874   3.903
    3OL    H13R13651   3.729   2.799   3.918
    3OL    H13S13652   3.762   2.971   3.923
    3OL    C11413653   3.906   2.842   4.016
    3OL    H14R13654   3.990   2.911   4.018
    3OL    H14S13655   3.943   2.740   4.010
    3OL    C11513656   3.827   2.859   4.147
    3OL    H15R13657   3.741   2.792   4.143
    3OL    H15S13658   3.794   2.963   4.142
    3OL    C11613659   3.901   2.814   4.273
    3OL    H16R13660   3.943   2.716   4.253
    3OL    H16S13661   3.830   2.804   4.356
    3OL    C11713662   4.006   2.918   4.314
    3OL    H17R13663   4.034   2.967   4.221
    3OL    H17S13664   4.086   2.869   4.370
    3OL    C11813665   3.944   3.025   4.405
    3OL    H18R13666   4.013   3.107   4.430
    3OL    H18S13667   3.899   2.988   4.497
    3OL    H18T13668   3.854   3.066   4.357
    1PA    C11613669   5.784   3.257   4.119
    1PA    H16R13670   5.881   3.249   4.168
    1PA    H16S13671   5.765   3.155   4.084
    1PA    H16T13672   5.712   3.283   4.197
    1PA    C11513673   5.777   3.368   4.014
    1PA    H15R13674   5.775   3.464   4.066
    1PA    H15S13675   5.855   3.355   3.938
    1PA    C11413676   5.650   3.358   3.929
    1PA    H14R13677   5.668   3.381   3.824
    1PA    H14S13678   5.610   3.257   3.936
    1PA    C11313679   5.536   3.449   3.977
    1PA    H13R13680   5.436   3.413   3.952
    1PA    H13S13681   5.540   3.440   4.085
    1PA    C11213682   5.554   3.601   3.961
    1PA    H12R13683   5.476   3.641   4.026
    1PA    H12S13684   5.652   3.640   3.990
    1PA    C11113685   5.524   3.640   3.816
    1PA    H11R13686   5.554   3.745   3.803
    1PA    H11S13687   5.579   3.572   3.751
    1PA    C11013688   5.373   3.633   3.793
    1PA    H10R13689   5.330   3.533   3.788
    1PA    H10S13690   5.320   3.684   3.874
    1PA     C1913691   5.345   3.698   3.656
    1PA     H9R13692   5.359   3.806   3.656
    1PA     H9S13693   5.415   3.649   3.588
    1PA     C1813694   5.200   3.677   3.612
    1PA     H8R13695   5.179   3.571   3.592
    1PA     H8S13696   5.132   3.707   3.692
    1PA     C1713697   5.164   3.749   3.481
    1PA     H7R13698   5.175   3.857   3.494
    1PA     H7S13699   5.236   3.713   3.408
    1PA     C1613700   5.021   3.717   3.436
    1PA     H6R13701   5.019   3.610   3.415
    1PA     H6S13702   4.946   3.736   3.513
    1PA     C1513703   4.990   3.791   3.305
    1PA     H5R13704   4.996   3.899   3.317
    1PA     H5S13705   5.063   3.751   3.234
    1PA     C1413706   4.850   3.762   3.250
    1PA     H4R13707   4.842   3.654   3.232
    1PA     H4S13708   4.772   3.785   3.323
    1PA     C1313709   4.818   3.845   3.125
    1PA     H3R13710   4.829   3.952   3.142
    1PA     H3S13711   4.880   3.812   3.042
    1PA     C1213712   4.674   3.817   3.078
    1PA     H2R13713   4.651   3.710   3.083
    1PA     H2S13714   4.605   3.864   3.148
    2PC     C1113715   4.641   3.879   2.945
    2PC     O1213716   4.628   3.999   2.930
    2PC     O1113717   4.620   3.783   2.853
    2PC      C113718   4.578   3.832   2.725
    2PC      HR13719   4.483   3.885   2.741
    2PC      HS13720   4.655   3.894   2.678
    2PC      C213721   4.555   3.711   2.633
    2PC      HX13722   4.636   3.638   2.641
    2PC      C313723   4.566   3.758   2.487
    2PC      HA13724   4.478   3.820   2.470
    2PC      HB13725   4.653   3.821   2.469
    2PC     O3113726   4.563   3.636   2.411
    2PC     P3113727   4.495   3.641   2.267
    2PC     O3213728   4.589   3.752   2.199
    2PC     C3113729   4.571   3.789   2.061
    2PC     H1A13730   4.656   3.843   2.019
    2PC     H1B13731   4.554   3.692   2.014
    2PC     C3213732   4.442   3.867   2.038
    2PC     H2A13733   4.414   3.881   1.933
    2PC     H2B13734   4.359   3.817   2.088
    2PC     N3113735   4.432   4.009   2.086
    2PC     C3313736   4.531   4.102   2.023
    2PC     H3A13737   4.522   4.092   1.915
    2PC     H3B13738   4.513   4.201   2.066
    2PC     H3C13739   4.633   4.073   2.050
    2PC     C3413740   4.296   4.061   2.052
    2PC     H4A13741   4.284   4.086   1.946
    2PC     H4B13742   4.221   3.985   2.075
    2PC     H4C13743   4.271   4.150   2.111
    2PC     C3513744   4.443   4.011   2.236
    2PC     H5A13745   4.369   3.953   2.291
    2PC     H5B13746   4.434   4.114   2.270
    2PC     H5C13747   4.547   3.979   2.249
    2PC     O3313748   4.504   3.507   2.205
    2PC     O3413749   4.351   3.674   2.278
    2PC     O2113750   4.421   3.662   2.654
    2PC     C2113751   4.387   3.606   2.771
    2PC     O2213752   4.467   3.573   2.855
    3OL     C1213753   4.237   3.593   2.788
    3OL     H2R13754   4.205   3.499   2.742
    3OL     H2S13755   4.184   3.677   2.743
    3OL     C1313756   4.193   3.584   2.934
    3OL     H3R13757   4.230   3.498   2.990
    3OL     H3S13758   4.085   3.570   2.943
    3OL     C1413759   4.220   3.714   3.010
    3OL     H4R13760   4.311   3.764   2.977
    3OL     H4S13761   4.253   3.703   3.114
    3OL     C1513762   4.100   3.810   3.002
    3OL     H5R13763   4.037   3.766   3.079
    3OL     H5S13764   4.050   3.805   2.905
    3OL     C1613765   4.129   3.957   3.036
    3OL     H6R13766   4.203   3.983   2.960
    3OL     H6S13767   4.175   3.953   3.135
    3OL     C1713768   4.005   4.048   3.030
    3OL     H7R13769   3.952   4.020   2.939
    3OL     H7S13770   4.041   4.149   3.010
    3OL     C1813771   3.918   4.045   3.157
    3OL     H8R13772   3.888   3.947   3.194
    3OL     H8S13773   3.828   4.100   3.126
    3OL     C1913774   3.990   4.121   3.266
    3OL     H9R13775   4.019   4.219   3.228
    3OL    C11013776   4.001   4.094   3.395
    3OL    H10R13777   4.040   4.174   3.457
    3OL    C11113778   3.971   3.962   3.463
    3OL    H11R13779   3.944   3.889   3.387
    3OL    H11S13780   3.888   3.973   3.533
    3OL    C11213781   4.087   3.903   3.544
    3OL    H12R13782   4.042   3.830   3.612
    3OL    H12S13783   4.135   3.987   3.595
    3OL    C11313784   4.192   3.838   3.454
    3OL    H13R13785   4.295   3.850   3.488
    3OL    H13S13786   4.186   3.894   3.360
    3OL    C11413787   4.164   3.688   3.433
    3OL    H14R13788   4.218   3.658   3.343
    3OL    H14S13789   4.056   3.679   3.422
    3OL    C11513790   4.221   3.606   3.550
    3OL    H15R13791   4.189   3.666   3.635
    3OL    H15S13792   4.328   3.609   3.529
    3OL    C11613793   4.186   3.456   3.543
    3OL    H16R13794   4.225   3.408   3.453
    3OL    H16S13795   4.078   3.458   3.529
    3OL    C11713796   4.229   3.367   3.660
    3OL    H17R13797   4.189   3.267   3.644
    3OL    H17S13798   4.180   3.401   3.751
    3OL    C11813799   4.381   3.364   3.685
    3OL    H18R13800   4.426   3.294   3.615
    3OL    H18S13801   4.422   3.316   3.774
    3OL    H18T13802   4.432   3.460   3.677
    1PA    C11613803   5.107   6.007   3.760
    1PA    H16R13804   5.190   5.965   3.702
    1PA    H16S13805   5.114   5.983   3.867
    1PA    H16T13806   5.125   6.114   3.758
    1PA    C11513807   4.975   5.969   3.693
    1PA    H15R13808   4.972   5.860   3.693
    1PA    H15S13809   4.884   6.005   3.742
    1PA    C11413810   4.969   6.007   3.544
    1PA    H14R13811   4.963   6.116   3.546
    1PA    H14S13812   5.056   5.968   3.491
    1PA    C11313813   4.828   5.973   3.491
    1PA    H13R13814   4.818   5.866   3.472
    1PA    H13S13815   4.754   6.000   3.567
    1PA    C11213816   4.793   6.062   3.371
    1PA    H12R13817   4.815   6.167   3.391
    1PA    H12S13818   4.865   6.041   3.292
    1PA    C11113819   4.647   6.035   3.330
    1PA    H11R13820   4.640   5.931   3.299
    1PA    H11S13821   4.580   6.064   3.411
    1PA    C11013822   4.604   6.111   3.203
    1PA    H10R13823   4.615   6.217   3.225
    1PA    H10S13824   4.680   6.092   3.126
    1PA     C1913825   4.462   6.079   3.156
    1PA     H9R13826   4.441   5.972   3.157
    1PA     H9S13827   4.390   6.118   3.230
    1PA     C1813828   4.434   6.132   3.015
    1PA     H8R13829   4.429   6.241   3.010
    1PA     H8S13830   4.516   6.109   2.946
    1PA     C1713831   4.304   6.076   2.957
    1PA     H7R13832   4.223   6.067   3.029
    1PA     H7S13833   4.271   6.145   2.879
    1PA     C1613834   4.338   5.950   2.875
    1PA     H6R13835   4.398   5.974   2.787
    1PA     H6S13836   4.389   5.875   2.934
    1PA     C1513837   4.201   5.891   2.840
    1PA     H5R13838   4.145   5.860   2.928
    1PA     H5S13839   4.152   5.969   2.781
    1PA     C1413840   4.226   5.765   2.756
    1PA     H4R13841   4.286   5.700   2.820
    1PA     H4S13842   4.132   5.716   2.727
    1PA     C1313843   4.300   5.786   2.624
    1PA     H3R13844   4.403   5.821   2.638
    1PA     H3S13845   4.314   5.685   2.583
    1PA     C1213846   4.228   5.877   2.524
    1PA     H2R13847   4.121   5.855   2.530
    1PA     H2S13848   4.239   5.983   2.546
    2PC     C1113849   4.281   5.848   2.386
    2PC     O1213850   4.325   5.744   2.340
    2PC     O1113851   4.286   5.964   2.320
    2PC      C113852   4.306   5.975   2.178
    2PC      HR13853   4.312   6.084   2.172
    2PC      HS13854   4.393   5.923   2.138
    2PC      C213855   4.179   5.933   2.103
    2PC      HX13856   4.163   5.831   2.140
    2PC      C313857   4.207   5.909   1.954
    2PC      HA13858   4.243   5.998   1.901
    2PC      HB13859   4.288   5.835   1.949
    2PC     O3113860   4.086   5.852   1.900
    2PC     P3113861   4.060   5.820   1.745
    2PC     O3213862   4.038   5.662   1.757
    2PC     C3113863   4.116   5.565   1.684
    2PC     H1A13864   4.114   5.592   1.578
    2PC     H1B13865   4.215   5.567   1.729
    2PC     C3213866   4.061   5.424   1.708
    2PC     H2A13867   4.038   5.421   1.815
    2PC     H2B13868   3.968   5.405   1.655
    2PC     N3113869   4.149   5.307   1.676
    2PC     C3313870   4.202   5.313   1.536
    2PC     H3A13871   4.279   5.390   1.531
    2PC     H3B13872   4.246   5.216   1.514
    2PC     H3C13873   4.121   5.337   1.466
    2PC     C3413874   4.273   5.304   1.761
    2PC     H4A13875   4.237   5.295   1.863
    2PC     H4B13876   4.324   5.217   1.720
    2PC     H4C13877   4.345   5.386   1.756
    2PC     C3513878   4.075   5.177   1.691
    2PC     H5A13879   3.990   5.175   1.623
    2PC     H5B13880   4.033   5.167   1.791
    2PC     H5C13881   4.141   5.092   1.674
    2PC     O3313882   3.944   5.903   1.708
    2PC     O3413883   4.164   5.869   1.652
    2PC     O2113884   4.070   6.024   2.129
    2PC     C2113885   3.996   5.989   2.236
    2PC     O2213886   3.999   5.874   2.276
    3OL     C1213887   3.919   6.103   2.295
    3OL     H2R13888   3.812   6.082   2.301
    3OL     H2S13889   3.947   6.188   2.232
    3OL     C1313890   3.952   6.133   2.442
    3OL     H3R13891   4.054   6.104   2.469
    3OL     H3S13892   3.891   6.063   2.500
    3OL     C1413893   3.922   6.278   2.485
    3OL     H4R13894   3.832   6.313   2.434
    3OL     H4S13895   3.994   6.354   2.454
    3OL     C1513896   3.906   6.297   2.636
    3OL     H5R13897   4.003   6.272   2.679
    3OL     H5S13898   3.822   6.233   2.665
    3OL     C1613899   3.886   6.445   2.671
    3OL     H6R13900   3.796   6.494   2.632
    3OL     H6S13901   3.965   6.499   2.619
    3OL     C1713902   3.895   6.460   2.824
    3OL     H7R13903   3.995   6.427   2.853
    3OL     H7S13904   3.825   6.391   2.873
    3OL     C1813905   3.859   6.604   2.863
    3OL     H8R13906   3.751   6.622   2.857
    3OL     H8S13907   3.920   6.671   2.803
    3OL     C1913908   3.894   6.633   3.007
    3OL     H9R13909   3.991   6.679   3.019
    3OL    C11013910   3.817   6.614   3.113
    3OL    H10R13911   3.853   6.641   3.212
    3OL    C11113912   3.685   6.542   3.110
    3OL    H11R13913   3.655   6.511   3.010
    3OL    H11S13914   3.609   6.611   3.147
    3OL    C11213915   3.689   6.417   3.200
    3OL    H12R13916   3.590   6.371   3.202
    3OL    H12S13917   3.709   6.441   3.305
    3OL    C11313918   3.803   6.324   3.156
    3OL    H13R13919   3.893   6.384   3.152
    3OL    H13S13920   3.778   6.281   3.058
    3OL    C11413921   3.817   6.207   3.254
    3OL    H14R13922   3.727   6.145   3.259
    3OL    H14S13923   3.823   6.242   3.358
    3OL    C11513924   3.935   6.117   3.214
    3OL    H15R13925   4.019   6.185   3.206
    3OL    H15S13926   3.911   6.071   3.117
    3OL    C11613927   3.963   5.995   3.303
    3OL    H16R13928   4.040   5.930   3.263
    3OL    H16S13929   3.870   5.938   3.296
    3OL    C11713930   3.995   6.032   3.449
    3OL    H17R13931   3.971   5.948   3.514
    3OL    H17S13932   3.935   6.110   3.498
    3OL    C11813933   4.141   6.075   3.464
    3OL    H18R13934   4.158   6.106   3.567
    3OL    H18S13935   4.167   6.162   3.403
    3OL    H18T13936   4.207   5.989   3.454
    1PA    C11613937   4.253   4.512   4.519
    1PA    H16R13938   4.252   4.606   4.574
    1PA    H16S13939   4.331   4.501   4.443
    1PA    H16T13940   4.249   4.423   4.582
    1PA    C11513941   4.114   4.525   4.455
    1PA    H15R13942   4.089   4.434   4.399
    1PA    H15S13943   4.044   4.539   4.537
    1PA    C11413944   4.105   4.636   4.350
    1PA    H14R13945   3.998   4.657   4.338
    1PA    H14S13946   4.158   4.723   4.390
    1PA    C11313947   4.148   4.593   4.209
    1PA    H13R13948   4.248   4.550   4.219
    1PA    H13S13949   4.084   4.512   4.175
    1PA    C11213950   4.132   4.714   4.115
    1PA    H12R13951   4.026   4.740   4.119
    1PA    H12S13952   4.203   4.789   4.150
    1PA    C11113953   4.153   4.665   3.971
    1PA    H11R13954   4.247   4.612   3.960
    1PA    H11S13955   4.073   4.595   3.947
    1PA    C11013956   4.150   4.790   3.882
    1PA    H10R13957   4.052   4.836   3.892
    1PA    H10S13958   4.234   4.857   3.901
    1PA     C1913959   4.159   4.751   3.733
    1PA     H9R13960   4.077   4.682   3.710
    1PA     H9S13961   4.130   4.842   3.682
    1PA     C1813962   4.295   4.686   3.701
    1PA     H8R13963   4.374   4.760   3.688
    1PA     H8S13964   4.314   4.601   3.766
    1PA     C1713965   4.284   4.621   3.563
    1PA     H7R13966   4.379   4.575   3.534
    1PA     H7S13967   4.196   4.556   3.569
    1PA     C1613968   4.260   4.729   3.457
    1PA     H6R13969   4.166   4.780   3.477
    1PA     H6S13970   4.340   4.803   3.460
    1PA     C1513971   4.264   4.678   3.312
    1PA     H5R13972   4.284   4.763   3.246
    1PA     H5S13973   4.341   4.605   3.290
    1PA     C1413974   4.130   4.613   3.275
    1PA     H4R13975   4.127   4.525   3.339
    1PA     H4S13976   4.044   4.673   3.306
    1PA     C1313977   4.125   4.559   3.132
    1PA     H3R13978   4.147   4.638   3.060
    1PA     H3S13979   4.200   4.483   3.106
    1PA     C1213980   3.978   4.522   3.107
    1PA     H2R13981   3.940   4.448   3.177
    1PA     H2S13982   3.924   4.615   3.125
    2PC     C1113983   3.957   4.478   2.964
    2PC     O1213984   3.899   4.375   2.938
    2PC     O1113985   3.985   4.576   2.876
    2PC      C113986   3.954   4.562   2.737
    2PC      HR13987   4.003   4.638   2.676
    2PC      HS13988   3.985   4.463   2.702
    2PC      C213989   3.804   4.577   2.705
    2PC      HX13990   3.760   4.506   2.776
    2PC      C313991   3.773   4.525   2.564
    2PC      HA13992   3.811   4.423   2.555
    2PC      HB13993   3.665   4.526   2.549
    2PC     O3113994   3.837   4.602   2.460
    2PC     P3113995   3.860   4.532   2.317
    2PC     O3213996   3.811   4.651   2.221
    2PC     C3113997   3.671   4.667   2.193
    2PC     H1A13998   3.665   4.715   2.095
    2PC     H1B13999   3.624   4.568   2.192
    2PC     C3214000   3.613   4.757   2.302
    2PC     H2A14001   3.648   4.727   2.401
    2PC     H2B14002   3.654   4.853   2.271
    2PC     N3114003   3.463   4.762   2.311
    2PC     C3314004   3.436   4.866   2.416
    2PC     H3A14005   3.498   4.954   2.395
    2PC     H3B14006   3.329   4.892   2.417
    2PC     H3C14007   3.463   4.826   2.513
    2PC     C3414008   3.398   4.810   2.185
    2PC     H4A14009   3.467   4.888   2.152
    2PC     H4B14010   3.391   4.725   2.118
    2PC     H4C14011   3.298   4.844   2.211
    2PC     C3514012   3.404   4.635   2.362
    2PC     H5A14013   3.412   4.555   2.288
    2PC     H5B14014   3.307   4.660   2.404
    2PC     H5C14015   3.473   4.606   2.442
    2PC     O3314016   4.001   4.489   2.307
    2PC     O3414017   3.774   4.414   2.291
    2PC     O2114018   3.763   4.714   2.719
    2PC     C2114019   3.633   4.738   2.740
    2PC     O2214020   3.537   4.663   2.732
    3OL     C1214021   3.608   4.883   2.771
    3OL     H2R14022   3.593   4.939   2.678
    3OL     H2S14023   3.693   4.926   2.823
    3OL     C1314024   3.487   4.912   2.862
    3OL     H3R14025   3.401   4.865   2.814
    3OL     H3S14026   3.473   5.020   2.866
    3OL     C1414027   3.523   4.859   3.002
    3OL     H4R14028   3.623   4.898   3.020
    3OL     H4S14029   3.530   4.750   3.000
    3OL     C1514030   3.419   4.912   3.101
    3OL     H5R14031   3.315   4.887   3.076
    3OL     H5S14032   3.415   5.021   3.104
    3OL     C1614033   3.442   4.860   3.244
    3OL     H6R14034   3.522   4.918   3.290
    3OL     H6S14035   3.483   4.759   3.251
    3OL     C1714036   3.318   4.874   3.333
    3OL     H7R14037   3.239   4.811   3.292
    3OL     H7S14038   3.288   4.979   3.325
    3OL     C1814039   3.347   4.838   3.479
    3OL     H8R14040   3.262   4.859   3.545
    3OL     H8S14041   3.422   4.908   3.515
    3OL     C1914042   3.397   4.699   3.507
    3OL     H9R14043   3.469   4.667   3.432
    3OL    C11014044   3.363   4.620   3.608
    3OL    H10R14045   3.406   4.521   3.614
    3OL    C11114046   3.276   4.668   3.722
    3OL    H11R14047   3.222   4.580   3.758
    3OL    H11S14048   3.196   4.731   3.684
    3OL    C11214049   3.357   4.748   3.825
    3OL    H12R14050   3.385   4.846   3.787
    3OL    H12S14051   3.448   4.689   3.845
    3OL    C11314052   3.274   4.755   3.953
    3OL    H13R14053   3.344   4.744   4.037
    3OL    H13S14054   3.199   4.675   3.962
    3OL    C11414055   3.198   4.887   3.971
    3OL    H14R14056   3.145   4.910   3.879
    3OL    H14S14057   3.269   4.970   3.979
    3OL    C11514058   3.101   4.873   4.089
    3OL    H15R14059   3.152   4.826   4.174
    3OL    H15S14060   3.019   4.803   4.072
    3OL    C11614061   3.050   5.007   4.145
    3OL    H16R14062   3.127   5.083   4.133
    3OL    H16S14063   3.021   4.994   4.249
    3OL    C11714064   2.933   5.068   4.066
    3OL    H17R14065   2.856   4.994   4.046
    3OL    H17S14066   2.970   5.102   3.968
    3OL    C11814067   2.871   5.191   4.134
    3OL    H18R14068   2.829   5.262   4.062
    3OL    H18S14069   2.946   5.249   4.188
    3OL    H18T14070   2.803   5.165   4.215
    1PA    C11614071   2.475   4.936   4.115
    1PA    H16R14072   2.371   4.949   4.147
    1PA    H16S14073   2.540   4.903   4.196
    1PA    H16T14074   2.473   4.856   4.040
    1PA    C11514075   2.513   5.070   4.051
    1PA    H15R14076   2.495   5.149   4.124
    1PA    H15S14077   2.618   5.063   4.023
    1PA    C11414078   2.432   5.110   3.927
    1PA    H14R14079   2.440   5.027   3.857
    1PA    H14S14080   2.329   5.129   3.956
    1PA    C11314081   2.481   5.241   3.864
    1PA    H13R14082   2.465   5.315   3.943
    1PA    H13S14083   2.587   5.239   3.837
    1PA    C11214084   2.401   5.270   3.737
    1PA    H12R14085   2.294   5.257   3.754
    1PA    H12S14086   2.405   5.378   3.720
    1PA    C11114087   2.456   5.209   3.607
    1PA    H11R14088   2.562   5.232   3.597
    1PA    H11S14089   2.433   5.102   3.601
    1PA    C11014090   2.392   5.284   3.490
    1PA    H10R14091   2.284   5.285   3.509
    1PA    H10S14092   2.430   5.386   3.497
    1PA     C1914093   2.419   5.214   3.356
    1PA     H9R14094   2.527   5.227   3.347
    1PA     H9S14095   2.383   5.110   3.352
    1PA     C1814096   2.342   5.279   3.240
    1PA     H8R14097   2.235   5.270   3.258
    1PA     H8S14098   2.370   5.384   3.232
    1PA     C1714099   2.359   5.206   3.106
    1PA     H7R14100   2.325   5.102   3.111
    1PA     H7S14101   2.297   5.237   3.022
    1PA     C1614102   2.503   5.207   3.052
    1PA     H6R14103   2.569   5.205   3.139
    1PA     H6S14104   2.518   5.115   2.996
    1PA     C1514105   2.525   5.333   2.967
    1PA     H5R14106   2.470   5.325   2.873
    1PA     H5S14107   2.497   5.423   3.023
    1PA     C1414108   2.671   5.336   2.920
    1PA     H4R14109   2.738   5.294   2.996
    1PA     H4S14110   2.677   5.271   2.832
    1PA     C1314111   2.725   5.475   2.885
    1PA     H3R14112   2.658   5.523   2.813
    1PA     H3S14113   2.731   5.531   2.978
    1PA     C1214114   2.864   5.487   2.819
    1PA     H2R14115   2.892   5.593   2.816
    1PA     H2S14116   2.932   5.434   2.885
    2PC     C1114117   2.874   5.422   2.683
    2PC     O1214118   2.956   5.453   2.599
    2PC     O1114119   2.790   5.319   2.662
    2PC      C114120   2.790   5.253   2.535
    2PC      HR14121   2.701   5.190   2.535
    2PC      HS14122   2.785   5.325   2.452
    2PC      C214123   2.916   5.165   2.527
    2PC      HX14124   3.006   5.224   2.544
    2PC      C314125   2.955   5.119   2.386
    2PC      HA14126   2.965   5.201   2.314
    2PC      HB14127   3.052   5.070   2.398
    2PC     O3114128   2.855   5.027   2.340
    2PC     P3114129   2.860   4.983   2.186
    2PC     O3214130   2.704   4.966   2.153
    2PC     C3114131   2.654   5.049   2.047
    2PC     H1A14132   2.680   5.153   2.065
    2PC     H1B14133   2.698   5.021   1.951
    2PC     C3214134   2.500   5.041   2.050
    2PC     H2A14135   2.468   4.937   2.050
    2PC     H2B14136   2.469   5.070   2.151
    2PC     N3114137   2.431   5.126   1.948
    2PC     C3314138   2.452   5.274   1.958
    2PC     H3A14139   2.386   5.307   2.039
    2PC     H3B14140   2.556   5.295   1.982
    2PC     H3C14141   2.418   5.332   1.872
    2PC     C3414142   2.476   5.082   1.812
    2PC     H4A14143   2.582   5.094   1.787
    2PC     H4B14144   2.440   4.985   1.780
    2PC     H4C14145   2.426   5.152   1.745
    2PC     C3514146   2.284   5.099   1.957
    2PC     H5A14147   2.263   4.999   1.920
    2PC     H5B14148   2.234   5.174   1.895
    2PC     H5C14149   2.253   5.106   2.061
    2PC     O3314150   2.933   5.081   2.101
    2PC     O3414151   2.932   4.855   2.167
    2PC     O2114152   2.902   5.048   2.610
    2PC     C2114153   2.933   5.056   2.740
    2PC     O2214154   2.990   5.150   2.792
    3OL     C1214155   2.898   4.929   2.813
    3OL     H2R14156   2.981   4.899   2.878
    3OL     H2S14157   2.873   4.862   2.730
    3OL     C1314158   2.770   4.953   2.894
    3OL     H3R14159   2.698   5.003   2.829
    3OL     H3S14160   2.795   5.019   2.977
    3OL     C1414161   2.722   4.812   2.932
    3OL     H4R14162   2.807   4.760   2.976
    3OL     H4S14163   2.678   4.762   2.846
    3OL     C1514164   2.606   4.820   3.032
    3OL     H5R14165   2.575   4.716   3.045
    3OL     H5S14166   2.514   4.870   3.001
    3OL     C1614167   2.655   4.866   3.170
    3OL     H6R14168   2.707   4.962   3.163
    3OL     H6S14169   2.737   4.801   3.201
    3OL     C1714170   2.549   4.863   3.281
    3OL     H7R14171   2.469   4.925   3.241
    3OL     H7S14172   2.595   4.909   3.368
    3OL     C1814173   2.496   4.723   3.315
    3OL     H8R14174   2.441   4.693   3.226
    3OL     H8S14175   2.426   4.744   3.396
    3OL     C1914176   2.613   4.636   3.354
    3OL     H9R14177   2.686   4.682   3.420
    3OL    C11014178   2.641   4.514   3.311
    3OL    H10R14179   2.732   4.463   3.344
    3OL    C11114180   2.555   4.439   3.213
    3OL    H11R14181   2.611   4.430   3.119
    3OL    H11S14182   2.466   4.495   3.186
    3OL    C11214183   2.514   4.301   3.265
    3OL    H12R14184   2.605   4.239   3.268
    3OL    H12S14185   2.456   4.249   3.189
    3OL    C11314186   2.437   4.300   3.398
    3OL    H13R14187   2.405   4.198   3.419
    3OL    H13S14188   2.348   4.362   3.386
    3OL    C11414189   2.521   4.307   3.526
    3OL    H14R14190   2.569   4.405   3.530
    3OL    H14S14191   2.596   4.228   3.537
    3OL    C11514192   2.432   4.295   3.650
    3OL    H15R14193   2.334   4.342   3.637
    3OL    H15S14194   2.474   4.352   3.733
    3OL    C11614195   2.410   4.152   3.701
    3OL    H16R14196   2.430   4.077   3.624
    3OL    H16S14197   2.302   4.149   3.717
    3OL    C11714198   2.502   4.114   3.819
    3OL    H17R14199   2.454   4.031   3.872
    3OL    H17S14200   2.509   4.194   3.892
    3OL    C11814201   2.646   4.080   3.779
    3OL    H18R14202   2.653   3.989   3.719
    3OL    H18S14203   2.713   4.066   3.864
    3OL    H18T14204   2.685   4.166   3.723
    1PA    C11614205   2.865   6.455   3.955
    1PA    H16R14206   2.818   6.536   3.898
    1PA    H16S14207   2.971   6.478   3.941
    1PA    H16T14208   2.853   6.463   4.064
    1PA    C11514209   2.825   6.320   3.896
    1PA    H15R14210   2.845   6.239   3.967
    1PA    H15S14211   2.716   6.315   3.884
    1PA    C11414212   2.890   6.289   3.761
    1PA    H14R14213   2.854   6.366   3.693
    1PA    H14S14214   2.999   6.291   3.763
    1PA    C11314215   2.849   6.148   3.719
    1PA    H13R14216   2.881   6.072   3.791
    1PA    H13S14217   2.740   6.154   3.723
    1PA    C11214218   2.899   6.106   3.580
    1PA    H12R14219   2.855   6.013   3.542
    1PA    H12S14220   2.872   6.183   3.508
    1PA    C11114221   3.052   6.102   3.583
    1PA    H11R14222   3.088   6.203   3.605
    1PA    H11S14223   3.093   6.038   3.662
    1PA    C11014224   3.109   6.059   3.447
    1PA    H10R14225   3.091   6.134   3.370
    1PA    H10S14226   3.217   6.052   3.460
    1PA     C1914227   3.053   5.930   3.387
    1PA     H9R14228   3.070   5.850   3.460
    1PA     H9S14229   2.946   5.942   3.371
    1PA     C1814230   3.110   5.901   3.248
    1PA     H8R14231   3.079   5.971   3.169
    1PA     H8S14232   3.219   5.908   3.259
    1PA     C1714233   3.062   5.765   3.196
    1PA     H7R14234   3.127   5.693   3.247
    1PA     H7S14235   2.960   5.742   3.227
    1PA     C1614236   3.064   5.734   3.046
    1PA     H6R14237   3.005   5.644   3.026
    1PA     H6S14238   3.009   5.815   2.997
    1PA     C1514239   3.205   5.716   2.988
    1PA     H5R14240   3.269   5.797   3.023
    1PA     H5S14241   3.256   5.626   3.021
    1PA     C1414242   3.196   5.731   2.835
    1PA     H4R14243   3.112   5.680   2.788
    1PA     H4S14244   3.179   5.836   2.810
    1PA     C1314245   3.330   5.689   2.772
    1PA     H3R14246   3.399   5.772   2.788
    1PA     H3S14247   3.380   5.608   2.826
    1PA     C1214248   3.341   5.652   2.623
    1PA     H2R14249   3.434   5.597   2.609
    1PA     H2S14250   3.261   5.581   2.597
    2PC     C1114251   3.321   5.777   2.541
    2PC     O1214252   3.406   5.856   2.503
    2PC     O1114253   3.191   5.799   2.518
    2PC      C114254   3.148   5.923   2.460
    2PC      HR14255   3.198   6.009   2.505
    2PC      HS14256   3.174   5.914   2.354
    2PC      C214257   2.996   5.938   2.462
    2PC      HX14258   2.950   5.842   2.436
    2PC      C314259   2.952   6.047   2.363
    2PC      HA14260   2.950   6.145   2.411
    2PC      HB14261   3.016   6.043   2.275
    2PC     O3114262   2.817   6.026   2.319
    2PC     P3114263   2.766   6.107   2.191
    2PC     O3214264   2.608   6.079   2.186
    2PC     C3114265   2.524   6.129   2.292
    2PC     H1A14266   2.558   6.113   2.394
    2PC     H1B14267   2.510   6.233   2.262
    2PC     C3214268   2.391   6.056   2.272
    2PC     H2A14269   2.320   6.105   2.339
    2PC     H2B14270   2.354   6.072   2.170
    2PC     N3114271   2.385   5.910   2.305
    2PC     C3314272   2.250   5.857   2.265
    2PC     H3A14273   2.168   5.901   2.323
    2PC     H3B14274   2.236   5.871   2.158
    2PC     H3C14275   2.261   5.754   2.298
    2PC     C3414276   2.492   5.826   2.242
    2PC     H4A14277   2.496   5.838   2.133
    2PC     H4B14278   2.584   5.853   2.294
    2PC     H4C14279   2.474   5.722   2.271
    2PC     C3514280   2.407   5.901   2.453
    2PC     H5A14281   2.344   5.978   2.497
    2PC     H5B14282   2.510   5.925   2.476
    2PC     H5C14283   2.370   5.806   2.494
    2PC     O3314284   2.802   6.250   2.183
    2PC     O3414285   2.825   6.031   2.078
    2PC     O2114286   2.949   5.981   2.591
    2PC     C2114287   2.830   5.951   2.645
    2PC     O2214288   2.762   5.863   2.597
    3OL     C1214289   2.787   6.027   2.768
    3OL     H2R14290   2.705   6.088   2.730
    3OL     H2S14291   2.870   6.093   2.794
    3OL     C1314292   2.733   5.937   2.880
    3OL     H3R14293   2.818   5.878   2.912
    3OL     H3S14294   2.658   5.863   2.852
    3OL     C1414295   2.675   6.012   3.001
    3OL     H4R14296   2.599   6.082   2.967
    3OL     H4S14297   2.752   6.070   3.052
    3OL     C1514298   2.599   5.918   3.096
    3OL     H5R14299   2.511   5.873   3.049
    3OL     H5S14300   2.563   5.979   3.179
    3OL     C1614301   2.688   5.802   3.143
    3OL     H6R14302   2.757   5.842   3.217
    3OL     H6S14303   2.737   5.757   3.056
    3OL     C1714304   2.604   5.701   3.222
    3OL     H7R14305   2.548   5.641   3.150
    3OL     H7S14306   2.538   5.747   3.296
    3OL     C1814307   2.701   5.603   3.290
    3OL     H8R14308   2.779   5.661   3.341
    3OL     H8S14309   2.742   5.546   3.206
    3OL     C1914310   2.632   5.517   3.393
    3OL     H9R14311   2.549   5.460   3.352
    3OL    C11014312   2.677   5.503   3.516
    3OL    H10R14313   2.631   5.440   3.592
    3OL    C11114314   2.785   5.592   3.573
    3OL    H11R14315   2.777   5.700   3.557
    3OL    H11S14316   2.872   5.558   3.516
    3OL    C11214317   2.818   5.575   3.722
    3OL    H12R14318   2.823   5.469   3.749
    3OL    H12S14319   2.731   5.621   3.768
    3OL    C11314320   2.944   5.648   3.771
    3OL    H13R14321   2.944   5.655   3.880
    3OL    H13S14322   2.934   5.750   3.732
    3OL    C11414323   3.070   5.580   3.715
    3OL    H14R14324   3.155   5.646   3.733
    3OL    H14S14325   3.076   5.582   3.606
    3OL    C11514326   3.105   5.438   3.762
    3OL    H15R14327   3.025   5.368   3.737
    3OL    H15S14328   3.114   5.440   3.870
    3OL    C11614329   3.236   5.380   3.707
    3OL    H16R14330   3.322   5.437   3.744
    3OL    H16S14331   3.225   5.394   3.600
    3OL    C11714332   3.247   5.232   3.746
    3OL    H17R14333   3.151   5.181   3.737
    3OL    H17S14334   3.262   5.221   3.854
    3OL    C11814335   3.354   5.156   3.666
    3OL    H18R14336   3.367   5.056   3.707
    3OL    H18S14337   3.450   5.206   3.678
    3OL    H18T14338   3.323   5.154   3.561
    1PA    C11614339   3.908   3.928   3.931
    1PA    H16R14340   3.918   3.940   3.823
    1PA    H16S14341   4.007   3.903   3.971
    1PA    H16T14342   3.869   4.019   3.976
    1PA    C11514343   3.803   3.821   3.962
    1PA    H15R14344   3.802   3.826   4.071
    1PA    H15S14345   3.702   3.845   3.927
    1PA    C11414346   3.842   3.685   3.902
    1PA    H14R14347   3.933   3.651   3.951
    1PA    H14S14348   3.768   3.616   3.946
    1PA    C11314349   3.851   3.672   3.750
    1PA    H13R14350   3.923   3.751   3.726
    1PA    H13S14351   3.899   3.582   3.711
    1PA    C11214352   3.724   3.710   3.672
    1PA    H12R14353   3.634   3.662   3.709
    1PA    H12S14354   3.707   3.818   3.673
    1PA    C11114355   3.748   3.659   3.529
    1PA    H11R14356   3.845   3.697   3.495
    1PA    H11S14357   3.752   3.550   3.529
    1PA    C11014358   3.641   3.707   3.430
    1PA    H10R14359   3.545   3.672   3.467
    1PA    H10S14360   3.631   3.815   3.442
    1PA     C1914361   3.669   3.650   3.291
    1PA     H9R14362   3.634   3.719   3.214
    1PA     H9S14363   3.776   3.654   3.271
    1PA     C1814364   3.616   3.510   3.257
    1PA     H8R14365   3.629   3.444   3.343
    1PA     H8S14366   3.509   3.515   3.233
    1PA     C1714367   3.680   3.448   3.132
    1PA     H7R14368   3.787   3.458   3.148
    1PA     H7S14369   3.655   3.341   3.137
    1PA     C1614370   3.625   3.515   3.005
    1PA     H6R14371   3.521   3.491   2.983
    1PA     H6S14372   3.631   3.623   3.015
    1PA     C1514373   3.703   3.482   2.877
    1PA     H5R14374   3.659   3.539   2.794
    1PA     H5S14375   3.807   3.508   2.896
    1PA     C1414376   3.704   3.332   2.845
    1PA     H4R14377   3.759   3.272   2.917
    1PA     H4S14378   3.606   3.287   2.829
    1PA     C1314379   3.776   3.306   2.711
    1PA     H3R14380   3.712   3.336   2.627
    1PA     H3S14381   3.864   3.368   2.698
    1PA     C1214382   3.805   3.156   2.702
    1PA     H2R14383   3.869   3.121   2.783
    1PA     H2S14384   3.711   3.102   2.713
    2PC     C1114385   3.859   3.120   2.566
    2PC     O1214386   3.884   3.200   2.478
    2PC     O1114387   3.868   2.987   2.553
    2PC      C114388   3.922   2.933   2.431
    2PC      HR14389   3.894   2.828   2.442
    2PC      HS14390   3.873   2.992   2.352
    2PC      C214391   4.073   2.952   2.417
    2PC      HX14392   4.097   3.059   2.418
    2PC      C314393   4.127   2.880   2.292
    2PC      HA14394   4.054   2.898   2.213
    2PC      HB14395   4.224   2.919   2.262
    2PC     O3114396   4.129   2.738   2.317
    2PC     P3114397   4.187   2.625   2.219
    2PC     O3214398   4.189   2.504   2.324
    2PC     C3114399   4.231   2.377   2.271
    2PC     H1A14400   4.154   2.319   2.221
    2PC     H1B14401   4.303   2.387   2.189
    2PC     C3214402   4.305   2.299   2.380
    2PC     H2A14403   4.243   2.297   2.470
    2PC     H2B14404   4.314   2.195   2.347
    2PC     N3114405   4.442   2.342   2.423
    2PC     C3314406   4.540   2.338   2.309
    2PC     H3A14407   4.498   2.399   2.229
    2PC     H3B14408   4.631   2.387   2.345
    2PC     H3C14409   4.553   2.236   2.275
    2PC     C3414410   4.452   2.473   2.494
    2PC     H4A14411   4.555   2.482   2.528
    2PC     H4B14412   4.435   2.546   2.414
    2PC     H4C14413   4.366   2.484   2.562
    2PC     C3514414   4.489   2.235   2.518
    2PC     H5A14415   4.598   2.246   2.521
    2PC     H5B14416   4.483   2.137   2.470
    2PC     H5C14417   4.441   2.245   2.615
    2PC     O3314418   4.082   2.605   2.116
    2PC     O3414419   4.322   2.654   2.165
    2PC     O2114420   4.130   2.892   2.535
    2PC     C2114421   4.257   2.913   2.574
    2PC     O2214422   4.335   2.982   2.511
    3OL     C1214423   4.302   2.825   2.687
    3OL     H2R14424   4.372   2.882   2.748
    3OL     H2S14425   4.354   2.737   2.649
    3OL     C1314426   4.186   2.789   2.781
    3OL     H3R14427   4.103   2.731   2.739
    3OL     H3S14428   4.153   2.881   2.828
    3OL     C1414429   4.239   2.706   2.898
    3OL     H4R14430   4.297   2.772   2.963
    3OL     H4S14431   4.295   2.618   2.866
    3OL     C1514432   4.125   2.653   2.985
    3OL     H5R14433   4.152   2.565   3.044
    3OL     H5S14434   4.040   2.623   2.923
    3OL     C1614435   4.076   2.754   3.090
    3OL     H6R14436   4.035   2.839   3.035
    3OL     H6S14437   4.160   2.800   3.141
    3OL     C1714438   3.961   2.706   3.180
    3OL     H7R14439   3.896   2.644   3.118
    3OL     H7S14440   3.892   2.786   3.209
    3OL     C1814441   4.011   2.620   3.296
    3OL     H8R14442   4.070   2.694   3.350
    3OL     H8S14443   4.074   2.544   3.250
    3OL     C1914444   3.912   2.564   3.395
    3OL     H9R14445   3.827   2.628   3.415
    3OL    C11014446   3.894   2.434   3.414
    3OL    H10R14447   3.801   2.402   3.460
    3OL    C11114448   3.994   2.325   3.384
    3OL    H11R14449   4.028   2.277   3.476
    3OL    H11S14450   4.086   2.367   3.345
    3OL    C11214451   3.952   2.223   3.276
    3OL    H12R14452   3.876   2.157   3.318
    3OL    H12S14453   4.036   2.160   3.248
    3OL    C11314454   3.888   2.284   3.151
    3OL    H13R14455   3.920   2.220   3.069
    3OL    H13S14456   3.929   2.386   3.144
    3OL    C11414457   3.735   2.290   3.162
    3OL    H14R14458   3.705   2.325   3.261
    3OL    H14S14459   3.688   2.193   3.149
    3OL    C11514460   3.671   2.389   3.064
    3OL    H15R14461   3.575   2.346   3.036
    3OL    H15S14462   3.721   2.398   2.967
    3OL    C11614463   3.635   2.528   3.119
    3OL    H16R14464   3.651   2.597   3.036
    3OL    H16S14465   3.705   2.560   3.196
    3OL    C11714466   3.489   2.548   3.162
    3OL    H17R14467   3.427   2.533   3.073
    3OL    H17S14468   3.474   2.651   3.194
    3OL    C11814469   3.447   2.444   3.267
    3OL    H18R14470   3.508   2.440   3.359
    3OL    H18S14471   3.457   2.349   3.214
    3OL    H18T14472   3.343   2.452   3.299
    1PA    C11614473   4.388   1.320   2.611
    1PA    H16R14474   4.325   1.232   2.630
    1PA    H16S14475   4.429   1.305   2.511
    1PA    H16T14476   4.321   1.406   2.610
    1PA    C11514477   4.497   1.345   2.716
    1PA    H15R14478   4.579   1.274   2.706
    1PA    H15S14479   4.530   1.449   2.714
    1PA    C11414480   4.437   1.316   2.855
    1PA    H14R14481   4.336   1.359   2.861
    1PA    H14S14482   4.420   1.209   2.869
    1PA    C11314483   4.522   1.374   2.968
    1PA    H13R14484   4.530   1.292   3.040
    1PA    H13S14485   4.626   1.395   2.941
    1PA    C11214486   4.465   1.502   3.032
    1PA    H12R14487   4.458   1.578   2.955
    1PA    H12S14488   4.365   1.473   3.064
    1PA    C11114489   4.550   1.557   3.148
    1PA    H11R14490   4.505   1.490   3.221
    1PA    H11S14491   4.651   1.527   3.122
    1PA    C11014492   4.530   1.705   3.182
    1PA    H10R14493   4.553   1.722   3.287
    1PA    H10S14494   4.601   1.756   3.116
    1PA     C1914495   4.386   1.755   3.161
    1PA     H9R14496   4.368   1.728   3.056
    1PA     H9S14497   4.310   1.700   3.217
    1PA     C1814498   4.363   1.905   3.181
    1PA     H8R14499   4.271   1.941   3.133
    1PA     H8S14500   4.348   1.913   3.289
    1PA     C1714501   4.479   1.994   3.136
    1PA     H7R14502   4.477   2.091   3.186
    1PA     H7S14503   4.573   1.953   3.173
    1PA     C1614504   4.491   2.015   2.984
    1PA     H6R14505   4.573   2.084   2.962
    1PA     H6S14506   4.506   1.924   2.927
    1PA     C1514507   4.368   2.075   2.914
    1PA     H5R14508   4.407   2.106   2.817
    1PA     H5S14509   4.299   1.991   2.913
    1PA     C1414510   4.307   2.198   2.983
    1PA     H4R14511   4.275   2.176   3.085
    1PA     H4S14512   4.381   2.277   2.972
    1PA     C1314513   4.182   2.256   2.915
    1PA     H3R14514   4.097   2.188   2.925
    1PA     H3S14515   4.152   2.349   2.964
    1PA     C1214516   4.192   2.286   2.765
    1PA     H2R14517   4.283   2.345   2.747
    1PA     H2S14518   4.209   2.198   2.703
    2PC     C1114519   4.068   2.356   2.716
    2PC     O1214520   3.955   2.340   2.758
    2PC     O1114521   4.098   2.453   2.628
    2PC      C114522   3.983   2.514   2.566
    2PC      HR14523   3.912   2.539   2.646
    2PC      HS14524   4.015   2.603   2.511
    2PC      C214525   3.916   2.430   2.457
    2PC      HX14526   3.991   2.379   2.395
    2PC      C314527   3.832   2.525   2.370
    2PC      HA14528   3.741   2.554   2.422
    2PC      HB14529   3.889   2.615   2.344
    2PC     O3114530   3.803   2.461   2.245
    2PC     P3114531   3.678   2.501   2.153
    2PC     O3214532   3.563   2.405   2.211
    2PC     C3114533   3.425   2.437   2.188
    2PC     H1A14534   3.402   2.534   2.232
    2PC     H1B14535   3.412   2.431   2.080
    2PC     C3214536   3.346   2.331   2.267
    2PC     H2A14537   3.364   2.230   2.230
    2PC     H2B14538   3.348   2.349   2.374
    2PC     N3114539   3.199   2.327   2.235
    2PC     C3314540   3.129   2.208   2.293
    2PC     H3A14541   3.159   2.114   2.246
    2PC     H3B14542   3.146   2.210   2.401
    2PC     H3C14543   3.023   2.229   2.280
    2PC     C3414544   3.148   2.454   2.296
    2PC     H4A14545   3.043   2.471   2.272
    2PC     H4B14546   3.162   2.444   2.404
    2PC     H4C14547   3.213   2.537   2.269
    2PC     C3514548   3.174   2.318   2.087
    2PC     H5A14549   3.246   2.247   2.047
    2PC     H5B14550   3.192   2.414   2.039
    2PC     H5C14551   3.072   2.284   2.067
    2PC     O3314552   3.641   2.640   2.188
    2PC     O3414553   3.706   2.468   2.011
    2PC     O2114554   3.840   2.321   2.511
    2PC     C2114555   3.891   2.198   2.527
    2PC     O2214556   4.007   2.171   2.502
    3OL     C1214557   3.792   2.109   2.597
    3OL     H2R14558   3.699   2.095   2.540
    3OL     H2S14559   3.750   2.155   2.687
    3OL     C1314560   3.855   1.973   2.631
    3OL     H3R14561   3.912   1.943   2.542
    3OL     H3S14562   3.779   1.900   2.662
    3OL     C1414563   3.945   1.983   2.754
    3OL     H4R14564   3.885   2.018   2.838
    3OL     H4S14565   4.027   2.055   2.743
    3OL     C1514566   3.995   1.848   2.806
    3OL     H5R14567   4.079   1.809   2.748
    3OL     H5S14568   3.919   1.770   2.809
    3OL     C1614569   4.038   1.861   2.953
    3OL     H6R14570   4.089   1.956   2.972
    3OL     H6S14571   4.110   1.782   2.974
    3OL     C1714572   3.918   1.850   3.048
    3OL     H7R14573   3.870   1.756   3.020
    3OL     H7S14574   3.840   1.925   3.028
    3OL     C1814575   3.963   1.856   3.194
    3OL     H8R14576   4.008   1.953   3.216
    3OL     H8S14577   4.034   1.774   3.204
    3OL     C1914578   3.852   1.829   3.293
    3OL     H9R14579   3.765   1.779   3.250
    3OL    C11014580   3.847   1.853   3.423
    3OL    H10R14581   3.760   1.819   3.478
    3OL    C11114582   3.953   1.930   3.497
    3OL    H11R14583   3.908   2.024   3.529
    3OL    H11S14584   4.027   1.962   3.424
    3OL    C11214585   4.007   1.847   3.615
    3OL    H12R14586   3.922   1.819   3.678
    3OL    H12S14587   4.082   1.898   3.676
    3OL    C11314588   4.059   1.715   3.556
    3OL    H13R14589   4.141   1.739   3.489
    3OL    H13S14590   3.988   1.646   3.510
    3OL    C11414591   4.124   1.630   3.666
    3OL    H14R14592   4.039   1.608   3.732
    3OL    H14S14593   4.184   1.695   3.730
    3OL    C11514594   4.206   1.514   3.607
    3OL    H15R14595   4.241   1.453   3.690
    3OL    H15S14596   4.297   1.552   3.561
    3OL    C11614597   4.128   1.416   3.518
    3OL    H16R14598   4.082   1.465   3.432
    3OL    H16S14599   4.049   1.369   3.577
    3OL    C11714600   4.215   1.303   3.461
    3OL    H17R14601   4.151   1.227   3.416
    3OL    H17S14602   4.269   1.242   3.534
    3OL    C11814603   4.304   1.350   3.346
    3OL    H18R14604   4.348   1.271   3.285
    3OL    H18S14605   4.378   1.422   3.381
    3OL    H18T14606   4.244   1.401   3.270
    1PA    C11614607   1.545   1.157   3.865
    1PA    H16R14608   1.470   1.144   3.944
    1PA    H16S14609   1.641   1.172   3.914
    1PA    H16T14610   1.543   1.067   3.804
    1PA    C11514611   1.519   1.282   3.779
    1PA    H15R14612   1.515   1.368   3.846
    1PA    H15S14613   1.605   1.287   3.712
    1PA    C11414614   1.380   1.266   3.718
    1PA    H14R14615   1.384   1.181   3.649
    1PA    H14S14616   1.309   1.242   3.798
    1PA    C11314617   1.339   1.393   3.642
    1PA    H13R14618   1.236   1.374   3.612
    1PA    H13S14619   1.341   1.468   3.722
    1PA    C11214620   1.441   1.419   3.531
    1PA    H12R14621   1.539   1.443   3.573
    1PA    H12S14622   1.454   1.346   3.450
    1PA    C11114623   1.391   1.546   3.460
    1PA    H11R14624   1.289   1.526   3.429
    1PA    H11S14625   1.381   1.629   3.530
    1PA    C11014626   1.485   1.589   3.347
    1PA    H10R14627   1.487   1.697   3.331
    1PA    H10S14628   1.589   1.564   3.368
    1PA     C1914629   1.437   1.527   3.214
    1PA     H9R14630   1.437   1.420   3.231
    1PA     H9S14631   1.341   1.559   3.174
    1PA     C1814632   1.540   1.553   3.103
    1PA     H8R14633   1.572   1.656   3.086
    1PA     H8S14634   1.632   1.501   3.128
    1PA     C1714635   1.488   1.502   2.968
    1PA     H7R14636   1.578   1.490   2.908
    1PA     H7S14637   1.437   1.405   2.972
    1PA     C1614638   1.391   1.607   2.911
    1PA     H6R14639   1.291   1.606   2.953
    1PA     H6S14640   1.423   1.711   2.927
    1PA     C1514641   1.388   1.602   2.758
    1PA     H5R14642   1.492   1.619   2.729
    1PA     H5S14643   1.360   1.501   2.728
    1PA     C1414644   1.302   1.707   2.687
    1PA     H4R14645   1.197   1.697   2.717
    1PA     H4S14646   1.334   1.811   2.688
    1PA     C1314647   1.308   1.675   2.537
    1PA     H3R14648   1.411   1.655   2.507
    1PA     H3S14649   1.261   1.578   2.527
    1PA     C1214650   1.238   1.791   2.464
    1PA     H2R14651   1.137   1.792   2.505
    1PA     H2S14652   1.284   1.887   2.485
    2PC     C1114653   1.246   1.781   2.313
    2PC     O1214654   1.320   1.849   2.245
    2PC     O1114655   1.161   1.689   2.265
    2PC      C114656   1.183   1.629   2.135
    2PC      HR14657   1.096   1.567   2.112
    2PC      HS14658   1.191   1.704   2.057
    2PC      C214659   1.314   1.550   2.150
    2PC      HX14660   1.397   1.608   2.190
    2PC      C314661   1.365   1.496   2.016
    2PC      HA14662   1.389   1.575   1.943
    2PC      HB14663   1.457   1.438   2.025
    2PC     O3114664   1.271   1.414   1.946
    2PC     P3114665   1.295   1.320   1.818
    2PC     O3214666   1.149   1.258   1.798
    2PC     C3114667   1.091   1.181   1.905
    2PC     H1A14668   1.166   1.127   1.963
    2PC     H1B14669   1.035   1.244   1.975
    2PC     C3214670   0.988   1.085   1.846
    2PC     H2A14671   0.946   1.030   1.931
    2PC     H2B14672   0.915   1.150   1.799
    2PC     N3114673   1.026   0.980   1.745
    2PC     C3314674   0.911   0.890   1.713
    2PC     H3A14675   0.845   0.960   1.661
    2PC     H3B14676   0.943   0.806   1.653
    2PC     H3C14677   0.863   0.858   1.806
    2PC     C3414678   1.061   1.039   1.612
    2PC     H4A14679   0.984   1.105   1.574
    2PC     H4B14680   1.148   1.103   1.623
    2PC     H4C14681   1.081   0.954   1.545
    2PC     C3514682   1.143   0.899   1.793
    2PC     H5A14683   1.234   0.958   1.800
    2PC     H5B14684   1.157   0.821   1.718
    2PC     H5C14685   1.113   0.850   1.886
    2PC     O3314686   1.356   1.378   1.696
    2PC     O3414687   1.393   1.215   1.855
    2PC     O2114688   1.290   1.440   2.240
    2PC     C2114689   1.401   1.378   2.283
    2PC     O2214690   1.514   1.410   2.253
    3OL     C1214691   1.378   1.257   2.371
    3OL     H2R14692   1.448   1.176   2.351
    3OL     H2S14693   1.286   1.206   2.344
    3OL     C1314694   1.359   1.294   2.519
    3OL     H3R14695   1.291   1.378   2.533
    3OL     H3S14696   1.452   1.323   2.569
    3OL     C1414697   1.300   1.176   2.597
    3OL     H4R14698   1.355   1.081   2.589
    3OL     H4S14699   1.205   1.160   2.544
    3OL     C1514700   1.270   1.207   2.744
    3OL     H5R14701   1.182   1.271   2.734
    3OL     H5S14702   1.345   1.262   2.800
    3OL     C1614703   1.229   1.082   2.824
    3OL     H6R14704   1.311   1.010   2.818
    3OL     H6S14705   1.139   1.039   2.779
    3OL     C1714706   1.213   1.108   2.974
    3OL     H7R14707   1.122   1.167   2.988
    3OL     H7S14708   1.296   1.167   3.013
    3OL     C1814709   1.195   0.982   3.059
    3OL     H8R14710   1.178   1.020   3.160
    3OL     H8S14711   1.287   0.923   3.061
    3OL     C1914712   1.086   0.891   3.010
    3OL     H9R14713   1.021   0.927   2.930
    3OL    C11014714   1.052   0.770   3.052
    3OL    H10R14715   0.969   0.728   2.996
    3OL    C11114716   1.116   0.692   3.165
    3OL    H11R14717   1.176   0.760   3.225
    3OL    H11S14718   1.172   0.609   3.121
    3OL    C11214719   1.009   0.632   3.256
    3OL    H12R14720   0.918   0.622   3.196
    3OL    H12S14721   0.984   0.712   3.326
    3OL    C11314722   1.058   0.509   3.334
    3OL    H13R14723   1.126   0.451   3.272
    3OL    H13S14724   0.967   0.452   3.355
    3OL    C11414725   1.133   0.538   3.465
    3OL    H14R14726   1.080   0.601   3.537
    3OL    H14S14727   1.221   0.588   3.425
    3OL    C11514728   1.201   0.413   3.522
    3OL    H15R14729   1.285   0.441   3.587
    3OL    H15S14730   1.245   0.354   3.441
    3OL    C11614731   1.111   0.337   3.620
    3OL    H16R14732   1.020   0.296   3.576
    3OL    H16S14733   1.070   0.409   3.691
    3OL    C11714734   1.192   0.228   3.692
    3OL    H17R14735   1.265   0.278   3.756
    3OL    H17S14736   1.235   0.156   3.622
    3OL    C11814737   1.096   0.155   3.787
    3OL    H18R14738   1.046   0.216   3.862
    3OL    H18S14739   1.164   0.082   3.831
    3OL    H18T14740   1.021   0.100   3.729
    1PA    C11614741   3.063   1.767   3.607
    1PA    H16R14742   3.039   1.669   3.565
    1PA    H16S14743   3.025   1.844   3.539
    1PA    H16T14744   3.018   1.773   3.706
    1PA    C11514745   3.214   1.792   3.603
    1PA    H15R14746   3.258   1.784   3.503
    1PA    H15S14747   3.237   1.890   3.646
    1PA    C11414748   3.290   1.681   3.678
    1PA    H14R14749   3.247   1.654   3.775
    1PA    H14S14750   3.279   1.588   3.621
    1PA    C11314751   3.442   1.689   3.663
    1PA    H13R14752   3.461   1.685   3.556
    1PA    H13S14753   3.478   1.781   3.710
    1PA    C11214754   3.509   1.564   3.720
    1PA    H12R14755   3.470   1.544   3.820
    1PA    H12S14756   3.476   1.484   3.654
    1PA    C11114757   3.663   1.560   3.715
    1PA    H11R14758   3.705   1.657   3.690
    1PA    H11S14759   3.706   1.539   3.813
    1PA    C11014760   3.714   1.447   3.624
    1PA    H10R14761   3.817   1.436   3.659
    1PA    H10S14762   3.669   1.351   3.648
    1PA     C1914763   3.710   1.483   3.475
    1PA     H9R14764   3.608   1.493   3.439
    1PA     H9S14765   3.756   1.580   3.455
    1PA     C1814766   3.780   1.377   3.388
    1PA     H8R14767   3.879   1.369   3.434
    1PA     H8S14768   3.724   1.284   3.398
    1PA     C1714769   3.782   1.417   3.240
    1PA     H7R14770   3.697   1.377   3.186
    1PA     H7S14771   3.796   1.525   3.227
    1PA     C1614772   3.911   1.360   3.181
    1PA     H6R14773   3.996   1.416   3.222
    1PA     H6S14774   3.932   1.257   3.211
    1PA     C1514775   3.898   1.371   3.028
    1PA     H5R14776   3.808   1.320   2.994
    1PA     H5S14777   3.885   1.474   2.995
    1PA     C1414778   4.023   1.306   2.969
    1PA     H4R14779   4.108   1.352   3.020
    1PA     H4S14780   4.015   1.200   2.994
    1PA     C1314781   4.026   1.324   2.816
    1PA     H3R14782   4.073   1.232   2.780
    1PA     H3S14783   3.923   1.316   2.781
    1PA     C1214784   4.082   1.458   2.769
    1PA     H2R14785   4.024   1.540   2.811
    1PA     H2S14786   4.186   1.481   2.793
    2PC     C1114787   4.064   1.470   2.620
    2PC     O1214788   4.051   1.374   2.546
    2PC     O1114789   4.063   1.602   2.593
    2PC      C114790   4.057   1.640   2.454
    2PC      HR14791   3.990   1.569   2.406
    2PC      HS14792   4.024   1.744   2.443
    2PC      C214793   4.189   1.633   2.376
    2PC      HX14794   4.176   1.696   2.287
    2PC      C314795   4.240   1.499   2.321
    2PC      HA14796   4.305   1.470   2.404
    2PC      HB14797   4.165   1.427   2.287
    2PC     O3114798   4.320   1.523   2.204
    2PC     P3114799   4.408   1.398   2.155
    2PC     O3214800   4.508   1.387   2.280
    2PC     C3114801   4.644   1.346   2.256
    2PC     H1A14802   4.644   1.238   2.238
    2PC     H1B14803   4.681   1.399   2.168
    2PC     C3214804   4.736   1.356   2.378
    2PC     H2A14805   4.672   1.334   2.464
    2PC     H2B14806   4.820   1.287   2.369
    2PC     N3114807   4.794   1.493   2.400
    2PC     C3314808   4.892   1.487   2.514
    2PC     H3A14809   4.945   1.582   2.520
    2PC     H3B14810   4.835   1.458   2.602
    2PC     H3C14811   4.967   1.414   2.483
    2PC     C3414812   4.869   1.549   2.283
    2PC     H4A14813   4.897   1.653   2.302
    2PC     H4B14814   4.958   1.488   2.271
    2PC     H4C14815   4.802   1.545   2.197
    2PC     C3514816   4.685   1.588   2.439
    2PC     H5A14817   4.726   1.689   2.445
    2PC     H5B14818   4.645   1.560   2.537
    2PC     H5C14819   4.607   1.582   2.363
    2PC     O3314820   4.339   1.268   2.137
    2PC     O3414821   4.460   1.442   2.024
    2PC     O2114822   4.290   1.700   2.452
    2PC     C2114823   4.294   1.832   2.479
    2PC     O2214824   4.199   1.906   2.469
    3OL     C1214825   4.435   1.864   2.523
    3OL     H2R14826   4.448   1.968   2.551
    3OL     H2S14827   4.503   1.838   2.442
    3OL     C1314828   4.474   1.778   2.644
    3OL     H3R14829   4.481   1.673   2.614
    3OL     H3S14830   4.391   1.789   2.715
    3OL     C1414831   4.611   1.823   2.695
    3OL     H4R14832   4.614   1.924   2.736
    3OL     H4S14833   4.685   1.808   2.616
    3OL     C1514834   4.673   1.731   2.802
    3OL     H5R14835   4.670   1.628   2.768
    3OL     H5S14836   4.611   1.738   2.892
    3OL     C1614837   4.819   1.768   2.830
    3OL     H6R14838   4.831   1.876   2.842
    3OL     H6S14839   4.882   1.730   2.749
    3OL     C1714840   4.878   1.697   2.953
    3OL     H7R14841   4.877   1.590   2.931
    3OL     H7S14842   4.803   1.707   3.031
    3OL     C1814843   5.011   1.764   2.991
    3OL     H8R14844   5.012   1.873   2.989
    3OL     H8S14845   5.092   1.737   2.924
    3OL     C1914846   5.048   1.717   3.130
    3OL     H9R14847   5.088   1.616   3.134
    3OL    C11014848   5.051   1.794   3.237
    3OL    H10R14849   5.077   1.748   3.332
    3OL    C11114850   4.967   1.917   3.262
    3OL    H11R14851   4.924   1.945   3.165
    3OL    H11S14852   5.030   2.002   3.287
    3OL    C11214853   4.855   1.897   3.364
    3OL    H12R14854   4.883   1.849   3.458
    3OL    H12S14855   4.788   1.838   3.301
    3OL    C11314856   4.787   2.033   3.382
    3OL    H13R14857   4.750   2.056   3.282
    3OL    H13S14858   4.861   2.105   3.419
    3OL    C11414859   4.671   2.018   3.482
    3OL    H14R14860   4.700   1.985   3.582
    3OL    H14S14861   4.597   1.949   3.441
    3OL    C11514862   4.615   2.159   3.503
    3OL    H15R14863   4.569   2.177   3.406
    3OL    H15S14864   4.690   2.236   3.524
    3OL    C11614865   4.515   2.162   3.620
    3OL    H16R14866   4.470   2.261   3.629
    3OL    H16S14867   4.573   2.136   3.709
    3OL    C11714868   4.399   2.063   3.612
    3OL    H17R14869   4.333   2.063   3.699
    3OL    H17S14870   4.440   1.964   3.590
    3OL    C11814871   4.310   2.096   3.491
    3OL    H18R14872   4.278   2.200   3.498
    3OL    H18S14873   4.223   2.031   3.476
    3OL    H18T14874   4.356   2.086   3.393
    1PA    C11614875   2.403   0.150   3.966
    1PA    H16R14876   2.407   0.103   4.065
    1PA    H16S14877   2.378   0.071   3.895
    1PA    H16T14878   2.329   0.230   3.964
    1PA    C11514879   2.544   0.201   3.932
    1PA    H15R14880   2.573   0.284   3.996
    1PA    H15S14881   2.618   0.121   3.936
    1PA    C11414882   2.558   0.240   3.784
    1PA    H14R14883   2.602   0.152   3.737
    1PA    H14S14884   2.462   0.267   3.740
    1PA    C11314885   2.646   0.365   3.765
    1PA    H13R14886   2.601   0.446   3.823
    1PA    H13S14887   2.745   0.351   3.809
    1PA    C11214888   2.663   0.386   3.613
    1PA    H12R14889   2.697   0.294   3.566
    1PA    H12S14890   2.562   0.403   3.575
    1PA    C11114891   2.770   0.494   3.595
    1PA    H11R14892   2.734   0.592   3.629
    1PA    H11S14893   2.852   0.459   3.659
    1PA    C11014894   2.822   0.506   3.451
    1PA    H10R14895   2.867   0.410   3.426
    1PA    H10S14896   2.736   0.526   3.387
    1PA     C1914897   2.916   0.627   3.443
    1PA     H9R14898   2.991   0.625   3.523
    1PA     H9S14899   2.868   0.723   3.455
    1PA     C1814900   2.991   0.621   3.309
    1PA     H8R14901   3.062   0.704   3.300
    1PA     H8S14902   3.057   0.534   3.312
    1PA     C1714903   2.902   0.621   3.183
    1PA     H7R14904   2.835   0.535   3.186
    1PA     H7S14905   2.841   0.710   3.172
    1PA     C1614906   3.005   0.598   3.072
    1PA     H6R14907   3.062   0.689   3.054
    1PA     H6S14908   3.084   0.525   3.093
    1PA     C1514909   2.934   0.552   2.944
    1PA     H5R14910   2.858   0.476   2.962
    1PA     H5S14911   2.883   0.630   2.887
    1PA     C1414912   3.047   0.502   2.852
    1PA     H4R14913   3.147   0.541   2.870
    1PA     H4S14914   3.056   0.394   2.861
    1PA     C1314915   3.012   0.523   2.704
    1PA     H3R14916   2.995   0.630   2.686
    1PA     H3S14917   3.098   0.511   2.638
    1PA     C1214918   2.901   0.431   2.652
    1PA     H2R14919   2.930   0.326   2.661
    1PA     H2S14920   2.805   0.456   2.697
    2PC     C1114921   2.893   0.442   2.501
    2PC     O1214922   2.871   0.351   2.425
    2PC     O1114923   2.908   0.568   2.457
    2PC      C114924   2.893   0.588   2.315
    2PC      HR14925   2.935   0.684   2.282
    2PC      HS14926   2.954   0.511   2.267
    2PC      C214927   2.746   0.582   2.271
    2PC      HX14928   2.708   0.479   2.266
    2PC      C314929   2.722   0.667   2.146
    2PC      HA14930   2.802   0.660   2.072
    2PC      HB14931   2.631   0.631   2.096
    2PC     O3114932   2.704   0.803   2.189
    2PC     P3114933   2.655   0.922   2.094
    2PC     O3214934   2.795   0.937   2.017
    2PC     C3114935   2.806   1.020   1.900
    2PC     H1A14936   2.732   0.986   1.827
    2PC     H1B14937   2.778   1.122   1.926
    2PC     C3214938   2.944   1.021   1.833
    2PC     H2A14939   2.961   0.928   1.777
    2PC     H2B14940   2.958   1.099   1.758
    2PC     N3114941   3.066   1.023   1.920
    2PC     C3314942   3.065   1.130   2.025
    2PC     H3A14943   3.102   1.226   1.990
    2PC     H3B14944   2.964   1.137   2.066
    2PC     H3C14945   3.133   1.103   2.106
    2PC     C3414946   3.084   0.887   1.982
    2PC     H4A14947   2.996   0.871   2.045
    2PC     H4B14948   3.091   0.819   1.897
    2PC     H4C14949   3.176   0.898   2.039
    2PC     C3514950   3.181   1.046   1.826
    2PC     H5A14951   3.162   0.992   1.733
    2PC     H5B14952   3.268   1.003   1.875
    2PC     H5C14953   3.188   1.153   1.809
    2PC     O3314954   2.556   0.893   1.988
    2PC     O3414955   2.622   1.039   2.178
    2PC     O2114956   2.671   0.650   2.373
    2PC     C2114957   2.540   0.630   2.392
    2PC     O2214958   2.463   0.566   2.323
    3OL     C1214959   2.483   0.694   2.516
    3OL     H2R14960   2.375   0.706   2.510
    3OL     H2S14961   2.518   0.798   2.516
    3OL     C1314962   2.532   0.634   2.648
    3OL     H3R14963   2.631   0.679   2.662
    3OL     H3S14964   2.536   0.525   2.652
    3OL     C1414965   2.447   0.682   2.767
    3OL     H4R14966   2.342   0.654   2.768
    3OL     H4S14967   2.447   0.791   2.756
    3OL     C1514968   2.520   0.650   2.898
    3OL     H5R14969   2.605   0.717   2.906
    3OL     H5S14970   2.558   0.548   2.890
    3OL     C1614971   2.434   0.674   3.023
    3OL     H6R14972   2.350   0.604   3.027
    3OL     H6S14973   2.389   0.773   3.013
    3OL     C1714974   2.512   0.660   3.155
    3OL     H7R14975   2.596   0.729   3.153
    3OL     H7S14976   2.549   0.558   3.150
    3OL     C1814977   2.435   0.675   3.287
    3OL     H8R14978   2.391   0.579   3.316
    3OL     H8S14979   2.358   0.752   3.280
    3OL     C1914980   2.528   0.722   3.395
    3OL     H9R14981   2.632   0.693   3.378
    3OL    C11014982   2.494   0.787   3.505
    3OL    H10R14983   2.568   0.818   3.579
    3OL    C11114984   2.354   0.827   3.545
    3OL    H11R14985   2.276   0.806   3.472
    3OL    H11S14986   2.340   0.934   3.561
    3OL    C11214987   2.318   0.768   3.682
    3OL    H12R14988   2.222   0.811   3.710
    3OL    H12S14989   2.390   0.797   3.758
    3OL    C11314990   2.310   0.614   3.682
    3OL    H13R14991   2.407   0.564   3.674
    3OL    H13S14992   2.248   0.595   3.595
    3OL    C11414993   2.231   0.568   3.806
    3OL    H14R14994   2.213   0.461   3.793
    3OL    H14S14995   2.134   0.616   3.820
    3OL    C11514996   2.306   0.587   3.938
    3OL    H15R14997   2.321   0.694   3.954
    3OL    H15S14998   2.403   0.541   3.916
    3OL    C11614999   2.245   0.520   4.062
    3OL    H16R15000   2.219   0.414   4.047
    3OL    H16S15001   2.148   0.563   4.089
    3OL    C11715002   2.335   0.539   4.185
    3OL    H17R15003   2.291   0.513   4.281
    3OL    H17S15004   2.367   0.641   4.206
    3OL    C11815005   2.462   0.454   4.174
    3OL    H18R15006   2.436   0.348   4.171
    3OL    H18S15007   2.512   0.474   4.269
    3OL    H18T15008   2.533   0.478   4.094
    1PA    C11615009   1.497   0.243   3.986
    1PA    H16R15010   1.391   0.217   3.986
    1PA    H16S15011   1.511   0.320   4.062
    1PA    H16T15012   1.558   0.160   4.022
    1PA    C11515013   1.524   0.298   3.845
    1PA    H15R15014   1.439   0.360   3.815
    1PA    H15S15015   1.610   0.365   3.849
    1PA    C11415016   1.561   0.191   3.742
    1PA    H14R15017   1.650   0.138   3.779
    1PA    H14S15018   1.479   0.120   3.738
    1PA    C11315019   1.594   0.242   3.601
    1PA    H13R15020   1.515   0.311   3.571
    1PA    H13S15021   1.692   0.290   3.602
    1PA    C11215022   1.606   0.124   3.504
    1PA    H12R15023   1.685   0.057   3.541
    1PA    H12S15024   1.508   0.078   3.512
    1PA    C11115025   1.636   0.174   3.362
    1PA    H11R15026   1.740   0.207   3.359
    1PA    H11S15027   1.627   0.087   3.297
    1PA    C11015028   1.557   0.291   3.303
    1PA    H10R15029   1.452   0.263   3.316
    1PA    H10S15030   1.571   0.375   3.371
    1PA     C1915031   1.590   0.319   3.155
    1PA     H9R15032   1.681   0.376   3.140
    1PA     H9S15033   1.597   0.233   3.087
    1PA     C1815034   1.489   0.421   3.100
    1PA     H8R15035   1.390   0.376   3.112
    1PA     H8S15036   1.487   0.507   3.166
    1PA     C1715037   1.502   0.467   2.954
    1PA     H7R15038   1.595   0.523   2.944
    1PA     H7S15039   1.503   0.380   2.888
    1PA     C1615040   1.377   0.553   2.931
    1PA     H6R15041   1.283   0.497   2.919
    1PA     H6S15042   1.367   0.622   3.015
    1PA     C1515043   1.390   0.634   2.801
    1PA     H5R15044   1.408   0.567   2.717
    1PA     H5S15045   1.297   0.687   2.777
    1PA     C1415046   1.510   0.730   2.803
    1PA     H4R15047   1.514   0.778   2.901
    1PA     H4S15048   1.608   0.681   2.804
    1PA     C1315049   1.504   0.825   2.682
    1PA     H3R15050   1.403   0.865   2.667
    1PA     H3S15051   1.579   0.902   2.699
    1PA     C1215052   1.552   0.749   2.558
    1PA     H2R15053   1.647   0.697   2.567
    1PA     H2S15054   1.480   0.669   2.538
    2PC     C1115055   1.553   0.837   2.435
    2PC     O1215056   1.461   0.915   2.426
    2PC     O1115057   1.651   0.812   2.346
    2PC      C115058   1.651   0.877   2.218
    2PC      HR15059   1.555   0.847   2.174
    2PC      HS15060   1.652   0.985   2.236
    2PC      C215061   1.767   0.836   2.127
    2PC      HX15062   1.773   0.896   2.035
    2PC      C315063   1.765   0.686   2.096
    2PC      HA15064   1.842   0.663   2.023
    2PC      HB15065   1.791   0.636   2.190
    2PC     O3115066   1.638   0.643   2.045
    2PC     P3115067   1.593   0.704   1.904
    2PC     O3215068   1.695   0.639   1.799
    2PC     C3115069   1.671   0.502   1.763
    2PC     H1A15070   1.727   0.433   1.826
    2PC     H1B15071   1.564   0.480   1.769
    2PC     C3215072   1.717   0.485   1.617
    2PC     H2A15073   1.699   0.384   1.581
    2PC     H2B15074   1.663   0.550   1.548
    2PC     N3115075   1.862   0.506   1.585
    2PC     C3315076   1.896   0.652   1.594
    2PC     H3A15077   2.000   0.657   1.561
    2PC     H3B15078   1.833   0.718   1.534
    2PC     H3C15079   1.880   0.678   1.698
    2PC     C3415080   1.952   0.432   1.679
    2PC     H4A15081   1.932   0.463   1.782
    2PC     H4B15082   1.928   0.326   1.669
    2PC     H4C15083   2.056   0.455   1.659
    2PC     C3515084   1.879   0.464   1.442
    2PC     H5A15085   1.981   0.484   1.409
    2PC     H5B15086   1.802   0.513   1.383
    2PC     H5C15087   1.858   0.357   1.437
    2PC     O3315088   1.450   0.688   1.871
    2PC     O3415089   1.588   0.852   1.897
    2PC     O2115090   1.892   0.858   2.196
    2PC     C2115091   1.927   0.982   2.234
    2PC     O2215092   1.878   1.086   2.197
    3OL     C1215093   2.052   0.973   2.318
    3OL     H2R15094   2.061   1.068   2.372
    3OL     H2S15095   2.128   0.963   2.240
    3OL     C1315096   2.069   0.861   2.421
    3OL     H3R15097   2.163   0.870   2.477
    3OL     H3S15098   2.070   0.762   2.375
    3OL     C1415099   1.956   0.866   2.525
    3OL     H4R15100   1.860   0.858   2.472
    3OL     H4S15101   1.948   0.968   2.563
    3OL     C1515102   1.954   0.770   2.644
    3OL     H5R15103   1.946   0.668   2.606
    3OL     H5S15104   1.857   0.790   2.690
    3OL     C1615105   2.069   0.778   2.746
    3OL     H6R15106   2.049   0.872   2.799
    3OL     H6S15107   2.159   0.786   2.685
    3OL     C1715108   2.077   0.655   2.836
    3OL     H7R15109   2.169   0.659   2.896
    3OL     H7S15110   2.084   0.560   2.783
    3OL     C1815111   1.966   0.639   2.941
    3OL     H8R15112   1.956   0.533   2.964
    3OL     H8S15113   1.872   0.680   2.902
    3OL     C1915114   1.997   0.726   3.061
    3OL     H9R15115   2.015   0.831   3.041
    3OL    C11015116   1.999   0.683   3.186
    3OL    H10R15117   2.001   0.753   3.269
    3OL    C11115118   1.970   0.540   3.224
    3OL    H11R15119   2.032   0.476   3.161
    3OL    H11S15120   1.866   0.519   3.197
    3OL    C11215121   2.003   0.522   3.373
    3OL    H12R15122   1.927   0.582   3.423
    3OL    H12S15123   2.101   0.562   3.398
    3OL    C11315124   1.979   0.376   3.414
    3OL    H13R15125   2.034   0.307   3.349
    3OL    H13S15126   1.871   0.361   3.407
    3OL    C11415127   2.028   0.360   3.559
    3OL    H14R15128   1.955   0.421   3.612
    3OL    H14S15129   2.128   0.400   3.579
    3OL    C11515130   2.011   0.217   3.611
    3OL    H15R15131   2.094   0.164   3.565
    3OL    H15S15132   1.914   0.187   3.571
    3OL    C11615133   2.029   0.220   3.763
    3OL    H16R15134   1.971   0.306   3.798
    3OL    H16S15135   2.134   0.240   3.788
    3OL    C11715136   1.979   0.088   3.823
    3OL    H17R15137   2.053   0.013   3.792
    3OL    H17S15138   1.880   0.061   3.785
    3OL    C11815139   1.978   0.090   3.976
    3OL    H18R15140   2.000  -0.008   4.021
    3OL    H18S15141   1.892   0.139   4.023
    3OL    H18T15142   2.064   0.148   4.013
    1PA    C11615143   4.685   4.372   4.458
    1PA    H16R15144   4.770   4.420   4.506
    1PA    H16S15145   4.702   4.264   4.466
    1PA    H16T15146   4.590   4.403   4.502
    1PA    C11515147   4.695   4.408   4.309
    1PA    H15R15148   4.701   4.515   4.289
    1PA    H15S15149   4.788   4.364   4.272
    1PA    C11415150   4.573   4.363   4.227
    1PA    H14R15151   4.569   4.254   4.223
    1PA    H14S15152   4.486   4.380   4.291
    1PA    C11315153   4.548   4.431   4.092
    1PA    H13R15154   4.456   4.391   4.049
    1PA    H13S15155   4.530   4.538   4.106
    1PA    C11215156   4.662   4.410   3.992
    1PA    H12R15157   4.752   4.462   4.028
    1PA    H12S15158   4.682   4.304   3.979
    1PA    C11115159   4.645   4.486   3.860
    1PA    H11R15160   4.582   4.574   3.865
    1PA    H11S15161   4.743   4.511   3.819
    1PA    C11015162   4.569   4.409   3.750
    1PA    H10R15163   4.478   4.364   3.789
    1PA    H10S15164   4.532   4.478   3.675
    1PA     C1915165   4.643   4.304   3.666
    1PA     H9R15166   4.716   4.354   3.602
    1PA     H9S15167   4.689   4.226   3.727
    1PA     C1815168   4.541   4.225   3.582
    1PA     H8R15169   4.496   4.162   3.659
    1PA     H8S15170   4.468   4.286   3.528
    1PA     C1715171   4.602   4.141   3.470
    1PA     H7R15172   4.657   4.197   3.394
    1PA     H7S15173   4.678   4.073   3.511
    1PA     C1615174   4.487   4.060   3.408
    1PA     H6R15175   4.510   3.959   3.374
    1PA     H6S15176   4.404   4.051   3.479
    1PA     C1515177   4.419   4.151   3.305
    1PA     H5R15178   4.314   4.122   3.298
    1PA     H5S15179   4.425   4.256   3.336
    1PA     C1415180   4.472   4.138   3.161
    1PA     H4R15181   4.576   4.171   3.169
    1PA     H4S15182   4.470   4.031   3.138
    1PA     C1315183   4.383   4.222   3.068
    1PA     H3R15184   4.278   4.195   3.083
    1PA     H3S15185   4.399   4.327   3.094
    1PA     C1215186   4.415   4.204   2.919
    1PA     H2R15187   4.522   4.224   2.906
    1PA     H2S15188   4.392   4.100   2.897
    2PC     C1115189   4.331   4.300   2.838
    2PC     O1215190   4.210   4.309   2.843
    2PC     O1115191   4.417   4.378   2.770
    2PC      C115192   4.366   4.496   2.705
    2PC      HR15193   4.308   4.455   2.622
    2PC      HS15194   4.302   4.556   2.770
    2PC      C215195   4.490   4.575   2.659
    2PC      HX15196   4.450   4.660   2.603
    2PC      C315197   4.570   4.484   2.566
    2PC      HA15198   4.589   4.386   2.612
    2PC      HB15199   4.511   4.482   2.474
    2PC     O3115200   4.695   4.552   2.543
    2PC     P3115201   4.795   4.495   2.432
    2PC     O3215202   4.733   4.573   2.307
    2PC     C3115203   4.810   4.565   2.185
    2PC     H1A15204   4.913   4.599   2.197
    2PC     H1B15205   4.812   4.462   2.147
    2PC     C3215206   4.741   4.654   2.080
    2PC     H2A15207   4.718   4.751   2.124
    2PC     H2B15208   4.812   4.670   1.999
    2PC     N3115209   4.617   4.608   2.010
    2PC     C3315210   4.502   4.582   2.103
    2PC     H3A15211   4.419   4.545   2.044
    2PC     H3B15212   4.536   4.513   2.181
    2PC     H3C15213   4.471   4.675   2.151
    2PC     C3415214   4.570   4.710   1.911
    2PC     H4A15215   4.570   4.804   1.966
    2PC     H4B15216   4.637   4.709   1.824
    2PC     H4C15217   4.470   4.682   1.877
    2PC     C3515218   4.656   4.480   1.943
    2PC     H5A15219   4.562   4.449   1.897
    2PC     H5B15220   4.692   4.408   2.016
    2PC     H5C15221   4.740   4.489   1.874
    2PC     O3315222   4.936   4.531   2.457
    2PC     O3415223   4.785   4.350   2.401
    2PC     O2115224   4.564   4.614   2.776
    2PC     C2115225   4.510   4.711   2.851
    2PC     O2215226   4.418   4.782   2.815
    3OL     C1215227   4.584   4.723   2.982
    3OL     H2R15228   4.522   4.794   3.037
    3OL     H2S15229   4.686   4.761   2.969
    3OL     C1315230   4.575   4.593   3.063
    3OL     H3R15231   4.622   4.508   3.013
    3OL     H3S15232   4.471   4.561   3.076
    3OL     C1415233   4.644   4.601   3.200
    3OL     H4R15234   4.581   4.653   3.272
    3OL     H4S15235   4.742   4.650   3.202
    3OL     C1515236   4.660   4.464   3.268
    3OL     H5R15237   4.570   4.405   3.248
    3OL     H5S15238   4.658   4.494   3.373
    3OL     C1615239   4.786   4.383   3.235
    3OL     H6R15240   4.823   4.397   3.133
    3OL     H6S15241   4.758   4.277   3.237
    3OL     C1715242   4.903   4.404   3.331
    3OL     H7R15243   4.860   4.409   3.431
    3OL     H7S15244   4.945   4.502   3.309
    3OL     C1815245   5.016   4.299   3.329
    3OL     H8R15246   5.091   4.331   3.402
    3OL     H8S15247   5.060   4.308   3.230
    3OL     C1915248   4.973   4.159   3.367
    3OL     H9R15249   4.909   4.112   3.293
    3OL    C11015250   4.994   4.084   3.475
    3OL    H10R15251   4.959   3.981   3.485
    3OL    C11115252   5.087   4.123   3.586
    3OL    H11R15253   5.186   4.146   3.547
    3OL    H11S15254   5.101   4.033   3.647
    3OL    C11215255   5.035   4.242   3.668
    3OL    H12R15256   4.940   4.208   3.712
    3OL    H12S15257   5.005   4.323   3.601
    3OL    C11315258   5.131   4.281   3.780
    3OL    H13R15259   5.220   4.324   3.733
    3OL    H13S15260   5.171   4.193   3.831
    3OL    C11415261   5.067   4.380   3.879
    3OL    H14R15262   5.127   4.376   3.970
    3OL    H14S15263   4.962   4.353   3.897
    3OL    C11515264   5.064   4.520   3.816
    3OL    H15R15265   4.991   4.522   3.735
    3OL    H15S15266   5.159   4.545   3.767
    3OL    C11615267   5.027   4.623   3.923
    3OL    H16R15268   5.067   4.592   4.020
    3OL    H16S15269   4.919   4.632   3.931
    3OL    C11715270   5.071   4.768   3.895
    3OL    H17R15271   5.032   4.792   3.796
    3OL    H17S15272   5.179   4.783   3.896
    3OL    C11815273   5.017   4.870   3.996
    3OL    H18R15274   5.058   4.843   4.093
    3OL    H18S15275   4.909   4.855   3.990
    3OL    H18T15276   5.036   4.975   3.970
    1PA    C11615277   4.459   0.129   4.160
    1PA    H16R15278   4.487   0.183   4.250
    1PA    H16S15279   4.544   0.067   4.131
    1PA    H16T15280   4.380   0.062   4.196
    1PA    C11515281   4.407   0.214   4.044
    1PA    H15R15282   4.342   0.297   4.074
    1PA    H15S15283   4.481   0.280   3.999
    1PA    C11415284   4.342   0.125   3.937
    1PA    H14R15285   4.417   0.056   3.897
    1PA    H14S15286   4.269   0.067   3.995
    1PA    C11315287   4.259   0.203   3.834
    1PA    H13R15288   4.227   0.128   3.761
    1PA    H13S15289   4.175   0.261   3.872
    1PA    C11215290   4.341   0.311   3.762
    1PA    H12R15291   4.393   0.371   3.837
    1PA    H12S15292   4.423   0.263   3.709
    1PA    C11115293   4.255   0.408   3.679
    1PA    H11R15294   4.191   0.339   3.622
    1PA    H11S15295   4.191   0.455   3.754
    1PA    C11015296   4.335   0.505   3.591
    1PA    H10R15297   4.265   0.581   3.556
    1PA    H10S15298   4.417   0.551   3.645
    1PA     C1915299   4.395   0.441   3.465
    1PA     H9R15300   4.452   0.349   3.482
    1PA     H9S15301   4.310   0.423   3.399
    1PA     C1815302   4.480   0.546   3.391
    1PA     H8R15303   4.435   0.645   3.401
    1PA     H8S15304   4.577   0.550   3.441
    1PA     C1715305   4.499   0.504   3.245
    1PA     H7R15306   4.553   0.409   3.243
    1PA     H7S15307   4.404   0.483   3.196
    1PA     C1615308   4.566   0.609   3.155
    1PA     H6R15309   4.504   0.699   3.155
    1PA     H6S15310   4.663   0.634   3.197
    1PA     C1515311   4.570   0.553   3.012
    1PA     H5R15312   4.484   0.493   2.980
    1PA     H5S15313   4.581   0.637   2.943
    1PA     C1415314   4.699   0.472   2.994
    1PA     H4R15315   4.780   0.542   3.018
    1PA     H4S15316   4.717   0.390   3.063
    1PA     C1315317   4.711   0.419   2.851
    1PA     H3R15318   4.752   0.318   2.839
    1PA     H3S15319   4.610   0.417   2.809
    1PA     C1215320   4.790   0.521   2.768
    1PA     H2R15321   4.757   0.620   2.800
    1PA     H2S15322   4.894   0.514   2.800
    2PC     C1115323   4.769   0.503   2.619
    2PC     O1215324   4.746   0.399   2.561
    2PC     O1115325   4.780   0.619   2.554
    2PC      C115326   4.736   0.636   2.418
    2PC      HR15327   4.780   0.729   2.382
    2PC      HS15328   4.778   0.554   2.360
    2PC      C215329   4.582   0.637   2.414
    2PC      HX15330   4.549   0.554   2.477
    2PC      C315331   4.528   0.620   2.271
    2PC      HA15332   4.520   0.721   2.231
    2PC      HB15333   4.601   0.551   2.226
    2PC     O3115334   4.401   0.553   2.278
    2PC     P3115335   4.331   0.506   2.142
    2PC     O3215336   4.235   0.383   2.178
    2PC     C3115337   4.123   0.415   2.263
    2PC     H1A15338   4.161   0.411   2.365
    2PC     H1B15339   4.081   0.513   2.241
    2PC     C3215340   4.025   0.300   2.233
    2PC     H2A15341   3.989   0.316   2.131
    2PC     H2B15342   4.075   0.203   2.238
    2PC     N3115343   3.908   0.296   2.326
    2PC     C3315344   3.942   0.257   2.467
    2PC     H3A15345   4.000   0.336   2.515
    2PC     H3B15346   3.856   0.224   2.526
    2PC     H3C15347   4.006   0.171   2.449
    2PC     C3415348   3.843   0.431   2.324
    2PC     H4A15349   3.827   0.468   2.223
    2PC     H4B15350   3.748   0.414   2.376
    2PC     H4C15351   3.908   0.502   2.374
    2PC     C3515352   3.809   0.193   2.280
    2PC     H5A15353   3.717   0.206   2.337
    2PC     H5B15354   3.852   0.093   2.289
    2PC     H5C15355   3.788   0.209   2.174
    2PC     O3315356   4.264   0.620   2.075
    2PC     O3415357   4.439   0.469   2.047
    2PC     O2115358   4.540   0.765   2.464
    2PC     C2115359   4.415   0.770   2.511
    2PC     O2215360   4.342   0.673   2.521
    3OL     C1215361   4.375   0.914   2.531
    3OL     H2R15362   4.356   0.957   2.433
    3OL     H2S15363   4.471   0.963   2.550
    3OL     C1315364   4.264   0.940   2.634
    3OL     H3R15365   4.188   0.867   2.606
    3OL     H3S15366   4.221   1.040   2.621
    3OL     C1415367   4.315   0.924   2.778
    3OL     H4R15368   4.403   0.986   2.798
    3OL     H4S15369   4.353   0.823   2.795
    3OL     C1515370   4.206   0.940   2.884
    3OL     H5R15371   4.140   0.852   2.884
    3OL     H5S15372   4.141   1.027   2.877
    3OL     C1615373   4.281   0.944   3.018
    3OL     H6R15374   4.347   1.030   3.011
    3OL     H6S15375   4.342   0.856   3.039
    3OL     C1715376   4.181   0.960   3.133
    3OL     H7R15377   4.103   0.886   3.115
    3OL     H7S15378   4.130   1.057   3.131
    3OL     C1815379   4.241   0.941   3.273
    3OL     H8R15380   4.310   1.020   3.303
    3OL     H8S15381   4.297   0.847   3.271
    3OL     C1915382   4.129   0.940   3.373
    3OL     H9R15383   4.026   0.939   3.339
    3OL    C11015384   4.155   0.964   3.501
    3OL    H10R15385   4.076   0.986   3.573
    3OL    C11115386   4.292   0.952   3.563
    3OL    H11R15387   4.330   1.052   3.586
    3OL    H11S15388   4.365   0.908   3.495
    3OL    C11215389   4.285   0.876   3.696
    3OL    H12R15390   4.255   0.773   3.677
    3OL    H12S15391   4.214   0.925   3.763
    3OL    C11315392   4.421   0.866   3.766
    3OL    H13R15393   4.456   0.969   3.780
    3OL    H13S15394   4.494   0.818   3.701
    3OL    C11415395   4.401   0.797   3.902
    3OL    H14R15396   4.361   0.696   3.889
    3OL    H14S15397   4.327   0.857   3.955
    3OL    C11515398   4.536   0.777   3.973
    3OL    H15R15399   4.587   0.873   3.967
    3OL    H15S15400   4.587   0.699   3.916
    3OL    C11615401   4.504   0.734   4.117
    3OL    H16R15402   4.425   0.792   4.166
    3OL    H16S15403   4.601   0.750   4.164
    3OL    C11715404   4.464   0.586   4.130
    3OL    H17R15405   4.547   0.524   4.096
    3OL    H17S15406   4.371   0.572   4.076
    3OL    C11815407   4.436   0.557   4.278
    3OL    H18R15408   4.371   0.635   4.320
    3OL    H18S15409   4.527   0.555   4.338
    3OL    H18T15410   4.383   0.462   4.286
    1PA    C11615411   5.929   2.589   4.206
    1PA    H16R15412   5.868   2.547   4.287
    1PA    H16S15413   5.873   2.576   4.113
    1PA    H16T15414   5.946   2.693   4.233
    1PA    C11515415   6.064   2.516   4.199
    1PA    H15R15416   6.124   2.556   4.117
    1PA    H15S15417   6.112   2.522   4.297
    1PA    C11415418   6.051   2.366   4.168
    1PA    H14R15419   5.994   2.311   4.242
    1PA    H14S15420   6.016   2.362   4.065
    1PA    C11315421   6.190   2.304   4.148
    1PA    H13R15422   6.260   2.353   4.079
    1PA    H13S15423   6.243   2.296   4.243
    1PA    C11215424   6.162   2.166   4.088
    1PA    H12R15425   6.253   2.107   4.105
    1PA    H12S15426   6.077   2.120   4.140
    1PA    C11115427   6.135   2.162   3.937
    1PA    H11R15428   6.075   2.074   3.913
    1PA    H11S15429   6.076   2.244   3.897
    1PA    C11015430   6.263   2.152   3.853
    1PA    H10R15431   6.337   2.228   3.878
    1PA    H10S15432   6.308   2.053   3.866
    1PA     C1915433   6.218   2.163   3.707
    1PA     H9R15434   6.129   2.103   3.684
    1PA     H9S15435   6.185   2.267   3.697
    1PA     C1815436   6.327   2.136   3.603
    1PA     H8R15437   6.405   2.210   3.620
    1PA     H8S15438   6.375   2.039   3.621
    1PA     C1715439   6.266   2.152   3.463
    1PA     H7R15440   6.199   2.069   3.439
    1PA     H7S15441   6.209   2.245   3.462
    1PA     C1615442   6.379   2.146   3.359
    1PA     H6R15443   6.458   2.219   3.376
    1PA     H6S15444   6.416   2.044   3.372
    1PA     C1515445   6.334   2.151   3.212
    1PA     H5R15446   6.281   2.059   3.187
    1PA     H5S15447   6.261   2.232   3.207
    1PA     C1415448   6.462   2.174   3.130
    1PA     H4R15449   6.510   2.263   3.171
    1PA     H4S15450   6.527   2.089   3.152
    1PA     C1315451   6.428   2.189   2.981
    1PA     H3R15452   6.346   2.260   2.971
    1PA     H3S15453   6.517   2.227   2.930
    1PA     C1215454   6.378   2.058   2.919
    1PA     H2R15455   6.449   1.975   2.926
    1PA     H2S15456   6.291   2.023   2.974
    2PC     C1115457   6.331   2.085   2.778
    2PC     O1215458   6.310   2.191   2.723
    2PC     O1115459   6.317   1.963   2.723
    2PC      C115460   6.301   1.958   2.580
    2PC      HR15461   6.202   1.999   2.554
    2PC      HS15462   6.385   2.018   2.544
    2PC      C215463   6.312   1.810   2.545
    2PC      HX15464   6.392   1.762   2.603
    2PC      C315465   6.329   1.799   2.393
    2PC      HA15466   6.434   1.806   2.363
    2PC      HB15467   6.294   1.702   2.358
    2PC     O3115468   6.247   1.901   2.333
    2PC     P3115469   6.205   1.899   2.178
    2PC     O3215470   6.137   1.755   2.162
    2PC     C3115471   6.084   1.706   2.037
    2PC     H1A15472   6.006   1.636   2.068
    2PC     H1B15473   6.033   1.784   1.981
    2PC     C3215474   6.199   1.643   1.958
    2PC     H2A15475   6.262   1.725   1.923
    2PC     H2B15476   6.248   1.568   2.020
    2PC     N3115477   6.157   1.568   1.836
    2PC     C3315478   6.050   1.632   1.753
    2PC     H3A15479   5.972   1.661   1.824
    2PC     H3B15480   6.102   1.718   1.712
    2PC     H3C15481   6.009   1.564   1.678
    2PC     C3415482   6.273   1.552   1.741
    2PC     H4A15483   6.236   1.496   1.655
    2PC     H4B15484   6.317   1.649   1.720
    2PC     H4C15485   6.352   1.501   1.796
    2PC     C3515486   6.111   1.431   1.874
    2PC     H5A15487   6.189   1.392   1.940
    2PC     H5B15488   6.100   1.365   1.788
    2PC     H5C15489   6.016   1.451   1.924
    2PC     O3315490   6.104   1.999   2.136
    2PC     O3415491   6.315   1.908   2.080
    2PC     O2115492   6.181   1.755   2.567
    2PC     C2115493   6.177   1.621   2.579
    2PC     O2215494   6.264   1.547   2.539
    3OL     C1215495   6.043   1.581   2.635
    3OL     H2R15496   5.967   1.616   2.564
    3OL     H2S15497   6.028   1.644   2.723
    3OL     C1315498   6.026   1.431   2.662
    3OL     H3R15499   6.120   1.393   2.701
    3OL     H3S15500   6.004   1.390   2.563
    3OL     C1415501   5.913   1.383   2.755
    3OL     H4R15502   5.914   1.274   2.758
    3OL     H4S15503   5.814   1.405   2.714
    3OL     C1515504   5.922   1.430   2.901
    3OL     H5R15505   5.919   1.539   2.896
    3OL     H5S15506   6.023   1.403   2.931
    3OL     C1615507   5.805   1.371   2.981
    3OL     H6R15508   5.837   1.397   3.082
    3OL     H6S15509   5.799   1.263   2.963
    3OL     C1715510   5.675   1.443   2.945
    3OL     H7R15511   5.654   1.428   2.839
    3OL     H7S15512   5.681   1.552   2.956
    3OL     C1815513   5.556   1.389   3.025
    3OL     H8R15514   5.464   1.436   2.989
    3OL     H8S15515   5.556   1.424   3.129
    3OL     C1915516   5.534   1.240   3.017
    3OL     H9R15517   5.540   1.197   2.917
    3OL    C11015518   5.520   1.157   3.118
    3OL    H10R15519   5.512   1.049   3.106
    3OL    C11115520   5.522   1.201   3.263
    3OL    H11R15521   5.448   1.162   3.333
    3OL    H11S15522   5.499   1.308   3.268
    3OL    C11215523   5.653   1.159   3.330
    3OL    H12R15524   5.742   1.157   3.267
    3OL    H12S15525   5.639   1.056   3.365
    3OL    C11315526   5.683   1.252   3.448
    3OL    H13R15527   5.604   1.230   3.519
    3OL    H13S15528   5.686   1.355   3.413
    3OL    C11415529   5.822   1.214   3.503
    3OL    H14R15530   5.898   1.211   3.425
    3OL    H14S15531   5.814   1.111   3.539
    3OL    C11515532   5.858   1.297   3.626
    3OL    H15R15533   5.786   1.271   3.704
    3OL    H15S15534   5.842   1.402   3.601
    3OL    C11615535   5.998   1.265   3.681
    3OL    H16R15536   6.027   1.160   3.674
    3OL    H16S15537   6.008   1.301   3.784
    3OL    C11715538   6.109   1.344   3.611
    3OL    H17R15539   6.131   1.438   3.662
    3OL    H17S15540   6.065   1.374   3.516
    3OL    C11815541   6.240   1.266   3.594
    3OL    H18R15542   6.227   1.170   3.544
    3OL    H18S15543   6.296   1.256   3.688
    3OL    H18T15544   6.311   1.323   3.533
    1PA    C11615545   5.459   6.035   4.124
    1PA    H16R15546   5.365   5.995   4.163
    1PA    H16S15547   5.436   6.048   4.018
    1PA    H16T15548   5.482   6.129   4.175
    1PA    C11515549   5.573   5.937   4.158
    1PA    H15R15550   5.650   5.940   4.081
    1PA    H15S15551   5.620   5.959   4.254
    1PA    C11415552   5.527   5.791   4.161
    1PA    H14R15553   5.615   5.725   4.157
    1PA    H14S15554   5.482   5.756   4.254
    1PA    C11315555   5.451   5.742   4.037
    1PA    H13R15556   5.357   5.795   4.027
    1PA    H13S15557   5.503   5.775   3.947
    1PA    C11215558   5.422   5.591   4.043
    1PA    H12R15559   5.519   5.540   4.044
    1PA    H12S15560   5.373   5.550   4.131
    1PA    C11115561   5.346   5.536   3.921
    1PA    H11R15562   5.255   5.596   3.914
    1PA    H11S15563   5.400   5.560   3.829
    1PA    C11015564   5.323   5.385   3.928
    1PA    H10R15565   5.370   5.351   4.020
    1PA    H10S15566   5.215   5.369   3.935
    1PA     C1915567   5.382   5.305   3.811
    1PA     H9R15568   5.351   5.357   3.720
    1PA     H9S15569   5.489   5.322   3.809
    1PA     C1815570   5.344   5.156   3.809
    1PA     H8R15571   5.398   5.108   3.891
    1PA     H8S15572   5.236   5.147   3.827
    1PA     C1715573   5.388   5.106   3.671
    1PA     H7R15574   5.349   5.175   3.596
    1PA     H7S15575   5.497   5.097   3.659
    1PA     C1615576   5.344   4.961   3.646
    1PA     H6R15577   5.378   4.900   3.730
    1PA     H6S15578   5.236   4.959   3.634
    1PA     C1515579   5.395   4.913   3.509
    1PA     H5R15580   5.344   4.969   3.430
    1PA     H5S15581   5.503   4.911   3.493
    1PA     C1415582   5.342   4.770   3.488
    1PA     H4R15583   5.409   4.706   3.546
    1PA     H4S15584   5.238   4.764   3.518
    1PA     C1315585   5.357   4.732   3.340
    1PA     H3R15586   5.303   4.799   3.273
    1PA     H3S15587   5.459   4.739   3.304
    1PA     C1215588   5.298   4.591   3.323
    1PA     H2R15589   5.340   4.512   3.385
    1PA     H2S15590   5.192   4.601   3.350
    2PC     C1115591   5.316   4.544   3.181
    2PC     O1215592   5.230   4.486   3.118
    2PC     O1115593   5.442   4.555   3.137
    2PC      C115594   5.469   4.531   2.998
    2PC      HR15595   5.577   4.513   2.997
    2PC      HS15596   5.416   4.442   2.963
    2PC      C215597   5.430   4.648   2.907
    2PC      HX15598   5.325   4.676   2.900
    2PC      C315599   5.481   4.623   2.764
    2PC      HA15600   5.413   4.549   2.721
    2PC      HB15601   5.473   4.712   2.700
    2PC     O3115602   5.615   4.572   2.755
    2PC     P3115603   5.698   4.567   2.618
    2PC     O3215604   5.661   4.423   2.559
    2PC     C3115605   5.760   4.357   2.479
    2PC     H1A15606   5.787   4.415   2.391
    2PC     H1B15607   5.847   4.340   2.544
    2PC     C3215608   5.703   4.220   2.439
    2PC     H2A15609   5.782   4.183   2.373
    2PC     H2B15610   5.692   4.162   2.531
    2PC     N3115611   5.561   4.216   2.390
    2PC     C3315612   5.527   4.330   2.299
    2PC     H3A15613   5.516   4.416   2.366
    2PC     H3B15614   5.598   4.346   2.218
    2PC     H3C15615   5.432   4.304   2.253
    2PC     C3415616   5.536   4.092   2.309
    2PC     H4A15617   5.433   4.097   2.273
    2PC     H4B15618   5.614   4.077   2.234
    2PC     H4C15619   5.543   4.005   2.373
    2PC     C3515620   5.468   4.207   2.507
    2PC     H5A15621   5.365   4.189   2.475
    2PC     H5B15622   5.477   4.294   2.572
    2PC     H5C15623   5.510   4.122   2.561
    2PC     O3315624   5.651   4.666   2.518
    2PC     O3415625   5.844   4.590   2.634
    2PC     O2115626   5.507   4.759   2.957
    2PC     C2115627   5.472   4.880   2.912
    2PC     O2215628   5.366   4.907   2.860
    3OL     C1215629   5.566   4.990   2.958
    3OL     H2R15630   5.545   5.077   2.895
    3OL     H2S15631   5.666   4.948   2.951
    3OL     C1315632   5.533   5.037   3.100
    3OL     H3R15633   5.546   4.951   3.166
    3OL     H3S15634   5.430   5.073   3.105
    3OL     C1415635   5.624   5.148   3.154
    3OL     H4R15636   5.630   5.235   3.088
    3OL     H4S15637   5.726   5.108   3.153
    3OL     C1515638   5.591   5.194   3.297
    3OL     H5R15639   5.583   5.112   3.369
    3OL     H5S15640   5.496   5.247   3.290
    3OL     C1615641   5.699   5.288   3.350
    3OL     H6R15642   5.716   5.371   3.281
    3OL     H6S15643   5.796   5.241   3.366
    3OL     C1715644   5.653   5.347   3.484
    3OL     H7R15645   5.640   5.261   3.550
    3OL     H7S15646   5.555   5.392   3.469
    3OL     C1815647   5.755   5.447   3.542
    3OL     H8R15648   5.781   5.530   3.477
    3OL     H8S15649   5.849   5.391   3.543
    3OL     C1915650   5.716   5.488   3.682
    3OL     H9R15651   5.749   5.417   3.757
    3OL    C11015652   5.659   5.603   3.713
    3OL    H10R15653   5.635   5.617   3.818
    3OL    C11115654   5.636   5.713   3.612
    3OL    H11R15655   5.623   5.672   3.511
    3OL    H11S15656   5.727   5.774   3.603
    3OL    C11215657   5.519   5.798   3.661
    3OL    H12R15658   5.561   5.833   3.756
    3OL    H12S15659   5.431   5.737   3.680
    3OL    C11315660   5.483   5.915   3.568
    3OL    H13R15661   5.579   5.960   3.542
    3OL    H13S15662   5.421   5.992   3.614
    3OL    C11415663   5.413   5.858   3.444
    3OL    H14R15664   5.307   5.842   3.461
    3OL    H14S15665   5.466   5.771   3.403
    3OL    C11515666   5.416   5.959   3.328
    3OL    H15R15667   5.389   5.900   3.240
    3OL    H15S15668   5.511   6.013   3.321
    3OL    C11615669   5.306   6.064   3.344
    3OL    H16R15670   5.336   6.139   3.419
    3OL    H16S15671   5.223   6.007   3.387
    3OL    C11715672   5.270   6.118   3.205
    3OL    H17R15673   5.248   6.039   3.134
    3OL    H17S15674   5.356   6.177   3.172
    3OL    C11815675   5.153   6.217   3.211
    3OL    H18R15676   5.150   6.284   3.124
    3OL    H18S15677   5.170   6.279   3.300
    3OL    H18T15678   5.056   6.169   3.216
    1PA    C11615679   1.504   0.682   3.907
    1PA    H16R15680   1.451   0.746   3.977
    1PA    H16S15681   1.602   0.649   3.944
    1PA    H16T15682   1.446   0.590   3.899
    1PA    C11515683   1.513   0.752   3.771
    1PA    H15R15684   1.413   0.785   3.742
    1PA    H15S15685   1.579   0.838   3.780
    1PA    C11415686   1.550   0.662   3.652
    1PA    H14R15687   1.644   0.607   3.668
    1PA    H14S15688   1.474   0.585   3.638
    1PA    C11315689   1.569   0.739   3.521
    1PA    H13R15690   1.483   0.804   3.509
    1PA    H13S15691   1.653   0.805   3.540
    1PA    C11215692   1.596   0.654   3.395
    1PA    H12R15693   1.657   0.566   3.415
    1PA    H12S15694   1.508   0.608   3.350
    1PA    C11115695   1.669   0.737   3.289
    1PA    H11R15696   1.766   0.770   3.326
    1PA    H11S15697   1.689   0.670   3.205
    1PA    C11015698   1.585   0.853   3.234
    1PA    H10R15699   1.485   0.829   3.198
    1PA    H10S15700   1.561   0.927   3.312
    1PA     C1915701   1.668   0.926   3.128
    1PA     H9R15702   1.769   0.925   3.170
    1PA     H9S15703   1.662   0.869   3.035
    1PA     C1815704   1.617   1.070   3.111
    1PA     H8R15705   1.511   1.055   3.092
    1PA     H8S15706   1.621   1.123   3.207
    1PA     C1715707   1.686   1.163   3.011
    1PA     H7R15708   1.654   1.265   3.036
    1PA     H7S15709   1.794   1.168   3.021
    1PA     C1615710   1.661   1.135   2.862
    1PA     H6R15711   1.689   1.030   2.847
    1PA     H6S15712   1.556   1.145   2.833
    1PA     C1515713   1.738   1.219   2.760
    1PA     H5R15714   1.728   1.326   2.782
    1PA     H5S15715   1.845   1.208   2.777
    1PA     C1415716   1.701   1.186   2.615
    1PA     H4R15717   1.742   1.090   2.581
    1PA     H4S15718   1.592   1.185   2.608
    1PA     C1315719   1.758   1.287   2.514
    1PA     H3R15720   1.741   1.244   2.415
    1PA     H3S15721   1.718   1.388   2.527
    1PA     C1215722   1.909   1.315   2.520
    1PA     H2R15723   1.936   1.395   2.590
    1PA     H2S15724   1.964   1.223   2.543
    2PC     C1115725   1.960   1.359   2.385
    2PC     O1215726   1.891   1.412   2.301
    2PC     O1115727   2.089   1.331   2.361
    2PC      C115728   2.146   1.360   2.232
    2PC      HR15729   2.241   1.307   2.241
    2PC      HS15730   2.072   1.329   2.158
    2PC      C215731   2.185   1.509   2.233
    2PC      HX15732   2.090   1.564   2.234
    2PC      C315733   2.278   1.549   2.118
    2PC      HA15734   2.226   1.555   2.022
    2PC      HB15735   2.301   1.656   2.122
    2PC     O3115736   2.397   1.469   2.115
    2PC     P3115737   2.496   1.483   1.989
    2PC     O3215738   2.402   1.406   1.885
    2PC     C3115739   2.386   1.263   1.885
    2PC     H1A15740   2.479   1.210   1.863
    2PC     H1B15741   2.353   1.225   1.982
    2PC     C3215742   2.297   1.228   1.764
    2PC     H2A15743   2.339   1.290   1.684
    2PC     H2B15744   2.322   1.124   1.744
    2PC     N3115745   2.151   1.260   1.774
    2PC     C3315746   2.107   1.393   1.826
    2PC     H3A15747   2.136   1.402   1.930
    2PC     H3B15748   2.148   1.473   1.763
    2PC     H3C15749   2.000   1.393   1.810
    2PC     C3415750   2.094   1.228   1.639
    2PC     H4A15751   1.986   1.218   1.646
    2PC     H4B15752   2.114   1.312   1.572
    2PC     H4C15753   2.141   1.137   1.600
    2PC     C3515754   2.098   1.159   1.872
    2PC     H5A15755   1.991   1.153   1.852
    2PC     H5B15756   2.101   1.193   1.975
    2PC     H5C15757   2.148   1.064   1.854
    2PC     O3315758   2.541   1.621   1.957
    2PC     O3415759   2.618   1.401   2.006
    2PC     O2115760   2.263   1.536   2.351
    2PC     C2115761   2.203   1.579   2.463
    2PC     O2215762   2.086   1.603   2.480
    3OL     C1215763   2.307   1.603   2.570
    3OL     H2R15764   2.269   1.680   2.636
    3OL     H2S15765   2.401   1.627   2.518
    3OL     C1315766   2.326   1.473   2.650
    3OL     H3R15767   2.385   1.404   2.589
    3OL     H3S15768   2.226   1.432   2.663
    3OL     C1415769   2.391   1.500   2.786
    3OL     H4R15770   2.340   1.588   2.828
    3OL     H4S15771   2.494   1.534   2.778
    3OL     C1515772   2.391   1.377   2.877
    3OL     H5R15773   2.457   1.403   2.961
    3OL     H5S15774   2.438   1.291   2.828
    3OL     C1615775   2.257   1.326   2.933
    3OL     H6R15776   2.272   1.234   2.989
    3OL     H6S15777   2.192   1.307   2.847
    3OL     C1715778   2.191   1.420   3.035
    3OL     H7R15779   2.178   1.519   2.991
    3OL     H7S15780   2.257   1.426   3.122
    3OL     C1815781   2.056   1.367   3.084
    3OL     H8R15782   2.054   1.258   3.095
    3OL     H8S15783   1.977   1.386   3.011
    3OL     C1915784   2.011   1.424   3.216
    3OL     H9R15785   2.030   1.531   3.225
    3OL    C11015786   1.935   1.367   3.308
    3OL    H10R15787   1.905   1.422   3.397
    3OL    C11115788   1.877   1.228   3.298
    3OL    H11R15789   1.923   1.174   3.215
    3OL    H11S15790   1.769   1.244   3.290
    3OL    C11215791   1.927   1.149   3.420
    3OL    H12R15792   1.914   1.194   3.519
    3OL    H12S15793   2.032   1.132   3.396
    3OL    C11315794   1.861   1.012   3.437
    3OL    H13R15795   1.857   0.963   3.339
    3OL    H13S15796   1.758   1.027   3.471
    3OL    C11415797   1.930   0.914   3.533
    3OL    H14R15798   2.038   0.921   3.524
    3OL    H14S15799   1.888   0.817   3.504
    3OL    C11515800   1.885   0.949   3.675
    3OL    H15R15801   1.779   0.972   3.685
    3OL    H15S15802   1.934   1.038   3.716
    3OL    C11615803   1.918   0.842   3.780
    3OL    H16R15804   2.027   0.837   3.773
    3OL    H16S15805   1.885   0.745   3.742
    3OL    C11715806   1.877   0.890   3.920
    3OL    H17R15807   1.769   0.903   3.925
    3OL    H17S15808   1.921   0.986   3.945
    3OL    C11815809   1.911   0.779   4.020
    3OL    H18R15810   1.876   0.681   3.986
    3OL    H18S15811   1.870   0.799   4.119
    3OL    H18T15812   2.020   0.784   4.031
    1PA    C11615813   3.456   5.816   4.167
    1PA    H16R15814   3.440   5.921   4.142
    1PA    H16S15815   3.513   5.806   4.260
    1PA    H16T15816   3.360   5.766   4.177
    1PA    C11515817   3.526   5.750   4.048
    1PA    H15R15818   3.453   5.731   3.969
    1PA    H15S15819   3.611   5.807   4.009
    1PA    C11415820   3.591   5.619   4.094
    1PA    H14R15821   3.673   5.647   4.160
    1PA    H14S15822   3.511   5.565   4.145
    1PA    C11315823   3.630   5.536   3.971
    1PA    H13R15824   3.663   5.439   4.010
    1PA    H13S15825   3.547   5.526   3.901
    1PA    C11215826   3.738   5.597   3.881
    1PA    H12R15827   3.692   5.685   3.835
    1PA    H12S15828   3.827   5.624   3.938
    1PA    C11115829   3.782   5.502   3.769
    1PA    H11R15830   3.876   5.544   3.731
    1PA    H11S15831   3.814   5.402   3.797
    1PA    C11015832   3.682   5.488   3.654
    1PA    H10R15833   3.592   5.446   3.700
    1PA    H10S15834   3.645   5.578   3.605
    1PA     C1915835   3.731   5.387   3.549
    1PA     H9R15836   3.765   5.301   3.607
    1PA     H9S15837   3.657   5.361   3.474
    1PA     C1815838   3.858   5.431   3.475
    1PA     H8R15839   3.936   5.449   3.549
    1PA     H8S15840   3.888   5.352   3.405
    1PA     C1715841   3.826   5.558   3.395
    1PA     H7R15842   3.742   5.538   3.328
    1PA     H7S15843   3.788   5.634   3.464
    1PA     C1615844   3.939   5.619   3.310
    1PA     H6R15845   3.890   5.694   3.248
    1PA     H6S15846   4.020   5.657   3.374
    1PA     C1515847   4.004   5.512   3.221
    1PA     H5R15848   4.045   5.424   3.270
    1PA     H5S15849   3.924   5.470   3.159
    1PA     C1415850   4.114   5.577   3.135
    1PA     H4R15851   4.079   5.668   3.086
    1PA     H4S15852   4.193   5.619   3.198
    1PA     C1315853   4.169   5.489   3.022
    1PA     H3R15854   4.242   5.549   2.966
    1PA     H3S15855   4.234   5.409   3.060
    1PA     C1215856   4.069   5.438   2.918
    1PA     H2R15857   4.000   5.370   2.970
    1PA     H2S15858   4.005   5.519   2.884
    2PC     C1115859   4.138   5.367   2.804
    2PC     O1215860   4.245   5.312   2.817
    2PC     O1115861   4.076   5.392   2.687
    2PC      C115862   4.158   5.408   2.570
    2PC      HR15863   4.244   5.473   2.585
    2PC      HS15864   4.195   5.315   2.525
    2PC      C215865   4.057   5.467   2.470
    2PC      HX15866   3.983   5.389   2.450
    2PC      C315867   4.122   5.501   2.334
    2PC      HA15868   4.112   5.605   2.302
    2PC      HB15869   4.227   5.473   2.343
    2PC     O3115870   4.050   5.420   2.238
    2PC     P3115871   4.100   5.410   2.087
    2PC     O3215872   4.035   5.543   2.027
    2PC     C3115873   3.905   5.567   2.083
    2PC     H1A15874   3.844   5.476   2.093
    2PC     H1B15875   3.911   5.619   2.179
    2PC     C3215876   3.841   5.663   1.982
    2PC     H2A15877   3.879   5.764   1.989
    2PC     H2B15878   3.851   5.626   1.879
    2PC     N3115879   3.691   5.677   1.983
    2PC     C3315880   3.640   5.731   2.113
    2PC     H3A15881   3.533   5.753   2.105
    2PC     H3B15882   3.649   5.655   2.191
    2PC     H3C15883   3.694   5.822   2.138
    2PC     C3415884   3.651   5.779   1.880
    2PC     H4A15885   3.682   5.880   1.907
    2PC     H4B15886   3.700   5.739   1.790
    2PC     H4C15887   3.543   5.783   1.868
    2PC     C3515888   3.610   5.553   1.963
    2PC     H5A15889   3.599   5.533   1.856
    2PC     H5B15890   3.513   5.566   2.010
    2PC     H5C15891   3.660   5.464   2.001
    2PC     O3315892   4.245   5.379   2.093
    2PC     O3415893   4.043   5.306   1.999
    2PC     O2115894   4.000   5.587   2.524
    2PC     C2115895   3.880   5.622   2.474
    2PC     O2215896   3.818   5.563   2.387
    3OL     C1215897   3.818   5.742   2.540
    3OL     H2R15898   3.738   5.778   2.476
    3OL     H2S15899   3.878   5.830   2.562
    3OL     C1315900   3.765   5.696   2.677
    3OL     H3R15901   3.842   5.656   2.745
    3OL     H3S15902   3.693   5.614   2.674
    3OL     C1415903   3.704   5.806   2.764
    3OL     H4R15904   3.621   5.855   2.712
    3OL     H4S15905   3.780   5.884   2.768
    3OL     C1515906   3.666   5.754   2.904
    3OL     H5R15907   3.746   5.695   2.949
    3OL     H5S15908   3.584   5.685   2.883
    3OL     C1615909   3.614   5.857   3.005
    3OL     H6R15910   3.543   5.927   2.961
    3OL     H6S15911   3.698   5.923   3.030
    3OL     C1715912   3.559   5.781   3.127
    3OL     H7R15913   3.627   5.700   3.155
    3OL     H7S15914   3.464   5.735   3.099
    3OL     C1815915   3.530   5.871   3.248
    3OL     H8R15916   3.477   5.958   3.208
    3OL     H8S15917   3.623   5.914   3.287
    3OL     C1915918   3.446   5.810   3.356
    3OL     H9R15919   3.349   5.768   3.330
    3OL    C11015920   3.473   5.816   3.486
    3OL    H10R15921   3.420   5.748   3.553
    3OL    C11115922   3.601   5.866   3.546
    3OL    H11R15923   3.681   5.887   3.474
    3OL    H11S15924   3.634   5.797   3.624
    3OL    C11215925   3.566   6.002   3.609
    3OL    H12R15926   3.657   6.039   3.655
    3OL    H12S15927   3.486   5.988   3.683
    3OL    C11315928   3.516   6.098   3.500
    3OL    H13R15929   3.428   6.059   3.449
    3OL    H13S15930   3.597   6.128   3.432
    3OL    C11415931   3.473   6.231   3.563
    3OL    H14R15932   3.562   6.275   3.609
    3OL    H14S15933   3.397   6.207   3.637
    3OL    C11515934   3.418   6.326   3.455
    3OL    H15R15935   3.338   6.265   3.412
    3OL    H15S15936   3.497   6.349   3.385
    3OL    C11615937   3.373   6.460   3.515
    3OL    H16R15938   3.438   6.481   3.601
    3OL    H16S15939   3.271   6.442   3.550
    3OL    C11715940   3.355   6.574   3.415
    3OL    H17R15941   3.306   6.538   3.324
    3OL    H17S15942   3.452   6.617   3.388
    3OL    C11815943   3.265   6.678   3.483
    3OL    H18R15944   3.323   6.704   3.572
    3OL    H18S15945   3.163   6.650   3.509
    3OL    H18T15946   3.261   6.769   3.423
    1PA    C11615947   5.534   0.897   3.629
    1PA    H16R15948   5.480   0.970   3.690
    1PA    H16S15949   5.581   0.955   3.549
    1PA    H16T15950   5.611   0.866   3.700
    1PA    C11515951   5.456   0.777   3.574
    1PA    H15R15952   5.524   0.718   3.512
    1PA    H15S15953   5.435   0.708   3.657
    1PA    C11415954   5.328   0.811   3.497
    1PA    H14R15955   5.359   0.856   3.402
    1PA    H14S15956   5.278   0.717   3.473
    1PA    C11315957   5.234   0.899   3.579
    1PA    H13R15958   5.221   0.862   3.681
    1PA    H13S15959   5.270   1.002   3.585
    1PA    C11215960   5.092   0.898   3.520
    1PA    H12R15961   5.094   0.930   3.416
    1PA    H12S15962   5.065   0.792   3.519
    1PA    C11115963   4.999   0.998   3.590
    1PA    H11R15964   4.990   0.983   3.698
    1PA    H11S15965   5.023   1.104   3.586
    1PA    C11015966   4.851   0.981   3.554
    1PA    H10R15967   4.818   0.879   3.573
    1PA    H10S15968   4.798   1.054   3.614
    1PA     C1915969   4.829   1.007   3.404
    1PA     H9R15970   4.863   1.106   3.372
    1PA     H9S15971   4.891   0.938   3.347
    1PA     C1815972   4.684   0.990   3.356
    1PA     H8R15973   4.633   0.905   3.402
    1PA     H8S15974   4.625   1.080   3.375
    1PA     C1715975   4.664   0.966   3.206
    1PA     H7R15976   4.699   0.864   3.185
    1PA     H7S15977   4.560   0.981   3.178
    1PA     C1615978   4.749   1.063   3.122
    1PA     H6R15979   4.724   1.167   3.142
    1PA     H6S15980   4.856   1.042   3.134
    1PA     C1515981   4.716   1.047   2.973
    1PA     H5R15982   4.612   1.075   2.959
    1PA     H5S15983   4.776   1.120   2.919
    1PA     C1415984   4.742   0.905   2.921
    1PA     H4R15985   4.838   0.869   2.959
    1PA     H4S15986   4.671   0.829   2.955
    1PA     C1315987   4.745   0.910   2.768
    1PA     H3R15988   4.719   0.817   2.717
    1PA     H3S15989   4.672   0.982   2.731
    1PA     C1215990   4.877   0.958   2.705
    1PA     H2R15991   4.905   1.059   2.734
    1PA     H2S15992   4.962   0.902   2.743
    2PC     C1115993   4.876   0.954   2.554
    2PC     O1215994   4.780   0.982   2.486
    2PC     O1115995   4.992   0.904   2.509
    2PC      C115996   5.026   0.914   2.369
    2PC      HR15997   5.123   0.865   2.363
    2PC      HS15998   4.950   0.856   2.316
    2PC      C215999   5.032   1.060   2.323
    2PC      HX16000   4.946   1.109   2.369
    2PC      C316001   5.027   1.075   2.170
    2PC      HA16002   5.129   1.087   2.135
    2PC      HB16003   4.985   0.982   2.131
    2PC     O3116004   4.940   1.188   2.148
    2PC     P3116005   4.950   1.261   2.006
    2PC     O3216006   4.884   1.152   1.909
    2PC     C3116007   4.745   1.123   1.932
    2PC     H1A16008   4.738   1.090   2.036
    2PC     H1B16009   4.683   1.213   1.927
    2PC     C3216010   4.693   1.018   1.833
    2PC     H2A16011   4.769   0.940   1.844
    2PC     H2B16012   4.592   0.993   1.866
    2PC     N3116013   4.690   1.053   1.687
    2PC     C3316014   4.648   1.196   1.667
    2PC     H3A16015   4.713   1.257   1.729
    2PC     H3B16016   4.666   1.226   1.564
    2PC     H3C16017   4.543   1.208   1.694
    2PC     C3416018   4.831   1.043   1.636
    2PC     H4A16019   4.856   0.940   1.613
    2PC     H4B16020   4.839   1.096   1.540
    2PC     H4C16021   4.901   1.082   1.710
    2PC     C3516022   4.605   0.951   1.617
    2PC     H5A16023   4.514   0.941   1.676
    2PC     H5B16024   4.667   0.861   1.615
    2PC     H5C16025   4.578   0.990   1.519
    2PC     O3316026   4.866   1.383   2.007
    2PC     O3416027   5.082   1.315   1.963
    2PC     O2116028   5.156   1.116   2.371
    2PC     C2116029   5.150   1.167   2.495
    2PC     O2216030   5.057   1.151   2.571
    3OL     C1216031   5.269   1.255   2.528
    3OL     H2R16032   5.228   1.354   2.549
    3OL     H2S16033   5.327   1.270   2.437
    3OL     C1316034   5.350   1.198   2.645
    3OL     H3R16035   5.296   1.201   2.740
    3OL     H3S16036   5.433   1.268   2.658
    3OL     C1416037   5.403   1.059   2.606
    3OL     H4R16038   5.437   1.047   2.503
    3OL     H4S16039   5.312   1.000   2.623
    3OL     C1516040   5.505   1.015   2.712
    3OL     H5R16041   5.456   1.021   2.810
    3OL     H5S16042   5.592   1.080   2.715
    3OL     C1616043   5.547   0.870   2.687
    3OL     H6R16044   5.584   0.862   2.585
    3OL     H6S16045   5.457   0.809   2.686
    3OL     C1716046   5.659   0.806   2.770
    3OL     H7R16047   5.747   0.869   2.785
    3OL     H7S16048   5.693   0.719   2.713
    3OL     C1816049   5.615   0.753   2.908
    3OL     H8R16050   5.538   0.677   2.889
    3OL     H8S16051   5.561   0.833   2.960
    3OL     C1916052   5.727   0.687   2.982
    3OL     H9R16053   5.817   0.744   3.007
    3OL    C11016054   5.730   0.560   3.019
    3OL    H10R16055   5.819   0.519   3.066
    3OL    C11116056   5.628   0.452   2.991
    3OL    H11R16057   5.674   0.388   2.916
    3OL    H11S16058   5.539   0.499   2.949
    3OL    C11216059   5.597   0.369   3.116
    3OL    H12R16060   5.694   0.333   3.152
    3OL    H12S16061   5.524   0.289   3.098
    3OL    C11316062   5.536   0.462   3.222
    3OL    H13R16063   5.447   0.519   3.195
    3OL    H13S16064   5.612   0.537   3.247
    3OL    C11416065   5.506   0.387   3.353
    3OL    H14R16066   5.482   0.462   3.428
    3OL    H14S16067   5.593   0.340   3.399
    3OL    C11516068   5.387   0.291   3.337
    3OL    H15R16069   5.390   0.241   3.240
    3OL    H15S16070   5.300   0.357   3.339
    3OL    C11616071   5.371   0.189   3.450
    3OL    H16R16072   5.458   0.124   3.458
    3OL    H16S16073   5.287   0.130   3.414
    3OL    C11716074   5.342   0.251   3.588
    3OL    H17R16075   5.422   0.315   3.625
    3OL    H17S16076   5.343   0.168   3.659
    3OL    C11816077   5.213   0.334   3.592
    3OL    H18R16078   5.170   0.325   3.692
    3OL    H18S16079   5.155   0.296   3.508
    3OL    H18T16080   5.237   0.440   3.577
    1PA    C11616081   2.099   2.549   3.335
    1PA    H16R16082   2.123   2.444   3.357
    1PA    H16S16083   2.166   2.575   3.252
    1PA    H16T16084   1.997   2.556   3.299
    1PA    C11516085   2.129   2.623   3.466
    1PA    H15R16086   2.066   2.576   3.542
    1PA    H15S16087   2.235   2.600   3.479
    1PA    C11416088   2.120   2.775   3.451
    1PA    H14R16089   2.189   2.812   3.374
    1PA    H14S16090   2.018   2.809   3.429
    1PA    C11316091   2.153   2.841   3.586
    1PA    H13R16092   2.105   2.784   3.665
    1PA    H13S16093   2.262   2.838   3.598
    1PA    C11216094   2.121   2.991   3.583
    1PA    H12R16095   2.168   3.025   3.675
    1PA    H12S16096   2.162   3.043   3.497
    1PA    C11116097   1.970   3.015   3.601
    1PA    H11R16098   1.918   2.982   3.511
    1PA    H11S16099   1.934   2.966   3.692
    1PA    C11016100   1.956   3.167   3.622
    1PA    H10R16101   1.859   3.195   3.663
    1PA    H10S16102   2.030   3.195   3.697
    1PA     C1916103   1.985   3.255   3.500
    1PA     H9R16104   1.964   3.351   3.548
    1PA     H9S16105   2.090   3.244   3.472
    1PA     C1816106   1.884   3.249   3.384
    1PA     H8R16107   1.893   3.148   3.344
    1PA     H8S16108   1.782   3.275   3.413
    1PA     C1716109   1.940   3.340   3.273
    1PA     H7R16110   1.961   3.438   3.316
    1PA     H7S16111   2.035   3.294   3.245
    1PA     C1616112   1.845   3.339   3.153
    1PA     H6R16113   1.830   3.233   3.131
    1PA     H6S16114   1.743   3.372   3.175
    1PA     C1516115   1.904   3.415   3.033
    1PA     H5R16116   1.836   3.413   2.948
    1PA     H5S16117   1.917   3.518   3.068
    1PA     C1416118   2.037   3.365   2.974
    1PA     H4R16119   2.112   3.367   3.053
    1PA     H4S16120   2.035   3.262   2.937
    1PA     C1316121   2.071   3.454   2.853
    1PA     H3R16122   2.001   3.436   2.771
    1PA     H3S16123   2.079   3.561   2.872
    1PA     C1216124   2.200   3.411   2.783
    1PA     H2R16125   2.227   3.494   2.718
    1PA     H2S16126   2.267   3.375   2.861
    2PC     C1116127   2.181   3.294   2.689
    2PC     O1216128   2.080   3.227   2.681
    2PC     O1116129   2.284   3.282   2.604
    2PC      C116130   2.272   3.199   2.487
    2PC      HR16131   2.247   3.097   2.519
    2PC      HS16132   2.195   3.238   2.420
    2PC      C216133   2.403   3.211   2.410
    2PC      HX16134   2.425   3.318   2.403
    2PC      C316135   2.395   3.150   2.270
    2PC      HA16136   2.322   3.197   2.203
    2PC      HB16137   2.490   3.138   2.216
    2PC     O3116138   2.333   3.022   2.291
    2PC     P3116139   2.335   2.916   2.171
    2PC     O3216140   2.277   2.793   2.256
    2PC     C3116141   2.312   2.664   2.205
    2PC     H1A16142   2.339   2.671   2.099
    2PC     H1B16143   2.401   2.631   2.258
    2PC     C3216144   2.187   2.576   2.224
    2PC     H2A16145   2.211   2.478   2.183
    2PC     H2B16146   2.180   2.563   2.332
    2PC     N3116147   2.052   2.613   2.169
    2PC     C3316148   2.067   2.671   2.032
    2PC     H3A16149   2.099   2.590   1.966
    2PC     H3B16150   1.968   2.707   2.004
    2PC     H3C16151   2.143   2.749   2.030
    2PC     C3416152   1.957   2.500   2.149
    2PC     H4A16153   2.009   2.418   2.100
    2PC     H4B16154   1.944   2.459   2.249
    2PC     H4C16155   1.867   2.528   2.093
    2PC     C3516156   1.992   2.723   2.252
    2PC     H5A16157   1.908   2.767   2.199
    2PC     H5B16158   2.065   2.804   2.258
    2PC     H5C16159   1.952   2.670   2.339
    2PC     O3316160   2.231   2.954   2.073
    2PC     O3416161   2.472   2.898   2.116
    2PC     O2116162   2.497   3.137   2.490
    2PC     C2116163   2.627   3.142   2.459
    2PC     O2216164   2.673   3.191   2.358
    3OL     C1216165   2.707   3.062   2.559
    3OL     H2R16166   2.812   3.058   2.527
    3OL     H2S16167   2.666   2.961   2.552
    3OL     C1316168   2.713   3.122   2.700
    3OL     H3R16169   2.615   3.105   2.746
    3OL     H3S16170   2.738   3.227   2.689
    3OL     C1416171   2.821   3.044   2.776
    3OL     H4R16172   2.916   3.049   2.723
    3OL     H4S16173   2.786   2.941   2.769
    3OL     C1516174   2.843   3.097   2.919
    3OL     H5R16175   2.753   3.083   2.980
    3OL     H5S16176   2.861   3.204   2.922
    3OL     C1616177   2.955   3.020   2.990
    3OL     H6R16178   2.944   2.915   2.963
    3OL     H6S16179   2.935   3.019   3.097
    3OL     C1716180   3.094   3.075   2.955
    3OL     H7R16181   3.092   3.182   2.979
    3OL     H7S16182   3.119   3.062   2.850
    3OL     C1816183   3.209   3.013   3.037
    3OL     H8R16184   3.300   3.067   3.008
    3OL     H8S16185   3.230   2.915   2.994
    3OL     C1916186   3.186   3.020   3.186
    3OL     H9R16187   3.188   3.121   3.225
    3OL    C11016188   3.162   2.914   3.263
    3OL    H10R16189   3.171   2.933   3.369
    3OL    C11116190   3.142   2.770   3.223
    3OL    H11R16191   3.228   2.715   3.262
    3OL    H11S16192   3.144   2.753   3.115
    3OL    C11216193   3.012   2.712   3.281
    3OL    H12R16194   2.927   2.743   3.220
    3OL    H12S16195   2.999   2.766   3.375
    3OL    C11316196   3.018   2.559   3.291
    3OL    H13R16197   3.098   2.529   3.359
    3OL    H13S16198   3.038   2.513   3.194
    3OL    C11416199   2.887   2.497   3.342
    3OL    H14R16200   2.831   2.463   3.255
    3OL    H14S16201   2.832   2.576   3.394
    3OL    C11516202   2.921   2.386   3.441
    3OL    H15R16203   2.829   2.349   3.487
    3OL    H15S16204   2.988   2.417   3.521
    3OL    C11616205   2.976   2.267   3.362
    3OL    H16R16206   3.077   2.288   3.328
    3OL    H16S16207   2.913   2.246   3.275
    3OL    C11716208   2.983   2.137   3.444
    3OL    H17R16209   3.027   2.056   3.386
    3OL    H17S16210   2.884   2.108   3.480
    3OL    C11816211   3.076   2.152   3.565
    3OL    H18R16212   3.167   2.200   3.528
    3OL    H18S16213   3.122   2.058   3.596
    3OL    H18T16214   3.030   2.206   3.648
    1PA    C11616215   3.962   0.165   4.139
    1PA    H16R16216   4.000   0.099   4.060
    1PA    H16S16217   3.880   0.119   4.193
    1PA    H16T16218   4.046   0.171   4.209
    1PA    C11516219   3.910   0.301   4.091
    1PA    H15R16220   3.858   0.346   4.176
    1PA    H15S16221   3.993   0.360   4.052
    1PA    C11416222   3.804   0.283   3.982
    1PA    H14R16223   3.744   0.192   3.993
    1PA    H14S16224   3.731   0.364   3.983
    1PA    C11316225   3.863   0.263   3.842
    1PA    H13R16226   3.937   0.341   3.826
    1PA    H13S16227   3.921   0.171   3.852
    1PA    C11216228   3.761   0.249   3.728
    1PA    H12R16229   3.705   0.156   3.738
    1PA    H12S16230   3.690   0.332   3.734
    1PA    C11116231   3.809   0.253   3.582
    1PA    H11R16232   3.883   0.176   3.562
    1PA    H11S16233   3.725   0.237   3.514
    1PA    C11016234   3.861   0.390   3.535
    1PA    H10R16235   3.780   0.463   3.530
    1PA    H10S16236   3.940   0.417   3.606
    1PA     C1916237   3.912   0.380   3.391
    1PA     H9R16238   3.997   0.313   3.390
    1PA     H9S16239   3.840   0.336   3.321
    1PA     C1816240   3.962   0.516   3.340
    1PA     H8R16241   3.879   0.586   3.332
    1PA     H8S16242   4.033   0.564   3.407
    1PA     C1716243   4.007   0.492   3.195
    1PA     H7R16244   4.101   0.436   3.192
    1PA     H7S16245   3.927   0.430   3.156
    1PA     C1616246   4.013   0.621   3.112
    1PA     H6R16247   3.923   0.675   3.143
    1PA     H6S16248   4.108   0.669   3.137
    1PA     C1516249   4.022   0.591   2.962
    1PA     H5R16250   3.961   0.504   2.938
    1PA     H5S16251   3.999   0.675   2.896
    1PA     C1416252   4.162   0.544   2.921
    1PA     H4R16253   4.234   0.625   2.935
    1PA     H4S16254   4.200   0.466   2.987
    1PA     C1316255   4.165   0.492   2.777
    1PA     H3R16256   4.081   0.424   2.761
    1PA     H3S16257   4.147   0.575   2.708
    1PA     C1216258   4.299   0.425   2.741
    1PA     H2R16259   4.372   0.506   2.738
    1PA     H2S16260   4.331   0.353   2.817
    2PC     C1116261   4.295   0.342   2.615
    2PC     O1216262   4.200   0.277   2.576
    2PC     O1116263   4.408   0.363   2.547
    2PC      C116264   4.439   0.292   2.426
    2PC      HR16265   4.354   0.273   2.360
    2PC      HS16266   4.506   0.353   2.365
    2PC      C216267   4.510   0.161   2.464
    2PC      HX16268   4.602   0.180   2.520
    2PC      C316269   4.565   0.084   2.343
    2PC      HA16270   4.657   0.131   2.305
    2PC      HB16271   4.594  -0.016   2.376
    2PC     O3116272   4.460   0.069   2.246
    2PC     P3116273   4.496  -0.018   2.116
    2PC     O3216274   4.372   0.030   2.026
    2PC     C3116275   4.390   0.148   1.946
    2PC     H1A16276   4.407   0.228   2.018
    2PC     H1B16277   4.478   0.126   1.886
    2PC     C3216278   4.260   0.166   1.865
    2PC     H2A16279   4.180   0.143   1.936
    2PC     H2B16280   4.248   0.272   1.843
    2PC     N3116281   4.243   0.089   1.738
    2PC     C3316282   4.348   0.121   1.637
    2PC     H3A16283   4.368   0.229   1.635
    2PC     H3B16284   4.433   0.062   1.672
    2PC     H3C16285   4.321   0.092   1.536
    2PC     C3416286   4.238  -0.059   1.761
    2PC     H4A16287   4.334  -0.097   1.795
    2PC     H4B16288   4.154  -0.080   1.828
    2PC     H4C16289   4.219  -0.101   1.662
    2PC     C3516290   4.117   0.136   1.671
    2PC     H5A16291   4.127   0.244   1.665
    2PC     H5B16292   4.033   0.112   1.738
    2PC     H5C16293   4.099   0.093   1.573
    2PC     O3316294   4.630  -0.045   2.060
    2PC     O3416295   4.463  -0.157   2.155
    2PC     O2116296   4.422   0.075   2.539
    2PC     C2116297   4.469  -0.034   2.602
    2PC     O2216298   4.582  -0.076   2.589
    3OL     C1216299   4.370  -0.109   2.688
    3OL     H2R16300   4.423  -0.187   2.742
    3OL     H2S16301   4.286  -0.154   2.634
    3OL     C1316302   4.318  -0.016   2.799
    3OL     H3R16303   4.244  -0.056   2.868
    3OL     H3S16304   4.279   0.075   2.754
    3OL     C1416305   4.439   0.026   2.884
    3OL     H4R16306   4.513   0.083   2.828
    3OL     H4S16307   4.494  -0.059   2.926
    3OL     C1516308   4.400   0.120   2.999
    3OL     H5R16309   4.332   0.199   2.967
    3OL     H5S16310   4.489   0.171   3.037
    3OL     C1616311   4.339   0.057   3.125
    3OL     H6R16312   4.415  -0.009   3.169
    3OL     H6S16313   4.241   0.011   3.109
    3OL     C1716314   4.309   0.172   3.221
    3OL     H7R16315   4.233   0.239   3.181
    3OL     H7S16316   4.403   0.212   3.261
    3OL     C1816317   4.253   0.120   3.354
    3OL     H8R16318   4.233   0.201   3.424
    3OL     H8S16319   4.326   0.051   3.399
    3OL     C1916320   4.123   0.049   3.330
    3OL     H9R16321   4.075   0.066   3.233
    3OL    C11016322   4.070  -0.038   3.415
    3OL    H10R16323   3.968  -0.072   3.402
    3OL    C11116324   4.111  -0.054   3.559
    3OL    H11R16325   4.159   0.033   3.605
    3OL    H11S16326   4.179  -0.139   3.569
    3OL    C11216327   3.994  -0.105   3.645
    3OL    H12R16328   3.952  -0.194   3.598
    3OL    H12S16329   3.916  -0.028   3.639
    3OL    C11316330   4.044  -0.130   3.788
    3OL    H13R16331   4.100  -0.041   3.817
    3OL    H13S16332   4.104  -0.221   3.792
    3OL    C11416333   3.924  -0.145   3.882
    3OL    H14R16334   3.842  -0.080   3.849
    3OL    H14S16335   3.937  -0.106   3.983
    3OL    C11516336   3.880  -0.292   3.898
    3OL    H15R16337   3.877  -0.338   3.799
    3OL    H15S16338   3.776  -0.285   3.929
    3OL    C11616339   3.968  -0.372   3.994
    3OL    H16R16340   4.030  -0.309   4.059
    3OL    H16S16341   4.043  -0.432   3.942
    3OL    C11716342   3.885  -0.457   4.091
    3OL    H17R16343   3.834  -0.531   4.029
    3OL    H17S16344   3.807  -0.395   4.137
    3OL    C11816345   3.964  -0.530   4.201
    3OL    H18R16346   3.988  -0.458   4.280
    3OL    H18S16347   4.060  -0.569   4.167
    3OL    H18T16348   3.913  -0.613   4.251
    1PA    C11616349   2.290   5.662   3.456
    1PA    H16R16350   2.228   5.616   3.533
    1PA    H16S16351   2.393   5.627   3.462
    1PA    H16T16352   2.252   5.634   3.357
    1PA    C11516353   2.304   5.815   3.462
    1PA    H15R16354   2.345   5.844   3.366
    1PA    H15S16355   2.201   5.851   3.466
    1PA    C11416356   2.386   5.860   3.584
    1PA    H14R16357   2.340   5.822   3.675
    1PA    H14S16358   2.490   5.827   3.573
    1PA    C11316359   2.402   6.012   3.586
    1PA    H13R16360   2.300   6.050   3.582
    1PA    H13S16361   2.444   6.039   3.683
    1PA    C11216362   2.487   6.069   3.472
    1PA    H12R16363   2.581   6.015   3.459
    1PA    H12S16364   2.442   6.057   3.373
    1PA    C11116365   2.536   6.213   3.495
    1PA    H11R16366   2.450   6.280   3.500
    1PA    H11S16367   2.587   6.218   3.592
    1PA    C11016368   2.631   6.256   3.383
    1PA    H10R16369   2.714   6.186   3.374
    1PA    H10S16370   2.587   6.250   3.283
    1PA     C1916371   2.697   6.393   3.406
    1PA     H9R16372   2.623   6.470   3.427
    1PA     H9S16373   2.759   6.401   3.496
    1PA     C1816374   2.773   6.436   3.279
    1PA     H8R16375   2.856   6.366   3.265
    1PA     H8S16376   2.713   6.440   3.188
    1PA     C1716377   2.828   6.577   3.303
    1PA     H7R16378   2.739   6.634   3.326
    1PA     H7S16379   2.893   6.582   3.391
    1PA     C1616380   2.907   6.629   3.182
    1PA     H6R16381   2.846   6.627   3.091
    1PA     H6S16382   2.926   6.735   3.196
    1PA     C1516383   3.045   6.569   3.153
    1PA     H5R16384   3.097   6.592   3.247
    1PA     H5S16385   3.046   6.460   3.143
    1PA     C1416386   3.113   6.637   3.033
    1PA     H4R16387   3.060   6.609   2.942
    1PA     H4S16388   3.094   6.742   3.057
    1PA     C1316389   3.260   6.599   3.010
    1PA     H3R16390   3.321   6.617   3.099
    1PA     H3S16391   3.247   6.493   2.987
    1PA     C1216392   3.333   6.671   2.896
    1PA     H2R16393   3.335   6.778   2.918
    1PA     H2S16394   3.438   6.642   2.886
    2PC     C1116395   3.262   6.662   2.763
    2PC     O1216396   3.208   6.754   2.707
    2PC     O1116397   3.253   6.534   2.724
    2PC      C116398   3.182   6.521   2.599
    2PC      HR16399   3.137   6.424   2.574
    2PC      HS16400   3.100   6.593   2.604
    2PC      C216401   3.266   6.564   2.477
    2PC      HX16402   3.306   6.665   2.483
    2PC      C316403   3.186   6.567   2.346
    2PC      HA16404   3.135   6.474   2.320
    2PC      HB16405   3.101   6.633   2.366
    2PC     O3116406   3.262   6.615   2.234
    2PC     P3116407   3.175   6.663   2.108
    2PC     O3216408   3.270   6.614   1.989
    2PC     C3116409   3.343   6.711   1.912
    2PC     H1A16410   3.276   6.792   1.882
    2PC     H1B16411   3.417   6.764   1.973
    2PC     C3216412   3.410   6.644   1.791
    2PC     H2A16413   3.332   6.592   1.736
    2PC     H2B16414   3.462   6.716   1.727
    2PC     N3116415   3.519   6.546   1.821
    2PC     C3316416   3.630   6.603   1.904
    2PC     H3A16417   3.677   6.690   1.858
    2PC     H3B16418   3.600   6.623   2.007
    2PC     H3C16419   3.712   6.531   1.901
    2PC     C3416420   3.467   6.421   1.887
    2PC     H4A16421   3.428   6.439   1.987
    2PC     H4B16422   3.388   6.381   1.822
    2PC     H4C16423   3.551   6.354   1.904
    2PC     C3516424   3.584   6.504   1.693
    2PC     H5A16425   3.630   6.591   1.645
    2PC     H5B16426   3.507   6.468   1.625
    2PC     H5C16427   3.666   6.434   1.710
    2PC     O3316428   3.046   6.591   2.109
    2PC     O3416429   3.136   6.806   2.102
    2PC     O2116430   3.364   6.461   2.453
    2PC     C2116431   3.471   6.461   2.534
    2PC     O2216432   3.510   6.553   2.603
    3OL     C1216433   3.541   6.328   2.530
    3OL     H2R16434   3.632   6.343   2.590
    3OL     H2S16435   3.582   6.305   2.432
    3OL     C1316436   3.456   6.208   2.573
    3OL     H3R16437   3.519   6.120   2.558
    3OL     H3S16438   3.371   6.190   2.507
    3OL     C1416439   3.401   6.218   2.716
    3OL     H4R16440   3.345   6.310   2.732
    3OL     H4S16441   3.488   6.217   2.783
    3OL     C1516442   3.318   6.095   2.756
    3OL     H5R16443   3.360   5.998   2.729
    3OL     H5S16444   3.235   6.098   2.686
    3OL     C1616445   3.265   6.104   2.900
    3OL     H6R16446   3.320   6.173   2.965
    3OL     H6S16447   3.277   6.001   2.932
    3OL     C1716448   3.116   6.130   2.926
    3OL     H7R16449   3.107   6.120   3.035
    3OL     H7S16450   3.055   6.056   2.874
    3OL     C1816451   3.060   6.267   2.883
    3OL     H8R16452   3.054   6.278   2.775
    3OL     H8S16453   3.124   6.346   2.921
    3OL     C1916454   2.926   6.277   2.951
    3OL     H9R16455   2.916   6.231   3.049
    3OL    C11016456   2.816   6.328   2.897
    3OL    H10R16457   2.724   6.324   2.954
    3OL    C11116458   2.807   6.388   2.759
    3OL    H11R16459   2.734   6.341   2.693
    3OL    H11S16460   2.900   6.385   2.701
    3OL    C11216461   2.765   6.535   2.766
    3OL    H12R16462   2.765   6.580   2.666
    3OL    H12S16463   2.841   6.580   2.831
    3OL    C11316464   2.627   6.558   2.830
    3OL    H13R16465   2.624   6.526   2.935
    3OL    H13S16466   2.553   6.503   2.771
    3OL    C11416467   2.588   6.707   2.830
    3OL    H14R16468   2.565   6.739   2.729
    3OL    H14S16469   2.670   6.770   2.865
    3OL    C11516470   2.462   6.735   2.913
    3OL    H15R16471   2.381   6.664   2.896
    3OL    H15S16472   2.438   6.836   2.878
    3OL    C11616473   2.500   6.736   3.061
    3OL    H16R16474   2.593   6.791   3.078
    3OL    H16S16475   2.533   6.634   3.083
    3OL    C11716476   2.389   6.776   3.159
    3OL    H17R16477   2.299   6.716   3.141
    3OL    H17S16478   2.360   6.881   3.145
    3OL    C11816479   2.438   6.759   3.303
    3OL    H18R16480   2.478   6.658   3.314
    3OL    H18S16481   2.363   6.800   3.371
    3OL    H18T16482   2.524   6.827   3.312
    1PA    C11616483   3.095   1.554   4.205
    1PA    H16R16484   3.025   1.630   4.242
    1PA    H16S16485   3.189   1.609   4.205
    1PA    H16T16486   3.098   1.473   4.278
    1PA    C11516487   3.057   1.499   4.067
    1PA    H15R16488   2.971   1.433   4.080
    1PA    H15S16489   3.041   1.574   3.990
    1PA    C11416490   3.167   1.403   4.020
    1PA    H14R16491   3.267   1.447   4.028
    1PA    H14S16492   3.158   1.312   4.079
    1PA    C11316493   3.152   1.365   3.872
    1PA    H13R16494   3.051   1.330   3.852
    1PA    H13S16495   3.166   1.455   3.811
    1PA    C11216496   3.257   1.257   3.842
    1PA    H12R16497   3.356   1.290   3.875
    1PA    H12S16498   3.236   1.161   3.891
    1PA    C11116499   3.249   1.215   3.695
    1PA    H11R16500   3.168   1.149   3.661
    1PA    H11S16501   3.233   1.307   3.639
    1PA    C11016502   3.382   1.153   3.650
    1PA    H10R16503   3.456   1.233   3.660
    1PA    H10S16504   3.405   1.076   3.724
    1PA     C1916505   3.383   1.099   3.507
    1PA     H9R16506   3.302   1.026   3.498
    1PA     H9S16507   3.361   1.183   3.441
    1PA     C1816508   3.512   1.025   3.466
    1PA     H8R16509   3.604   1.075   3.498
    1PA     H8S16510   3.516   0.927   3.512
    1PA     C1716511   3.527   1.002   3.315
    1PA     H7R16512   3.444   0.936   3.287
    1PA     H7S16513   3.529   1.099   3.266
    1PA     C1616514   3.658   0.928   3.286
    1PA     H6R16515   3.743   0.970   3.341
    1PA     H6S16516   3.649   0.826   3.325
    1PA     C1516517   3.686   0.920   3.136
    1PA     H5R16518   3.752   0.836   3.114
    1PA     H5S16519   3.585   0.913   3.094
    1PA     C1416520   3.751   1.047   3.079
    1PA     H4R16521   3.696   1.137   3.108
    1PA     H4S16522   3.851   1.058   3.121
    1PA     C1316523   3.762   1.047   2.926
    1PA     H3R16524   3.848   1.105   2.892
    1PA     H3S16525   3.774   0.944   2.891
    1PA     C1216526   3.634   1.111   2.871
    1PA     H2R16527   3.544   1.058   2.904
    1PA     H2S16528   3.638   1.208   2.920
    2PC     C1116529   3.636   1.136   2.722
    2PC     O1216530   3.577   1.064   2.644
    2PC     O1116531   3.700   1.250   2.692
    2PC      C116532   3.731   1.282   2.555
    2PC      HR16533   3.809   1.358   2.547
    2PC      HS16534   3.767   1.191   2.504
    2PC      C216535   3.606   1.336   2.486
    2PC      HX16536   3.521   1.268   2.488
    2PC      C316537   3.633   1.350   2.335
    2PC      HA16538   3.610   1.256   2.285
    2PC      HB16539   3.574   1.432   2.293
    2PC     O3116540   3.772   1.382   2.313
    2PC     P3116541   3.815   1.408   2.160
    2PC     O3216542   3.862   1.262   2.115
    2PC     C3116543   3.998   1.239   2.075
    2PC     H1A16544   4.012   1.305   1.989
    2PC     H1B16545   4.061   1.269   2.160
    2PC     C3216546   4.034   1.092   2.045
    2PC     H2A16547   4.140   1.076   2.029
    2PC     H2B16548   4.012   1.044   2.141
    2PC     N3116549   3.952   1.018   1.944
    2PC     C3316550   4.001   0.876   1.945
    2PC     H3A16551   4.099   0.872   1.898
    2PC     H3B16552   3.990   0.833   2.044
    2PC     H3C16553   3.931   0.817   1.885
    2PC     C3416554   3.808   1.024   1.987
    2PC     H4A16555   3.751   0.946   1.936
    2PC     H4B16556   3.803   1.009   2.095
    2PC     H4C16557   3.777   1.121   1.949
    2PC     C3516558   3.982   1.083   1.812
    2PC     H5A16559   4.090   1.088   1.802
    2PC     H5B16560   3.937   1.182   1.807
    2PC     H5C16561   3.938   1.024   1.731
    2PC     O3316562   3.706   1.465   2.078
    2PC     O3416563   3.932   1.498   2.154
    2PC     O2116564   3.580   1.467   2.541
    2PC     C2116565   3.506   1.473   2.653
    2PC     O2216566   3.450   1.380   2.707
    3OL     C1216567   3.496   1.614   2.704
    3OL     H2R16568   3.397   1.632   2.746
    3OL     H2S16569   3.517   1.692   2.631
    3OL     C1316570   3.598   1.642   2.816
    3OL     H3R16571   3.582   1.744   2.850
    3OL     H3S16572   3.702   1.641   2.783
    3OL     C1416573   3.574   1.552   2.938
    3OL     H4R16574   3.671   1.553   2.988
    3OL     H4S16575   3.549   1.449   2.911
    3OL     C1516576   3.460   1.608   3.024
    3OL     H5R16577   3.376   1.623   2.956
    3OL     H5S16578   3.497   1.698   3.073
    3OL     C1616579   3.425   1.512   3.139
    3OL     H6R16580   3.512   1.511   3.205
    3OL     H6S16581   3.406   1.410   3.106
    3OL     C1716582   3.309   1.557   3.229
    3OL     H7R16583   3.229   1.567   3.155
    3OL     H7S16584   3.330   1.658   3.265
    3OL     C1816585   3.274   1.450   3.334
    3OL     H8R16586   3.190   1.497   3.386
    3OL     H8S16587   3.359   1.444   3.401
    3OL     C1916588   3.234   1.318   3.272
    3OL     H9R16589   3.308   1.277   3.205
    3OL    C11016590   3.121   1.252   3.292
    3OL    H10R16591   3.105   1.153   3.249
    3OL    C11116592   3.011   1.282   3.391
    3OL    H11R16593   2.924   1.312   3.332
    3OL    H11S16594   3.033   1.358   3.466
    3OL    C11216595   2.969   1.152   3.459
    3OL    H12R16596   3.053   1.086   3.484
    3OL    H12S16597   2.910   1.099   3.384
    3OL    C11316598   2.886   1.195   3.581
    3OL    H13R16599   2.810   1.262   3.540
    3OL    H13S16600   2.941   1.249   3.657
    3OL    C11416601   2.820   1.075   3.650
    3OL    H14R16602   2.771   1.012   3.576
    3OL    H14S16603   2.748   1.112   3.723
    3OL    C11516604   2.915   0.984   3.730
    3OL    H15R16605   2.947   1.041   3.818
    3OL    H15S16606   3.006   0.965   3.673
    3OL    C11616607   2.851   0.854   3.781
    3OL    H16R16608   2.930   0.801   3.835
    3OL    H16S16609   2.815   0.785   3.704
    3OL    C11716610   2.735   0.876   3.880
    3OL    H17R16611   2.661   0.931   3.821
    3OL    H17S16612   2.756   0.934   3.970
    3OL    C11816613   2.689   0.736   3.923
    3OL    H18R16614   2.648   0.676   3.842
    3OL    H18S16615   2.618   0.747   4.006
    3OL    H18T16616   2.764   0.667   3.960
    1PA    C11616617   3.029   1.205   4.540
    1PA    H16R16618   2.940   1.144   4.552
    1PA    H16S16619   3.023   1.244   4.438
    1PA    H16T16620   3.026   1.297   4.600
    1PA    C11516621   3.149   1.115   4.573
    1PA    H15R16622   3.232   1.160   4.519
    1PA    H15S16623   3.168   1.119   4.680
    1PA    C11416624   3.125   0.982   4.500
    1PA    H14R16625   3.214   0.923   4.522
    1PA    H14S16626   3.045   0.916   4.537
    1PA    C11316627   3.106   0.990   4.348
    1PA    H13R16628   3.040   1.071   4.319
    1PA    H13S16629   3.200   1.022   4.302
    1PA    C11216630   3.065   0.856   4.285
    1PA    H12R16631   3.124   0.773   4.325
    1PA    H12S16632   2.963   0.841   4.319
    1PA    C11116633   3.062   0.859   4.131
    1PA    H11R16634   2.999   0.779   4.093
    1PA    H11S16635   3.025   0.960   4.113
    1PA    C11016636   3.205   0.836   4.079
    1PA    H10R16637   3.271   0.907   4.128
    1PA    H10S16638   3.232   0.736   4.112
    1PA     C1916639   3.222   0.856   3.927
    1PA     H9R16640   3.135   0.904   3.883
    1PA     H9S16641   3.298   0.933   3.912
    1PA     C1816642   3.255   0.731   3.845
    1PA     H8R16643   3.327   0.665   3.895
    1PA     H8S16644   3.160   0.676   3.843
    1PA     C1716645   3.305   0.759   3.703
    1PA     H7R16646   3.220   0.798   3.646
    1PA     H7S16647   3.377   0.840   3.718
    1PA     C1616648   3.358   0.630   3.639
    1PA     H6R16649   3.437   0.578   3.693
    1PA     H6S16650   3.281   0.553   3.638
    1PA     C1516651   3.412   0.671   3.501
    1PA     H5R16652   3.345   0.740   3.451
    1PA     H5S16653   3.514   0.709   3.513
    1PA     C1416654   3.422   0.538   3.424
    1PA     H4R16655   3.471   0.458   3.481
    1PA     H4S16656   3.318   0.515   3.401
    1PA     C1316657   3.493   0.545   3.288
    1PA     H3R16658   3.564   0.627   3.291
    1PA     H3S16659   3.559   0.461   3.268
    1PA     C1216660   3.396   0.587   3.176
    1PA     H2R16661   3.325   0.507   3.154
    1PA     H2S16662   3.339   0.676   3.202
    2PC     C1116663   3.461   0.609   3.042
    2PC     O1216664   3.580   0.601   3.023
    2PC     O1116665   3.378   0.655   2.947
    2PC      C116666   3.425   0.682   2.814
    2PC      HR16667   3.525   0.725   2.809
    2PC      HS16668   3.427   0.585   2.764
    2PC      C216669   3.317   0.771   2.750
    2PC      HX16670   3.221   0.719   2.761
    2PC      C316671   3.338   0.801   2.601
    2PC      HA16672   3.388   0.897   2.591
    2PC      HB16673   3.416   0.735   2.563
    2PC     O3116674   3.214   0.806   2.528
    2PC     P3116675   3.228   0.825   2.370
    2PC     O3216676   3.096   0.915   2.356
    2PC     C3116677   3.094   1.045   2.418
    2PC     H1A16678   3.139   1.036   2.518
    2PC     H1B16679   3.158   1.106   2.354
    2PC     C3216680   2.948   1.085   2.400
    2PC     H2A16681   2.932   1.190   2.428
    2PC     H2B16682   2.915   1.061   2.299
    2PC     N3116683   2.842   1.039   2.495
    2PC     C3316684   2.814   0.892   2.481
    2PC     H3A16685   2.732   0.858   2.544
    2PC     H3B16686   2.792   0.867   2.378
    2PC     H3C16687   2.908   0.840   2.503
    2PC     C3416688   2.876   1.074   2.637
    2PC     H4A16689   2.984   1.085   2.641
    2PC     H4B16690   2.834   1.172   2.659
    2PC     H4C16691   2.846   0.989   2.698
    2PC     C3516692   2.709   1.103   2.469
    2PC     H5A16693   2.629   1.078   2.539
    2PC     H5B16694   2.681   1.067   2.370
    2PC     H5C16695   2.730   1.210   2.479
    2PC     O3316696   3.358   0.888   2.335
    2PC     O3416697   3.223   0.706   2.283
    2PC     O2116698   3.315   0.897   2.819
    2PC     C2116699   3.192   0.951   2.825
    2PC     O2216700   3.094   0.917   2.762
    3OL     C1216701   3.188   1.058   2.931
    3OL     H2R16702   3.280   1.059   2.990
    3OL     H2S16703   3.104   1.034   2.996
    3OL     C1316704   3.150   1.184   2.851
    3OL     H3R16705   3.048   1.174   2.813
    3OL     H3S16706   3.218   1.182   2.766
    3OL     C1416707   3.163   1.315   2.929
    3OL     H4R16708   3.264   1.315   2.969
    3OL     H4S16709   3.094   1.298   3.013
    3OL     C1516710   3.137   1.445   2.851
    3OL     H5R16711   3.152   1.441   2.743
    3OL     H5S16712   3.211   1.521   2.874
    3OL     C1616713   2.998   1.501   2.887
    3OL     H6R16714   3.001   1.607   2.864
    3OL     H6S16715   2.981   1.496   2.995
    3OL     C1716716   2.881   1.427   2.821
    3OL     H7R16717   2.925   1.369   2.740
    3OL     H7S16718   2.807   1.496   2.782
    3OL     C1816719   2.819   1.331   2.924
    3OL     H8R16720   2.772   1.402   2.993
    3OL     H8S16721   2.895   1.275   2.979
    3OL     C1916722   2.713   1.245   2.863
    3OL     H9R16723   2.666   1.274   2.769
    3OL    C11016724   2.694   1.120   2.904
    3OL    H10R16725   2.633   1.050   2.848
    3OL    C11116726   2.769   1.040   3.007
    3OL    H11R16727   2.866   1.079   3.039
    3OL    H11S16728   2.781   0.948   2.949
    3OL    C11216729   2.684   1.007   3.130
    3OL    H12R16730   2.740   0.967   3.214
    3OL    H12S16731   2.612   0.928   3.109
    3OL    C11316732   2.615   1.133   3.186
    3OL    H13R16733   2.541   1.173   3.117
    3OL    H13S16734   2.685   1.217   3.190
    3OL    C11416735   2.543   1.105   3.319
    3OL    H14R16736   2.618   1.056   3.380
    3OL    H14S16737   2.454   1.043   3.305
    3OL    C11516738   2.502   1.236   3.388
    3OL    H15R16739   2.417   1.281   3.338
    3OL    H15S16740   2.586   1.306   3.391
    3OL    C11616741   2.442   1.213   3.527
    3OL    H16R16742   2.519   1.178   3.596
    3OL    H16S16743   2.361   1.140   3.522
    3OL    C11716744   2.382   1.343   3.584
    3OL    H17R16745   2.450   1.427   3.569
    3OL    H17S16746   2.363   1.338   3.691
    3OL    C11816747   2.243   1.373   3.526
    3OL    H18R16748   2.211   1.472   3.560
    3OL    H18S16749   2.173   1.301   3.569
    3OL    H18T16750   2.252   1.372   3.417
    1PA    C11616751   1.637   2.328   3.792
    1PA    H16R16752   1.682   2.385   3.873
    1PA    H16S16753   1.634   2.226   3.830
    1PA    H16T16754   1.535   2.356   3.767
    1PA    C11516755   1.729   2.327   3.668
    1PA    H15R16756   1.676   2.272   3.591
    1PA    H15S16757   1.745   2.432   3.642
    1PA    C11416758   1.863   2.254   3.684
    1PA    H14R16759   1.921   2.304   3.762
    1PA    H14S16760   1.838   2.150   3.705
    1PA    C11316761   1.948   2.245   3.556
    1PA    H13R16762   1.900   2.181   3.481
    1PA    H13S16763   1.947   2.345   3.513
    1PA    C11216764   2.083   2.186   3.600
    1PA    H12R16765   2.151   2.255   3.650
    1PA    H12S16766   2.074   2.100   3.667
    1PA    C11116767   2.151   2.123   3.478
    1PA    H11R16768   2.087   2.051   3.427
    1PA    H11S16769   2.169   2.199   3.402
    1PA    C11016770   2.292   2.073   3.515
    1PA    H10R16771   2.286   2.002   3.597
    1PA    H10S16772   2.340   2.016   3.435
    1PA     C1916773   2.389   2.178   3.571
    1PA     H9R16774   2.352   2.191   3.672
    1PA     H9S16775   2.493   2.145   3.560
    1PA     C1816776   2.396   2.306   3.486
    1PA     H8R16777   2.298   2.349   3.467
    1PA     H8S16778   2.464   2.376   3.534
    1PA     C1716779   2.466   2.286   3.350
    1PA     H7R16780   2.562   2.235   3.358
    1PA     H7S16781   2.395   2.220   3.300
    1PA     C1616782   2.478   2.420   3.277
    1PA     H6R16783   2.378   2.463   3.267
    1PA     H6S16784   2.543   2.490   3.331
    1PA     C1516785   2.538   2.399   3.137
    1PA     H5R16786   2.637   2.355   3.147
    1PA     H5S16787   2.472   2.331   3.082
    1PA     C1416788   2.559   2.532   3.063
    1PA     H4R16789   2.461   2.579   3.051
    1PA     H4S16790   2.626   2.598   3.118
    1PA     C1316791   2.618   2.500   2.925
    1PA     H3R16792   2.695   2.424   2.941
    1PA     H3S16793   2.543   2.456   2.859
    1PA     C1216794   2.687   2.618   2.856
    1PA     H2R16795   2.626   2.709   2.844
    1PA     H2S16796   2.775   2.648   2.913
    2PC     C1116797   2.733   2.586   2.716
    2PC     O1216798   2.736   2.473   2.670
    2PC     O1116799   2.750   2.697   2.643
    2PC      C116800   2.784   2.690   2.503
    2PC      HR16801   2.829   2.783   2.467
    2PC      HS16802   2.859   2.614   2.480
    2PC      C216803   2.657   2.661   2.423
    2PC      HX16804   2.627   2.556   2.432
    2PC      C316805   2.678   2.693   2.274
    2PC      HA16806   2.587   2.685   2.215
    2PC      HB16807   2.700   2.800   2.266
    2PC     O3116808   2.787   2.614   2.222
    2PC     P3116809   2.764   2.457   2.202
    2PC     O3216810   2.865   2.426   2.082
    2PC     C3116811   2.832   2.452   1.945
    2PC     H1A16812   2.746   2.395   1.910
    2PC     H1B16813   2.809   2.558   1.927
    2PC     C3216814   2.947   2.400   1.857
    2PC     H2A16815   3.043   2.435   1.892
    2PC     H2B16816   2.943   2.291   1.863
    2PC     N3116817   2.932   2.424   1.709
    2PC     C3316818   2.806   2.355   1.669
    2PC     H3A16819   2.808   2.247   1.683
    2PC     H3B16820   2.719   2.402   1.717
    2PC     H3C16821   2.800   2.371   1.562
    2PC     C3416822   2.927   2.570   1.673
    2PC     H4A16823   2.920   2.573   1.564
    2PC     H4B16824   2.843   2.623   1.718
    2PC     H4C16825   3.021   2.603   1.717
    2PC     C3516826   3.036   2.350   1.630
    2PC     H5A16827   3.131   2.391   1.663
    2PC     H5B16828   3.032   2.382   1.526
    2PC     H5C16829   3.042   2.242   1.645
    2PC     O3316830   2.809   2.381   2.321
    2PC     O3416831   2.627   2.418   2.160
    2PC     O2116832   2.554   2.750   2.469
    2PC     C2116833   2.464   2.708   2.560
    2PC     O2216834   2.453   2.594   2.601
    3OL     C1216835   2.367   2.819   2.589
    3OL     H2R16836   2.270   2.777   2.563
    3OL     H2S16837   2.376   2.908   2.526
    3OL     C1316838   2.371   2.854   2.739
    3OL     H3R16839   2.465   2.900   2.771
    3OL     H3S16840   2.368   2.760   2.795
    3OL     C1416841   2.257   2.944   2.788
    3OL     H4R16842   2.162   2.905   2.753
    3OL     H4S16843   2.259   3.043   2.741
    3OL     C1516844   2.259   2.967   2.940
    3OL     H5R16845   2.272   2.868   2.983
    3OL     H5S16846   2.156   2.997   2.962
    3OL     C1616847   2.357   3.075   2.987
    3OL     H6R16848   2.325   3.172   2.946
    3OL     H6S16849   2.458   3.057   2.949
    3OL     C1716850   2.347   3.092   3.139
    3OL     H7R16851   2.243   3.121   3.154
    3OL     H7S16852   2.419   3.170   3.165
    3OL     C1816853   2.383   2.968   3.222
    3OL     H8R16854   2.306   2.891   3.230
    3OL     H8S16855   2.394   3.008   3.323
    3OL     C1916856   2.513   2.896   3.193
    3OL     H9R16857   2.507   2.819   3.117
    3OL    C11016858   2.635   2.913   3.240
    3OL    H10R16859   2.714   2.846   3.210
    3OL    C11116860   2.682   3.027   3.328
    3OL    H11R16861   2.606   3.105   3.339
    3OL    H11S16862   2.771   3.058   3.272
    3OL    C11216863   2.712   2.976   3.470
    3OL    H12R16864   2.737   2.870   3.467
    3OL    H12S16865   2.619   2.983   3.527
    3OL    C11316866   2.819   3.061   3.539
    3OL    H13R16867   2.776   3.158   3.567
    3OL    H13S16868   2.903   3.082   3.471
    3OL    C11416869   2.877   2.983   3.658
    3OL    H14R16870   2.898   2.880   3.631
    3OL    H14S16871   2.800   2.986   3.735
    3OL    C11516872   3.001   3.055   3.713
    3OL    H15R16873   3.006   3.028   3.818
    3OL    H15S16874   2.973   3.160   3.721
    3OL    C11616875   3.129   3.029   3.631
    3OL    H16R16876   3.112   3.070   3.531
    3OL    H16S16877   3.145   2.922   3.642
    3OL    C11716878   3.243   3.108   3.696
    3OL    H17R16879   3.220   3.212   3.716
    3OL    H17S16880   3.330   3.116   3.631
    3OL    C11816881   3.298   3.043   3.824
    3OL    H18R16882   3.317   2.937   3.806
    3OL    H18S16883   3.228   3.050   3.908
    3OL    H18T16884   3.388   3.096   3.857
    1PA    C11616885   4.720   0.279   3.900
    1PA    H16R16886   4.690   0.363   3.963
    1PA    H16S16887   4.774   0.206   3.960
    1PA    H16T16888   4.631   0.221   3.873
    1PA    C11516889   4.794   0.321   3.772
    1PA    H15R16890   4.896   0.351   3.798
    1PA    H15S16891   4.814   0.235   3.707
    1PA    C11416892   4.723   0.441   3.710
    1PA    H14R16893   4.631   0.412   3.658
    1PA    H14S16894   4.689   0.507   3.790
    1PA    C11316895   4.802   0.525   3.609
    1PA    H13R16896   4.742   0.610   3.573
    1PA    H13S16897   4.889   0.565   3.661
    1PA    C11216898   4.852   0.442   3.490
    1PA    H12R16899   4.899   0.348   3.521
    1PA    H12S16900   4.762   0.415   3.436
    1PA    C11116901   4.947   0.524   3.402
    1PA    H11R16902   4.889   0.614   3.381
    1PA    H11S16903   5.042   0.549   3.450
    1PA    C11016904   4.974   0.444   3.274
    1PA    H10R16905   5.019   0.350   3.306
    1PA    H10S16906   4.880   0.425   3.222
    1PA     C1916907   5.056   0.523   3.171
    1PA     H9R16908   5.006   0.620   3.166
    1PA     H9S16909   5.157   0.532   3.211
    1PA     C1816910   5.060   0.444   3.040
    1PA     H8R16911   4.971   0.387   3.013
    1PA     H8S16912   5.061   0.513   2.955
    1PA     C1716913   5.185   0.356   3.029
    1PA     H7R16914   5.283   0.400   3.049
    1PA     H7S16915   5.171   0.284   3.111
    1PA     C1616916   5.177   0.270   2.902
    1PA     H6R16917   5.087   0.208   2.889
    1PA     H6S16918   5.176   0.342   2.821
    1PA     C1516919   5.297   0.176   2.883
    1PA     H5R16920   5.386   0.239   2.889
    1PA     H5S16921   5.295   0.110   2.970
    1PA     C1416922   5.293   0.094   2.753
    1PA     H4R16923   5.386   0.037   2.747
    1PA     H4S16924   5.212   0.021   2.758
    1PA     C1316925   5.281   0.177   2.624
    1PA     H3R16926   5.258   0.103   2.547
    1PA     H3S16927   5.194   0.243   2.624
    1PA     C1216928   5.412   0.243   2.582
    1PA     H2R16929   5.457   0.304   2.661
    1PA     H2S16930   5.485   0.166   2.559
    2PC     C1116931   5.392   0.337   2.465
    2PC     O1216932   5.351   0.305   2.356
    2PC     O1116933   5.443   0.458   2.490
    2PC      C116934   5.431   0.556   2.385
    2PC      HR16935   5.497   0.641   2.405
    2PC      HS16936   5.461   0.511   2.290
    2PC      C216937   5.286   0.603   2.366
    2PC      HX16938   5.215   0.521   2.359
    2PC      C316939   5.286   0.677   2.231
    2PC      HA16940   5.334   0.774   2.243
    2PC      HB16941   5.345   0.627   2.154
    2PC     O3116942   5.152   0.685   2.179
    2PC     P3116943   5.128   0.648   2.025
    2PC     O3216944   5.205   0.762   1.943
    2PC     C3116945   5.288   0.730   1.831
    2PC     H1A16946   5.347   0.641   1.854
    2PC     H1B16947   5.221   0.718   1.745
    2PC     C3216948   5.382   0.849   1.807
    2PC     H2A16949   5.437   0.877   1.896
    2PC     H2B16950   5.460   0.824   1.735
    2PC     N3116951   5.333   0.983   1.760
    2PC     C3316952   5.237   0.969   1.646
    2PC     H3A16953   5.153   0.909   1.682
    2PC     H3B16954   5.204   1.069   1.617
    2PC     H3C16955   5.290   0.927   1.560
    2PC     C3416956   5.272   1.059   1.874
    2PC     H4A16957   5.331   1.043   1.964
    2PC     H4B16958   5.257   1.163   1.842
    2PC     H4C16959   5.171   1.024   1.898
    2PC     C3516960   5.448   1.065   1.712
    2PC     H5A16961   5.524   1.060   1.791
    2PC     H5B16962   5.425   1.165   1.676
    2PC     H5C16963   5.480   1.013   1.622
    2PC     O3316964   5.173   0.515   1.977
    2PC     O3416965   4.985   0.664   1.989
    2PC     O2116966   5.258   0.688   2.479
    2PC     C2116967   5.198   0.630   2.584
    2PC     O2216968   5.170   0.512   2.589
    3OL     C1216969   5.161   0.729   2.691
    3OL     H2R16970   5.053   0.724   2.704
    3OL     H2S16971   5.188   0.829   2.657
    3OL     C1316972   5.224   0.700   2.828
    3OL     H3R16973   5.328   0.733   2.834
    3OL     H3S16974   5.215   0.594   2.852
    3OL     C1416975   5.149   0.778   2.937
    3OL     H4R16976   5.174   0.736   3.034
    3OL     H4S16977   5.042   0.773   2.919
    3OL     C1516978   5.185   0.928   2.943
    3OL     H5R16979   5.151   0.989   2.859
    3OL     H5S16980   5.293   0.934   2.934
    3OL     C1616981   5.140   0.978   3.081
    3OL     H6R16982   5.205   0.938   3.160
    3OL     H6S16983   5.035   0.953   3.097
    3OL     C1716984   5.165   1.130   3.084
    3OL     H7R16985   5.104   1.189   3.016
    3OL     H7S16986   5.260   1.158   3.037
    3OL     C1816987   5.156   1.165   3.233
    3OL     H8R16988   5.230   1.109   3.289
    3OL     H8S16989   5.054   1.134   3.258
    3OL     C1916990   5.191   1.311   3.252
    3OL     H9R16991   5.291   1.330   3.216
    3OL    C11016992   5.105   1.405   3.289
    3OL    H10R16993   5.135   1.509   3.281
    3OL    C11116994   4.957   1.390   3.316
    3OL    H11R16995   4.918   1.296   3.277
    3OL    H11S16996   4.896   1.464   3.264
    3OL    C11216997   4.931   1.394   3.467
    3OL    H12R16998   4.956   1.496   3.496
    3OL    H12S16999   4.982   1.311   3.518
    3OL    C11317000   4.786   1.349   3.488
    3OL    H13R17001   4.777   1.310   3.589
    3OL    H13S17002   4.744   1.275   3.419
    3OL    C11417003   4.694   1.472   3.484
    3OL    H14R17004   4.594   1.432   3.465
    3OL    H14S17005   4.732   1.542   3.409
    3OL    C11517006   4.701   1.547   3.618
    3OL    H15R17007   4.804   1.564   3.648
    3OL    H15S17008   4.658   1.479   3.693
    3OL    C11617009   4.617   1.675   3.607
    3OL    H16R17010   4.515   1.647   3.582
    3OL    H16S17011   4.663   1.744   3.535
    3OL    C11717012   4.596   1.745   3.741
    3OL    H17R17013   4.514   1.817   3.733
    3OL    H17S17014   4.691   1.792   3.769
    3OL    C11817015   4.552   1.652   3.855
    3OL    H18R17016   4.464   1.598   3.819
    3OL    H18S17017   4.534   1.702   3.950
    3OL    H18T17018   4.626   1.577   3.881
    1PA    C11617019   4.224   2.761   3.675
    1PA    H16R17020   4.166   2.797   3.761
    1PA    H16S17021   4.223   2.821   3.585
    1PA    H16T17022   4.329   2.768   3.707
    1PA    C11517023   4.182   2.617   3.644
    1PA    H15R17024   4.076   2.614   3.616
    1PA    H15S17025   4.242   2.562   3.571
    1PA    C11417026   4.197   2.528   3.768
    1PA    H14R17027   4.303   2.522   3.794
    1PA    H14S17028   4.152   2.580   3.853
    1PA    C11317029   4.142   2.386   3.752
    1PA    H13R17030   4.102   2.372   3.651
    1PA    H13S17031   4.221   2.313   3.772
    1PA    C11217032   4.041   2.368   3.866
    1PA    H12R17033   4.088   2.363   3.965
    1PA    H12S17034   3.976   2.456   3.856
    1PA    C11117035   3.950   2.245   3.860
    1PA    H11R17036   4.007   2.159   3.825
    1PA    H11S17037   3.923   2.222   3.963
    1PA    C11017038   3.824   2.272   3.777
    1PA    H10R17039   3.780   2.367   3.809
    1PA    H10S17040   3.842   2.274   3.669
    1PA     C1917041   3.724   2.163   3.814
    1PA     H9R17042   3.760   2.063   3.789
    1PA     H9S17043   3.705   2.182   3.920
    1PA     C1817044   3.591   2.169   3.736
    1PA     H8R17045   3.518   2.112   3.793
    1PA     H8S17046   3.561   2.274   3.735
    1PA     C1717047   3.605   2.122   3.590
    1PA     H7R17048   3.664   2.194   3.535
    1PA     H7S17049   3.645   2.021   3.582
    1PA     C1617050   3.465   2.113   3.528
    1PA     H6R17051   3.405   2.044   3.589
    1PA     H6S17052   3.419   2.212   3.536
    1PA     C1517053   3.461   2.052   3.387
    1PA     H5R17054   3.510   2.126   3.323
    1PA     H5S17055   3.515   1.958   3.381
    1PA     C1417056   3.315   2.055   3.340
    1PA     H4R17057   3.255   1.993   3.407
    1PA     H4S17058   3.275   2.156   3.342
    1PA     C1317059   3.297   1.993   3.201
    1PA     H3R17060   3.361   1.906   3.189
    1PA     H3S17061   3.193   1.961   3.194
    1PA     C1217062   3.318   2.098   3.091
    1PA     H2R17063   3.233   2.167   3.089
    1PA     H2S17064   3.413   2.151   3.104
    2PC     C1117065   3.314   2.030   2.956
    2PC     O1217066   3.213   1.977   2.913
    2PC     O1117067   3.432   2.032   2.893
    2PC      C117068   3.433   1.982   2.758
    2PC      HR17069   3.534   1.975   2.718
    2PC      HS17070   3.386   1.883   2.752
    2PC      C217071   3.370   2.092   2.672
    2PC      HX17072   3.272   2.116   2.714
    2PC      C317073   3.349   2.046   2.527
    2PC      HA17074   3.285   1.957   2.514
    2PC      HB17075   3.313   2.127   2.464
    2PC     O3117076   3.471   2.002   2.465
    2PC     P3117077   3.475   1.965   2.309
    2PC     O3217078   3.566   2.071   2.229
    2PC     C3117079   3.708   2.052   2.236
    2PC     H1A17080   3.740   2.100   2.329
    2PC     H1B17081   3.735   1.947   2.248
    2PC     C3217082   3.781   2.118   2.118
    2PC     H2A17083   3.773   2.227   2.121
    2PC     H2B17084   3.889   2.106   2.130
    2PC     N3117085   3.746   2.068   1.981
    2PC     C3317086   3.629   2.152   1.937
    2PC     H3A17087   3.652   2.257   1.951
    2PC     H3B17088   3.619   2.135   1.829
    2PC     H3C17089   3.540   2.124   1.994
    2PC     C3417090   3.866   2.084   1.893
    2PC     H4A17091   3.914   2.181   1.907
    2PC     H4B17092   3.944   2.010   1.912
    2PC     H4C17093   3.840   2.072   1.787
    2PC     C3517094   3.712   1.922   1.982
    2PC     H5A17095   3.621   1.892   2.033
    2PC     H5B17096   3.794   1.868   2.030
    2PC     H5C17097   3.703   1.897   1.876
    2PC     O3317098   3.529   1.829   2.285
    2PC     O3417099   3.336   1.969   2.258
    2PC     O2117100   3.455   2.208   2.668
    2PC     C2117101   3.418   2.326   2.616
    2PC     O2217102   3.304   2.346   2.580
    3OL     C1217103   3.531   2.426   2.604
    3OL     H2R17104   3.559   2.461   2.505
    3OL     H2S17105   3.620   2.384   2.650
    3OL     C1317106   3.489   2.545   2.691
    3OL     H3R17107   3.442   2.515   2.785
    3OL     H3S17108   3.430   2.618   2.635
    3OL     C1417109   3.618   2.620   2.731
    3OL     H4R17110   3.669   2.656   2.641
    3OL     H4S17111   3.675   2.545   2.786
    3OL     C1517112   3.595   2.743   2.819
    3OL     H5R17113   3.526   2.707   2.896
    3OL     H5S17114   3.533   2.804   2.753
    3OL     C1617115   3.721   2.817   2.868
    3OL     H6R17116   3.781   2.853   2.784
    3OL     H6S17117   3.791   2.754   2.923
    3OL     C1717118   3.682   2.947   2.939
    3OL     H7R17119   3.614   3.003   2.875
    3OL     H7S17120   3.773   3.003   2.962
    3OL     C1817121   3.628   2.917   3.080
    3OL     H8R17122   3.700   2.855   3.134
    3OL     H8S17123   3.542   2.853   3.062
    3OL     C1917124   3.592   3.033   3.169
    3OL     H9R17125   3.610   3.134   3.132
    3OL    C11017126   3.548   3.031   3.294
    3OL    H10R17127   3.542   3.125   3.349
    3OL    C11117128   3.504   2.910   3.373
    3OL    H11R17129   3.485   2.832   3.299
    3OL    H11S17130   3.419   2.921   3.440
    3OL    C11217131   3.619   2.866   3.465
    3OL    H12R17132   3.641   2.948   3.534
    3OL    H12S17133   3.699   2.846   3.394
    3OL    C11317134   3.597   2.741   3.550
    3OL    H13R17135   3.687   2.723   3.608
    3OL    H13S17136   3.578   2.657   3.482
    3OL    C11417137   3.488   2.744   3.659
    3OL    H14R17138   3.388   2.771   3.623
    3OL    H14S17139   3.518   2.820   3.731
    3OL    C11517140   3.476   2.615   3.741
    3OL    H15R17141   3.427   2.648   3.833
    3OL    H15S17142   3.573   2.575   3.771
    3OL    C11617143   3.397   2.506   3.668
    3OL    H16R17144   3.384   2.415   3.726
    3OL    H16S17145   3.451   2.462   3.584
    3OL    C11717146   3.254   2.547   3.629
    3OL    H17R17147   3.201   2.463   3.585
    3OL    H17S17148   3.263   2.620   3.548
    3OL    C11817149   3.157   2.593   3.738
    3OL    H18R17150   3.053   2.617   3.712
    3OL    H18S17151   3.203   2.684   3.775
    3OL    H18T17152   3.142   2.516   3.814
    4SOL     OW17153   3.854   0.399   0.173
    4SOL    HW117154   3.763   0.371   0.178
    4SOL    HW217155   3.877   0.422   0.264
    5SOL     OW17156   3.523   4.925   7.698
    5SOL    HW117157   3.461   4.998   7.695
    5SOL    HW217158   3.476   4.856   7.745
    6SOL     OW17159   0.984   2.669   0.117
    6SOL    HW117160   1.061   2.621   0.146
    6SOL    HW217161   0.978   2.650   0.023
    7SOL     OW17162   5.216   1.205   0.562
    7SOL    HW117163   5.127   1.193   0.596
    7SOL    HW217164   5.246   1.116   0.540
    8SOL     OW17165   1.773   1.664   1.768
    8SOL    HW117166   1.791   1.754   1.797
    8SOL    HW217167   1.677   1.657   1.770
    9SOL     OW17168   1.764   0.823   0.119
    9SOL    HW117169   1.826   0.774   0.065
    9SOL    HW217170   1.726   0.888   0.060
   10SOL     OW17171   5.435   3.623   7.080
   10SOL    HW117172   5.429   3.582   6.993
   10SOL    HW217173   5.519   3.592   7.115
   11SOL     OW17174   5.020   0.787   6.906
   11SOL    HW117175   4.937   0.808   6.951
   11SOL    HW217176   5.060   0.872   6.889
   12SOL     OW17177   2.109   4.422   1.058
   12SOL    HW117178   2.013   4.414   1.061
   12SOL    HW217179   2.133   4.391   0.971
   13SOL     OW17180   0.634   5.128   6.398
   13SOL    HW117181   0.654   5.035   6.381
   13SOL    HW217182   0.611   5.131   6.491
   14SOL     OW17183   4.097   5.918  -0.004
   14SOL    HW117184   4.120   6.007   0.021
   14SOL    HW217185   4.080   5.874   0.079
   15SOL     OW17186   2.304   3.226   6.155
   15SOL    HW117187   2.295   3.229   6.250
   15SOL    HW217188   2.310   3.133   6.134
   16SOL     OW17189   2.968   2.088   7.174
   16SOL    HW117190   2.901   2.111   7.109
   16SOL    HW217191   3.030   2.160   7.172
   17SOL     OW17192   5.860   0.080   1.093
   17SOL    HW117193   5.919   0.016   1.053
   17SOL    HW217194   5.772   0.046   1.076
   18SOL     OW17195   5.827   5.629   0.637
   18SOL    HW117196   5.907   5.614   0.588
   18SOL    HW217197   5.811   5.723   0.628
   19SOL     OW17198   4.225   3.984   0.648
   19SOL    HW117199   4.188   4.072   0.658
   19SOL    HW217200   4.314   3.992   0.679
   20SOL     OW17201   1.157   6.377   0.810
   20SOL    HW117202   1.216   6.361   0.736
   20SOL    HW217203   1.207   6.435   0.868
   21SOL     OW17204   6.144   0.288   0.094
   21SOL    HW117205   6.217   0.240   0.054
   21SOL    HW217206   6.099   0.223   0.147
   22SOL     OW17207   4.178   3.576   2.104
   22SOL    HW117208   4.201   3.487   2.077
   22SOL    HW217209   4.244   3.599   2.170
   23SOL     OW17210   0.967   6.028   6.886
   23SOL    HW117211   1.015   5.946   6.882
   23SOL    HW217212   0.916   6.030   6.805
   24SOL     OW17213   5.750   5.410   1.779
   24SOL    HW117214   5.807   5.486   1.766
   24SOL    HW217215   5.747   5.400   1.875
   25SOL     OW17216   5.576   1.841   6.306
   25SOL    HW117217   5.578   1.904   6.378
   25SOL    HW217218   5.648   1.867   6.249
   26SOL     OW17219   3.224   0.206   0.847
   26SOL    HW117220   3.230   0.217   0.752
   26SOL    HW217221   3.209   0.294   0.881
   27SOL     OW17222   2.094   1.644   6.862
   27SOL    HW117223   2.038   1.589   6.917
   27SOL    HW217224   2.038   1.715   6.833
   28SOL     OW17225   2.400   3.021   0.167
   28SOL    HW117226   2.354   3.033   0.251
   28SOL    HW217227   2.441   2.935   0.175
   29SOL     OW17228   5.580   2.264   1.094
   29SOL    HW117229   5.609   2.207   1.166
   29SOL    HW217230   5.659   2.283   1.044
   30SOL     OW17231   5.194   1.642   7.347
   30SOL    HW117232   5.127   1.575   7.364
   30SOL    HW217233   5.153   1.701   7.284
   31SOL     OW17234   4.501   6.136   0.252
   31SOL    HW117235   4.526   6.225   0.229
   31SOL    HW217236   4.421   6.146   0.304
   32SOL     OW17237   0.026   5.016   1.515
   32SOL    HW117238  -0.062   5.019   1.553
   32SOL    HW217239   0.061   4.931   1.543
   33SOL     OW17240   0.681   2.082   1.531
   33SOL    HW117241   0.732   2.037   1.599
   33SOL    HW217242   0.615   2.131   1.580
   34SOL     OW17243   4.039   1.047   7.275
   34SOL    HW117244   4.057   1.000   7.356
   34SOL    HW217245   3.987   1.123   7.303
   35SOL     OW17246   5.928   3.033   6.899
   35SOL    HW117247   5.926   2.937   6.904
   35SOL    HW217248   5.897   3.061   6.985
   36SOL     OW17249   5.063   3.350   6.465
   36SOL    HW117250   4.990   3.288   6.467
   36SOL    HW217251   5.131   3.309   6.517
   37SOL     OW17252   4.482   1.689   1.826
   37SOL    HW117253   4.553   1.713   1.767
   37SOL    HW217254   4.463   1.597   1.805
   38SOL     OW17255   5.327   1.154   6.074
   38SOL    HW117256   5.378   1.186   6.000
   38SOL    HW217257   5.236   1.155   6.042
   39SOL     OW17258   3.723   2.594   0.072
   39SOL    HW117259   3.689   2.532   0.009
   39SOL    HW217260   3.711   2.552   0.157
   40SOL     OW17261   1.139   5.828   6.837
   40SOL    HW117262   1.160   5.794   6.750
   40SOL    HW217263   1.191   5.774   6.897
   41SOL     OW17264   6.389   2.405   1.253
   41SOL    HW117265   6.468   2.455   1.275
   41SOL    HW217266   6.317   2.463   1.278
   42SOL     OW17267   2.164   0.680   6.100
   42SOL    HW117268   2.210   0.689   6.016
   42SOL    HW217269   2.091   0.742   6.094
   43SOL     OW17270   5.791   1.895   6.091
   43SOL    HW117271   5.780   1.859   6.004
   43SOL    HW217272   5.884   1.883   6.112
   44SOL     OW17273   4.229   6.161   0.419
   44SOL    HW117274   4.142   6.157   0.379
   44SOL    HW217275   4.213   6.198   0.505
   45SOL     OW17276   1.176   0.041   6.952
   45SOL    HW117277   1.253   0.052   7.007
   45SOL    HW217278   1.154  -0.052   6.961
   46SOL     OW17279   0.330   5.802   6.383
   46SOL    HW117280   0.336   5.766   6.295
   46SOL    HW217281   0.270   5.877   6.374
   47SOL     OW17282   2.442   4.629   1.453
   47SOL    HW117283   2.408   4.576   1.525
   47SOL    HW217284   2.383   4.609   1.380
   48SOL     OW17285   2.805   3.390   1.514
   48SOL    HW117286   2.760   3.454   1.569
   48SOL    HW217287   2.898   3.412   1.523
   49SOL     OW17288   1.222   4.792   1.031
   49SOL    HW117289   1.196   4.868   1.082
   49SOL    HW217290   1.144   4.736   1.029
   50SOL     OW17291   4.752   2.600   2.180
   50SOL    HW117292   4.663   2.605   2.146
   50SOL    HW217293   4.796   2.535   2.125
   51SOL     OW17294   3.672   3.448   6.982
   51SOL    HW117295   3.632   3.413   7.061
   51SOL    HW217296   3.756   3.483   7.011
   52SOL     OW17297   3.264   0.439   1.538
   52SOL    HW117298   3.298   0.357   1.503
   52SOL    HW217299   3.186   0.414   1.588
   53SOL     OW17300   4.491   2.064   6.884
   53SOL    HW117301   4.522   2.113   6.807
   53SOL    HW217302   4.407   2.027   6.856
   54SOL     OW17303   5.168   0.624   6.759
   54SOL    HW117304   5.158   0.675   6.679
   54SOL    HW217305   5.099   0.656   6.817
   55SOL     OW17306   6.335   1.038   0.158
   55SOL    HW117307   6.343   1.015   0.065
   55SOL    HW217308   6.248   1.006   0.183
   56SOL     OW17309   0.946   4.140   1.329
   56SOL    HW117310   1.029   4.152   1.375
   56SOL    HW217311   0.914   4.056   1.359
   57SOL     OW17312   6.123   4.496   1.804
   57SOL    HW117313   6.166   4.539   1.878
   57SOL    HW217314   6.190   4.493   1.736
   58SOL     OW17315   1.657   2.312   1.888
   58SOL    HW117316   1.721   2.281   1.825
   58SOL    HW217317   1.627   2.233   1.933
   59SOL     OW17318   6.252   0.182   7.505
   59SOL    HW117319   6.164   0.178   7.467
   59SOL    HW217320   6.279   0.273   7.494
   60SOL     OW17321   1.951   3.959   6.277
   60SOL    HW117322   1.916   4.006   6.202
   60SOL    HW217323   2.044   3.980   6.278
   61SOL     OW17324   1.201   4.178   1.459
   61SOL    HW117325   1.185   4.099   1.510
   61SOL    HW217326   1.296   4.178   1.443
   62SOL     OW17327   5.963   2.970   6.071
   62SOL    HW117328   6.022   2.965   5.996
   62SOL    HW217329   5.981   3.056   6.110
   63SOL     OW17330   5.750   2.702   6.712
   63SOL    HW117331   5.841   2.711   6.686
   63SOL    HW217332   5.701   2.694   6.630
   64SOL     OW17333   1.076   0.006   6.218
   64SOL    HW117334   1.133  -0.069   6.198
   64SOL    HW217335   1.032  -0.019   6.300
   65SOL     OW17336   1.936   4.633   0.234
   65SOL    HW117337   1.938   4.665   0.144
   65SOL    HW217338   1.905   4.543   0.227
   66SOL     OW17339   5.926   3.099   7.645
   66SOL    HW117340   5.838   3.068   7.667
   66SOL    HW217341   5.950   3.048   7.568
   67SOL     OW17342   2.147   0.382   1.118
   67SOL    HW117343   2.171   0.351   1.205
   67SOL    HW217344   2.225   0.366   1.064
   68SOL     OW17345   2.566   2.708   7.693
   68SOL    HW117346   2.496   2.643   7.701
   68SOL    HW217347   2.580   2.739   7.783
   69SOL     OW17348   5.655   2.433   0.440
   69SOL    HW117349   5.608   2.349   0.447
   69SOL    HW217350   5.611   2.490   0.503
   70SOL     OW17351   2.293   1.890   7.009
   70SOL    HW117352   2.214   1.859   7.054
   70SOL    HW217353   2.260   1.948   6.940
   71SOL     OW17354   4.074   1.313   6.998
   71SOL    HW117355   4.036   1.323   6.911
   71SOL    HW217356   4.130   1.390   7.009
   72SOL     OW17357   0.431   2.360   1.296
   72SOL    HW117358   0.497   2.428   1.289
   72SOL    HW217359   0.470   2.285   1.250
   73SOL     OW17360   0.320   6.173   1.974
   73SOL    HW117361   0.310   6.165   1.880
   73SOL    HW217362   0.261   6.107   2.011
   74SOL     OW17363   5.330   0.379   5.968
   74SOL    HW117364   5.386   0.333   6.030
   74SOL    HW217365   5.248   0.328   5.968
   75SOL     OW17366   4.396   3.879   5.788
   75SOL    HW117367   4.319   3.832   5.818
   75SOL    HW217368   4.432   3.919   5.868
   76SOL     OW17369   6.104   5.313   0.051
   76SOL    HW117370   6.100   5.244   0.117
   76SOL    HW217371   6.097   5.395   0.100
   77SOL     OW17372   0.147   2.879   7.700
   77SOL    HW117373   0.141   2.903   7.792
   77SOL    HW217374   0.155   2.962   7.653
   78SOL     OW17375   0.836   5.018   7.105
   78SOL    HW117376   0.761   5.078   7.104
   78SOL    HW217377   0.860   5.010   7.197
   79SOL     OW17378   2.989   0.936   0.186
   79SOL    HW117379   2.969   0.892   0.104
   79SOL    HW217380   3.026   1.020   0.161
   80SOL     OW17381   5.068   3.411   7.253
   80SOL    HW117382   4.990   3.366   7.285
   80SOL    HW217383   5.137   3.345   7.258
   81SOL     OW17384   5.045   0.279   7.080
   81SOL    HW117385   4.990   0.355   7.097
   81SOL    HW217386   5.077   0.291   6.991
   82SOL     OW17387   1.876   0.415   0.717
   82SOL    HW117388   1.937   0.398   0.645
   82SOL    HW217389   1.839   0.501   0.699
   83SOL     OW17390   6.054   4.638   5.851
   83SOL    HW117391   6.042   4.689   5.771
   83SOL    HW217392   6.043   4.547   5.822
   84SOL     OW17393   2.323   5.548   1.624
   84SOL    HW117394   2.259   5.521   1.691
   84SOL    HW217395   2.334   5.470   1.569
   85SOL     OW17396   0.017   6.177   0.775
   85SOL    HW117397  -0.019   6.090   0.760
   85SOL    HW217398   0.085   6.187   0.708
   86SOL     OW17399   0.778   1.867   6.399
   86SOL    HW117400   0.803   1.820   6.320
   86SOL    HW217401   0.849   1.851   6.461
   87SOL     OW17402   0.256   3.683   1.199
   87SOL    HW117403   0.169   3.644   1.205
   87SOL    HW217404   0.240   3.773   1.172
   88SOL     OW17405   0.678   3.204   5.714
   88SOL    HW117406   0.625   3.133   5.750
   88SOL    HW217407   0.624   3.282   5.725
   89SOL     OW17408   5.961   2.724   7.014
   89SOL    HW117409   5.870   2.700   7.002
   89SOL    HW217410   5.986   2.685   7.098
   90SOL     OW17411   3.394   3.732   6.706
   90SOL    HW117412   3.368   3.696   6.790
   90SOL    HW217413   3.350   3.817   6.701
   91SOL     OW17414   0.975   2.771   0.566
   91SOL    HW117415   0.932   2.761   0.481
   91SOL    HW217416   0.972   2.683   0.604
   92SOL     OW17417   5.688   0.774   0.949
   92SOL    HW117418   5.722   0.705   1.005
   92SOL    HW217419   5.678   0.733   0.863
   93SOL     OW17420   3.536   1.032   7.340
   93SOL    HW117421   3.580   0.950   7.362
   93SOL    HW217422   3.584   1.065   7.264
   94SOL     OW17423   5.698   1.311   6.694
   94SOL    HW117424   5.694   1.270   6.607
   94SOL    HW217425   5.668   1.400   6.679
   95SOL     OW17426   0.467   2.231   6.609
   95SOL    HW117427   0.530   2.297   6.579
   95SOL    HW217428   0.382   2.269   6.588
   96SOL     OW17429   2.874   5.616   1.492
   96SOL    HW117430   2.806   5.576   1.438
   96SOL    HW217431   2.856   5.586   1.581
   97SOL     OW17432   1.896   2.916   7.395
   97SOL    HW117433   1.831   2.967   7.346
   97SOL    HW217434   1.975   2.919   7.341
   98SOL     OW17435   6.366   5.558   1.634
   98SOL    HW117436   6.284   5.509   1.628
   98SOL    HW217437   6.375   5.578   1.727
   99SOL     OW17438   0.417   0.836   1.382
   99SOL    HW117439   0.413   0.906   1.448
   99SOL    HW217440   0.494   0.858   1.329
  100SOL     OW17441   2.617   4.064   6.566
  100SOL    HW117442   2.597   4.079   6.473
  100SOL    HW217443   2.544   4.011   6.598
  101SOL     OW17444   0.276   2.357   6.485
  101SOL    HW117445   0.184   2.380   6.498
  101SOL    HW217446   0.324   2.438   6.502
  102SOL     OW17447   4.495   0.023   6.084
  102SOL    HW117448   4.576   0.050   6.128
  102SOL    HW217449   4.506   0.052   5.993
  103SOL     OW17450   3.739   1.526   6.064
  103SOL    HW117451   3.789   1.484   5.994
  103SOL    HW217452   3.800   1.587   6.104
  104SOL     OW17453   3.665   0.436   7.163
  104SOL    HW117454   3.617   0.513   7.194
  104SOL    HW217455   3.612   0.405   7.089
  105SOL     OW17456   4.893   0.488   7.156
  105SOL    HW117457   4.807   0.458   7.126
  105SOL    HW217458   4.873   0.555   7.222
  106SOL     OW17459   4.810   3.974   1.832
  106SOL    HW117460   4.838   3.883   1.836
  106SOL    HW217461   4.819   4.006   1.922
  107SOL     OW17462   6.132   2.560   0.663
  107SOL    HW117463   6.139   2.599   0.576
  107SOL    HW217464   6.039   2.536   0.670
  108SOL     OW17465   2.238   3.157   6.915
  108SOL    HW117466   2.170   3.208   6.961
  108SOL    HW217467   2.317   3.172   6.966
  109SOL     OW17468   2.381   4.915   6.801
  109SOL    HW117469   2.402   4.910   6.708
  109SOL    HW217470   2.434   4.987   6.834
  110SOL     OW17471   2.913   2.168   0.438
  110SOL    HW117472   2.961   2.102   0.388
  110SOL    HW217473   2.821   2.146   0.424
  111SOL     OW17474   1.429   0.169   0.105
  111SOL    HW117475   1.412   0.255   0.143
  111SOL    HW217476   1.352   0.117   0.128
  112SOL     OW17477   0.829   1.402   0.126
  112SOL    HW117478   0.734   1.398   0.136
  112SOL    HW217479   0.851   1.324   0.075
  113SOL     OW17480   2.453   0.061   0.946
  113SOL    HW117481   2.389   0.021   1.004
  113SOL    HW217482   2.428   0.154   0.943
  114SOL     OW17483   5.901   4.704   0.914
  114SOL    HW117484   5.807   4.720   0.909
  114SOL    HW217485   5.911   4.611   0.897
  115SOL     OW17486   1.918   5.701   7.134
  115SOL    HW117487   1.825   5.682   7.124
  115SOL    HW217488   1.950   5.713   7.044
  116SOL     OW17489   3.200   6.257   7.408
  116SOL    HW117490   3.185   6.350   7.388
  116SOL    HW217491   3.289   6.240   7.376
  117SOL     OW17492   2.984   3.481   6.350
  117SOL    HW117493   3.069   3.461   6.390
  117SOL    HW217494   2.925   3.414   6.385
  118SOL     OW17495   0.552   4.231   0.112
  118SOL    HW117496   0.506   4.283   0.046
  118SOL    HW217497   0.642   4.266   0.111
  119SOL     OW17498   5.827   1.087   5.701
  119SOL    HW117499   5.894   1.140   5.658
  119SOL    HW217500   5.864   0.999   5.702
  120SOL     OW17501   5.638   3.002   1.594
  120SOL    HW117502   5.688   3.022   1.514
  120SOL    HW217503   5.564   2.949   1.563
  121SOL     OW17504   2.017   1.708   5.774
  121SOL    HW117505   2.014   1.793   5.818
  121SOL    HW217506   1.966   1.720   5.694
  122SOL     OW17507   5.940   1.269   1.667
  122SOL    HW117508   5.871   1.304   1.722
  122SOL    HW217509   5.953   1.180   1.698
  123SOL     OW17510   0.388   3.177   7.443
  123SOL    HW117511   0.398   3.082   7.451
  123SOL    HW217512   0.474   3.208   7.416
  124SOL     OW17513   5.886   5.313   1.360
  124SOL    HW117514   5.927   5.275   1.437
  124SOL    HW217515   5.935   5.278   1.286
  125SOL     OW17516   1.238   5.796   0.133
  125SOL    HW117517   1.259   5.765   0.221
  125SOL    HW217518   1.201   5.883   0.147
  126SOL     OW17519   4.846   1.602   1.439
  126SOL    HW117520   4.871   1.581   1.529
  126SOL    HW217521   4.902   1.545   1.385
  127SOL     OW17522   1.496   4.818   2.031
  127SOL    HW117523   1.431   4.873   2.075
  127SOL    HW217524   1.521   4.867   1.953
  128SOL     OW17525   2.570   4.759   0.655
  128SOL    HW117526   2.528   4.828   0.603
  128SOL    HW217527   2.608   4.700   0.590
  129SOL     OW17528   0.097   3.184   2.005
  129SOL    HW117529   0.126   3.094   2.025
  129SOL    HW217530   0.028   3.173   1.939
  130SOL     OW17531   3.918   0.174   1.376
  130SOL    HW117532   3.909   0.203   1.285
  130SOL    HW217533   3.859   0.099   1.383
  131SOL     OW17534   2.450   4.374   0.676
  131SOL    HW117535   2.438   4.339   0.764
  131SOL    HW217536   2.511   4.313   0.634
  132SOL     OW17537   4.812   5.543   0.252
  132SOL    HW117538   4.740   5.494   0.213
  132SOL    HW217539   4.776   5.579   0.333
  133SOL     OW17540   2.363   0.373   7.709
  133SOL    HW117541   2.278   0.402   7.678
  133SOL    HW217542   2.343   0.313   7.781
  134SOL     OW17543   3.254   5.258   1.299
  134SOL    HW117544   3.200   5.210   1.236
  134SOL    HW217545   3.223   5.349   1.293
  135SOL     OW17546   6.421   1.843   7.140
  135SOL    HW117547   6.420   1.750   7.117
  135SOL    HW217548   6.478   1.848   7.217
  136SOL     OW17549   4.258   1.035   1.428
  136SOL    HW117550   4.181   0.992   1.390
  136SOL    HW217551   4.262   1.002   1.517
  137SOL     OW17552   0.386   3.730   0.833
  137SOL    HW117553   0.303   3.686   0.850
  137SOL    HW217554   0.366   3.794   0.764
  138SOL     OW17555   6.286   4.705   0.983
  138SOL    HW117556   6.254   4.664   1.063
  138SOL    HW217557   6.377   4.726   1.001
  139SOL     OW17558   4.783   3.526   2.864
  139SOL    HW117559   4.705   3.578   2.884
  139SOL    HW217560   4.751   3.436   2.856
  140SOL     OW17561   3.629   0.746   1.999
  140SOL    HW117562   3.544   0.731   1.956
  140SOL    HW217563   3.607   0.781   2.085
  141SOL     OW17564   0.565   1.366   5.971
  141SOL    HW117565   0.543   1.288   5.921
  141SOL    HW217566   0.640   1.404   5.925
  142SOL     OW17567   3.096   1.941   1.735
  142SOL    HW117568   3.117   2.000   1.808
  142SOL    HW217569   3.120   1.989   1.657
  143SOL     OW17570   2.013   5.667   7.484
  143SOL    HW117571   1.945   5.610   7.520
  143SOL    HW217572   2.030   5.731   7.554
  144SOL     OW17573   4.403   4.845   1.483
  144SOL    HW117574   4.494   4.871   1.500
  144SOL    HW217575   4.410   4.760   1.440
  145SOL     OW17576   1.832   2.697   5.572
  145SOL    HW117577   1.897   2.639   5.611
  145SOL    HW217578   1.752   2.680   5.623
  146SOL     OW17579   4.607   6.006   5.228
  146SOL    HW117580   4.594   5.982   5.136
  146SOL    HW217581   4.520   6.034   5.258
  147SOL     OW17582   5.677   0.143   0.564
  147SOL    HW117583   5.586   0.128   0.590
  147SOL    HW217584   5.680   0.237   0.545
  148SOL     OW17585   3.963   2.826   6.509
  148SOL    HW117586   3.946   2.909   6.464
  148SOL    HW217587   4.036   2.787   6.460
  149SOL     OW17588   2.732   2.011   7.496
  149SOL    HW117589   2.699   2.096   7.526
  149SOL    HW217590   2.692   1.999   7.410
  150SOL     OW17591   5.663   4.603   1.077
  150SOL    HW117592   5.575   4.592   1.043
  150SOL    HW217593   5.654   4.671   1.144
  151SOL     OW17594   5.669   4.968   1.537
  151SOL    HW117595   5.704   5.036   1.595
  151SOL    HW217596   5.574   4.976   1.546
  152SOL     OW17597   4.634   1.963   7.300
  152SOL    HW117598   4.609   1.946   7.209
  152SOL    HW217599   4.705   1.901   7.317
  153SOL     OW17600   4.338   0.027   7.038
  153SOL    HW117601   4.274  -0.035   7.075
  153SOL    HW217602   4.386  -0.024   6.973
  154SOL     OW17603   0.546   1.761   0.252
  154SOL    HW117604   0.587   1.739   0.168
  154SOL    HW217605   0.571   1.852   0.267
  155SOL     OW17606   2.001   5.989   6.749
  155SOL    HW117607   2.000   5.933   6.672
  155SOL    HW217608   2.065   6.058   6.727
  156SOL     OW17609   3.164   4.871   2.587
  156SOL    HW117610   3.102   4.840   2.522
  156SOL    HW217611   3.199   4.790   2.627
  157SOL     OW17612   0.604   4.668   2.370
  157SOL    HW117613   0.561   4.664   2.285
  157SOL    HW217614   0.678   4.608   2.362
  158SOL     OW17615   2.312   4.293   6.663
  158SOL    HW117616   2.369   4.309   6.588
  158SOL    HW217617   2.369   4.302   6.739
  159SOL     OW17618   4.479   5.184   1.981
  159SOL    HW117619   4.429   5.260   2.010
  159SOL    HW217620   4.509   5.143   2.063
  160SOL     OW17621   0.449   3.305   5.460
  160SOL    HW117622   0.539   3.276   5.447
  160SOL    HW217623   0.445   3.330   5.553
  161SOL     OW17624   0.368   4.382   7.090
  161SOL    HW117625   0.420   4.354   7.166
  161SOL    HW217626   0.312   4.452   7.123
  162SOL     OW17627   0.502   4.569   0.377
  162SOL    HW117628   0.567   4.603   0.315
  162SOL    HW217629   0.507   4.474   0.367
  163SOL     OW17630   5.705   2.382   6.534
  163SOL    HW117631   5.683   2.352   6.446
  163SOL    HW217632   5.717   2.476   6.526
  164SOL     OW17633   5.774   1.002   1.569
  164SOL    HW117634   5.739   1.072   1.625
  164SOL    HW217635   5.868   1.008   1.581
  165SOL     OW17636   0.270   2.487   7.562
  165SOL    HW117637   0.241   2.396   7.554
  165SOL    HW217638   0.365   2.484   7.547
  166SOL     OW17639   5.622   1.309   1.686
  166SOL    HW117640   5.569   1.349   1.755
  166SOL    HW217641   5.598   1.357   1.607
  167SOL     OW17642   5.140   3.966   0.531
  167SOL    HW117643   5.066   3.911   0.507
  167SOL    HW217644   5.105   4.027   0.595
  168SOL     OW17645   2.122   1.614   0.761
  168SOL    HW117646   2.148   1.524   0.742
  168SOL    HW217647   2.080   1.609   0.847
  169SOL     OW17648   2.004   4.644   2.546
  169SOL    HW117649   1.910   4.637   2.532
  169SOL    HW217650   2.034   4.554   2.558
  170SOL     OW17651   2.855   3.442   2.384
  170SOL    HW117652   2.818   3.360   2.351
  170SOL    HW217653   2.806   3.510   2.338
  171SOL     OW17654   3.330   0.563   1.185
  171SOL    HW117655   3.382   0.530   1.259
  171SOL    HW217656   3.352   0.504   1.113
  172SOL     OW17657   6.319   2.243   0.494
  172SOL    HW117658   6.279   2.330   0.490
  172SOL    HW217659   6.401   2.252   0.445
  173SOL     OW17660   5.003   4.904   1.436
  173SOL    HW117661   5.009   4.998   1.449
  173SOL    HW217662   4.929   4.894   1.375
  174SOL     OW17663   6.218   2.911   0.478
  174SOL    HW117664   6.217   2.972   0.405
  174SOL    HW217665   6.281   2.843   0.452
  175SOL     OW17666   1.357   2.259   0.388
  175SOL    HW117667   1.424   2.288   0.326
  175SOL    HW217668   1.316   2.340   0.419
  176SOL     OW17669   5.458   3.302   1.714
  176SOL    HW117670   5.500   3.284   1.630
  176SOL    HW217671   5.480   3.394   1.733
  177SOL     OW17672   2.133   4.258   7.599
  177SOL    HW117673   2.136   4.162   7.597
  177SOL    HW217674   2.051   4.280   7.556
  178SOL     OW17675   1.447   0.900   7.653
  178SOL    HW117676   1.533   0.928   7.684
  178SOL    HW217677   1.436   0.812   7.690
  179SOL     OW17678   0.994   3.431   2.565
  179SOL    HW117679   0.968   3.496   2.630
  179SOL    HW217680   0.950   3.460   2.484
  180SOL     OW17681   3.514   3.747   7.504
  180SOL    HW117682   3.600   3.779   7.532
  180SOL    HW217683   3.521   3.739   7.409
  181SOL     OW17684   3.395   6.451   6.858
  181SOL    HW117685   3.305   6.481   6.849
  181SOL    HW217686   3.394   6.393   6.934
  182SOL     OW17687   3.765   1.194   0.346
  182SOL    HW117688   3.678   1.215   0.313
  182SOL    HW217689   3.796   1.276   0.386
  183SOL     OW17690   3.343   0.965   6.111
  183SOL    HW117691   3.381   0.949   6.025
  183SOL    HW217692   3.355   1.059   6.127
  184SOL     OW17693   6.204   2.532   7.428
  184SOL    HW117694   6.175   2.457   7.479
  184SOL    HW217695   6.293   2.550   7.458
  185SOL     OW17696   4.067   5.700   1.372
  185SOL    HW117697   3.988   5.707   1.426
  185SOL    HW217698   4.044   5.634   1.306
  186SOL     OW17699   5.599   1.651   2.149
  186SOL    HW117700   5.586   1.739   2.184
  186SOL    HW217701   5.550   1.650   2.067
  187SOL     OW17702   4.348   0.832   1.943
  187SOL    HW117703   4.352   0.897   2.014
  187SOL    HW217704   4.325   0.751   1.987
  188SOL     OW17705   2.979   0.004   0.813
  188SOL    HW117706   3.006  -0.010   0.904
  188SOL    HW217707   2.956   0.097   0.810
  189SOL     OW17708   0.338   5.911   1.471
  189SOL    HW117709   0.335   6.007   1.472
  189SOL    HW217710   0.314   5.887   1.382
  190SOL     OW17711   5.160   2.605   6.129
  190SOL    HW117712   5.201   2.550   6.196
  190SOL    HW217713   5.227   2.616   6.062
  191SOL     OW17714   2.951   1.441   7.230
  191SOL    HW117715   2.989   1.508   7.175
  191SOL    HW217716   2.900   1.386   7.170
  192SOL     OW17717   4.039   1.171   2.389
  192SOL    HW117718   4.132   1.157   2.376
  192SOL    HW217719   4.034   1.229   2.465
  193SOL     OW17720   1.050   3.792   0.400
  193SOL    HW117721   0.999   3.821   0.476
  193SOL    HW217722   1.019   3.846   0.328
  194SOL     OW17723   6.232   1.656   6.091
  194SOL    HW117724   6.281   1.616   6.020
  194SOL    HW217725   6.140   1.651   6.063
  195SOL     OW17726   2.651   4.332   0.193
  195SOL    HW117727   2.616   4.328   0.103
  195SOL    HW217728   2.714   4.404   0.191
  196SOL     OW17729   0.916   3.951   1.045
  196SOL    HW117730   0.866   3.877   1.077
  196SOL    HW217731   0.997   3.951   1.097
  197SOL     OW17732   5.353   5.803   6.335
  197SOL    HW117733   5.355   5.755   6.252
  197SOL    HW217734   5.358   5.895   6.310
  198SOL     OW17735   1.048   0.069   0.522
  198SOL    HW117736   1.019   0.147   0.476
  198SOL    HW217737   1.130   0.096   0.565
  199SOL     OW17738   4.313   2.809   5.755
  199SOL    HW117739   4.302   2.812   5.850
  199SOL    HW217740   4.341   2.897   5.731
  200SOL     OW17741   4.697   1.718   6.124
  200SOL    HW117742   4.743   1.650   6.075
  200SOL    HW217743   4.658   1.773   6.057
  201SOL     OW17744   2.331   4.630   1.994
  201SOL    HW117745   2.405   4.653   1.937
  201SOL    HW217746   2.340   4.535   2.007
  202SOL     OW17747   5.576   3.448   7.630
  202SOL    HW117748   5.580   3.533   7.586
  202SOL    HW217749   5.626   3.461   7.711
  203SOL     OW17750   3.666   1.770   1.133
  203SOL    HW117751   3.670   1.767   1.038
  203SOL    HW217752   3.731   1.705   1.162
  204SOL     OW17753   4.159   3.833   2.420
  204SOL    HW117754   4.202   3.870   2.497
  204SOL    HW217755   4.219   3.764   2.390
  205SOL     OW17756   1.236   4.410   7.639
  205SOL    HW117757   1.295   4.400   7.565
  205SOL    HW217758   1.196   4.496   7.627
  206SOL     OW17759   3.141   1.479   0.605
  206SOL    HW117760   3.159   1.510   0.694
  206SOL    HW217761   3.048   1.457   0.605
  207SOL     OW17762   3.285   6.009   6.200
  207SOL    HW117763   3.373   6.010   6.237
  207SOL    HW217764   3.227   6.017   6.277
  208SOL     OW17765   4.362   4.450   0.655
  208SOL    HW117766   4.271   4.444   0.685
  208SOL    HW217767   4.355   4.484   0.565
  209SOL     OW17768   6.074   3.715   0.971
  209SOL    HW117769   6.106   3.676   1.053
  209SOL    HW217770   6.083   3.809   0.984
  210SOL     OW17771   1.231   4.312   0.108
  210SOL    HW117772   1.177   4.383   0.142
  210SOL    HW217773   1.275   4.349   0.031
  211SOL     OW17774   4.415   2.902   0.964
  211SOL    HW117775   4.491   2.903   0.905
  211SOL    HW217776   4.453   2.912   1.052
  212SOL     OW17777   4.819   5.134   6.062
  212SOL    HW117778   4.882   5.195   6.025
  212SOL    HW217779   4.845   5.126   6.154
  213SOL     OW17780   2.125   6.228   6.687
  213SOL    HW117781   2.152   6.301   6.630
  213SOL    HW217782   2.054   6.264   6.740
  214SOL     OW17783   1.977   2.485   2.497
  214SOL    HW117784   2.071   2.468   2.489
  214SOL    HW217785   1.971   2.565   2.549
  215SOL     OW17786   4.864   3.878   1.271
  215SOL    HW117787   4.919   3.847   1.343
  215SOL    HW217788   4.831   3.963   1.302
  216SOL     OW17789   3.220   3.478   1.970
  216SOL    HW117790   3.243   3.499   2.060
  216SOL    HW217791   3.127   3.456   1.973
  217SOL     OW17792   4.400   5.394   0.909
  217SOL    HW117793   4.320   5.370   0.955
  217SOL    HW217794   4.421   5.316   0.856
  218SOL     OW17795   5.411   4.557   0.956
  218SOL    HW117796   5.373   4.640   0.984
  218SOL    HW217797   5.381   4.494   1.021
  219SOL     OW17798   2.975   1.706   0.078
  219SOL    HW117799   2.971   1.781   0.019
  219SOL    HW217800   2.884   1.683   0.094
  220SOL     OW17801   2.082   5.853   0.823
  220SOL    HW117802   2.175   5.863   0.847
  220SOL    HW217803   2.080   5.870   0.729
  221SOL     OW17804   1.223   4.445   6.478
  221SOL    HW117805   1.200   4.383   6.409
  221SOL    HW217806   1.224   4.530   6.435
  222SOL     OW17807   5.915   0.181   0.221
  222SOL    HW117808   5.826   0.147   0.231
  222SOL    HW217809   5.902   0.270   0.188
  223SOL     OW17810   4.882   4.227   0.717
  223SOL    HW117811   4.813   4.217   0.651
  223SOL    HW217812   4.835   4.237   0.800
  224SOL     OW17813   0.626   2.460   0.840
  224SOL    HW117814   0.658   2.406   0.913
  224SOL    HW217815   0.612   2.546   0.879
  225SOL     OW17816   3.542   2.813   0.821
  225SOL    HW117817   3.555   2.850   0.734
  225SOL    HW217818   3.454   2.777   0.819
  226SOL     OW17819   0.504   4.797   1.320
  226SOL    HW117820   0.570   4.838   1.265
  226SOL    HW217821   0.554   4.747   1.384
  227SOL     OW17822   2.071   1.315   7.064
  227SOL    HW117823   2.151   1.352   7.026
  227SOL    HW217824   2.002   1.377   7.039
  228SOL     OW17825   0.527   2.698   6.721
  228SOL    HW117826   0.519   2.717   6.628
  228SOL    HW217827   0.519   2.783   6.764
  229SOL     OW17828   3.495   3.938   0.423
  229SOL    HW117829   3.451   4.007   0.472
  229SOL    HW217830   3.565   3.982   0.376
  230SOL     OW17831   2.526   2.072   5.675
  230SOL    HW117832   2.550   2.162   5.696
  230SOL    HW217833   2.445   2.079   5.625
  231SOL     OW17834   2.693   3.634   2.268
  231SOL    HW117835   2.693   3.716   2.319
  231SOL    HW217836   2.629   3.649   2.198
  232SOL     OW17837  -0.001   4.499   1.783
  232SOL    HW117838   0.044   4.514   1.867
  232SOL    HW217839   0.047   4.427   1.743
  233SOL     OW17840   1.111   5.717   6.116
  233SOL    HW117841   1.125   5.706   6.022
  233SOL    HW217842   1.179   5.779   6.143
  234SOL     OW17843   2.643   5.478   6.244
  234SOL    HW117844   2.643   5.459   6.150
  234SOL    HW217845   2.568   5.536   6.256
  235SOL     OW17846   4.672   0.990   2.245
  235SOL    HW117847   4.716   0.997   2.330
  235SOL    HW217848   4.728   0.932   2.194
  236SOL     OW17849   4.282   5.118   7.085
  236SOL    HW117850   4.294   5.035   7.039
  236SOL    HW217851   4.200   5.153   7.049
  237SOL     OW17852   2.075   6.014   1.372
  237SOL    HW117853   2.143   6.028   1.306
  237SOL    HW217854   2.122   6.020   1.456
  238SOL     OW17855   4.038   0.483   6.661
  238SOL    HW117856   4.065   0.554   6.719
  238SOL    HW217857   4.115   0.427   6.655
  239SOL     OW17858   3.607   2.741   0.319
  239SOL    HW117859   3.523   2.750   0.273
  239SOL    HW217860   3.611   2.818   0.376
  240SOL     OW17861   1.691   3.452   0.287
  240SOL    HW117862   1.700   3.462   0.382
  240SOL    HW217863   1.597   3.441   0.273
  241SOL     OW17864   4.789   4.037   6.353
  241SOL    HW117865   4.826   3.972   6.413
  241SOL    HW217866   4.817   4.008   6.266
  242SOL     OW17867   5.853   4.148   1.076
  242SOL    HW117868   5.783   4.197   1.117
  242SOL    HW217869   5.891   4.209   1.012
  243SOL     OW17870   5.607   5.903   5.672
  243SOL    HW117871   5.694   5.933   5.648
  243SOL    HW217872   5.559   5.983   5.694
  244SOL     OW17873   0.581   3.020   1.028
  244SOL    HW117874   0.670   2.987   1.031
  244SOL    HW217875   0.562   3.031   0.935
  245SOL     OW17876   4.929   3.229   2.658
  245SOL    HW117877   4.914   3.135   2.648
  245SOL    HW217878   4.841   3.266   2.669
  246SOL     OW17879   1.440   3.879   6.627
  246SOL    HW117880   1.421   3.796   6.671
  246SOL    HW217881   1.378   3.941   6.665
  247SOL     OW17882   0.432   3.250   6.894
  247SOL    HW117883   0.359   3.289   6.845
  247SOL    HW217884   0.414   3.274   6.986
  248SOL     OW17885   3.371   5.882   1.143
  248SOL    HW117886   3.357   5.939   1.067
  248SOL    HW217887   3.464   5.890   1.162
  249SOL     OW17888   1.991   5.548   0.483
  249SOL    HW117889   2.056   5.548   0.413
  249SOL    HW217890   2.035   5.503   0.556
  250SOL     OW17891   2.320   1.461   0.106
  250SOL    HW117892   2.415   1.468   0.103
  250SOL    HW217893   2.301   1.368   0.097
  251SOL     OW17894   4.254   0.318   6.632
  251SOL    HW117895   4.328   0.286   6.581
  251SOL    HW217896   4.277   0.300   6.723
  252SOL     OW17897   3.561   2.586   7.482
  252SOL    HW117898   3.500   2.647   7.442
  252SOL    HW217899   3.643   2.634   7.488
  253SOL     OW17900   3.852   5.235   1.438
  253SOL    HW117901   3.814   5.307   1.389
  253SOL    HW217902   3.809   5.239   1.523
  254SOL     OW17903   1.388   2.015   5.808
  254SOL    HW117904   1.354   2.047   5.724
  254SOL    HW217905   1.482   2.003   5.792
  255SOL     OW17906   2.650   6.388   2.005
  255SOL    HW117907   2.728   6.404   1.952
  255SOL    HW217908   2.682   6.338   2.080
  256SOL     OW17909   4.890   0.417   1.920
  256SOL    HW117910   4.873   0.431   1.827
  256SOL    HW217911   4.955   0.484   1.942
  257SOL     OW17912   0.020   1.354   0.562
  257SOL    HW117913   0.114   1.365   0.579
  257SOL    HW217914   0.016   1.292   0.489
  258SOL     OW17915   5.127   6.016   1.872
  258SOL    HW117916   5.127   6.065   1.790
  258SOL    HW217917   5.180   6.068   1.932
  259SOL     OW17918   5.726   5.052   1.965
  259SOL    HW117919   5.820   5.040   1.977
  259SOL    HW217920   5.692   4.964   1.948
  260SOL     OW17921   3.140   4.794   7.448
  260SOL    HW117922   3.095   4.798   7.363
  260SOL    HW217923   3.125   4.880   7.487
  261SOL     OW17924   4.073   5.156   0.461
  261SOL    HW117925   3.986   5.196   0.469
  261SOL    HW217926   4.076   5.125   0.370
  262SOL     OW17927   5.296   4.440   0.412
  262SOL    HW117928   5.365   4.417   0.475
  262SOL    HW217929   5.215   4.418   0.458
  263SOL     OW17930   3.129   1.818   5.676
  263SOL    HW117931   3.176   1.854   5.751
  263SOL    HW217932   3.169   1.732   5.661
  264SOL     OW17933   5.401   4.909   2.020
  264SOL    HW117934   5.337   4.980   2.020
  264SOL    HW217935   5.431   4.903   2.110
  265SOL     OW17936   0.503   3.682   7.500
  265SOL    HW117937   0.570   3.738   7.541
  265SOL    HW217938   0.554   3.614   7.456
  266SOL     OW17939   6.174   5.699   6.623
  266SOL    HW117940   6.126   5.684   6.704
  266SOL    HW217941   6.133   5.641   6.559
  267SOL     OW17942   0.240   4.910   0.639
  267SOL    HW117943   0.288   4.992   0.646
  267SOL    HW217944   0.275   4.869   0.560
  268SOL     OW17945   0.081   5.484   0.920
  268SOL    HW117946   0.125   5.409   0.960
  268SOL    HW217947   0.003   5.497   0.973
  269SOL     OW17948   2.028   4.479   6.742
  269SOL    HW117949   2.040   4.465   6.648
  269SOL    HW217950   1.950   4.428   6.764
  270SOL     OW17951   1.641   5.893   6.578
  270SOL    HW117952   1.698   5.965   6.601
  270SOL    HW217953   1.587   5.879   6.656
  271SOL     OW17954   3.589   1.468   7.320
  271SOL    HW117955   3.643   1.438   7.247
  271SOL    HW217956   3.638   1.442   7.398
  272SOL     OW17957   0.830   6.141   7.618
  272SOL    HW117958   0.925   6.135   7.615
  272SOL    HW217959   0.806   6.177   7.533
  273SOL     OW17960   1.007   0.257   1.048
  273SOL    HW117961   1.049   0.204   0.980
  273SOL    HW217962   1.079   0.284   1.105
  274SOL     OW17963   2.788   3.644   6.572
  274SOL    HW117964   2.869   3.693   6.583
  274SOL    HW217965   2.816   3.555   6.553
  275SOL     OW17966   4.494   3.848   0.096
  275SOL    HW117967   4.425   3.788   0.065
  275SOL    HW217968   4.496   3.918   0.030
  276SOL     OW17969   0.167   2.530   1.319
  276SOL    HW117970   0.171   2.624   1.299
  276SOL    HW217971   0.258   2.501   1.311
  277SOL     OW17972   4.623   0.752   5.916
  277SOL    HW117973   4.626   0.836   5.869
  277SOL    HW217974   4.607   0.687   5.847
  278SOL     OW17975   1.325   2.313   6.639
  278SOL    HW117976   1.231   2.310   6.624
  278SOL    HW217977   1.363   2.320   6.551
  279SOL     OW17978   5.267   5.825   7.455
  279SOL    HW117979   5.253   5.748   7.511
  279SOL    HW217980   5.265   5.790   7.366
  280SOL     OW17981   0.105   6.178   1.283
  280SOL    HW117982   0.027   6.195   1.230
  280SOL    HW217983   0.177   6.220   1.235
  281SOL     OW17984   0.614   2.167   7.493
  281SOL    HW117985   0.703   2.147   7.466
  281SOL    HW217986   0.591   2.247   7.444
  282SOL     OW17987   3.670   2.241   6.767
  282SOL    HW117988   3.663   2.322   6.717
  282SOL    HW217989   3.637   2.264   6.854
  283SOL     OW17990   1.590   3.155   0.539
  283SOL    HW117991   1.624   3.239   0.569
  283SOL    HW217992   1.516   3.178   0.483
  284SOL     OW17993   2.226   3.788   0.191
  284SOL    HW117994   2.301   3.728   0.194
  284SOL    HW217995   2.150   3.731   0.204
  285SOL     OW17996   1.244   4.590   6.209
  285SOL    HW117997   1.275   4.649   6.277
  285SOL    HW217998   1.239   4.645   6.130
  286SOL     OW17999   5.579   0.376   1.481
  286SOL    HW118000   5.664   0.378   1.439
  286SOL    HW218001   5.598   0.383   1.575
  287SOL     OW18002   4.164   5.902   7.110
  287SOL    HW118003   4.085   5.953   7.093
  287SOL    HW218004   4.131   5.817   7.140
  288SOL     OW18005   4.621   0.642   0.170
  288SOL    HW118006   4.660   0.637   0.082
  288SOL    HW218007   4.694   0.624   0.229
  289SOL     OW18008   5.255   5.904   1.017
  289SOL    HW118009   5.191   5.975   1.012
  289SOL    HW218010   5.319   5.926   0.949
  290SOL     OW18011   4.051   6.200   0.006
  290SOL    HW118012   4.129   6.255   0.001
  290SOL    HW218013   3.994   6.232  -0.065
  291SOL     OW18014   2.989   0.009   1.101
  291SOL    HW118015   2.964  -0.056   1.166
  291SOL    HW218016   2.910   0.061   1.088
  292SOL     OW18017   4.942   4.365   6.923
  292SOL    HW118018   4.867   4.386   6.978
  292SOL    HW218019   4.964   4.275   6.944
  293SOL     OW18020   1.925   0.514   7.121
  293SOL    HW118021   1.998   0.468   7.081
  293SOL    HW218022   1.946   0.607   7.111
  294SOL     OW18023   5.600   4.038   1.926
  294SOL    HW118024   5.618   3.964   1.985
  294SOL    HW218025   5.622   4.005   1.839
  295SOL     OW18026   2.810   4.651   7.724
  295SOL    HW118027   2.739   4.716   7.722
  295SOL    HW218028   2.800   4.602   7.643
  296SOL     OW18029   4.867   2.818   7.071
  296SOL    HW118030   4.786   2.767   7.064
  296SOL    HW218031   4.934   2.763   7.030
  297SOL     OW18032   6.025   4.216   6.896
  297SOL    HW118033   6.075   4.216   6.978
  297SOL    HW218034   6.054   4.295   6.851
  298SOL     OW18035   1.412   1.017   1.677
  298SOL    HW118036   1.402   1.082   1.747
  298SOL    HW218037   1.461   0.946   1.718
  299SOL     OW18038   5.422   4.579   5.371
  299SOL    HW118039   5.372   4.513   5.324
  299SOL    HW218040   5.513   4.548   5.367
  300SOL     OW18041   3.399   2.003   6.240
  300SOL    HW118042   3.319   2.048   6.269
  300SOL    HW218043   3.423   2.048   6.159
  301SOL     OW18044   1.356   3.330   7.099
  301SOL    HW118045   1.392   3.417   7.082
  301SOL    HW218046   1.327   3.334   7.191
  302SOL     OW18047   1.420   5.934   2.492
  302SOL    HW118048   1.417   6.005   2.556
  302SOL    HW218049   1.477   5.967   2.422
  303SOL     OW18050   0.649   1.279   1.824
  303SOL    HW118051   0.614   1.211   1.766
  303SOL    HW218052   0.676   1.232   1.903
  304SOL     OW18053   4.608   6.061   1.531
  304SOL    HW118054   4.518   6.064   1.564
  304SOL    HW218055   4.600   6.061   1.436
  305SOL     OW18056   4.511   0.838   0.933
  305SOL    HW118057   4.498   0.858   0.840
  305SOL    HW218058   4.430   0.796   0.960
  306SOL     OW18059   3.327   2.527   1.000
  306SOL    HW118060   3.248   2.499   1.046
  306SOL    HW218061   3.306   2.615   0.968
  307SOL     OW18062   1.269   1.494   6.574
  307SOL    HW118063   1.238   1.580   6.604
  307SOL    HW218064   1.318   1.513   6.494
  308SOL     OW18065   3.629   1.730   1.721
  308SOL    HW118066   3.658   1.813   1.683
  308SOL    HW218067   3.544   1.750   1.761
  309SOL     OW18068   5.373   5.392   0.459
  309SOL    HW118069   5.301   5.438   0.501
  309SOL    HW218070   5.428   5.462   0.423
  310SOL     OW18071   4.639   4.366   0.026
  310SOL    HW118072   4.720   4.368   0.078
  310SOL    HW218073   4.578   4.316   0.080
  311SOL     OW18074   1.191   3.563   0.499
  311SOL    HW118075   1.178   3.487   0.443
  311SOL    HW218076   1.151   3.635   0.450
  312SOL     OW18077   2.671   6.383   5.650
  312SOL    HW118078   2.731   6.395   5.577
  312SOL    HW218079   2.589   6.423   5.622
  313SOL     OW18080   3.094   4.521   7.587
  313SOL    HW118081   3.108   4.530   7.682
  313SOL    HW218082   3.135   4.600   7.550
  314SOL     OW18083   2.679   5.998   0.646
  314SOL    HW118084   2.700   5.918   0.599
  314SOL    HW218085   2.742   6.001   0.718
  315SOL     OW18086   4.622   0.364   6.498
  315SOL    HW118087   4.699   0.353   6.553
  315SOL    HW218088   4.610   0.278   6.457
  316SOL     OW18089   0.926   4.860   7.298
  316SOL    HW118090   0.897   4.877   7.387
  316SOL    HW218091   1.021   4.873   7.301
  317SOL     OW18092   1.733   0.963   6.470
  317SOL    HW118093   1.668   0.959   6.400
  317SOL    HW218094   1.736   1.055   6.495
  318SOL     OW18095   2.779   3.709   0.927
  318SOL    HW118096   2.752   3.618   0.940
  318SOL    HW218097   2.808   3.738   1.013
  319SOL     OW18098   5.104   5.498   6.836
  319SOL    HW118099   5.039   5.459   6.778
  319SOL    HW218100   5.053   5.544   6.902
  320SOL     OW18101   5.903   6.022   6.015
  320SOL    HW118102   5.838   5.957   5.989
  320SOL    HW218103   5.926   6.067   5.933
  321SOL     OW18104   5.585   1.576   2.622
  321SOL    HW118105   5.623   1.509   2.566
  321SOL    HW218106   5.650   1.646   2.623
  322SOL     OW18107   1.432   1.598   6.394
  322SOL    HW118108   1.491   1.673   6.392
  322SOL    HW218109   1.399   1.592   6.304
  323SOL     OW18110   4.395   0.665   6.062
  323SOL    HW118111   4.395   0.570   6.057
  323SOL    HW218112   4.476   0.692   6.019
  324SOL     OW18113   2.750   4.998   6.923
  324SOL    HW118114   2.752   4.905   6.902
  324SOL    HW218115   2.658   5.017   6.940
  325SOL     OW18116   1.314   5.862   6.576
  325SOL    HW118117   1.320   5.821   6.490
  325SOL    HW218118   1.388   5.826   6.625
  326SOL     OW18119   1.510   1.122   5.612
  326SOL    HW118120   1.571   1.171   5.668
  326SOL    HW218121   1.529   1.153   5.523
  327SOL     OW18122   5.823   2.656   7.602
  327SOL    HW118123   5.816   2.626   7.693
  327SOL    HW218124   5.906   2.703   7.599
  328SOL     OW18125   2.891   1.339   7.752
  328SOL    HW118126   2.924   1.251   7.732
  328SOL    HW218127   2.956   1.398   7.715
  329SOL     OW18128   2.138   2.802   0.598
  329SOL    HW118129   2.054   2.763   0.622
  329SOL    HW218130   2.132   2.892   0.628
  330SOL     OW18131   2.699   0.635   1.362
  330SOL    HW118132   2.733   0.660   1.276
  330SOL    HW218133   2.777   0.623   1.416
  331SOL     OW18134   5.923   4.570   5.320
  331SOL    HW118135   5.960   4.513   5.253
  331SOL    HW218136   5.999   4.613   5.360
  332SOL     OW18137   4.324   0.732   1.466
  332SOL    HW118138   4.382   0.788   1.414
  332SOL    HW218139   4.336   0.762   1.556
  333SOL     OW18140   1.925   6.276   0.137
  333SOL    HW118141   1.838   6.263   0.174
  333SOL    HW218142   1.918   6.247   0.046
  334SOL     OW18143   1.783   0.568   6.511
  334SOL    HW118144   1.806   0.513   6.586
  334SOL    HW218145   1.845   0.641   6.515
  335SOL     OW18146   0.715   1.008   0.169
  335SOL    HW118147   0.733   0.938   0.105
  335SOL    HW218148   0.715   0.964   0.254
  336SOL     OW18149   0.905   2.425   1.516
  336SOL    HW118150   0.984   2.378   1.539
  336SOL    HW218151   0.935   2.501   1.466
  337SOL     OW18152   4.777   4.757   1.242
  337SOL    HW118153   4.761   4.851   1.229
  337SOL    HW218154   4.830   4.731   1.167
  338SOL     OW18155   5.060   4.222   0.110
  338SOL    HW118156   5.128   4.191   0.170
  338SOL    HW218157   5.033   4.145   0.062
  339SOL     OW18158   0.517   1.152   7.129
  339SOL    HW118159   0.453   1.209   7.173
  339SOL    HW218160   0.463   1.094   7.075
  340SOL     OW18161   6.413   1.000   7.132
  340SOL    HW118162   6.489   0.946   7.110
  340SOL    HW218163   6.353   0.990   7.058
  341SOL     OW18164   6.168   3.359   6.638
  341SOL    HW118165   6.172   3.413   6.559
  341SOL    HW218166   6.257   3.325   6.647
  342SOL     OW18167   0.705   1.272   0.399
  342SOL    HW118168   0.791   1.258   0.439
  342SOL    HW218169   0.672   1.185   0.380
  343SOL     OW18170   0.135   1.567   6.272
  343SOL    HW118171   0.164   1.539   6.186
  343SOL    HW218172   0.199   1.529   6.333
  344SOL     OW18173   4.428   3.694   6.811
  344SOL    HW118174   4.514   3.655   6.823
  344SOL    HW218175   4.445   3.782   6.780
  345SOL     OW18176   5.763   3.455   0.374
  345SOL    HW118177   5.804   3.369   0.367
  345SOL    HW218178   5.705   3.448   0.450
  346SOL     OW18179   0.774   5.516   1.619
  346SOL    HW118180   0.768   5.431   1.575
  346SOL    HW218181   0.862   5.547   1.600
  347SOL     OW18182   1.323   3.140   6.334
  347SOL    HW118183   1.365   3.196   6.269
  347SOL    HW218184   1.354   3.173   6.418
  348SOL     OW18185   1.287   2.910   0.830
  348SOL    HW118186   1.261   2.994   0.791
  348SOL    HW218187   1.209   2.880   0.876
  349SOL     OW18188   3.624   6.227   6.174
  349SOL    HW118189   3.703   6.240   6.121
  349SOL    HW218190   3.608   6.312   6.215
  350SOL     OW18191   1.641   2.339   6.279
  350SOL    HW118192   1.639   2.393   6.199
  350SOL    HW218193   1.699   2.388   6.338
  351SOL     OW18194   0.994   2.136   0.010
  351SOL    HW118195   1.090   2.134   0.010
  351SOL    HW218196   0.968   2.045   0.023
  352SOL     OW18197   3.305   3.913   0.111
  352SOL    HW118198   3.265   3.949   0.031
  352SOL    HW218199   3.371   3.852   0.079
  353SOL     OW18200   2.851   3.030   1.521
  353SOL    HW118201   2.937   3.072   1.513
  353SOL    HW218202   2.837   3.021   1.616
  354SOL     OW18203   6.168   5.389   7.552
  354SOL    HW118204   6.162   5.379   7.647
  354SOL    HW218205   6.204   5.305   7.522
  355SOL     OW18206   6.367   6.453   6.660
  355SOL    HW118207   6.448   6.419   6.697
  355SOL    HW218208   6.298   6.400   6.700
  356SOL     OW18209   3.669   5.734   5.819
  356SOL    HW118210   3.642   5.653   5.861
  356SOL    HW218211   3.588   5.770   5.781
  357SOL     OW18212   3.590   0.798   1.130
  357SOL    HW118213   3.497   0.792   1.154
  357SOL    HW218214   3.621   0.877   1.172
  358SOL     OW18215   0.389   3.175   2.386
  358SOL    HW118216   0.320   3.240   2.400
  358SOL    HW218217   0.346   3.105   2.337
  359SOL     OW18218   0.331   2.571   0.897
  359SOL    HW118219   0.335   2.475   0.894
  359SOL    HW218220   0.277   2.596   0.823
  360SOL     OW18221   0.290   2.353   1.942
  360SOL    HW118222   0.339   2.366   2.024
  360SOL    HW218223   0.287   2.258   1.931
  361SOL     OW18224   5.415   6.048   0.536
  361SOL    HW118225   5.400   5.964   0.493
  361SOL    HW218226   5.473   6.095   0.476
  362SOL     OW18227   2.774   5.075   1.435
  362SOL    HW118228   2.827   5.058   1.513
  362SOL    HW218229   2.693   5.027   1.449
  363SOL     OW18230   4.995   2.245   1.469
  363SOL    HW118231   4.943   2.224   1.391
  363SOL    HW218232   5.031   2.161   1.497
  364SOL     OW18233   1.871   4.299   0.696
  364SOL    HW118234   1.801   4.349   0.740
  364SOL    HW218235   1.951   4.326   0.741
  365SOL     OW18236   6.370   0.663   1.276
  365SOL    HW118237   6.403   0.738   1.226
  365SOL    HW218238   6.417   0.588   1.240
  366SOL     OW18239   1.446   4.956   0.075
  366SOL    HW118240   1.497   5.034   0.100
  366SOL    HW218241   1.513   4.891   0.055
  367SOL     OW18242   5.505   4.918   0.895
  367SOL    HW118243   5.441   4.978   0.856
  367SOL    HW218244   5.457   4.872   0.964
  368SOL     OW18245   2.579   5.452   6.750
  368SOL    HW118246   2.601   5.429   6.659
  368SOL    HW218247   2.507   5.514   6.742
  369SOL     OW18248   2.056   0.687   6.708
  369SOL    HW118249   2.041   0.736   6.627
  369SOL    HW218250   2.068   0.597   6.679
  370SOL     OW18251   5.234   2.763   1.333
  370SOL    HW118252   5.200   2.761   1.423
  370SOL    HW218253   5.240   2.856   1.313
  371SOL     OW18254   1.047   2.483   0.687
  371SOL    HW118255   0.979   2.511   0.749
  371SOL    HW218256   1.122   2.461   0.743
  372SOL     OW18257   5.735   2.866   7.390
  372SOL    HW118258   5.641   2.878   7.399
  372SOL    HW218259   5.759   2.806   7.460
  373SOL     OW18260   1.512   3.446   1.641
  373SOL    HW118261   1.536   3.368   1.691
  373SOL    HW218262   1.464   3.411   1.565
  374SOL     OW18263   4.221   0.831   0.975
  374SOL    HW118264   4.151   0.803   1.033
  374SOL    HW218265   4.228   0.925   0.989
  375SOL     OW18266   5.849   3.326   1.255
  375SOL    HW118267   5.826   3.384   1.328
  375SOL    HW218268   5.799   3.360   1.181
  376SOL     OW18269   4.967   6.031   2.103
  376SOL    HW118270   4.999   6.119   2.120
  376SOL    HW218271   5.010   6.003   2.023
  377SOL     OW18272   4.042   2.959   6.169
  377SOL    HW118273   4.100   2.892   6.131
  377SOL    HW218274   4.087   3.042   6.150
  378SOL     OW18275   5.042   6.416   6.231
  378SOL    HW118276   5.088   6.499   6.236
  378SOL    HW218277   5.075   6.375   6.151
  379SOL     OW18278   5.765   2.710   0.456
  379SOL    HW118279   5.671   2.726   0.453
  379SOL    HW218280   5.780   2.640   0.393
  380SOL     OW18281   5.669   3.728   2.365
  380SOL    HW118282   5.690   3.644   2.324
  380SOL    HW218283   5.584   3.714   2.407
  381SOL     OW18284   5.016   4.802   0.408
  381SOL    HW118285   5.102   4.782   0.446
  381SOL    HW218286   5.025   4.781   0.316
  382SOL     OW18287   0.656   3.450   7.379
  382SOL    HW118288   0.648   3.477   7.288
  382SOL    HW218289   0.675   3.357   7.375
  383SOL     OW18290   6.243   1.964   1.818
  383SOL    HW118291   6.187   2.040   1.836
  383SOL    HW218292   6.283   1.944   1.903
  384SOL     OW18293   2.230   1.522   5.750
  384SOL    HW118294   2.194   1.589   5.808
  384SOL    HW218295   2.323   1.517   5.774
  385SOL     OW18296   1.283   0.603   1.107
  385SOL    HW118297   1.224   0.577   1.036
  385SOL    HW218298   1.230   0.596   1.186
  386SOL     OW18299   1.554   5.601   6.246
  386SOL    HW118300   1.511   5.522   6.213
  386SOL    HW218301   1.597   5.638   6.168
  387SOL     OW18302   2.757   5.202   7.319
  387SOL    HW118303   2.742   5.286   7.275
  387SOL    HW218304   2.823   5.222   7.386
  388SOL     OW18305   1.296   6.117   6.659
  388SOL    HW118306   1.264   6.027   6.652
  388SOL    HW218307   1.362   6.125   6.590
  389SOL     OW18308   2.371   5.372   7.322
  389SOL    HW118309   2.394   5.432   7.250
  389SOL    HW218310   2.318   5.425   7.381
  390SOL     OW18311   5.091   2.505   7.226
  390SOL    HW118312   5.081   2.559   7.304
  390SOL    HW218313   5.175   2.462   7.238
  391SOL     OW18314   4.752   1.420   7.501
  391SOL    HW118315   4.733   1.487   7.567
  391SOL    HW218316   4.669   1.405   7.457
  392SOL     OW18317   4.991   1.467   6.344
  392SOL    HW118318   5.005   1.556   6.311
  392SOL    HW218319   4.930   1.478   6.417
  393SOL     OW18320   1.993   1.315   7.675
  393SOL    HW118321   2.051   1.241   7.694
  393SOL    HW218322   1.933   1.281   7.608
  394SOL     OW18323   4.558   4.237   1.716
  394SOL    HW118324   4.641   4.282   1.705
  394SOL    HW218325   4.575   4.147   1.687
  395SOL     OW18326   3.652   1.955   0.508
  395SOL    HW118327   3.642   1.866   0.542
  395SOL    HW218328   3.716   1.947   0.438
  396SOL     OW18329   4.891   1.902   7.489
  396SOL    HW118330   4.861   1.860   7.408
  396SOL    HW218331   4.944   1.836   7.532
  397SOL     OW18332   5.514   4.664   6.968
  397SOL    HW118333   5.437   4.617   6.936
  397SOL    HW218334   5.479   4.725   7.033
  398SOL     OW18335   5.715   0.935   1.210
  398SOL    HW118336   5.738   1.001   1.144
  398SOL    HW218337   5.799   0.899   1.239
  399SOL     OW18338   0.632   0.919   2.173
  399SOL    HW118339   0.723   0.896   2.190
  399SOL    HW218340   0.597   0.843   2.126
  400SOL     OW18341   5.581   2.559   2.136
  400SOL    HW118342   5.641   2.488   2.161
  400SOL    HW218343   5.638   2.633   2.118
  401SOL     OW18344   5.884   6.278   6.796
  401SOL    HW118345   5.793   6.295   6.822
  401SOL    HW218346   5.879   6.201   6.740
  402SOL     OW18347   5.569   3.114   0.475
  402SOL    HW118348   5.494   3.060   0.501
  402SOL    HW218349   5.531   3.200   0.456
  403SOL     OW18350   5.488   0.430   7.667
  403SOL    HW118351   5.425   0.357   7.671
  403SOL    HW218352   5.507   0.450   7.758
  404SOL     OW18353   2.703   1.499   1.325
  404SOL    HW118354   2.774   1.561   1.345
  404SOL    HW218355   2.634   1.523   1.386
  405SOL     OW18356   3.071   0.485   6.758
  405SOL    HW118357   3.016   0.562   6.747
  405SOL    HW218358   3.068   0.441   6.673
  406SOL     OW18359   6.009   3.813   6.077
  406SOL    HW118360   6.095   3.817   6.035
  406SOL    HW218361   5.948   3.840   6.008
  407SOL     OW18362   2.734   5.948   5.679
  407SOL    HW118363   2.738   6.038   5.711
  407SOL    HW218364   2.643   5.922   5.691
  408SOL     OW18365   2.016   4.891   2.299
  408SOL    HW118366   1.935   4.928   2.333
  408SOL    HW218367   2.057   4.849   2.375
  409SOL     OW18368   1.664   1.973   5.826
  409SOL    HW118369   1.743   1.928   5.856
  409SOL    HW218370   1.674   2.063   5.858
  410SOL     OW18371   1.346   3.068   6.005
  410SOL    HW118372   1.304   2.986   6.034
  410SOL    HW218373   1.432   3.041   5.972
  411SOL     OW18374   0.950   1.575   6.412
  411SOL    HW118375   0.974   1.650   6.465
  411SOL    HW218376   0.905   1.612   6.336
  412SOL     OW18377   1.810   3.200   7.167
  412SOL    HW118378   1.881   3.197   7.102
  412SOL    HW218379   1.786   3.108   7.179
  413SOL     OW18380   1.113   5.459   7.073
  413SOL    HW118381   1.136   5.433   7.163
  413SOL    HW218382   1.024   5.492   7.080
  414SOL     OW18383   3.030   2.353   7.091
  414SOL    HW118384   2.939   2.383   7.095
  414SOL    HW218385   3.054   2.366   6.999
  415SOL     OW18386   2.587   3.048   6.691
  415SOL    HW118387   2.525   3.016   6.625
  415SOL    HW218388   2.570   2.994   6.768
  416SOL     OW18389   1.998   2.193   1.916
  416SOL    HW118390   2.054   2.267   1.893
  416SOL    HW218391   2.043   2.116   1.882
  417SOL     OW18392   3.441   1.122   1.197
  417SOL    HW118393   3.363   1.174   1.178
  417SOL    HW218394   3.495   1.180   1.251
  418SOL     OW18395   2.496   1.386   2.347
  418SOL    HW118396   2.417   1.432   2.317
  418SOL    HW218397   2.480   1.295   2.322
  419SOL     OW18398   3.757   6.378   1.368
  419SOL    HW118399   3.683   6.392   1.308
  419SOL    HW218400   3.750   6.286   1.392
  420SOL     OW18401   0.416   4.267   5.722
  420SOL    HW118402   0.388   4.214   5.797
  420SOL    HW218403   0.400   4.211   5.646
  421SOL     OW18404   2.128   6.118   6.960
  421SOL    HW118405   2.057   6.100   6.897
  421SOL    HW218406   2.187   6.178   6.914
  422SOL     OW18407   1.694   0.770   6.078
  422SOL    HW118408   1.651   0.821   6.010
  422SOL    HW218409   1.624   0.739   6.135
  423SOL     OW18410   6.288   4.892   1.976
  423SOL    HW118411   6.228   4.957   2.011
  423SOL    HW218412   6.248   4.808   1.998
  424SOL     OW18413   2.031   0.817   0.413
  424SOL    HW118414   2.029   0.752   0.483
  424SOL    HW218415   2.018   0.901   0.457
  425SOL     OW18416   2.339   5.954   6.458
  425SOL    HW118417   2.287   5.968   6.379
  425SOL    HW218418   2.417   6.008   6.446
  426SOL     OW18419   5.351   5.197   2.770
  426SOL    HW118420   5.431   5.220   2.723
  426SOL    HW218421   5.300   5.278   2.772
  427SOL     OW18422   0.780   6.189   6.668
  427SOL    HW118423   0.823   6.272   6.690
  427SOL    HW218424   0.777   6.189   6.572
  428SOL     OW18425   3.647   0.621   7.682
  428SOL    HW118426   3.650   0.711   7.649
  428SOL    HW218427   3.697   0.571   7.617
  429SOL     OW18428   5.629   4.857   7.275
  429SOL    HW118429   5.579   4.887   7.199
  429SOL    HW218430   5.637   4.935   7.330
  430SOL     OW18431   1.617   0.688   7.406
  430SOL    HW118432   1.575   0.653   7.327
  430SOL    HW218433   1.671   0.616   7.438
  431SOL     OW18434   5.056   2.374   6.464
  431SOL    HW118435   5.128   2.322   6.429
  431SOL    HW218436   4.992   2.309   6.495
  432SOL     OW18437   2.008   1.800   7.138
  432SOL    HW118438   1.954   1.864   7.184
  432SOL    HW218439   1.946   1.752   7.084
  433SOL     OW18440   4.332   6.092   6.310
  433SOL    HW118441   4.381   6.162   6.353
  433SOL    HW218442   4.241   6.111   6.330
  434SOL     OW18443   6.176   2.036   1.174
  434SOL    HW118444   6.258   2.017   1.220
  434SOL    HW218445   6.185   1.996   1.088
  435SOL     OW18446   5.412   4.226   1.905
  435SOL    HW118447   5.359   4.163   1.954
  435SOL    HW218448   5.487   4.175   1.873
  436SOL     OW18449   2.529   4.441   6.236
  436SOL    HW118450   2.457   4.393   6.276
  436SOL    HW218451   2.601   4.378   6.232
  437SOL     OW18452   2.203   1.375   0.652
  437SOL    HW118453   2.260   1.302   0.676
  437SOL    HW218454   2.237   1.404   0.567
  438SOL     OW18455   1.517   1.189   7.288
  438SOL    HW118456   1.588   1.177   7.225
  438SOL    HW218457   1.503   1.102   7.326
  439SOL     OW18458   4.233   3.561   6.622
  439SOL    HW118459   4.172   3.535   6.691
  439SOL    HW218460   4.319   3.558   6.663
  440SOL     OW18461   3.559   5.299   2.185
  440SOL    HW118462   3.638   5.266   2.228
  440SOL    HW218463   3.492   5.234   2.205
  441SOL     OW18464   4.754   6.060   1.807
  441SOL    HW118465   4.749   6.105   1.723
  441SOL    HW218466   4.676   6.089   1.855
  442SOL     OW18467   2.459   3.508   7.690
  442SOL    HW118468   2.479   3.555   7.770
  442SOL    HW218469   2.542   3.504   7.643
  443SOL     OW18470   3.798   0.849   1.567
  443SOL    HW118471   3.853   0.923   1.539
  443SOL    HW218472   3.710   0.873   1.541
  444SOL     OW18473   0.506   4.972   1.928
  444SOL    HW118474   0.565   4.902   1.901
  444SOL    HW218475   0.552   5.053   1.906
  445SOL     OW18476   3.780   5.549   0.996
  445SOL    HW118477   3.842   5.618   0.974
  445SOL    HW218478   3.698   5.575   0.954
  446SOL     OW18479   1.179   5.401   1.674
  446SOL    HW118480   1.262   5.380   1.631
  446SOL    HW218481   1.113   5.350   1.626
  447SOL     OW18482   0.387   6.146   7.394
  447SOL    HW118483   0.450   6.206   7.434
  447SOL    HW218484   0.394   6.065   7.445
  448SOL     OW18485   3.500   0.210   7.328
  448SOL    HW118486   3.447   0.289   7.328
  448SOL    HW218487   3.485   0.170   7.243
  449SOL     OW18488   4.934   1.135   0.567
  449SOL    HW118489   4.915   1.122   0.474
  449SOL    HW218490   4.927   1.047   0.606
  450SOL     OW18491   1.523   4.086   0.314
  450SOL    HW118492   1.564   4.095   0.400
  450SOL    HW218493   1.541   3.996   0.289
  451SOL     OW18494   2.271   3.663   6.794
  451SOL    HW118495   2.192   3.613   6.813
  451SOL    HW218496   2.328   3.601   6.747
  452SOL     OW18497   1.283   1.294   0.765
  452SOL    HW118498   1.229   1.250   0.831
  452SOL    HW218499   1.287   1.385   0.794
  453SOL     OW18500   0.117   2.495   0.460
  453SOL    HW118501   0.176   2.431   0.420
  453SOL    HW218502   0.123   2.477   0.554
  454SOL     OW18503   3.037   4.395   6.705
  454SOL    HW118504   3.128   4.366   6.708
  454SOL    HW218505   2.988   4.326   6.750
  455SOL     OW18506   0.367   1.381   7.222
  455SOL    HW118507   0.401   1.351   7.306
  455SOL    HW218508   0.273   1.392   7.236
  456SOL     OW18509   6.188   3.445   6.363
  456SOL    HW118510   6.189   3.469   6.270
  456SOL    HW218511   6.162   3.353   6.364
  457SOL     OW18512   2.767   2.810   7.274
  457SOL    HW118513   2.798   2.838   7.360
  457SOL    HW218514   2.673   2.794   7.287
  458SOL     OW18515   2.668   3.668   1.889
  458SOL    HW118516   2.595   3.713   1.931
  458SOL    HW218517   2.709   3.619   1.960
  459SOL     OW18518   0.662   3.063   6.943
  459SOL    HW118519   0.736   3.087   6.888
  459SOL    HW218520   0.592   3.122   6.916
  460SOL     OW18521   3.058   2.154   5.767
  460SOL    HW118522   3.104   2.094   5.826
  460SOL    HW218523   2.970   2.119   5.760
  461SOL     OW18524   6.364   4.051   6.869
  461SOL    HW118525   6.317   4.091   6.943
  461SOL    HW218526   6.406   4.125   6.825
  462SOL     OW18527   4.834   2.493   0.624
  462SOL    HW118528   4.841   2.474   0.717
  462SOL    HW218529   4.852   2.587   0.617
  463SOL     OW18530   1.799   0.616   5.862
  463SOL    HW118531   1.753   0.686   5.816
  463SOL    HW218532   1.801   0.644   5.953
  464SOL     OW18533   4.298   0.432   1.351
  464SOL    HW118534   4.376   0.377   1.344
  464SOL    HW218535   4.331   0.521   1.346
  465SOL     OW18536   0.960   2.813   2.024
  465SOL    HW118537   0.978   2.772   1.939
  465SOL    HW218538   0.884   2.868   2.007
  466SOL     OW18539   5.280   4.713   5.900
  466SOL    HW118540   5.287   4.809   5.898
  466SOL    HW218541   5.304   4.689   5.990
  467SOL     OW18542   3.487   3.557   1.291
  467SOL    HW118543   3.524   3.554   1.379
  467SOL    HW218544   3.417   3.490   1.293
  468SOL     OW18545   0.844   2.197   7.035
  468SOL    HW118546   0.833   2.110   7.073
  468SOL    HW218547   0.757   2.223   7.007
  469SOL     OW18548   5.911   0.655   0.006
  469SOL    HW118549   5.872   0.684  -0.077
  469SOL    HW218550   5.865   0.574   0.027
  470SOL     OW18551   2.676   4.098   6.826
  470SOL    HW118552   2.647   4.085   6.735
  470SOL    HW218553   2.650   4.019   6.872
  471SOL     OW18554   5.151   5.202   1.441
  471SOL    HW118555   5.241   5.187   1.412
  471SOL    HW218556   5.114   5.261   1.375
  472SOL     OW18557   4.802   0.117   6.205
  472SOL    HW118558   4.834   0.187   6.149
  472SOL    HW218559   4.868   0.048   6.196
  473SOL     OW18560   3.271   0.861   0.608
  473SOL    HW118561   3.255   0.858   0.514
  473SOL    HW218562   3.269   0.954   0.630
  474SOL     OW18563   2.530   5.223   7.506
  474SOL    HW118564   2.473   5.274   7.449
  474SOL    HW218565   2.612   5.216   7.457
  475SOL     OW18566   3.945   2.602   5.939
  475SOL    HW118567   3.974   2.620   6.028
  475SOL    HW218568   3.885   2.528   5.947
  476SOL     OW18569   1.983   5.222   1.924
  476SOL    HW118570   1.975   5.141   1.873
  476SOL    HW218571   2.020   5.194   2.008
  477SOL     OW18572   4.854   2.879   1.287
  477SOL    HW118573   4.875   2.870   1.380
  477SOL    HW218574   4.938   2.867   1.243
  478SOL     OW18575   3.250   1.301   2.549
  478SOL    HW118576   3.204   1.384   2.550
  478SOL    HW218577   3.317   1.310   2.616
  479SOL     OW18578   4.283   5.570   5.885
  479SOL    HW118579   4.307   5.595   5.795
  479SOL    HW218580   4.316   5.480   5.893
  480SOL     OW18581   1.064   3.646   6.170
  480SOL    HW118582   1.051   3.605   6.085
  480SOL    HW218583   1.076   3.739   6.151
  481SOL     OW18584   5.528   4.440   1.345
  481SOL    HW118585   5.452   4.421   1.289
  481SOL    HW218586   5.539   4.535   1.339
  482SOL     OW18587   3.286   1.569   0.836
  482SOL    HW118588   3.322   1.636   0.777
  482SOL    HW218589   3.283   1.612   0.921
  483SOL     OW18590   2.943   1.443   2.463
  483SOL    HW118591   2.985   1.512   2.515
  483SOL    HW218592   2.859   1.427   2.507
  484SOL     OW18593   2.308   3.993   6.943
  484SOL    HW118594   2.394   3.953   6.962
  484SOL    HW218595   2.327   4.059   6.877
  485SOL     OW18596   0.291   0.983   7.008
  485SOL    HW118597   0.324   0.955   6.923
  485SOL    HW218598   0.253   0.904   7.047
  486SOL     OW18599   4.445   0.455   0.486
  486SOL    HW118600   4.491   0.538   0.474
  486SOL    HW218601   4.514   0.389   0.488
  487SOL     OW18602   2.102   2.090   7.459
  487SOL    HW118603   2.167   2.040   7.410
  487SOL    HW218604   2.051   2.025   7.507
  488SOL     OW18605   4.063   3.893   1.659
  488SOL    HW118606   4.098   3.835   1.592
  488SOL    HW218607   4.097   3.858   1.741
  489SOL     OW18608   1.763   4.933   7.608
  489SOL    HW118609   1.744   4.969   7.695
  489SOL    HW218610   1.788   5.009   7.556
  490SOL     OW18611   1.755   2.545   0.872
  490SOL    HW118612   1.736   2.469   0.927
  490SOL    HW218613   1.780   2.509   0.787
  491SOL     OW18614   2.786   3.478   0.203
  491SOL    HW118615   2.824   3.485   0.291
  491SOL    HW218616   2.750   3.389   0.200
  492SOL     OW18617   1.387   3.310   1.414
  492SOL    HW118618   1.473   3.287   1.378
  492SOL    HW218619   1.345   3.360   1.344
  493SOL     OW18620   4.626   3.560   0.736
  493SOL    HW118621   4.590   3.648   0.743
  493SOL    HW218622   4.551   3.502   0.750
  494SOL     OW18623   0.266   4.558   6.536
  494SOL    HW118624   0.179   4.564   6.577
  494SOL    HW218625   0.328   4.569   6.608
  495SOL     OW18626   0.384   3.319   7.158
  495SOL    HW118627   0.395   3.411   7.183
  495SOL    HW218628   0.366   3.274   7.240
  496SOL     OW18629   0.687   5.710   0.111
  496SOL    HW118630   0.658   5.750   0.029
  496SOL    HW218631   0.606   5.691   0.159
  497SOL     OW18632   4.957   6.309   0.626
  497SOL    HW118633   5.008   6.228   0.633
  497SOL    HW218634   4.934   6.330   0.717
  498SOL     OW18635   1.916   2.146   0.735
  498SOL    HW118636   1.992   2.093   0.712
  498SOL    HW218637   1.841   2.089   0.720
  499SOL     OW18638   1.301   4.650   1.395
  499SOL    HW118639   1.329   4.573   1.444
  499SOL    HW218640   1.304   4.623   1.304
  500SOL     OW18641   6.318   2.696   7.705
  500SOL    HW118642   6.392   2.723   7.760
  500SOL    HW218643   6.352   2.623   7.653
  501SOL     OW18644   5.592   6.056   7.215
  501SOL    HW118645   5.675   6.007   7.209
  501SOL    HW218646   5.556   6.053   7.126
  502SOL     OW18647   5.535   5.159   0.402
  502SOL    HW118648   5.625   5.183   0.381
  502SOL    HW218649   5.494   5.241   0.430
  503SOL     OW18650   1.960   3.058   0.195
  503SOL    HW118651   2.014   3.124   0.239
  503SOL    HW218652   1.876   3.102   0.181
  504SOL     OW18653   0.244   1.407   5.380
  504SOL    HW118654   0.295   1.415   5.461
  504SOL    HW218655   0.286   1.468   5.319
  505SOL     OW18656   3.885   4.329   0.247
  505SOL    HW118657   3.898   4.414   0.290
  505SOL    HW218658   3.973   4.293   0.238
  506SOL     OW18659   5.578   6.429   7.618
  506SOL    HW118660   5.529   6.379   7.553
  506SOL    HW218661   5.515   6.444   7.689
  507SOL     OW18662   1.109   0.808   6.944
  507SOL    HW118663   1.171   0.795   7.016
  507SOL    HW218664   1.142   0.885   6.897
  508SOL     OW18665   0.796   2.467   1.136
  508SOL    HW118666   0.872   2.473   1.193
  508SOL    HW218667   0.776   2.374   1.131
  509SOL     OW18668   2.818   4.530   1.484
  509SOL    HW118669   2.901   4.502   1.523
  509SOL    HW218670   2.765   4.451   1.481
  510SOL     OW18671   5.147   4.179   7.027
  510SOL    HW118672   5.198   4.103   7.054
  510SOL    HW218673   5.203   4.254   7.048
  511SOL     OW18674   2.686   0.654   7.050
  511SOL    HW118675   2.658   0.563   7.060
  511SOL    HW218676   2.695   0.687   7.139
  512SOL     OW18677   5.968   4.906   1.217
  512SOL    HW118678   6.027   4.833   1.239
  512SOL    HW218679   5.892   4.864   1.177
  513SOL     OW18680   4.333   6.058   5.253
  513SOL    HW118681   4.284   6.131   5.215
  513SOL    HW218682   4.267   5.992   5.272
  514SOL     OW18683   0.463   4.296   7.316
  514SOL    HW118684   0.391   4.312   7.377
  514SOL    HW218685   0.488   4.205   7.330
  515SOL     OW18686   5.758   5.161   2.541
  515SOL    HW118687   5.778   5.079   2.586
  515SOL    HW218688   5.841   5.188   2.502
  516SOL     OW18689   4.435   2.104   2.122
  516SOL    HW118690   4.466   2.180   2.071
  516SOL    HW218691   4.351   2.081   2.082
  517SOL     OW18692   0.533   0.582   6.789
  517SOL    HW118693   0.545   0.529   6.867
  517SOL    HW218694   0.444   0.561   6.759
  518SOL     OW18695   2.237   2.044   6.360
  518SOL    HW118696   2.194   2.028   6.444
  518SOL    HW218697   2.182   1.999   6.296
  519SOL     OW18698   6.376   1.359   2.070
  519SOL    HW118699   6.470   1.346   2.061
  519SOL    HW218700   6.366   1.412   2.149
  520SOL     OW18701   5.878   4.028   0.746
  520SOL    HW118702   5.812   3.983   0.798
  520SOL    HW218703   5.961   4.000   0.785
  521SOL     OW18704   2.282   2.903   1.822
  521SOL    HW118705   2.192   2.890   1.792
  521SOL    HW218706   2.272   2.936   1.912
  522SOL     OW18707   3.317   4.995   1.920
  522SOL    HW118708   3.409   4.967   1.921
  522SOL    HW218709   3.267   4.914   1.926
  523SOL     OW18710   1.778   5.364   6.837
  523SOL    HW118711   1.855   5.312   6.813
  523SOL    HW218712   1.746   5.398   6.754
  524SOL     OW18713   5.685   0.535   0.495
  524SOL    HW118714   5.642   0.460   0.453
  524SOL    HW218715   5.696   0.598   0.424
  525SOL     OW18716   2.989   6.171   6.922
  525SOL    HW118717   3.026   6.096   6.876
  525SOL    HW218718   3.036   6.175   7.005
  526SOL     OW18719   3.190   6.209   1.090
  526SOL    HW118720   3.229   6.125   1.065
  526SOL    HW218721   3.235   6.273   1.035
  527SOL     OW18722   6.324   4.371   7.537
  527SOL    HW118723   6.296   4.293   7.584
  527SOL    HW218724   6.296   4.444   7.593
  528SOL     OW18725   5.182   0.003   5.979
  528SOL    HW118726   5.274   0.008   6.005
  528SOL    HW218727   5.151   0.093   5.984
  529SOL     OW18728   0.404   6.074   0.850
  529SOL    HW118729   0.354   5.993   0.861
  529SOL    HW218730   0.423   6.078   0.756
  530SOL     OW18731   1.314   2.554   1.804
  530SOL    HW118732   1.391   2.530   1.753
  530SOL    HW218733   1.250   2.485   1.785
  531SOL     OW18734   4.908   1.725   6.280
  531SOL    HW118735   4.840   1.705   6.215
  531SOL    HW218736   4.952   1.803   6.246
  532SOL     OW18737   5.269   4.778   0.590
  532SOL    HW118738   5.341   4.840   0.578
  532SOL    HW218739   5.306   4.693   0.568
  533SOL     OW18740   1.675   4.096   7.107
  533SOL    HW118741   1.580   4.087   7.109
  533SOL    HW218742   1.693   4.130   7.019
  534SOL     OW18743   1.488   2.818   2.553
  534SOL    HW118744   1.521   2.827   2.643
  534SOL    HW218745   1.404   2.863   2.554
  535SOL     OW18746   2.594   3.220   0.376
  535SOL    HW118747   2.580   3.155   0.445
  535SOL    HW218748   2.510   3.265   0.368
  536SOL     OW18749   5.684   1.494   1.435
  536SOL    HW118750   5.665   1.511   1.343
  536SOL    HW218751   5.734   1.413   1.435
  537SOL     OW18752   1.543   4.701   6.947
  537SOL    HW118753   1.519   4.778   6.998
  537SOL    HW218754   1.622   4.726   6.900
  538SOL     OW18755   5.844   4.135   1.400
  538SOL    HW118756   5.887   4.206   1.351
  538SOL    HW218757   5.759   4.171   1.425
  539SOL     OW18758   3.354   0.160   0.400
  539SOL    HW118759   3.336   0.073   0.436
  539SOL    HW218760   3.375   0.214   0.476
  540SOL     OW18761   2.582   2.849   0.938
  540SOL    HW118762   2.570   2.844   0.843
  540SOL    HW218763   2.674   2.825   0.952
  541SOL     OW18764   5.714   5.479   1.256
  541SOL    HW118765   5.727   5.547   1.323
  541SOL    HW218766   5.790   5.422   1.266
  542SOL     OW18767   4.766   5.014   5.771
  542SOL    HW118768   4.830   5.056   5.714
  542SOL    HW218769   4.771   5.063   5.853
  543SOL     OW18770   0.250   4.617   0.462
  543SOL    HW118771   0.336   4.592   0.427
  543SOL    HW218772   0.251   4.585   0.552
  544SOL     OW18773   3.156   2.688   2.044
  544SOL    HW118774   3.247   2.717   2.049
  544SOL    HW218775   3.112   2.736   2.114
  545SOL     OW18776   4.533   4.578   1.630
  545SOL    HW118777   4.490   4.544   1.552
  545SOL    HW218778   4.603   4.635   1.596
  546SOL     OW18779   4.863   2.861   7.604
  546SOL    HW118780   4.909   2.869   7.521
  546SOL    HW218781   4.827   2.948   7.621
  547SOL     OW18782   0.723   0.777   0.331
  547SOL    HW118783   0.805   0.755   0.287
  547SOL    HW218784   0.681   0.692   0.347
  548SOL     OW18785   2.072   3.699   2.076
  548SOL    HW118786   2.058   3.787   2.110
  548SOL    HW218787   2.165   3.699   2.051
  549SOL     OW18788   0.078   4.682   7.549
  549SOL    HW118789   0.003   4.731   7.516
  549SOL    HW218790   0.143   4.749   7.572
  550SOL     OW18791   1.027   4.352   1.160
  550SOL    HW118792   1.032   4.397   1.244
  550SOL    HW218793   1.010   4.261   1.182
  551SOL     OW18794   0.299   0.604   7.072
  551SOL    HW118795   0.341   0.582   6.989
  551SOL    HW218796   0.277   0.519   7.110
  552SOL     OW18797   2.817   5.539   6.879
  552SOL    HW118798   2.848   5.450   6.899
  552SOL    HW218799   2.724   5.528   6.860
  553SOL     OW18800   1.784   1.932   6.113
  553SOL    HW118801   1.802   1.973   6.028
  553SOL    HW218802   1.739   1.850   6.092
  554SOL     OW18803   4.547   2.488   0.630
  554SOL    HW118804   4.559   2.528   0.716
  554SOL    HW218805   4.622   2.429   0.620
  555SOL     OW18806   3.176   6.302   6.551
  555SOL    HW118807   3.177   6.391   6.587
  555SOL    HW218808   3.190   6.314   6.457
  556SOL     OW18809   0.026   0.033   0.685
  556SOL    HW118810  -0.062  -0.004   0.695
  556SOL    HW218811   0.078  -0.011   0.752
  557SOL     OW18812   1.880   5.976   0.980
  557SOL    HW118813   1.956   5.964   0.923
  557SOL    HW218814   1.834   5.893   0.976
  558SOL     OW18815   6.344   0.498   0.681
  558SOL    HW118816   6.301   0.477   0.598
  558SOL    HW218817   6.430   0.458   0.674
  559SOL     OW18818   1.236   1.009   7.559
  559SOL    HW118819   1.233   1.080   7.623
  559SOL    HW218820   1.314   0.959   7.583
  560SOL     OW18821   0.728   1.368   1.418
  560SOL    HW118822   0.744   1.288   1.367
  560SOL    HW218823   0.746   1.342   1.509
  561SOL     OW18824   0.876   4.079   0.806
  561SOL    HW118825   0.781   4.083   0.817
  561SOL    HW218826   0.908   4.044   0.889
  562SOL     OW18827   3.618   6.106   6.809
  562SOL    HW118828   3.615   6.066   6.896
  562SOL    HW218829   3.684   6.175   6.817
  563SOL     OW18830   0.429   0.165   0.915
  563SOL    HW118831   0.458   0.256   0.903
  563SOL    HW218832   0.447   0.146   1.007
  564SOL     OW18833   6.432   1.607   7.467
  564SOL    HW118834   6.362   1.552   7.431
  564SOL    HW218835   6.471   1.554   7.537
  565SOL     OW18836   4.837   6.369   6.522
  565SOL    HW118837   4.823   6.340   6.612
  565SOL    HW218838   4.929   6.397   6.520
  566SOL     OW18839   6.368   5.051   1.270
  566SOL    HW118840   6.403   5.064   1.359
  566SOL    HW218841   6.345   5.139   1.240
  567SOL     OW18842   5.479   3.327   7.307
  567SOL    HW118843   5.443   3.239   7.302
  567SOL    HW218844   5.566   3.315   7.345
  568SOL     OW18845   4.869   6.208   6.777
  568SOL    HW118846   4.810   6.185   6.849
  568SOL    HW218847   4.886   6.126   6.733
  569SOL     OW18848   3.639   1.441   5.471
  569SOL    HW118849   3.666   1.370   5.530
  569SOL    HW218850   3.544   1.433   5.466
  570SOL     OW18851   2.833   5.170   0.539
  570SOL    HW118852   2.832   5.171   0.443
  570SOL    HW218853   2.813   5.260   0.564
  571SOL     OW18854   0.473   3.530   1.097
  571SOL    HW118855   0.426   3.465   1.045
  571SOL    HW218856   0.406   3.596   1.119
  572SOL     OW18857   0.172   3.537   6.512
  572SOL    HW118858   0.229   3.536   6.436
  572SOL    HW218859   0.178   3.627   6.545
  573SOL     OW18860   3.459   2.915   1.182
  573SOL    HW118861   3.464   2.820   1.178
  573SOL    HW218862   3.370   2.936   1.154
  574SOL     OW18863   6.331   3.352   7.463
  574SOL    HW118864   6.426   3.344   7.472
  574SOL    HW218865   6.301   3.262   7.450
  575SOL     OW18866   3.880   3.949   0.762
  575SOL    HW118867   3.808   3.902   0.805
  575SOL    HW218868   3.926   3.993   0.834
  576SOL     OW18869   2.767   5.690   6.112
  576SOL    HW118870   2.838   5.733   6.160
  576SOL    HW218871   2.741   5.616   6.167
  577SOL     OW18872   5.442   3.963   0.137
  577SOL    HW118873   5.399   4.029   0.192
  577SOL    HW218874   5.532   3.994   0.129
  578SOL     OW18875   3.648   0.547   6.522
  578SOL    HW118876   3.656   0.473   6.583
  578SOL    HW218877   3.734   0.588   6.522
  579SOL     OW18878   5.796   2.509   1.298
  579SOL    HW118879   5.762   2.434   1.347
  579SOL    HW218880   5.718   2.559   1.274
  580SOL     OW18881   3.241   1.548   6.822
  580SOL    HW118882   3.189   1.628   6.836
  580SOL    HW218883   3.320   1.561   6.873
  581SOL     OW18884   4.422   4.161   1.003
  581SOL    HW118885   4.514   4.136   1.011
  581SOL    HW218886   4.404   4.155   0.909
  582SOL     OW18887   1.777   5.199   0.659
  582SOL    HW118888   1.811   5.165   0.742
  582SOL    HW218889   1.847   5.182   0.596
  583SOL     OW18890   5.623   1.124   1.381
  583SOL    HW118891   5.663   1.049   1.335
  583SOL    HW218892   5.697   1.171   1.418
  584SOL     OW18893   5.856   0.981   0.872
  584SOL    HW118894   5.874   1.047   0.938
  584SOL    HW218895   5.795   0.920   0.915
  585SOL     OW18896   2.482   6.128   2.638
  585SOL    HW118897   2.480   6.186   2.714
  585SOL    HW218898   2.513   6.044   2.673
  586SOL     OW18899   5.382   4.187   7.404
  586SOL    HW118900   5.395   4.277   7.434
  586SOL    HW218901   5.397   4.191   7.310
  587SOL     OW18902   3.250   5.689   7.528
  587SOL    HW118903   3.281   5.766   7.480
  587SOL    HW218904   3.243   5.719   7.619
  588SOL     OW18905   5.071   3.330   1.835
  588SOL    HW118906   4.992   3.276   1.832
  588SOL    HW218907   5.110   3.321   1.748
  589SOL     OW18908   3.350   2.672   6.531
  589SOL    HW118909   3.350   2.582   6.498
  589SOL    HW218910   3.328   2.725   6.455
  590SOL     OW18911   1.305   1.694   6.863
  590SOL    HW118912   1.364   1.714   6.936
  590SOL    HW218913   1.343   1.737   6.788
  591SOL     OW18914   0.215   1.294   6.590
  591SOL    HW118915   0.256   1.235   6.527
  591SOL    HW218916   0.279   1.364   6.602
  592SOL     OW18917   0.718   1.966   0.454
  592SOL    HW118918   0.725   1.977   0.360
  592SOL    HW218919   0.628   1.989   0.475
  593SOL     OW18920   2.056   2.360   0.974
  593SOL    HW118921   2.005   2.427   0.928
  593SOL    HW218922   1.992   2.292   0.996
  594SOL     OW18923   0.261   0.584   6.772
  594SOL    HW118924   0.246   0.640   6.696
  594SOL    HW218925   0.192   0.518   6.767
  595SOL     OW18926   4.270   3.961   5.540
  595SOL    HW118927   4.238   3.885   5.588
  595SOL    HW218928   4.328   3.925   5.473
  596SOL     OW18929   1.571   1.797   5.635
  596SOL    HW118930   1.577   1.715   5.684
  596SOL    HW218931   1.602   1.864   5.696
  597SOL     OW18932   3.956   5.154   6.046
  597SOL    HW118933   4.011   5.159   5.968
  597SOL    HW218934   3.976   5.068   6.083
  598SOL     OW18935   5.140   3.060   6.418
  598SOL    HW118936   5.196   3.038   6.492
  598SOL    HW218937   5.197   3.108   6.358
  599SOL     OW18938   0.096   4.431   6.076
  599SOL    HW118939   0.021   4.428   6.136
  599SOL    HW218940   0.063   4.391   5.995
  600SOL     OW18941   1.453   5.132   6.517
  600SOL    HW118942   1.462   5.152   6.424
  600SOL    HW218943   1.543   5.131   6.551
  601SOL     OW18944   2.307   3.054   7.682
  601SOL    HW118945   2.284   3.147   7.679
  601SOL    HW218946   2.342   3.040   7.770
  602SOL     OW18947   3.701   4.299   6.405
  602SOL    HW118948   3.726   4.380   6.448
  602SOL    HW218949   3.637   4.325   6.338
  603SOL     OW18950   1.249   4.322   6.705
  603SOL    HW118951   1.320   4.378   6.738
  603SOL    HW218952   1.239   4.347   6.614
  604SOL     OW18953   1.293   2.745   5.901
  604SOL    HW118954   1.374   2.795   5.892
  604SOL    HW218955   1.243   2.793   5.967
  605SOL     OW18956   2.551   1.569   6.116
  605SOL    HW118957   2.581   1.562   6.026
  605SOL    HW218958   2.553   1.663   6.135
  606SOL     OW18959   4.300   2.595   1.016
  606SOL    HW118960   4.373   2.651   0.990
  606SOL    HW218961   4.229   2.656   1.037
  607SOL     OW18962   4.680   0.295   1.766
  607SOL    HW118963   4.706   0.282   1.675
  607SOL    HW218964   4.719   0.220   1.812
  608SOL     OW18965   4.660   4.267   5.942
  608SOL    HW118966   4.673   4.265   5.847
  608SOL    HW218967   4.607   4.345   5.957
  609SOL     OW18968   4.715   0.372   7.536
  609SOL    HW118969   4.693   0.298   7.594
  609SOL    HW218970   4.699   0.338   7.448
  610SOL     OW18971   0.783   0.505   0.799
  610SOL    HW118972   0.707   0.514   0.742
  610SOL    HW218973   0.829   0.589   0.793
  611SOL     OW18974   2.949   5.443   1.701
  611SOL    HW118975   3.026   5.468   1.753
  611SOL    HW218976   2.986   5.411   1.618
  612SOL     OW18977   2.853   6.434   7.204
  612SOL    HW118978   2.779   6.411   7.261
  612SOL    HW218979   2.925   6.453   7.264
  613SOL     OW18980   0.788   1.155   7.468
  613SOL    HW118981   0.736   1.090   7.423
  613SOL    HW218982   0.813   1.218   7.400
  614SOL     OW18983   6.059   1.226   7.154
  614SOL    HW118984   6.120   1.213   7.081
  614SOL    HW218985   6.074   1.150   7.211
  615SOL     OW18986   1.477   3.720   1.626
  615SOL    HW118987   1.406   3.743   1.687
  615SOL    HW218988   1.499   3.630   1.648
  616SOL     OW18989   1.942   0.140   7.012
  616SOL    HW118990   2.034   0.126   7.035
  616SOL    HW218991   1.894   0.075   7.063
  617SOL     OW18992   5.417   4.993   2.308
  617SOL    HW118993   5.414   4.998   2.403
  617SOL    HW218994   5.373   5.073   2.278
  618SOL     OW18995   5.876   2.882   0.844
  618SOL    HW118996   5.901   2.890   0.752
  618SOL    HW218997   5.793   2.929   0.851
  619SOL     OW18998   0.601   0.383   0.969
  619SOL    HW118999   0.637   0.396   1.057
  619SOL    HW219000   0.660   0.430   0.911
  620SOL     OW19001   0.043   1.455   5.630
  620SOL    HW119002   0.113   1.492   5.576
  620SOL    HW219003   0.045   1.506   5.711
  621SOL     OW19004   2.253   2.835   6.092
  621SOL    HW119005   2.336   2.882   6.083
  621SOL    HW219006   2.187   2.904   6.097
  622SOL     OW19007   0.025   1.780   1.573
  622SOL    HW119008  -0.057   1.828   1.560
  622SOL    HW219009   0.032   1.771   1.668
  623SOL     OW19010   0.698   3.382   1.235
  623SOL    HW119011   0.672   3.314   1.298
  623SOL    HW219012   0.615   3.417   1.203
  624SOL     OW19013   4.911   6.003   1.484
  624SOL    HW119014   4.938   5.912   1.471
  624SOL    HW219015   4.820   6.007   1.455
  625SOL     OW19016   1.759   2.822   0.625
  625SOL    HW119017   1.760   2.875   0.545
  625SOL    HW219018   1.666   2.801   0.638
  626SOL     OW19019   3.581   1.208   6.632
  626SOL    HW119020   3.666   1.251   6.630
  626SOL    HW219021   3.597   1.122   6.591
  627SOL     OW19022   5.219   5.606   7.615
  627SOL    HW119023   5.192   5.552   7.689
  627SOL    HW219024   5.173   5.568   7.540
  628SOL     OW19025   1.422   2.562   1.187
  628SOL    HW119026   1.408   2.604   1.102
  628SOL    HW219027   1.517   2.559   1.196
  629SOL     OW19028   6.104   3.809   5.363
  629SOL    HW119029   6.085   3.869   5.435
  629SOL    HW219030   6.125   3.866   5.289
  630SOL     OW19031   4.925   2.996   2.250
  630SOL    HW119032   4.855   2.969   2.190
  630SOL    HW219033   4.893   2.971   2.337
  631SOL     OW19034   2.361   4.401   0.117
  631SOL    HW119035   2.408   4.355   0.047
  631SOL    HW219036   2.297   4.456   0.072
  632SOL     OW19037   6.173   1.157   0.448
  632SOL    HW119038   6.098   1.108   0.414
  632SOL    HW219039   6.161   1.158   0.543
  633SOL     OW19040   4.390   2.638   5.559
  633SOL    HW119041   4.373   2.686   5.640
  633SOL    HW219042   4.437   2.701   5.504
  634SOL     OW19043   0.856   4.387   0.326
  634SOL    HW119044   0.811   4.470   0.306
  634SOL    HW219045   0.873   4.391   0.420
  635SOL     OW19046   4.548   5.328   0.288
  635SOL    HW119047   4.456   5.324   0.314
  635SOL    HW219048   4.593   5.359   0.366
  636SOL     OW19049   1.387   4.404   1.555
  636SOL    HW119050   1.398   4.375   1.645
  636SOL    HW219051   1.382   4.323   1.504
  637SOL     OW19052   0.997   2.333   6.187
  637SOL    HW119053   1.004   2.321   6.281
  637SOL    HW219054   1.071   2.285   6.151
  638SOL     OW19055   3.552   5.519   0.049
  638SOL    HW119056   3.561   5.605   0.007
  638SOL    HW219057   3.460   5.496   0.036
  639SOL     OW19058   2.382   4.203   0.889
  639SOL    HW119059   2.405   4.110   0.883
  639SOL    HW219060   2.344   4.212   0.977
  640SOL     OW19061   1.951   3.384   7.740
  640SOL    HW119062   1.991   3.339   7.665
  640SOL    HW219063   1.878   3.327   7.765
  641SOL     OW19064   3.530   4.224   2.688
  641SOL    HW119065   3.536   4.237   2.593
  641SOL    HW219066   3.438   4.201   2.703
  642SOL     OW19067   1.433   1.720   7.505
  642SOL    HW119068   1.497   1.717   7.577
  642SOL    HW219069   1.378   1.796   7.526
  643SOL     OW19070   2.227   4.000   2.121
  643SOL    HW119071   2.137   3.985   2.151
  643SOL    HW219072   2.218   4.033   2.032
  644SOL     OW19073   4.320   5.766   6.073
  644SOL    HW119074   4.394   5.827   6.062
  644SOL    HW219075   4.339   5.694   6.013
  645SOL     OW19076   0.885   5.792   0.282
  645SOL    HW119077   0.910   5.871   0.234
  645SOL    HW219078   0.826   5.745   0.223
  646SOL     OW19079   5.219   3.879   5.561
  646SOL    HW119080   5.129   3.909   5.568
  646SOL    HW219081   5.269   3.938   5.618
  647SOL     OW19082   0.014   0.692   7.307
  647SOL    HW119083   0.043   0.752   7.239
  647SOL    HW219084  -0.037   0.745   7.367
  648SOL     OW19085   3.895   4.011   7.296
  648SOL    HW119086   3.848   3.989   7.215
  648SOL    HW219087   3.975   3.957   7.291
  649SOL     OW19088   6.237   4.572   6.963
  649SOL    HW119089   6.223   4.600   6.872
  649SOL    HW219090   6.331   4.557   6.969
  650SOL     OW19091   5.501   5.937   7.579
  650SOL    HW119092   5.422   5.905   7.535
  650SOL    HW219093   5.517   5.875   7.649
  651SOL     OW19094   3.741   6.425   5.349
  651SOL    HW119095   3.809   6.470   5.399
  651SOL    HW219096   3.664   6.480   5.358
  652SOL     OW19097   1.829   2.506   6.386
  652SOL    HW119098   1.874   2.506   6.301
  652SOL    HW219099   1.899   2.488   6.449
  653SOL     OW19100   3.855   4.726   6.707
  653SOL    HW119101   3.765   4.754   6.724
  653SOL    HW219102   3.857   4.634   6.732
  654SOL     OW19103   1.680   6.342   7.370
  654SOL    HW119104   1.746   6.294   7.321
  654SOL    HW219105   1.696   6.434   7.347
  655SOL     OW19106   4.023   3.457   7.084
  655SOL    HW119107   3.953   3.443   7.148
  655SOL    HW219108   4.100   3.479   7.137
  656SOL     OW19109   0.041   3.486   1.213
  656SOL    HW119110   0.017   3.426   1.142
  656SOL    HW219111   0.114   3.443   1.257
  657SOL     OW19112   2.172   0.045   1.438
  657SOL    HW119113   2.209  -0.042   1.454
  657SOL    HW219114   2.082   0.039   1.470
  658SOL     OW19115   1.479   4.404   0.916
  658SOL    HW119116   1.401   4.384   0.863
  658SOL    HW219117   1.444   4.452   0.991
  659SOL     OW19118   3.822   2.658   7.225
  659SOL    HW119119   3.845   2.731   7.282
  659SOL    HW219120   3.747   2.690   7.175
  660SOL     OW19121   3.296   4.988   7.187
  660SOL    HW119122   3.233   5.060   7.178
  660SOL    HW219123   3.305   4.977   7.282
  661SOL     OW19124   3.807   4.180   1.652
  661SOL    HW119125   3.897   4.199   1.624
  661SOL    HW219126   3.810   4.185   1.747
  662SOL     OW19127   3.198   5.940   2.060
  662SOL    HW119128   3.248   5.998   2.117
  662SOL    HW219129   3.256   5.865   2.045
  663SOL     OW19130   4.658   5.371   1.816
  663SOL    HW119131   4.728   5.337   1.871
  663SOL    HW219132   4.580   5.372   1.872
  664SOL     OW19133   3.909   4.468   6.603
  664SOL    HW119134   3.982   4.458   6.665
  664SOL    HW219135   3.933   4.412   6.529
  665SOL     OW19136   1.267   0.972   2.253
  665SOL    HW119137   1.327   0.933   2.317
  665SOL    HW219138   1.323   0.996   2.179
  666SOL     OW19139   2.839   1.748   6.656
  666SOL    HW119140   2.783   1.804   6.709
  666SOL    HW219141   2.779   1.687   6.614
  667SOL     OW19142   2.889   0.028   1.915
  667SOL    HW119143   2.957   0.033   1.849
  667SOL    HW219144   2.929   0.064   1.994
  668SOL     OW19145   0.539   0.409   6.987
  668SOL    HW119146   0.558   0.316   6.997
  668SOL    HW219147   0.601   0.452   7.046
  669SOL     OW19148   2.478   2.301   2.401
  669SOL    HW119149   2.422   2.234   2.361
  669SOL    HW219150   2.531   2.334   2.329
  670SOL     OW19151   0.678   5.604   6.922
  670SOL    HW119152   0.584   5.612   6.910
  670SOL    HW219153   0.705   5.687   6.961
  671SOL     OW19154   1.524   4.920   7.073
  671SOL    HW119155   1.583   4.941   7.146
  671SOL    HW219156   1.450   4.979   7.084
  672SOL     OW19157   3.882   1.071   0.109
  672SOL    HW119158   3.974   1.096   0.114
  672SOL    HW219159   3.841   1.115   0.185
  673SOL     OW19160   4.377   6.277   5.900
  673SOL    HW119161   4.339   6.210   5.843
  673SOL    HW219162   4.396   6.351   5.842
  674SOL     OW19163   2.351   0.311   0.950
  674SOL    HW119164   2.301   0.303   0.869
  674SOL    HW219165   2.405   0.390   0.937
  675SOL     OW19166   5.318   5.538   6.637
  675SOL    HW119167   5.271   5.517   6.718
  675SOL    HW219168   5.350   5.454   6.605
  676SOL     OW19169   4.594   3.093   2.395
  676SOL    HW119170   4.501   3.073   2.409
  676SOL    HW219171   4.594   3.154   2.321
  677SOL     OW19172   0.931   4.732   0.804
  677SOL    HW119173   1.010   4.713   0.753
  677SOL    HW219174   0.861   4.688   0.756
  678SOL     OW19175   3.622   6.347   5.822
  678SOL    HW119176   3.630   6.435   5.861
  678SOL    HW219177   3.689   6.296   5.867
  679SOL     OW19178   1.575   0.226   1.663
  679SOL    HW119179   1.509   0.284   1.627
  679SOL    HW219180   1.560   0.227   1.757
  680SOL     OW19181   4.978   5.875   6.907
  680SOL    HW119182   5.013   5.791   6.936
  680SOL    HW219183   4.969   5.927   6.986
  681SOL     OW19184   2.495   4.807   1.649
  681SOL    HW119185   2.528   4.759   1.725
  681SOL    HW219186   2.473   4.738   1.585
  682SOL     OW19187   2.136   4.574   7.059
  682SOL    HW119188   2.043   4.556   7.049
  682SOL    HW219189   2.180   4.495   7.027
  683SOL     OW19190   5.582   4.228   1.485
  683SOL    HW119191   5.509   4.182   1.445
  683SOL    HW219192   5.574   4.318   1.454
  684SOL     OW19193   3.625   0.272   0.273
  684SOL    HW119194   3.590   0.361   0.270
  684SOL    HW219195   3.573   0.228   0.339
  685SOL     OW19196   3.062   1.043   6.618
  685SOL    HW119197   3.141   1.070   6.572
  685SOL    HW219198   2.998   1.027   6.548
  686SOL     OW19199   5.875   3.307   6.502
  686SOL    HW119200   5.968   3.286   6.512
  686SOL    HW219201   5.831   3.252   6.567
  687SOL     OW19202   0.215   3.073   1.417
  687SOL    HW119203   0.263   3.004   1.462
  687SOL    HW219204   0.148   3.101   1.480
  688SOL     OW19205   2.583   6.158   5.749
  688SOL    HW119206   2.620   6.241   5.720
  688SOL    HW219207   2.489   6.170   5.742
  689SOL     OW19208   0.878   6.161   0.624
  689SOL    HW119209   0.967   6.158   0.588
  689SOL    HW219210   0.890   6.161   0.719
  690SOL     OW19211   2.916   1.188   0.404
  690SOL    HW119212   2.832   1.211   0.364
  690SOL    HW219213   2.981   1.231   0.348
  691SOL     OW19214   1.215   0.087   0.237
  691SOL    HW119215   1.210   0.006   0.288
  691SOL    HW219216   1.141   0.082   0.177
  692SOL     OW19217   3.442   1.231   6.345
  692SOL    HW119218   3.481   1.247   6.431
  692SOL    HW219219   3.486   1.293   6.286
  693SOL     OW19220   5.194   3.597   1.291
  693SOL    HW119221   5.187   3.673   1.349
  693SOL    HW219222   5.286   3.595   1.264
  694SOL     OW19223   0.590   2.998   7.748
  694SOL    HW119224   0.591   2.985   7.843
  694SOL    HW219225   0.643   3.076   7.733
  695SOL     OW19226   5.505   5.919   6.555
  695SOL    HW119227   5.559   5.958   6.487
  695SOL    HW219228   5.443   5.863   6.508
  696SOL     OW19229   3.748   3.182   1.232
  696SOL    HW119230   3.678   3.215   1.288
  696SOL    HW219231   3.789   3.261   1.196
  697SOL     OW19232   2.252   1.105   7.363
  697SOL    HW119233   2.228   1.026   7.314
  697SOL    HW219234   2.233   1.084   7.454
  698SOL     OW19235   4.526   5.918   5.515
  698SOL    HW119236   4.472   5.846   5.484
  698SOL    HW219237   4.514   5.987   5.449
  699SOL     OW19238   5.861   1.285   1.387
  699SOL    HW119239   5.920   1.340   1.336
  699SOL    HW219240   5.903   1.279   1.473
  700SOL     OW19241   5.365   4.744   1.792
  700SOL    HW119242   5.299   4.792   1.743
  700SOL    HW219243   5.370   4.788   1.877
  701SOL     OW19244   3.648   5.257   0.367
  701SOL    HW119245   3.599   5.186   0.409
  701SOL    HW219246   3.722   5.273   0.426
  702SOL     OW19247   3.497   0.934   6.753
  702SOL    HW119248   3.580   0.956   6.710
  702SOL    HW219249   3.466   1.017   6.788
  703SOL     OW19250   2.987   2.481   5.608
  703SOL    HW119251   3.070   2.479   5.655
  703SOL    HW219252   2.999   2.420   5.535
  704SOL     OW19253   0.201   4.215   1.180
  704SOL    HW119254   0.294   4.232   1.193
  704SOL    HW219255   0.194   4.119   1.177
  705SOL     OW19256   1.156   1.682   0.572
  705SOL    HW119257   1.196   1.748   0.628
  705SOL    HW219258   1.071   1.665   0.613
  706SOL     OW19259   0.946   2.142   1.056
  706SOL    HW119260   0.883   2.135   0.984
  706SOL    HW219261   0.892   2.166   1.132
  707SOL     OW19262   2.923   3.421   7.516
  707SOL    HW119263   2.898   3.328   7.516
  707SOL    HW219264   2.949   3.438   7.607
  708SOL     OW19265   3.685   3.288   5.426
  708SOL    HW119266   3.710   3.327   5.342
  708SOL    HW219267   3.723   3.346   5.492
  709SOL     OW19268   5.866   2.515   1.965
  709SOL    HW119269   5.847   2.604   1.991
  709SOL    HW219270   5.865   2.465   2.046
  710SOL     OW19271   0.865   5.700   5.975
  710SOL    HW119272   0.800   5.710   6.044
  710SOL    HW219273   0.949   5.703   6.020
  711SOL     OW19274   3.830   3.259   0.873
  711SOL    HW119275   3.861   3.281   0.961
  711SOL    HW219276   3.896   3.198   0.839
  712SOL     OW19277   3.634   0.386   1.684
  712SOL    HW119278   3.720   0.400   1.643
  712SOL    HW219279   3.591   0.472   1.680
  713SOL     OW19280   2.676   6.352   6.322
  713SOL    HW119281   2.715   6.408   6.389
  713SOL    HW219282   2.654   6.413   6.251
  714SOL     OW19283   3.921   4.937   6.517
  714SOL    HW119284   3.849   4.995   6.542
  714SOL    HW219285   3.906   4.857   6.567
  715SOL     OW19286   1.646   1.871   0.413
  715SOL    HW119287   1.731   1.836   0.387
  715SOL    HW219288   1.631   1.835   0.500
  716SOL     OW19289   5.505   2.735   0.467
  716SOL    HW119290   5.470   2.824   0.468
  716SOL    HW219291   5.514   2.712   0.560
  717SOL     OW19292   3.280   5.486   0.391
  717SOL    HW119293   3.351   5.437   0.350
  717SOL    HW219294   3.200   5.452   0.350
  718SOL     OW19295   0.762   4.737   0.576
  718SOL    HW119296   0.816   4.681   0.520
  718SOL    HW219297   0.705   4.785   0.515
  719SOL     OW19298   0.467   1.324   7.460
  719SOL    HW119299   0.504   1.401   7.502
  719SOL    HW219300   0.483   1.253   7.523
  720SOL     OW19301   1.523   1.017   1.159
  720SOL    HW119302   1.530   1.063   1.243
  720SOL    HW219303   1.578   0.940   1.170
  721SOL     OW19304   4.112   4.845   1.472
  721SOL    HW119305   4.106   4.922   1.416
  721SOL    HW219306   4.201   4.848   1.507
  722SOL     OW19307   5.717   2.178   6.746
  722SOL    HW119308   5.733   2.233   6.669
  722SOL    HW219309   5.655   2.111   6.716
  723SOL     OW19310   2.737   0.879   5.773
  723SOL    HW119311   2.663   0.856   5.717
  723SOL    HW219312   2.803   0.813   5.753
  724SOL     OW19313   4.301   2.324   1.200
  724SOL    HW119314   4.226   2.382   1.183
  724SOL    HW219315   4.370   2.357   1.143
  725SOL     OW19316   1.867   2.218   2.160
  725SOL    HW119317   1.842   2.127   2.174
  725SOL    HW219318   1.887   2.223   2.066
  726SOL     OW19319   2.118   4.949   0.102
  726SOL    HW119320   2.157   4.917   0.020
  726SOL    HW219321   2.096   5.040   0.083
  727SOL     OW19322   1.696   2.106   2.602
  727SOL    HW119323   1.693   2.176   2.537
  727SOL    HW219324   1.656   2.031   2.558
  728SOL     OW19325   6.235   0.537   0.943
  728SOL    HW119326   6.157   0.590   0.927
  728SOL    HW219327   6.282   0.536   0.860
  729SOL     OW19328   1.375   3.136   5.627
  729SOL    HW119329   1.288   3.166   5.599
  729SOL    HW219330   1.364   3.042   5.643
  730SOL     OW19331   6.113   2.591   0.375
  730SOL    HW119332   6.039   2.541   0.339
  730SOL    HW219333   6.191   2.548   0.339
  731SOL     OW19334   1.907   4.137   7.747
  731SOL    HW119335   1.982   4.077   7.756
  731SOL    HW219336   1.832   4.085   7.775
  732SOL     OW19337   0.572   0.520   0.647
  732SOL    HW119338   0.554   0.491   0.558
  732SOL    HW219339   0.485   0.527   0.687
  733SOL     OW19340   3.825   4.536   6.914
  733SOL    HW119341   3.863   4.477   6.979
  733SOL    HW219342   3.731   4.532   6.931
  734SOL     OW19343   0.250   4.500   5.757
  734SOL    HW119344   0.319   4.437   5.737
  734SOL    HW219345   0.293   4.566   5.811
  735SOL     OW19346   3.393   2.814   7.348
  735SOL    HW119347   3.300   2.794   7.353
  735SOL    HW219348   3.415   2.804   7.255
  736SOL     OW19349   5.682   3.883   6.629
  736SOL    HW119350   5.628   3.829   6.687
  736SOL    HW219351   5.626   3.958   6.607
  737SOL     OW19352   4.738   1.199   6.796
  737SOL    HW119353   4.778   1.118   6.827
  737SOL    HW219354   4.677   1.172   6.728
  738SOL     OW19355   4.054   5.659   6.913
  738SOL    HW119356   4.050   5.749   6.880
  738SOL    HW219357   4.014   5.663   7.000
  739SOL     OW19358   4.248   1.436   0.902
  739SOL    HW119359   4.173   1.381   0.878
  739SOL    HW219360   4.210   1.509   0.951
  740SOL     OW19361   0.429   4.960   2.320
  740SOL    HW119362   0.450   4.913   2.400
  740SOL    HW219363   0.512   4.998   2.291
  741SOL     OW19364   4.892   3.797   0.540
  741SOL    HW119365   4.847   3.777   0.621
  741SOL    HW219366   4.906   3.711   0.499
  742SOL     OW19367   4.173   0.806   2.253
  742SOL    HW119368   4.248   0.866   2.251
  742SOL    HW219369   4.193   0.740   2.186
  743SOL     OW19370   2.863   1.364   1.537
  743SOL    HW119371   2.813   1.382   1.457
  743SOL    HW219372   2.802   1.381   1.608
  744SOL     OW19373   3.420   2.772   7.096
  744SOL    HW119374   3.400   2.813   7.011
  744SOL    HW219375   3.453   2.685   7.072
  745SOL     OW19376   3.051   4.796   5.911
  745SOL    HW119377   3.099   4.800   5.994
  745SOL    HW219378   3.104   4.849   5.851
  746SOL     OW19379   5.470   3.590   0.241
  746SOL    HW119380   5.510   3.568   0.325
  746SOL    HW219381   5.531   3.557   0.175
  747SOL     OW19382   2.121   1.370   0.385
  747SOL    HW119383   2.187   1.438   0.389
  747SOL    HW219384   2.151   1.311   0.316
  748SOL     OW19385   3.798   1.381   7.499
  748SOL    HW119386   3.804   1.309   7.561
  748SOL    HW219387   3.859   1.359   7.428
  749SOL     OW19388   1.112   4.627   1.601
  749SOL    HW119389   1.167   4.663   1.531
  749SOL    HW219390   1.169   4.626   1.678
  750SOL     OW19391   4.678   5.627   6.773
  750SOL    HW119392   4.710   5.657   6.859
  750SOL    HW219393   4.733   5.673   6.710
  751SOL     OW19394   3.625   6.440   6.640
  751SOL    HW119395   3.534   6.448   6.668
  751SOL    HW219396   3.621   6.403   6.552
  752SOL     OW19397   5.095   3.847   7.428
  752SOL    HW119398   5.069   3.899   7.352
  752SOL    HW219399   5.144   3.907   7.483
  753SOL     OW19400   3.764   3.562   1.749
  753SOL    HW119401   3.764   3.643   1.699
  753SOL    HW219402   3.790   3.588   1.838
  754SOL     OW19403   6.379   0.898   0.909
  754SOL    HW119404   6.363   0.992   0.920
  754SOL    HW219405   6.332   0.874   0.830
  755SOL     OW19406   0.814   3.911   1.475
  755SOL    HW119407   0.721   3.917   1.497
  755SOL    HW219408   0.844   3.831   1.520
  756SOL     OW19409   3.071   5.914   7.223
  756SOL    HW119410   3.059   5.873   7.138
  756SOL    HW219411   3.047   5.845   7.286
  757SOL     OW19412   1.810   2.212   1.695
  757SOL    HW119413   1.894   2.200   1.739
  757SOL    HW219414   1.812   2.149   1.622
  758SOL     OW19415   2.450   1.049   0.325
  758SOL    HW119416   2.405   0.976   0.368
  758SOL    HW219417   2.526   1.009   0.282
  759SOL     OW19418   2.997   3.572   2.579
  759SOL    HW119419   3.004   3.506   2.647
  759SOL    HW219420   2.953   3.528   2.506
  760SOL     OW19421   3.203   5.464   6.235
  760SOL    HW119422   3.191   5.540   6.178
  760SOL    HW219423   3.228   5.501   6.319
  761SOL     OW19424   6.009   0.178   6.851
  761SOL    HW119425   5.957   0.252   6.820
  761SOL    HW219426   6.088   0.180   6.797
  762SOL     OW19427   5.695   4.292   5.499
  762SOL    HW119428   5.763   4.242   5.545
  762SOL    HW219429   5.618   4.286   5.557
  763SOL     OW19430   1.050   4.589   6.645
  763SOL    HW119431   1.130   4.540   6.627
  763SOL    HW219432   1.081   4.672   6.682
  764SOL     OW19433   0.678   4.910   2.469
  764SOL    HW119434   0.605   4.847   2.474
  764SOL    HW219435   0.744   4.864   2.416
  765SOL     OW19436   5.464   3.945   0.521
  765SOL    HW119437   5.494   3.941   0.612
  765SOL    HW219438   5.385   3.890   0.520
  766SOL     OW19439   0.541   1.657   5.749
  766SOL    HW119440   0.601   1.615   5.811
  766SOL    HW219441   0.495   1.723   5.800
  767SOL     OW19442   3.863   0.128   0.672
  767SOL    HW119443   3.929   0.196   0.688
  767SOL    HW219444   3.874   0.105   0.580
  768SOL     OW19445   1.604   4.758   0.221
  768SOL    HW119446   1.640   4.695   0.158
  768SOL    HW219447   1.554   4.705   0.282
  769SOL     OW19448   0.482   0.624   1.066
  769SOL    HW119449   0.472   0.596   1.157
  769SOL    HW219450   0.444   0.553   1.014
  770SOL     OW19451   2.476   6.448   1.605
  770SOL    HW119452   2.553   6.400   1.636
  770SOL    HW219453   2.443   6.397   1.532
  771SOL     OW19454   4.188   2.358   0.911
  771SOL    HW119455   4.252   2.419   0.948
  771SOL    HW219456   4.103   2.400   0.926
  772SOL     OW19457   1.588   3.814   6.416
  772SOL    HW119458   1.512   3.758   6.402
  772SOL    HW219459   1.567   3.863   6.496
  773SOL     OW19460   3.306   6.126   0.209
  773SOL    HW119461   3.401   6.137   0.219
  773SOL    HW219462   3.296   6.094   0.119
  774SOL     OW19463   6.035   0.697   0.852
  774SOL    HW119464   5.991   0.780   0.872
  774SOL    HW219465   6.102   0.720   0.787
  775SOL     OW19466   2.509   1.987   6.326
  775SOL    HW119467   2.518   1.997   6.231
  775SOL    HW219468   2.417   2.004   6.343
  776SOL     OW19469   5.014   2.972   6.804
  776SOL    HW119470   4.950   3.014   6.860
  776SOL    HW219471   4.963   2.939   6.730
  777SOL     OW19472   3.512   0.832   7.083
  777SOL    HW119473   3.430   0.874   7.110
  777SOL    HW219474   3.575   0.903   7.079
  778SOL     OW19475   3.192   2.369   7.701
  778SOL    HW119476   3.223   2.281   7.723
  778SOL    HW219477   3.259   2.428   7.735
  779SOL     OW19478   2.002   1.981   6.802
  779SOL    HW119479   1.985   2.045   6.870
  779SOL    HW219480   1.932   1.916   6.811
  780SOL     OW19481   3.404   5.578   7.246
  780SOL    HW119482   3.416   5.484   7.257
  780SOL    HW219483   3.432   5.616   7.329
  781SOL     OW19484   0.337   5.710   6.123
  781SOL    HW119485   0.302   5.629   6.088
  781SOL    HW219486   0.416   5.727   6.072
  782SOL     OW19487   2.646   5.650   2.503
  782SOL    HW119488   2.686   5.714   2.562
  782SOL    HW219489   2.684   5.670   2.417
  783SOL     OW19490   5.124   5.182   6.510
  783SOL    HW119491   5.078   5.098   6.505
  783SOL    HW219492   5.200   5.171   6.453
  784SOL     OW19493   2.136   5.125   7.397
  784SOL    HW119494   2.209   5.112   7.336
  784SOL    HW219495   2.121   5.219   7.397
  785SOL     OW19496   2.927   4.958   0.708
  785SOL    HW119497   2.933   4.998   0.795
  785SOL    HW219498   2.883   5.023   0.655
  786SOL     OW19499   3.859   4.585   7.447
  786SOL    HW119500   3.814   4.660   7.485
  786SOL    HW219501   3.924   4.623   7.388
  787SOL     OW19502   4.854   4.403   0.177
  787SOL    HW119503   4.897   4.486   0.152
  787SOL    HW219504   4.921   4.336   0.161
  788SOL     OW19505   0.295   4.864   6.713
  788SOL    HW119506   0.338   4.871   6.628
  788SOL    HW219507   0.228   4.932   6.712
  789SOL     OW19508   1.570   4.158   6.831
  789SOL    HW119509   1.625   4.084   6.806
  789SOL    HW219510   1.481   4.130   6.809
  790SOL     OW19511   0.037   4.875   1.070
  790SOL    HW119512  -0.003   4.939   1.129
  790SOL    HW219513   0.130   4.898   1.069
  791SOL     OW19514   3.157   1.922   7.393
  791SOL    HW119515   3.237   1.968   7.419
  791SOL    HW219516   3.101   1.990   7.357
  792SOL     OW19517   4.116   2.783   1.080
  792SOL    HW119518   4.068   2.823   1.007
  792SOL    HW219519   4.051   2.774   1.150
  793SOL     OW19520   3.675   0.768   2.322
  793SOL    HW119521   3.643   0.856   2.338
  793SOL    HW219522   3.756   0.762   2.371
  794SOL     OW19523   3.633   5.826   1.122
  794SOL    HW119524   3.721   5.831   1.160
  794SOL    HW219525   3.622   5.733   1.100
  795SOL     OW19526   1.210   4.897   7.257
  795SOL    HW119527   1.250   4.961   7.198
  795SOL    HW219528   1.279   4.878   7.321
  796SOL     OW19529   0.440   4.708   6.154
  796SOL    HW119530   0.452   4.698   6.060
  796SOL    HW219531   0.351   4.678   6.170
  797SOL     OW19532   5.400   5.761   2.450
  797SOL    HW119533   5.420   5.681   2.500
  797SOL    HW219534   5.372   5.824   2.516
  798SOL     OW19535   6.320   2.173   1.406
  798SOL    HW119536   6.295   2.256   1.365
  798SOL    HW219537   6.389   2.139   1.350
  799SOL     OW19538   6.223   0.390   5.914
  799SOL    HW119539   6.152   0.442   5.877
  799SOL    HW219540   6.225   0.311   5.861
  800SOL     OW19541   4.094   4.524   0.673
  800SOL    HW119542   4.089   4.615   0.703
  800SOL    HW219543   4.039   4.522   0.594
  801SOL     OW19544   5.871   2.322   0.022
  801SOL    HW119545   5.784   2.284   0.032
  801SOL    HW219546   5.906   2.325   0.111
  802SOL     OW19547   4.195   1.380   7.523
  802SOL    HW119548   4.276   1.338   7.552
  802SOL    HW219549   4.148   1.400   7.604
  803SOL     OW19550   4.820   0.659   7.367
  803SOL    HW119551   4.857   0.600   7.433
  803SOL    HW219552   4.772   0.724   7.418
  804SOL     OW19553   5.041   4.075   7.277
  804SOL    HW119554   5.029   4.131   7.353
  804SOL    HW219555   5.053   4.135   7.203
  805SOL     OW19556   3.926   3.428   7.610
  805SOL    HW119557   3.859   3.485   7.647
  805SOL    HW219558   3.930   3.452   7.517
  806SOL     OW19559   4.852   3.135   1.859
  806SOL    HW119560   4.769   3.131   1.905
  806SOL    HW219561   4.828   3.139   1.766
  807SOL     OW19562   4.184   3.209   5.740
  807SOL    HW119563   4.158   3.255   5.820
  807SOL    HW219564   4.102   3.181   5.700
  808SOL     OW19565   4.454   6.190   1.833
  808SOL    HW119566   4.473   6.201   1.927
  808SOL    HW219567   4.521   6.242   1.789
  809SOL     OW19568   6.158   3.051   0.256
  809SOL    HW119569   6.157   3.037   0.161
  809SOL    HW219570   6.116   3.136   0.269
  810SOL     OW19571   3.505   3.581   0.832
  810SOL    HW119572   3.540   3.539   0.912
  810SOL    HW219573   3.583   3.613   0.787
  811SOL     OW19574   5.009   3.011   0.951
  811SOL    HW119575   5.055   3.090   0.922
  811SOL    HW219576   4.971   2.975   0.870
  812SOL     OW19577   3.600   2.430   0.752
  812SOL    HW119578   3.530   2.478   0.708
  812SOL    HW219579   3.668   2.420   0.686
  813SOL     OW19580   2.395   5.207   2.625
  813SOL    HW119581   2.443   5.273   2.574
  813SOL    HW219582   2.304   5.217   2.598
  814SOL     OW19583   6.214   4.793   6.454
  814SOL    HW119584   6.153   4.788   6.380
  814SOL    HW219585   6.300   4.787   6.414
  815SOL     OW19586   4.062   0.583   1.426
  815SOL    HW119587   4.119   0.528   1.373
  815SOL    HW219588   4.121   0.643   1.471
  816SOL     OW19589   1.922   3.780   7.032
  816SOL    HW119590   1.912   3.857   7.087
  816SOL    HW219591   1.971   3.810   6.955
  817SOL     OW19592   4.838   0.138   0.693
  817SOL    HW119593   4.926   0.119   0.661
  817SOL    HW219594   4.803   0.053   0.717
  818SOL     OW19595   4.064   1.581   1.939
  818SOL    HW119596   4.023   1.553   2.021
  818SOL    HW219597   3.996   1.570   1.873
  819SOL     OW19598   4.013   4.303   1.516
  819SOL    HW119599   4.101   4.268   1.531
  819SOL    HW219600   4.019   4.349   1.432
  820SOL     OW19601   4.486   0.731   7.519
  820SOL    HW119602   4.492   0.647   7.474
  820SOL    HW219603   4.459   0.793   7.451
  821SOL     OW19604   3.544   2.257   7.018
  821SOL    HW119605   3.471   2.254   7.080
  821SOL    HW219606   3.590   2.174   7.030
  822SOL     OW19607   1.756   2.317   2.427
  822SOL    HW119608   1.796   2.283   2.347
  822SOL    HW219609   1.825   2.371   2.467
  823SOL     OW19610   2.800   6.017   1.483
  823SOL    HW119611   2.769   6.019   1.393
  823SOL    HW219612   2.725   5.985   1.534
  824SOL     OW19613   3.632   6.438   6.369
  824SOL    HW119614   3.690   6.507   6.337
  824SOL    HW219615   3.549   6.483   6.386
  825SOL     OW19616   4.082   2.134   6.965
  825SOL    HW119617   4.029   2.182   7.028
  825SOL    HW219618   4.171   2.165   6.980
  826SOL     OW19619   5.807   5.325   0.053
  826SOL    HW119620   5.785   5.275   0.132
  826SOL    HW219621   5.901   5.344   0.062
  827SOL     OW19622   4.782   3.695   1.835
  827SOL    HW119623   4.714   3.673   1.772
  827SOL    HW219624   4.788   3.619   1.893
  828SOL     OW19625   4.977   4.347   2.017
  828SOL    HW119626   4.908   4.287   2.043
  828SOL    HW219627   5.026   4.364   2.098
  829SOL     OW19628   0.738   3.822   7.243
  829SOL    HW119629   0.721   3.762   7.171
  829SOL    HW219630   0.805   3.882   7.210
  830SOL     OW19631   0.222   1.527   0.913
  830SOL    HW119632   0.300   1.578   0.935
  830SOL    HW219633   0.166   1.589   0.866
  831SOL     OW19634   1.476   1.261   7.643
  831SOL    HW119635   1.442   1.277   7.555
  831SOL    HW219636   1.490   1.348   7.680
  832SOL     OW19637   3.711   1.879   7.337
  832SOL    HW119638   3.776   1.811   7.321
  832SOL    HW219639   3.713   1.892   7.432
  833SOL     OW19640   3.122   3.618   0.594
  833SOL    HW119641   3.159   3.556   0.657
  833SOL    HW219642   3.199   3.655   0.549
  834SOL     OW19643   1.173   4.557   7.292
  834SOL    HW119644   1.187   4.635   7.238
  834SOL    HW219645   1.078   4.555   7.306
  835SOL     OW19646   1.292   3.473   7.642
  835SOL    HW119647   1.249   3.389   7.654
  835SOL    HW219648   1.382   3.452   7.619
  836SOL     OW19649   3.681   0.313   5.471
  836SOL    HW119650   3.638   0.263   5.401
  836SOL    HW219651   3.688   0.252   5.544
  837SOL     OW19652   4.900   4.599   6.795
  837SOL    HW119653   4.828   4.629   6.852
  837SOL    HW219654   4.920   4.511   6.826
  838SOL     OW19655   1.429   6.174   1.596
  838SOL    HW119656   1.407   6.261   1.631
  838SOL    HW219657   1.359   6.155   1.535
  839SOL     OW19658   0.285   0.083   1.814
  839SOL    HW119659   0.242   0.136   1.881
  839SOL    HW219660   0.218   0.021   1.786
  840SOL     OW19661   5.647   2.325   1.475
  840SOL    HW119662   5.568   2.377   1.485
  840SOL    HW219663   5.696   2.339   1.556
  841SOL     OW19664   1.894   1.180   1.201
  841SOL    HW119665   1.977   1.188   1.154
  841SOL    HW219666   1.919   1.148   1.288
  842SOL     OW19667   0.163   2.239   7.552
  842SOL    HW119668   0.072   2.215   7.537
  842SOL    HW219669   0.190   2.184   7.626
  843SOL     OW19670   2.085   0.201   1.841
  843SOL    HW119671   2.117   0.112   1.829
  843SOL    HW219672   1.992   0.195   1.819
  844SOL     OW19673   2.194   3.866   0.823
  844SOL    HW119674   2.205   3.848   0.730
  844SOL    HW219675   2.283   3.881   0.855
  845SOL     OW19676   0.441   2.070   0.511
  845SOL    HW119677   0.362   2.035   0.469
  845SOL    HW219678   0.410   2.148   0.559
  846SOL     OW19679   5.343   6.088   7.019
  846SOL    HW119680   5.305   6.000   7.023
  846SOL    HW219681   5.354   6.105   6.925
  847SOL     OW19682   0.007   4.751   6.402
  847SOL    HW119683   0.073   4.703   6.351
  847SOL    HW219684   0.050   4.833   6.424
  848SOL     OW19685   1.708   3.193   1.542
  848SOL    HW119686   1.686   3.171   1.633
  848SOL    HW219687   1.638   3.152   1.491
  849SOL     OW19688   5.543   2.542   0.080
  849SOL    HW119689   5.629   2.580   0.098
  849SOL    HW219690   5.525   2.567  -0.010
  850SOL     OW19691   2.063   1.926   6.557
  850SOL    HW119692   2.038   1.932   6.649
  850SOL    HW219693   2.091   1.835   6.546
  851SOL     OW19694   1.299   3.086   0.417
  851SOL    HW119695   1.341   3.074   0.332
  851SOL    HW219696   1.277   2.997   0.446
  852SOL     OW19697   4.814   3.070   1.596
  852SOL    HW119698   4.725   3.035   1.604
  852SOL    HW219699   4.869   2.993   1.582
  853SOL     OW19700   3.942   1.074   1.483
  853SOL    HW119701   3.970   1.159   1.519
  853SOL    HW219702   3.993   1.064   1.402
  854SOL     OW19703   0.829   3.407   0.784
  854SOL    HW119704   0.817   3.357   0.865
  854SOL    HW219705   0.908   3.459   0.800
  855SOL     OW19706   5.376   5.071   1.179
  855SOL    HW119707   5.359   5.162   1.204
  855SOL    HW219708   5.472   5.063   1.181
  856SOL     OW19709   2.006   1.136   0.449
  856SOL    HW119710   2.019   1.225   0.418
  856SOL    HW219711   1.965   1.090   0.375
  857SOL     OW19712   0.657   3.771   1.079
  857SOL    HW119713   0.586   3.707   1.080
  857SOL    HW219714   0.620   3.848   1.123
  858SOL     OW19715   3.369   4.322   2.281
  858SOL    HW119716   3.308   4.250   2.266
  858SOL    HW219717   3.361   4.377   2.202
  859SOL     OW19718   0.115   2.045   7.752
  859SOL    HW119719   0.053   2.001   7.692
  859SOL    HW219720   0.062   2.112   7.795
  860SOL     OW19721   3.017   2.484   0.785
  860SOL    HW119722   2.930   2.473   0.748
  860SOL    HW219723   3.070   2.415   0.745
  861SOL     OW19724   4.175   5.692   7.588
  861SOL    HW119725   4.115   5.761   7.616
  861SOL    HW219726   4.119   5.620   7.560
  862SOL     OW19727   0.125   3.010   7.452
  862SOL    HW119728   0.132   2.915   7.454
  862SOL    HW219729   0.171   3.036   7.372
  863SOL     OW19730   4.055   5.381   6.330
  863SOL    HW119731   4.085   5.379   6.239
  863SOL    HW219732   4.130   5.350   6.380
  864SOL     OW19733   4.400   4.672   7.119
  864SOL    HW119734   4.327   4.612   7.103
  864SOL    HW219735   4.430   4.651   7.207
  865SOL     OW19736   0.569   2.902   0.763
  865SOL    HW119737   0.624   2.947   0.700
  865SOL    HW219738   0.481   2.938   0.748
  866SOL     OW19739   4.634   3.152   7.437
  866SOL    HW119740   4.570   3.212   7.399
  866SOL    HW219741   4.583   3.074   7.460
  867SOL     OW19742   3.297   6.436   0.957
  867SOL    HW119743   3.364   6.399   0.900
  867SOL    HW219744   3.254   6.504   0.903
  868SOL     OW19745   4.944   1.953   0.368
  868SOL    HW119746   4.972   1.874   0.413
  868SOL    HW219747   4.962   1.936   0.276
  869SOL     OW19748   1.733   6.386   7.045
  869SOL    HW119749   1.674   6.318   7.012
  869SOL    HW219750   1.678   6.464   7.055
  870SOL     OW19751   2.230   6.026   1.937
  870SOL    HW119752   2.280   5.946   1.921
  870SOL    HW219753   2.297   6.092   1.959
  871SOL     OW19754   2.004   5.920   6.142
  871SOL    HW119755   2.000   5.826   6.127
  871SOL    HW219756   1.927   5.938   6.197
  872SOL     OW19757   5.343   2.958   0.499
  872SOL    HW119758   5.305   2.973   0.413
  872SOL    HW219759   5.271   2.974   0.560
  873SOL     OW19760   5.680   4.225   6.123
  873SOL    HW119761   5.735   4.210   6.046
  873SOL    HW219762   5.661   4.138   6.156
  874SOL     OW19763   3.690   5.064   6.620
  874SOL    HW119764   3.596   5.070   6.638
  874SOL    HW219765   3.731   5.114   6.691
  875SOL     OW19766   1.234   4.410   0.751
  875SOL    HW119767   1.164   4.370   0.803
  875SOL    HW219768   1.210   4.391   0.660
  876SOL     OW19769   0.075   0.779   7.038
  876SOL    HW119770   0.037   0.787   6.951
  876SOL    HW219771   0.135   0.705   7.032
  877SOL     OW19772   0.253   5.490   5.995
  877SOL    HW119773   0.283   5.516   5.908
  877SOL    HW219774   0.235   5.396   5.986
  878SOL     OW19775   2.277   1.375   7.282
  878SOL    HW119776   2.282   1.384   7.186
  878SOL    HW219777   2.276   1.281   7.297
  879SOL     OW19778   0.820   5.297   5.565
  879SOL    HW119779   0.736   5.256   5.587
  879SOL    HW219780   0.881   5.224   5.557
  880SOL     OW19781   2.706   1.669   0.119
  880SOL    HW119782   2.656   1.686   0.199
  880SOL    HW219783   2.667   1.590   0.083
  881SOL     OW19784   0.610   4.489   7.190
  881SOL    HW119785   0.705   4.483   7.181
  881SOL    HW219786   0.589   4.430   7.262
  882SOL     OW19787   3.735   3.481   6.630
  882SOL    HW119788   3.673   3.553   6.622
  882SOL    HW219789   3.739   3.463   6.724
  883SOL     OW19790   1.353   3.866   2.056
  883SOL    HW119791   1.427   3.923   2.036
  883SOL    HW219792   1.276   3.919   2.034
  884SOL     OW19793   4.029   3.516   0.528
  884SOL    HW119794   4.071   3.456   0.467
  884SOL    HW219795   4.078   3.598   0.519
  885SOL     OW19796   2.270   3.981   7.587
  885SOL    HW119797   2.276   3.906   7.528
  885SOL    HW219798   2.357   4.022   7.584
  886SOL     OW19799   5.593   6.343   0.820
  886SOL    HW119800   5.520   6.296   0.859
  886SOL    HW219801   5.567   6.435   0.822
  887SOL     OW19802   3.891   6.085   1.891
  887SOL    HW119803   3.981   6.081   1.926
  887SOL    HW219804   3.886   6.011   1.830
  888SOL     OW19805   0.687   1.612   5.324
  888SOL    HW119806   0.644   1.679   5.378
  888SOL    HW219807   0.632   1.535   5.335
  889SOL     OW19808   5.183   5.318   0.917
  889SOL    HW119809   5.148   5.310   0.828
  889SOL    HW219810   5.276   5.298   0.908
  890SOL     OW19811   1.939   4.315   1.627
  890SOL    HW119812   1.855   4.359   1.640
  890SOL    HW219813   2.000   4.362   1.684
  891SOL     OW19814   3.573   5.669   6.224
  891SOL    HW119815   3.527   5.647   6.305
  891SOL    HW219816   3.521   5.739   6.185
  892SOL     OW19817   4.903   5.972   1.130
  892SOL    HW119818   4.856   5.920   1.065
  892SOL    HW219819   4.940   5.907   1.190
  893SOL     OW19820   3.256   4.105   0.336
  893SOL    HW119821   3.163   4.108   0.314
  893SOL    HW219822   3.292   4.038   0.278
  894SOL     OW19823   0.377   3.751   1.436
  894SOL    HW119824   0.298   3.798   1.464
  894SOL    HW219825   0.349   3.701   1.360
  895SOL     OW19826   0.798   0.906   0.907
  895SOL    HW119827   0.855   0.970   0.865
  895SOL    HW219828   0.729   0.889   0.842
  896SOL     OW19829   1.189   4.936   1.936
  896SOL    HW119830   1.219   4.854   1.896
  896SOL    HW219831   1.228   4.936   2.023
  897SOL     OW19832   5.293   6.281   6.275
  897SOL    HW119833   5.317   6.343   6.206
  897SOL    HW219834   5.202   6.258   6.255
  898SOL     OW19835   0.079   5.767   1.940
  898SOL    HW119836   0.099   5.803   1.854
  898SOL    HW219837   0.003   5.710   1.925
  899SOL     OW19838   3.257   1.350   0.409
  899SOL    HW119839   3.230   1.410   0.478
  899SOL    HW219840   3.203   1.374   0.334
  900SOL     OW19841   5.049   2.868   2.543
  900SOL    HW119842   5.100   2.802   2.496
  900SOL    HW219843   4.959   2.834   2.541
  901SOL     OW19844   6.344   3.476   0.732
  901SOL    HW119845   6.335   3.530   0.654
  901SOL    HW219846   6.259   3.432   0.740
  902SOL     OW19847   3.843   3.142   7.497
  902SOL    HW119848   3.887   3.079   7.554
  902SOL    HW219849   3.877   3.227   7.524
  903SOL     OW19850   4.136   4.035   1.043
  903SOL    HW119851   4.200   4.071   0.982
  903SOL    HW219852   4.146   4.088   1.122
  904SOL     OW19853   5.426   1.925   0.439
  904SOL    HW119854   5.462   1.916   0.351
  904SOL    HW219855   5.483   1.871   0.494
  905SOL     OW19856   5.572   2.581   0.670
  905SOL    HW119857   5.547   2.492   0.691
  905SOL    HW219858   5.584   2.624   0.755
  906SOL     OW19859   3.066   1.691   1.580
  906SOL    HW119860   3.062   1.771   1.632
  906SOL    HW219861   3.148   1.649   1.607
  907SOL     OW19862   3.514   2.931   6.484
  907SOL    HW119863   3.539   3.012   6.439
  907SOL    HW219864   3.446   2.893   6.428
  908SOL     OW19865   5.056   4.856   5.155
  908SOL    HW119866   5.143   4.828   5.185
  908SOL    HW219867   5.073   4.935   5.103
  909SOL     OW19868   1.815   1.419   0.846
  909SOL    HW119869   1.737   1.464   0.881
  909SOL    HW219870   1.852   1.481   0.784
  910SOL     OW19871   4.031   6.060   1.502
  910SOL    HW119872   4.096   6.006   1.458
  910SOL    HW219873   4.025   6.024   1.591
  911SOL     OW19874   3.532   2.459   0.510
  911SOL    HW119875   3.464   2.403   0.472
  911SOL    HW219876   3.604   2.456   0.448
  912SOL     OW19877   4.587   0.667   1.948
  912SOL    HW119878   4.544   0.587   1.978
  912SOL    HW219879   4.516   0.723   1.918
  913SOL     OW19880   4.682   3.696   1.386
  913SOL    HW119881   4.726   3.729   1.307
  913SOL    HW219882   4.633   3.772   1.419
  914SOL     OW19883   3.080   0.913   1.162
  914SOL    HW119884   2.999   0.906   1.112
  914SOL    HW219885   3.052   0.943   1.248
  915SOL     OW19886   1.982   1.900   7.664
  915SOL    HW119887   1.896   1.925   7.630
  915SOL    HW219888   1.972   1.809   7.691
  916SOL     OW19889   4.390   5.202   2.628
  916SOL    HW119890   4.373   5.253   2.708
  916SOL    HW219891   4.428   5.265   2.567
  917SOL     OW19892   5.437   3.287   1.136
  917SOL    HW119893   5.401   3.274   1.224
  917SOL    HW219894   5.433   3.381   1.122
  918SOL     OW19895   0.413   6.279   6.749
  918SOL    HW119896   0.434   6.219   6.678
  918SOL    HW219897   0.488   6.340   6.752
  919SOL     OW19898   6.360   1.747   0.048
  919SOL    HW119899   6.323   1.717   0.131
  919SOL    HW219900   6.451   1.769   0.068
  920SOL     OW19901   0.137   4.235   0.816
  920SOL    HW119902   0.223   4.215   0.852
  920SOL    HW219903   0.086   4.269   0.890
  921SOL     OW19904   4.725   1.673   0.573
  921SOL    HW119905   4.712   1.702   0.664
  921SOL    HW219906   4.706   1.579   0.574
  922SOL     OW19907   1.644   2.263   7.145
  922SOL    HW119908   1.603   2.342   7.109
  922SOL    HW219909   1.570   2.206   7.165
  923SOL     OW19910   6.124   2.361   7.063
  923SOL    HW119911   6.137   2.448   7.101
  923SOL    HW219912   6.038   2.365   7.022
  924SOL     OW19913   1.186   1.443   0.416
  924SOL    HW119914   1.200   1.520   0.472
  924SOL    HW219915   1.092   1.444   0.398
  925SOL     OW19916   1.902   3.573   1.214
  925SOL    HW119917   1.929   3.483   1.195
  925SOL    HW219918   1.830   3.564   1.277
  926SOL     OW19919   5.053   0.247   1.359
  926SOL    HW119920   5.109   0.185   1.312
  926SOL    HW219921   5.084   0.333   1.330
  927SOL     OW19922   3.745   4.379   6.118
  927SOL    HW119923   3.652   4.359   6.132
  927SOL    HW219924   3.790   4.297   6.138
  928SOL     OW19925   2.659   0.805   7.302
  928SOL    HW119926   2.728   0.825   7.365
  928SOL    HW219927   2.628   0.891   7.272
  929SOL     OW19928   3.639   0.310   2.659
  929SOL    HW119929   3.577   0.363   2.608
  929SOL    HW219930   3.611   0.220   2.643
  930SOL     OW19931   5.446   4.448   0.031
  930SOL    HW119932   5.505   4.391  -0.018
  930SOL    HW219933   5.475   4.439   0.122
  931SOL     OW19934   5.981   6.377   1.717
  931SOL    HW119935   5.899   6.358   1.763
  931SOL    HW219936   6.032   6.428   1.781
  932SOL     OW19937   0.226   0.201   6.954
  932SOL    HW119938   0.190   0.241   6.875
  932SOL    HW219939   0.217   0.268   7.022
  933SOL     OW19940   0.971   5.220   0.265
  933SOL    HW119941   1.057   5.217   0.224
  933SOL    HW219942   0.938   5.307   0.244
  934SOL     OW19943   2.815   6.116   7.179
  934SOL    HW119944   2.756   6.091   7.108
  934SOL    HW219945   2.813   6.212   7.179
  935SOL     OW19946   2.752   6.449   0.666
  935SOL    HW119947   2.816   6.443   0.595
  935SOL    HW219948   2.806   6.457   0.745
  936SOL     OW19949   3.893   0.487   0.677
  936SOL    HW119950   3.824   0.455   0.735
  936SOL    HW219951   3.954   0.532   0.735
  937SOL     OW19952   1.499   1.802   6.695
  937SOL    HW119953   1.517   1.851   6.615
  937SOL    HW219954   1.546   1.720   6.684
  938SOL     OW19955   1.655   2.828   2.166
  938SOL    HW119956   1.664   2.815   2.261
  938SOL    HW219957   1.649   2.923   2.155
  939SOL     OW19958   5.681   3.559   7.174
  939SOL    HW119959   5.754   3.598   7.126
  939SOL    HW219960   5.711   3.555   7.265
  940SOL     OW19961   0.576   1.542   0.506
  940SOL    HW119962   0.601   1.460   0.463
  940SOL    HW219963   0.639   1.606   0.474
  941SOL     OW19964   2.036   2.999   6.053
  941SOL    HW119965   1.987   2.938   5.998
  941SOL    HW219966   2.001   3.085   6.031
  942SOL     OW19967   1.507   2.265   0.772
  942SOL    HW119968   1.516   2.348   0.725
  942SOL    HW219969   1.568   2.272   0.845
  943SOL     OW19970   0.590   4.396   6.924
  943SOL    HW119971   0.523   4.405   6.992
  943SOL    HW219972   0.673   4.400   6.972
  944SOL     OW19973   2.956   3.519   1.955
  944SOL    HW119974   2.910   3.436   1.962
  944SOL    HW219975   2.953   3.556   2.043
  945SOL     OW19976   1.608   4.616   1.579
  945SOL    HW119977   1.665   4.553   1.622
  945SOL    HW219978   1.548   4.564   1.525
  946SOL     OW19979   6.316   1.032   5.440
  946SOL    HW119980   6.392   0.979   5.467
  946SOL    HW219981   6.354   1.113   5.408
  947SOL     OW19982   6.440   2.324   7.075
  947SOL    HW119983   6.411   2.237   7.045
  947SOL    HW219984   6.493   2.357   7.002
  948SOL     OW19985   1.913   2.963   5.544
  948SOL    HW119986   1.861   2.886   5.523
  948SOL    HW219987   1.922   2.960   5.640
  949SOL     OW19988   3.021   5.330   7.411
  949SOL    HW119989   3.116   5.337   7.423
  949SOL    HW219990   2.985   5.344   7.498
  950SOL     OW19991   0.686   3.545   0.606
  950SOL    HW119992   0.647   3.592   0.680
  950SOL    HW219993   0.734   3.473   0.646
  951SOL     OW19994   5.995   5.650   6.799
  951SOL    HW119995   5.997   5.740   6.832
  951SOL    HW219996   5.909   5.617   6.823
  952SOL     OW19997   1.419   6.428   5.864
  952SOL    HW119998   1.346   6.381   5.906
  952SOL    HW219999   1.497   6.396   5.909
  953SOL     OW20000   1.789   6.026   6.911
  953SOL    HW120001   1.819   5.986   6.993
  953SOL    HW220002   1.859   6.005   6.848
  954SOL     OW20003   2.444   3.062   0.668
  954SOL    HW120004   2.464   2.970   0.651
  954SOL    HW220005   2.528   3.106   0.657
  955SOL     OW20006   4.599   0.974   6.647
  955SOL    HW120007   4.595   1.057   6.598
  955SOL    HW220008   4.598   0.907   6.579
  956SOL     OW20009   6.093   5.213   0.357
  956SOL    HW120010   6.095   5.307   0.336
  956SOL    HW220011   6.055   5.209   0.445
  957SOL     OW20012   0.788   1.705   0.474
  957SOL    HW120013   0.765   1.798   0.470
  957SOL    HW220014   0.838   1.697   0.555
  958SOL     OW20015   0.809   2.381   7.298
  958SOL    HW120016   0.714   2.371   7.290
  958SOL    HW220017   0.844   2.333   7.223
  959SOL     OW20018   6.352   0.220   2.092
  959SOL    HW120019   6.277   0.165   2.070
  959SOL    HW220020   6.352   0.288   2.024
  960SOL     OW20021   2.269   1.552   1.082
  960SOL    HW120022   2.188   1.603   1.081
  960SOL    HW220023   2.243   1.466   1.115
  961SOL     OW20024   0.671   3.147   1.412
  961SOL    HW120025   0.763   3.141   1.385
  961SOL    HW220026   0.662   3.084   1.483
  962SOL     OW20027   1.619   4.189   7.377
  962SOL    HW120028   1.607   4.266   7.321
  962SOL    HW220029   1.575   4.213   7.459
  963SOL     OW20030   5.968   2.125   1.673
  963SOL    HW120031   5.963   2.030   1.670
  963SOL    HW220032   6.003   2.144   1.761
  964SOL     OW20033   6.010   5.982   6.260
  964SOL    HW120034   6.064   5.907   6.233
  964SOL    HW220035   5.966   6.009   6.180
  965SOL     OW20036   0.343   2.703   7.693
  965SOL    HW120037   0.265   2.756   7.708
  965SOL    HW220038   0.309   2.619   7.660
  966SOL     OW20039   2.051   1.950   1.795
  966SOL    HW120040   2.082   1.915   1.711
  966SOL    HW220041   2.103   1.904   1.861
  967SOL     OW20042   0.260   4.492   7.490
  967SOL    HW120043   0.185   4.541   7.523
  967SOL    HW220044   0.242   4.401   7.515
  968SOL     OW20045   6.113   0.580   0.234
  968SOL    HW120046   6.127   0.487   0.215
  968SOL    HW220047   6.060   0.612   0.161
  969SOL     OW20048   4.140   1.597   6.979
  969SOL    HW120049   4.098   1.682   6.964
  969SOL    HW220050   4.147   1.590   7.074
  970SOL     OW20051   1.894   4.106   6.070
  970SOL    HW120052   1.874   4.066   5.985
  970SOL    HW220053   1.933   4.190   6.048
  971SOL     OW20054   5.821   1.577   2.270
  971SOL    HW120055   5.886   1.646   2.256
  971SOL    HW220056   5.740   1.612   2.232
  972SOL     OW20057   3.605   4.022   2.275
  972SOL    HW120058   3.654   4.076   2.213
  972SOL    HW220059   3.627   4.059   2.360
  973SOL     OW20060   0.810   0.977   6.413
  973SOL    HW120061   0.793   1.052   6.357
  973SOL    HW220062   0.860   0.916   6.358
  974SOL     OW20063   1.876   5.860   7.359
  974SOL    HW120064   1.937   5.815   7.417
  974SOL    HW220065   1.889   5.818   7.273
  975SOL     OW20066   2.322   3.097   1.100
  975SOL    HW120067   2.229   3.097   1.121
  975SOL    HW220068   2.328   3.141   1.015
  976SOL     OW20069   1.081   0.617   1.285
  976SOL    HW120070   1.012   0.640   1.223
  976SOL    HW220071   1.059   0.529   1.314
  977SOL     OW20072   5.453   3.487   6.819
  977SOL    HW120073   5.540   3.492   6.781
  977SOL    HW220074   5.450   3.402   6.863
  978SOL     OW20075   1.645   4.126   1.748
  978SOL    HW120076   1.594   4.089   1.821
  978SOL    HW220077   1.707   4.057   1.726
  979SOL     OW20078   2.596   3.590   6.376
  979SOL    HW120079   2.669   3.624   6.427
  979SOL    HW220080   2.613   3.620   6.286
  980SOL     OW20081   1.109   6.203   7.518
  980SOL    HW120082   1.171   6.219   7.590
  980SOL    HW220083   1.164   6.198   7.440
  981SOL     OW20084   1.807   5.147   7.422
  981SOL    HW120085   1.827   5.144   7.328
  981SOL    HW220086   1.840   5.231   7.451
  982SOL     OW20087   0.341   1.705   0.423
  982SOL    HW120088   0.393   1.745   0.353
  982SOL    HW220089   0.385   1.622   0.442
  983SOL     OW20090   0.189   1.743   0.088
  983SOL    HW120091   0.191   1.680   0.160
  983SOL    HW220092   0.274   1.788   0.094
  984SOL     OW20093   4.602   0.285   6.834
  984SOL    HW120094   4.600   0.229   6.757
  984SOL    HW220095   4.643   0.366   6.804
  985SOL     OW20096   3.785   3.271   0.386
  985SOL    HW120097   3.767   3.309   0.472
  985SOL    HW220098   3.849   3.202   0.403
  986SOL     OW20099   4.545   5.671   2.212
  986SOL    HW120100   4.606   5.649   2.282
  986SOL    HW220101   4.463   5.692   2.257
  987SOL     OW20102   3.268   5.427   7.429
  987SOL    HW120103   3.344   5.384   7.467
  987SOL    HW220104   3.278   5.519   7.451
  988SOL     OW20105   1.080   4.743   0.466
  988SOL    HW120106   1.144   4.741   0.537
  988SOL    HW220107   1.130   4.769   0.389
  989SOL     OW20108   0.684   5.723   6.198
  989SOL    HW120109   0.624   5.797   6.211
  989SOL    HW220110   0.642   5.650   6.245
  990SOL     OW20111   0.134   3.620   0.830
  990SOL    HW120112   0.087   3.674   0.766
  990SOL    HW220113   0.067   3.562   0.866
  991SOL     OW20114   3.954   3.090   5.705
  991SOL    HW120115   3.969   3.004   5.745
  991SOL    HW220116   3.972   3.076   5.612
  992SOL     OW20117   5.547   4.233   0.484
  992SOL    HW120118   5.533   4.138   0.481
  992SOL    HW220119   5.587   4.248   0.570
  993SOL     OW20120   1.419   0.953   0.485
  993SOL    HW120121   1.355   1.024   0.484
  993SOL    HW220122   1.497   0.991   0.445
  994SOL     OW20123   5.155   3.406   7.735
  994SOL    HW120124   5.239   3.372   7.704
  994SOL    HW220125   5.131   3.472   7.670
  995SOL     OW20126   1.709   4.870   2.195
  995SOL    HW120127   1.767   4.921   2.139
  995SOL    HW220128   1.664   4.811   2.135
  996SOL     OW20129   1.208   4.678   0.712
  996SOL    HW120130   1.290   4.722   0.734
  996SOL    HW220131   1.226   4.585   0.725
  997SOL     OW20132   0.486   0.446   6.050
  997SOL    HW120133   0.460   0.474   5.962
  997SOL    HW220134   0.421   0.484   6.108
  998SOL     OW20135   2.067   6.187   0.736
  998SOL    HW120136   2.027   6.274   0.730
  998SOL    HW220137   2.123   6.191   0.813
  999SOL     OW20138   3.245   5.609   1.242
  999SOL    HW120139   3.305   5.563   1.301
  999SOL    HW220140   3.281   5.698   1.236
 1000SOL     OW20141   3.625   3.067   0.256
 1000SOL    HW120142   3.535   3.099   0.254
 1000SOL    HW220143   3.678   3.144   0.278
 1001SOL     OW20144   2.303   2.390   6.966
 1001SOL    HW120145   2.396   2.407   6.949
 1001SOL    HW220146   2.291   2.299   6.940
 1002SOL     OW20147   4.797   3.932   7.336
 1002SOL    HW120148   4.791   3.855   7.392
 1002SOL    HW220149   4.886   3.965   7.350
 1003SOL     OW20150   6.347   2.469   0.310
 1003SOL    HW120151   6.375   2.403   0.247
 1003SOL    HW220152   6.429   2.502   0.348
 1004SOL     OW20153   3.672   2.946   1.026
 1004SOL    HW120154   3.614   2.927   1.099
 1004SOL    HW220155   3.628   2.908   0.950
 1005SOL     OW20156   1.383   5.385   7.265
 1005SOL    HW120157   1.461   5.419   7.308
 1005SOL    HW220158   1.310   5.421   7.316
 1006SOL     OW20159   2.750   5.752   6.488
 1006SOL    HW120160   2.659   5.770   6.512
 1006SOL    HW220161   2.753   5.657   6.476
 1007SOL     OW20162   3.666   5.175   1.642
 1007SOL    HW120163   3.690   5.155   1.732
 1007SOL    HW220164   3.579   5.136   1.631
 1008SOL     OW20165   3.593   4.821   0.741
 1008SOL    HW120166   3.504   4.785   0.741
 1008SOL    HW220167   3.590   4.892   0.806
 1009SOL     OW20168   0.035   1.455   1.365
 1009SOL    HW120169   0.034   1.447   1.460
 1009SOL    HW220170   0.018   1.548   1.348
 1010SOL     OW20171   3.147   2.979   6.256
 1010SOL    HW120172   3.079   3.036   6.292
 1010SOL    HW220173   3.167   3.018   6.170
 1011SOL     OW20174   4.752   1.808   0.812
 1011SOL    HW120175   4.732   1.858   0.891
 1011SOL    HW220176   4.847   1.797   0.814
 1012SOL     OW20177   2.655   6.226   6.009
 1012SOL    HW120178   2.599   6.171   6.063
 1012SOL    HW220179   2.638   6.196   5.919
 1013SOL     OW20180   5.507   2.942   1.256
 1013SOL    HW120181   5.474   3.004   1.191
 1013SOL    HW220182   5.429   2.893   1.283
 1014SOL     OW20183   2.718   0.559   0.278
 1014SOL    HW120184   2.811   0.566   0.301
 1014SOL    HW220185   2.672   0.597   0.352
 1015SOL     OW20186   2.952   5.462   1.255
 1015SOL    HW120187   2.973   5.550   1.284
 1015SOL    HW220188   2.902   5.424   1.327
 1016SOL     OW20189   0.644   1.723   1.117
 1016SOL    HW120190   0.631   1.635   1.152
 1016SOL    HW220191   0.660   1.777   1.195
 1017SOL     OW20192   4.368   4.146   6.752
 1017SOL    HW120193   4.338   4.077   6.694
 1017SOL    HW220194   4.339   4.119   6.839
 1018SOL     OW20195   0.312   2.848   6.225
 1018SOL    HW120196   0.254   2.803   6.163
 1018SOL    HW220197   0.260   2.856   6.305
 1019SOL     OW20198   0.380   3.961   0.625
 1019SOL    HW120199   0.303   4.006   0.592
 1019SOL    HW220200   0.383   3.878   0.576
 1020SOL     OW20201   5.662   5.246   6.836
 1020SOL    HW120202   5.721   5.175   6.809
 1020SOL    HW220203   5.651   5.234   6.930
 1021SOL     OW20204   2.017   5.421   1.043
 1021SOL    HW120205   2.004   5.360   0.970
 1021SOL    HW220206   1.941   5.479   1.039
 1022SOL     OW20207   3.016   4.050   7.155
 1022SOL    HW120208   2.977   4.095   7.231
 1022SOL    HW220209   2.979   3.962   7.157
 1023SOL     OW20210   2.455   1.088   1.019
 1023SOL    HW120211   2.540   1.049   1.040
 1023SOL    HW220212   2.449   1.164   1.078
 1024SOL     OW20213   4.981   1.553   0.691
 1024SOL    HW120214   5.019   1.637   0.712
 1024SOL    HW220215   5.031   1.489   0.742
 1025SOL     OW20216   5.185   5.567   7.293
 1025SOL    HW120217   5.117   5.509   7.258
 1025SOL    HW220218   5.199   5.632   7.225
 1026SOL     OW20219   6.419   5.327   0.438
 1026SOL    HW120220   6.363   5.288   0.505
 1026SOL    HW220221   6.419   5.421   0.458
 1027SOL     OW20222   3.013   2.466   1.050
 1027SOL    HW120223   3.057   2.466   0.965
 1027SOL    HW220224   3.012   2.374   1.077
 1028SOL     OW20225   6.362   1.700   1.062
 1028SOL    HW120226   6.391   1.764   0.998
 1028SOL    HW220227   6.426   1.706   1.133
 1029SOL     OW20228   2.559   3.590   5.891
 1029SOL    HW120229   2.514   3.616   5.810
 1029SOL    HW220230   2.498   3.615   5.960
 1030SOL     OW20231   2.985   0.681   7.289
 1030SOL    HW120232   2.926   0.605   7.292
 1030SOL    HW220233   2.989   0.712   7.379
 1031SOL     OW20234   2.650   4.095   2.011
 1031SOL    HW120235   2.620   4.048   2.089
 1031SOL    HW220236   2.644   4.188   2.035
 1032SOL     OW20237   6.120   1.462   0.360
 1032SOL    HW120238   6.158   1.449   0.447
 1032SOL    HW220239   6.035   1.417   0.365
 1033SOL     OW20240   2.926   4.719   0.824
 1033SOL    HW120241   2.949   4.669   0.745
 1033SOL    HW220242   2.924   4.810   0.794
 1034SOL     OW20243   4.148   1.016   6.978
 1034SOL    HW120244   4.132   1.021   7.073
 1034SOL    HW220245   4.153   1.107   6.950
 1035SOL     OW20246   0.519   5.853   6.567
 1035SOL    HW120247   0.460   5.838   6.494
 1035SOL    HW220248   0.524   5.768   6.612
 1036SOL     OW20249   1.333   6.231   7.727
 1036SOL    HW120250   1.405   6.231   7.790
 1036SOL    HW220251   1.375   6.244   7.642
 1037SOL     OW20252   1.150   0.599   7.449
 1037SOL    HW120253   1.182   0.681   7.411
 1037SOL    HW220254   1.113   0.551   7.374
 1038SOL     OW20255   2.796   3.381   6.936
 1038SOL    HW120256   2.859   3.423   6.994
 1038SOL    HW220257   2.721   3.361   6.992
 1039SOL     OW20258   0.294   5.693   1.705
 1039SOL    HW120259   0.328   5.756   1.641
 1039SOL    HW220260   0.232   5.639   1.656
 1040SOL     OW20261   5.236   2.718   0.119
 1040SOL    HW120262   5.242   2.808   0.152
 1040SOL    HW220263   5.283   2.666   0.183
 1041SOL     OW20264   1.459   0.499   7.209
 1041SOL    HW120265   1.446   0.467   7.119
 1041SOL    HW220266   1.547   0.470   7.233
 1042SOL     OW20267   1.312   5.870   1.030
 1042SOL    HW120268   1.327   5.780   1.000
 1042SOL    HW220269   1.309   5.863   1.126
 1043SOL     OW20270   6.038   4.393   0.382
 1043SOL    HW120271   6.039   4.336   0.459
 1043SOL    HW220272   6.054   4.481   0.417
 1044SOL     OW20273   3.562   0.780   5.497
 1044SOL    HW120274   3.556   0.848   5.565
 1044SOL    HW220275   3.483   0.791   5.445
 1045SOL     OW20276   1.810   5.026   2.015
 1045SOL    HW120277   1.871   5.099   2.020
 1045SOL    HW220278   1.836   4.977   1.937
 1046SOL     OW20279   5.228   4.286   6.425
 1046SOL    HW120280   5.220   4.333   6.508
 1046SOL    HW220281   5.178   4.205   6.438
 1047SOL     OW20282   1.226   5.456   6.618
 1047SOL    HW120283   1.189   5.495   6.539
 1047SOL    HW220284   1.176   5.494   6.690
 1048SOL     OW20285   1.279   3.343   5.997
 1048SOL    HW120286   1.352   3.359   6.057
 1048SOL    HW220287   1.285   3.249   5.977
 1049SOL     OW20288   4.151   4.702   7.434
 1049SOL    HW120289   4.101   4.743   7.505
 1049SOL    HW220290   4.153   4.609   7.457
 1050SOL     OW20291   1.544   1.900   1.590
 1050SOL    HW120292   1.619   1.889   1.648
 1050SOL    HW220293   1.520   1.812   1.563
 1051SOL     OW20294   5.075   5.474   0.487
 1051SOL    HW120295   5.049   5.493   0.577
 1051SOL    HW220296   5.014   5.524   0.433
 1052SOL     OW20297   4.421   3.899   7.597
 1052SOL    HW120298   4.501   3.952   7.604
 1052SOL    HW220299   4.453   3.811   7.579
 1053SOL     OW20300   0.448   1.677   6.927
 1053SOL    HW120301   0.435   1.583   6.918
 1053SOL    HW220302   0.364   1.710   6.959
 1054SOL     OW20303   5.547   1.985   6.619
 1054SOL    HW120304   5.454   1.966   6.632
 1054SOL    HW220305   5.591   1.902   6.640
 1055SOL     OW20306   3.973   3.918   6.861
 1055SOL    HW120307   4.047   3.875   6.905
 1055SOL    HW220308   4.011   3.957   6.782
 1056SOL     OW20309   3.003   5.167   7.717
 1056SOL    HW120310   2.923   5.218   7.728
 1056SOL    HW220311   2.972   5.077   7.700
 1057SOL     OW20312   6.175   6.324   6.797
 1057SOL    HW120313   6.178   6.357   6.887
 1057SOL    HW220314   6.083   6.302   6.783
 1058SOL     OW20315   0.797   0.376   1.155
 1058SOL    HW120316   0.774   0.333   1.238
 1058SOL    HW220317   0.888   0.351   1.140
 1059SOL     OW20318   2.312   4.330   6.341
 1059SOL    HW120319   2.251   4.358   6.409
 1059SOL    HW220320   2.271   4.356   6.259
 1060SOL     OW20321   0.737   2.727   1.738
 1060SOL    HW120322   0.826   2.746   1.765
 1060SOL    HW220323   0.736   2.633   1.722
 1061SOL     OW20324   5.378   4.630   6.144
 1061SOL    HW120325   5.471   4.647   6.155
 1061SOL    HW220326   5.369   4.536   6.160
 1062SOL     OW20327   2.013   2.974   2.490
 1062SOL    HW120328   2.015   3.006   2.400
 1062SOL    HW220329   2.038   3.049   2.543
 1063SOL     OW20330   2.399   0.098   7.413
 1063SOL    HW120331   2.363   0.118   7.500
 1063SOL    HW220332   2.485   0.140   7.412
 1064SOL     OW20333   4.520   3.782   0.835
 1064SOL    HW120334   4.523   3.835   0.755
 1064SOL    HW220335   4.563   3.836   0.901
 1065SOL     OW20336   6.333   3.774   1.605
 1065SOL    HW120337   6.282   3.797   1.683
 1065SOL    HW220338   6.268   3.771   1.534
 1066SOL     OW20339   4.132   3.467   5.868
 1066SOL    HW120340   4.214   3.419   5.879
 1066SOL    HW220341   4.148   3.525   5.793
 1067SOL     OW20342   0.679   2.631   7.213
 1067SOL    HW120343   0.722   2.706   7.173
 1067SOL    HW220344   0.739   2.603   7.282
 1068SOL     OW20345   1.357   1.787   0.388
 1068SOL    HW120346   1.298   1.757   0.457
 1068SOL    HW220347   1.426   1.834   0.435
 1069SOL     OW20348   0.489   3.815   0.079
 1069SOL    HW120349   0.497   3.898   0.126
 1069SOL    HW220350   0.397   3.792   0.085
 1070SOL     OW20351   1.267   3.979   5.980
 1070SOL    HW120352   1.254   3.909   5.916
 1070SOL    HW220353   1.211   3.956   6.053
 1071SOL     OW20354   4.684   2.597   7.237
 1071SOL    HW120355   4.590   2.579   7.244
 1071SOL    HW220356   4.715   2.596   7.327
 1072SOL     OW20357   4.940   2.097   7.176
 1072SOL    HW120358   4.865   2.110   7.119
 1072SOL    HW220359   4.917   2.143   7.257
 1073SOL     OW20360   4.364   0.544   0.140
 1073SOL    HW120361   4.450   0.578   0.164
 1073SOL    HW220362   4.304   0.587   0.200
 1074SOL     OW20363   0.652   4.125   1.004
 1074SOL    HW120364   0.661   4.046   1.057
 1074SOL    HW220365   0.689   4.194   1.059
 1075SOL     OW20366   3.430   6.017   6.616
 1075SOL    HW120367   3.493   6.076   6.658
 1075SOL    HW220368   3.482   5.967   6.553
 1076SOL     OW20369   0.634   5.909   2.124
 1076SOL    HW120370   0.673   5.822   2.112
 1076SOL    HW220371   0.555   5.907   2.071
 1077SOL     OW20372   1.920   2.422   0.685
 1077SOL    HW120373   1.924   2.327   0.672
 1077SOL    HW220374   2.004   2.454   0.650
 1078SOL     OW20375   2.134   2.283   2.264
 1078SOL    HW120376   2.053   2.246   2.300
 1078SOL    HW220377   2.196   2.210   2.263
 1079SOL     OW20378   3.813   4.072   2.523
 1079SOL    HW120379   3.741   4.131   2.501
 1079SOL    HW220380   3.810   4.065   2.618
 1080SOL     OW20381   5.486   5.660   5.743
 1080SOL    HW120382   5.449   5.718   5.810
 1080SOL    HW220383   5.548   5.715   5.695
 1081SOL     OW20384   2.662   5.156   1.146
 1081SOL    HW120385   2.645   5.157   1.051
 1081SOL    HW220386   2.684   5.065   1.165
 1082SOL     OW20387   2.278   5.123   0.780
 1082SOL    HW120388   2.266   5.040   0.734
 1082SOL    HW220389   2.369   5.146   0.767
 1083SOL     OW20390   5.566   5.407   1.582
 1083SOL    HW120391   5.633   5.402   1.651
 1083SOL    HW220392   5.518   5.487   1.600
 1084SOL     OW20393   5.151   0.404   1.734
 1084SOL    HW120394   5.166   0.440   1.821
 1084SOL    HW220395   5.148   0.480   1.677
 1085SOL     OW20396   1.197   6.050   2.345
 1085SOL    HW120397   1.273   6.017   2.392
 1085SOL    HW220398   1.220   6.041   2.253
 1086SOL     OW20399   1.220   4.175   2.209
 1086SOL    HW120400   1.315   4.185   2.200
 1086SOL    HW220401   1.197   4.108   2.144
 1087SOL     OW20402   0.115   0.041   0.436
 1087SOL    HW120403   0.159  -0.044   0.439
 1087SOL    HW220404   0.064   0.044   0.517
 1088SOL     OW20405   4.396   2.899   7.704
 1088SOL    HW120406   4.422   2.845   7.779
 1088SOL    HW220407   4.312   2.862   7.676
 1089SOL     OW20408   5.481   1.536   7.722
 1089SOL    HW120409   5.524   1.503   7.643
 1089SOL    HW220410   5.433   1.614   7.692
 1090SOL     OW20411   0.997   3.128   0.670
 1090SOL    HW120412   1.092   3.135   0.674
 1090SOL    HW220413   0.965   3.208   0.712
 1091SOL     OW20414   1.122   3.102   1.712
 1091SOL    HW120415   1.038   3.065   1.739
 1091SOL    HW220416   1.100   3.168   1.646
 1092SOL     OW20417   0.321   4.956   1.024
 1092SOL    HW120418   0.364   4.883   1.068
 1092SOL    HW220419   0.344   4.944   0.931
 1093SOL     OW20420   0.634   0.717   1.954
 1093SOL    HW120421   0.722   0.734   1.989
 1093SOL    HW220422   0.627   0.776   1.879
 1094SOL     OW20423   2.856   4.566   0.189
 1094SOL    HW120424   2.822   4.591   0.103
 1094SOL    HW220425   2.827   4.635   0.248
 1095SOL     OW20426   4.168   3.075   6.671
 1095SOL    HW120427   4.135   2.994   6.631
 1095SOL    HW220428   4.090   3.119   6.704
 1096SOL     OW20429   1.912   6.457   1.453
 1096SOL    HW120430   1.828   6.420   1.480
 1096SOL    HW220431   1.897   6.490   1.365
 1097SOL     OW20432   6.373   1.248   7.151
 1097SOL    HW120433   6.398   1.156   7.156
 1097SOL    HW220434   6.330   1.257   7.066
 1098SOL     OW20435   6.050   2.091   6.133
 1098SOL    HW120436   5.966   2.133   6.150
 1098SOL    HW220437   6.083   2.133   6.054
 1099SOL     OW20438   2.642   3.969   1.784
 1099SOL    HW120439   2.567   3.925   1.824
 1099SOL    HW220440   2.682   4.018   1.855
 1100SOL     OW20441   5.618   0.893   6.938
 1100SOL    HW120442   5.684   0.950   6.978
 1100SOL    HW220443   5.564   0.864   7.011
 1101SOL     OW20444   3.571   0.321   7.575
 1101SOL    HW120445   3.659   0.355   7.560
 1101SOL    HW220446   3.547   0.279   7.492
 1102SOL     OW20447   1.282   1.203   0.501
 1102SOL    HW120448   1.293   1.220   0.594
 1102SOL    HW220449   1.230   1.277   0.469
 1103SOL     OW20450   4.115   3.734   1.468
 1103SOL    HW120451   4.165   3.655   1.448
 1103SOL    HW220452   4.029   3.702   1.493
 1104SOL     OW20453   1.840   0.513   7.477
 1104SOL    HW120454   1.839   0.525   7.571
 1104SOL    HW220455   1.932   0.504   7.454
 1105SOL     OW20456   1.027   6.380   7.213
 1105SOL    HW120457   1.095   6.319   7.240
 1105SOL    HW220458   0.945   6.339   7.243
 1106SOL     OW20459   5.739   1.666   7.495
 1106SOL    HW120460   5.814   1.607   7.491
 1106SOL    HW220461   5.769   1.740   7.547
 1107SOL     OW20462   1.144   2.614   6.758
 1107SOL    HW120463   1.126   2.556   6.684
 1107SOL    HW220464   1.199   2.562   6.816
 1108SOL     OW20465   0.495   5.063   0.014
 1108SOL    HW120466   0.521   5.139  -0.038
 1108SOL    HW220467   0.575   5.037   0.060
 1109SOL     OW20468   5.200   2.723   6.438
 1109SOL    HW120469   5.225   2.779   6.364
 1109SOL    HW220470   5.173   2.785   6.506
 1110SOL     OW20471   1.982   2.838   5.827
 1110SOL    HW120472   1.960   2.761   5.880
 1110SOL    HW220473   2.029   2.802   5.752
 1111SOL     OW20474   2.022   0.906   1.691
 1111SOL    HW120475   2.044   0.858   1.770
 1111SOL    HW220476   1.953   0.966   1.718
 1112SOL     OW20477   3.113   2.617   0.500
 1112SOL    HW120478   3.203   2.646   0.518
 1112SOL    HW220479   3.100   2.636   0.407
 1113SOL     OW20480   5.411   4.956   2.580
 1113SOL    HW120481   5.487   4.926   2.630
 1113SOL    HW220482   5.361   5.008   2.643
 1114SOL     OW20483   2.282   4.091   0.461
 1114SOL    HW120484   2.354   4.135   0.417
 1114SOL    HW220485   2.318   4.006   0.486
 1115SOL     OW20486   0.727   3.783   0.349
 1115SOL    HW120487   0.633   3.799   0.355
 1115SOL    HW220488   0.754   3.762   0.438
 1116SOL     OW20489   4.278   0.712   6.587
 1116SOL    HW120490   4.267   0.720   6.492
 1116SOL    HW220491   4.222   0.780   6.624
 1117SOL     OW20492   4.704   0.741   5.548
 1117SOL    HW120493   4.695   0.836   5.552
 1117SOL    HW220494   4.657   0.708   5.625
 1118SOL     OW20495   4.278   6.181   6.621
 1118SOL    HW120496   4.270   6.111   6.685
 1118SOL    HW220497   4.368   6.212   6.629
 1119SOL     OW20498   2.744   1.037   6.892
 1119SOL    HW120499   2.785   0.972   6.950
 1119SOL    HW220500   2.815   1.097   6.869
 1120SOL     OW20501   4.323   5.363   7.482
 1120SOL    HW120502   4.329   5.276   7.443
 1120SOL    HW220503   4.409   5.376   7.523
 1121SOL     OW20504   1.716   5.169   6.590
 1121SOL    HW120505   1.794   5.223   6.601
 1121SOL    HW220506   1.707   5.121   6.672
 1122SOL     OW20507   0.092   4.204   6.451
 1122SOL    HW120508   0.016   4.260   6.470
 1122SOL    HW220509   0.146   4.210   6.529
 1123SOL     OW20510   5.078   4.088   1.152
 1123SOL    HW120511   4.984   4.089   1.168
 1123SOL    HW220512   5.087   4.080   1.057
 1124SOL     OW20513   3.471   2.774   2.037
 1124SOL    HW120514   3.456   2.856   2.084
 1124SOL    HW220515   3.524   2.722   2.096
 1125SOL     OW20516   0.597   2.316   6.953
 1125SOL    HW120517   0.556   2.384   7.007
 1125SOL    HW220518   0.626   2.363   6.874
 1126SOL     OW20519   1.157   0.470   7.690
 1126SOL    HW120520   1.252   0.478   7.699
 1126SOL    HW220521   1.139   0.505   7.602
 1127SOL     OW20522   2.024   5.736   6.879
 1127SOL    HW120523   1.975   5.681   6.817
 1127SOL    HW220524   2.037   5.818   6.831
 1128SOL     OW20525   1.145   1.847   7.447
 1128SOL    HW120526   1.127   1.808   7.362
 1128SOL    HW220527   1.075   1.813   7.504
 1129SOL     OW20528   3.991   4.785   0.283
 1129SOL    HW120529   3.918   4.821   0.333
 1129SOL    HW220530   3.992   4.837   0.202
 1130SOL     OW20531   1.597   5.704   0.278
 1130SOL    HW120532   1.608   5.799   0.271
 1130SOL    HW220533   1.663   5.669   0.219
 1131SOL     OW20534   5.876   0.807   6.447
 1131SOL    HW120535   5.869   0.819   6.542
 1131SOL    HW220536   5.873   0.895   6.411
 1132SOL     OW20537   1.717   3.501   1.448
 1132SOL    HW120538   1.735   3.410   1.423
 1132SOL    HW220539   1.657   3.494   1.522
 1133SOL     OW20540   5.806   5.018   6.514
 1133SOL    HW120541   5.819   5.032   6.608
 1133SOL    HW220542   5.783   4.926   6.507
 1134SOL     OW20543   4.435   6.347   5.397
 1134SOL    HW120544   4.371   6.417   5.383
 1134SOL    HW220545   4.509   6.371   5.341
 1135SOL     OW20546   4.324   0.125   6.439
 1135SOL    HW120547   4.398   0.163   6.393
 1135SOL    HW220548   4.318   0.035   6.405
 1136SOL     OW20549   3.719   4.285   1.402
 1136SOL    HW120550   3.693   4.194   1.416
 1136SOL    HW220551   3.760   4.311   1.484
 1137SOL     OW20552   1.714   2.219   5.933
 1137SOL    HW120553   1.809   2.208   5.935
 1137SOL    HW220554   1.699   2.304   5.974
 1138SOL     OW20555   2.463   0.074   5.521
 1138SOL    HW120556   2.498   0.119   5.444
 1138SOL    HW220557   2.372   0.105   5.526
 1139SOL     OW20558   1.017   2.694   1.787
 1139SOL    HW120559   1.076   2.712   1.714
 1139SOL    HW220560   1.032   2.602   1.807
 1140SOL     OW20561   4.465   4.274   5.582
 1140SOL    HW120562   4.436   4.187   5.555
 1140SOL    HW220563   4.549   4.259   5.626
 1141SOL     OW20564   2.398   5.806   7.598
 1141SOL    HW120565   2.468   5.868   7.578
 1141SOL    HW220566   2.348   5.848   7.668
 1142SOL     OW20567   1.504   0.137   7.634
 1142SOL    HW120568   1.467   0.149   7.722
 1142SOL    HW220569   1.594   0.108   7.649
 1143SOL     OW20570   5.253   1.548   6.600
 1143SOL    HW120571   5.246   1.624   6.542
 1143SOL    HW220572   5.163   1.518   6.610
 1144SOL     OW20573   2.888   2.053   0.868
 1144SOL    HW120574   2.839   2.133   0.853
 1144SOL    HW220575   2.936   2.038   0.786
 1145SOL     OW20576   5.734   4.242   0.697
 1145SOL    HW120577   5.808   4.303   0.693
 1145SOL    HW220578   5.774   4.156   0.709
 1146SOL     OW20579   5.436   1.070   0.274
 1146SOL    HW120580   5.487   1.120   0.337
 1146SOL    HW220581   5.437   1.122   0.195
 1147SOL     OW20582   1.550   2.513   7.032
 1147SOL    HW120583   1.632   2.538   6.989
 1147SOL    HW220584   1.490   2.586   7.013
 1148SOL     OW20585   0.426   3.720   0.502
 1148SOL    HW120586   0.485   3.648   0.482
 1148SOL    HW220587   0.341   3.679   0.517
 1149SOL     OW20588   0.802   2.241   6.399
 1149SOL    HW120589   0.725   2.298   6.402
 1149SOL    HW220590   0.795   2.186   6.478
 1150SOL     OW20591   4.308   1.689   1.513
 1150SOL    HW120592   4.284   1.745   1.439
 1150SOL    HW220593   4.331   1.751   1.583
 1151SOL     OW20594   1.826   3.850   1.051
 1151SOL    HW120595   1.882   3.919   1.085
 1151SOL    HW220596   1.819   3.787   1.122
 1152SOL     OW20597   1.629   1.725   6.036
 1152SOL    HW120598   1.564   1.678   6.088
 1152SOL    HW220599   1.616   1.693   5.946
 1153SOL     OW20600   0.585   1.254   0.101
 1153SOL    HW120601   0.552   1.247   0.012
 1153SOL    HW220602   0.634   1.173   0.115
 1154SOL     OW20603   0.617   5.480   1.870
 1154SOL    HW120604   0.631   5.481   1.775
 1154SOL    HW220605   0.701   5.451   1.906
 1155SOL     OW20606   0.523   5.140   1.134
 1155SOL    HW120607   0.468   5.075   1.091
 1155SOL    HW220608   0.595   5.155   1.072
 1156SOL     OW20609   6.375   4.629   0.626
 1156SOL    HW120610   6.439   4.673   0.681
 1156SOL    HW220611   6.390   4.665   0.538
 1157SOL     OW20612   2.078   5.080   7.029
 1157SOL    HW120613   2.036   5.108   6.948
 1157SOL    HW220614   2.117   4.995   7.009
 1158SOL     OW20615   1.213   1.304   7.151
 1158SOL    HW120616   1.244   1.233   7.095
 1158SOL    HW220617   1.293   1.340   7.190
 1159SOL     OW20618   1.384   3.017   0.161
 1159SOL    HW120619   1.395   2.925   0.138
 1159SOL    HW220620   1.411   3.065   0.082
 1160SOL     OW20621   3.795   0.678   1.784
 1160SOL    HW120622   3.791   0.729   1.704
 1160SOL    HW220623   3.720   0.709   1.836
 1161SOL     OW20624   2.325   1.834   5.676
 1161SOL    HW120625   2.241   1.787   5.675
 1161SOL    HW220626   2.304   1.919   5.636
 1162SOL     OW20627   6.252   1.431   0.656
 1162SOL    HW120628   6.331   1.384   0.633
 1162SOL    HW220629   6.283   1.514   0.694
 1163SOL     OW20630   3.056   3.184   7.728
 1163SOL    HW120631   3.122   3.230   7.676
 1163SOL    HW220632   2.982   3.174   7.668
 1164SOL     OW20633   3.762   5.582   0.598
 1164SOL    HW120634   3.671   5.551   0.601
 1164SOL    HW220635   3.799   5.552   0.681
 1165SOL     OW20636   3.628   1.440   6.363
 1165SOL    HW120637   3.692   1.435   6.435
 1165SOL    HW220638   3.677   1.480   6.291
 1166SOL     OW20639   2.407   5.009   1.485
 1166SOL    HW120640   2.444   4.937   1.536
 1166SOL    HW220641   2.396   4.972   1.397
 1167SOL     OW20642   3.112   3.116   0.666
 1167SOL    HW120643   3.187   3.162   0.702
 1167SOL    HW220644   3.043   3.182   0.660
 1168SOL     OW20645   0.527   3.790   6.749
 1168SOL    HW120646   0.621   3.783   6.765
 1168SOL    HW220647   0.492   3.705   6.773
 1169SOL     OW20648   0.158   2.749   7.414
 1169SOL    HW120649   0.072   2.723   7.446
 1169SOL    HW220650   0.220   2.697   7.465
 1170SOL     OW20651   0.777   5.440   6.715
 1170SOL    HW120652   0.724   5.477   6.786
 1170SOL    HW220653   0.797   5.351   6.745
 1171SOL     OW20654   2.123   0.541   0.856
 1171SOL    HW120655   2.174   0.575   0.930
 1171SOL    HW220656   2.155   0.451   0.845
 1172SOL     OW20657   0.373   5.349   0.945
 1172SOL    HW120658   0.436   5.364   1.015
 1172SOL    HW220659   0.321   5.274   0.976
 1173SOL     OW20660   1.701   4.541   6.621
 1173SOL    HW120661   1.746   4.598   6.683
 1173SOL    HW220662   1.763   4.469   6.605
 1174SOL     OW20663   5.386   0.366   1.991
 1174SOL    HW120664   5.300   0.409   1.981
 1174SOL    HW220665   5.446   0.439   2.006
 1175SOL     OW20666   0.399   5.582   6.882
 1175SOL    HW120667   0.338   5.601   6.810
 1175SOL    HW220668   0.366   5.633   6.955
 1176SOL     OW20669   3.526   3.196   1.029
 1176SOL    HW120670   3.598   3.254   1.054
 1176SOL    HW220671   3.566   3.109   1.026
 1177SOL     OW20672   4.705   0.454   0.687
 1177SOL    HW120673   4.759   0.408   0.750
 1177SOL    HW220674   4.615   0.433   0.712
 1178SOL     OW20675   4.551   3.312   0.905
 1178SOL    HW120676   4.621   3.375   0.924
 1178SOL    HW220677   4.483   3.332   0.970
 1179SOL     OW20678   4.094   0.429   0.062
 1179SOL    HW120679   4.147   0.477   0.126
 1179SOL    HW220680   4.009   0.417   0.105
 1180SOL     OW20681   4.752   6.065   0.762
 1180SOL    HW120682   4.735   6.041   0.671
 1180SOL    HW220683   4.691   6.137   0.779
 1181SOL     OW20684   0.392   0.199   1.403
 1181SOL    HW120685   0.410   0.145   1.480
 1181SOL    HW220686   0.468   0.258   1.397
 1182SOL     OW20687   3.203   6.027   6.468
 1182SOL    HW120688   3.269   6.032   6.536
 1182SOL    HW220689   3.167   6.116   6.462
 1183SOL     OW20690   6.060   3.342   0.630
 1183SOL    HW120691   6.115   3.288   0.686
 1183SOL    HW220692   6.101   3.336   0.543
 1184SOL     OW20693   0.926   3.122   1.321
 1184SOL    HW120694   0.940   3.152   1.231
 1184SOL    HW220695   0.961   3.192   1.375
 1185SOL     OW20696   4.927   5.711   1.618
 1185SOL    HW120697   4.998   5.646   1.618
 1185SOL    HW220698   4.925   5.743   1.708
 1186SOL     OW20699   2.598   0.206   0.711
 1186SOL    HW120700   2.645   0.136   0.667
 1186SOL    HW220701   2.570   0.169   0.794
 1187SOL     OW20702   0.831   6.112   2.177
 1187SOL    HW120703   0.790   6.195   2.199
 1187SOL    HW220704   0.758   6.051   2.166
 1188SOL     OW20705   0.342   2.464   6.093
 1188SOL    HW120706   0.375   2.438   6.007
 1188SOL    HW220707   0.320   2.557   6.083
 1189SOL     OW20708   6.302   1.935   6.694
 1189SOL    HW120709   6.286   1.956   6.786
 1189SOL    HW220710   6.298   1.839   6.692
 1190SOL     OW20711   6.225   4.170   1.378
 1190SOL    HW120712   6.277   4.208   1.307
 1190SOL    HW220713   6.154   4.233   1.391
 1191SOL     OW20714   1.440   3.621   6.986
 1191SOL    HW120715   1.353   3.658   7.002
 1191SOL    HW220716   1.501   3.685   7.022
 1192SOL     OW20717   3.415   1.263   0.775
 1192SOL    HW120718   3.343   1.232   0.721
 1192SOL    HW220719   3.378   1.335   0.826
 1193SOL     OW20720   1.834   6.249   0.956
 1193SOL    HW120721   1.913   6.282   0.997
 1193SOL    HW220722   1.835   6.155   0.973
 1194SOL     OW20723   0.886   5.271   2.658
 1194SOL    HW120724   0.816   5.211   2.636
 1194SOL    HW220725   0.841   5.352   2.685
 1195SOL     OW20726   5.688   5.196   1.190
 1195SOL    HW120727   5.719   5.244   1.267
 1195SOL    HW220728   5.616   5.250   1.156
 1196SOL     OW20729   0.396   1.795   0.996
 1196SOL    HW120730   0.483   1.782   1.033
 1196SOL    HW220731   0.410   1.859   0.926
 1197SOL     OW20732   3.991   5.430   7.195
 1197SOL    HW120733   3.946   5.514   7.185
 1197SOL    HW220734   4.025   5.431   7.284
 1198SOL     OW20735   0.966   3.283   7.133
 1198SOL    HW120736   0.884   3.327   7.112
 1198SOL    HW220737   1.011   3.274   7.049
 1199SOL     OW20738   5.868   4.619   1.796
 1199SOL    HW120739   5.951   4.572   1.798
 1199SOL    HW220740   5.803   4.555   1.827
 1200SOL     OW20741   4.081   0.655   2.473
 1200SOL    HW120742   4.166   0.649   2.515
 1200SOL    HW220743   4.093   0.719   2.403
 1201SOL     OW20744   2.107   2.939   0.888
 1201SOL    HW120745   2.053   2.860   0.890
 1201SOL    HW220746   2.195   2.908   0.907
 1202SOL     OW20747   3.460   4.973   1.650
 1202SOL    HW120748   3.369   4.946   1.636
 1202SOL    HW220749   3.482   4.939   1.737
 1203SOL     OW20750   5.322   1.713   7.607
 1203SOL    HW120751   5.327   1.809   7.610
 1203SOL    HW220752   5.305   1.692   7.516
 1204SOL     OW20753   1.538   0.768   1.472
 1204SOL    HW120754   1.626   0.785   1.440
 1204SOL    HW220755   1.480   0.799   1.402
 1205SOL     OW20756   5.248   4.789   6.810
 1205SOL    HW120757   5.290   4.724   6.753
 1205SOL    HW220758   5.315   4.855   6.825
 1206SOL     OW20759   4.662   3.229   2.618
 1206SOL    HW120760   4.574   3.265   2.631
 1206SOL    HW220761   4.656   3.176   2.539
 1207SOL     OW20762   2.539   0.079   1.285
 1207SOL    HW120763   2.509   0.170   1.283
 1207SOL    HW220764   2.623   0.083   1.329
 1208SOL     OW20765   0.717   6.458   1.033
 1208SOL    HW120766   0.771   6.489   0.960
 1208SOL    HW220767   0.682   6.374   1.003
 1209SOL     OW20768   5.268   1.728   0.256
 1209SOL    HW120769   5.279   1.641   0.295
 1209SOL    HW220770   5.303   1.788   0.323
 1210SOL     OW20771   4.461   0.174   5.830
 1210SOL    HW120772   4.484   0.127   5.750
 1210SOL    HW220773   4.501   0.260   5.820
 1211SOL     OW20774   2.166   3.087   0.624
 1211SOL    HW120775   2.164   3.135   0.541
 1211SOL    HW220776   2.258   3.080   0.646
 1212SOL     OW20777   2.490   6.043   1.656
 1212SOL    HW120778   2.506   6.008   1.744
 1212SOL    HW220779   2.482   5.966   1.600
 1213SOL     OW20780   5.631   3.203   5.507
 1213SOL    HW120781   5.646   3.185   5.414
 1213SOL    HW220782   5.537   3.193   5.519
 1214SOL     OW20783   2.349   3.627   1.735
 1214SOL    HW120784   2.369   3.632   1.829
 1214SOL    HW220785   2.274   3.686   1.724
 1215SOL     OW20786   4.619   3.438   7.157
 1215SOL    HW120787   4.688   3.378   7.185
 1215SOL    HW220788   4.661   3.524   7.155
 1216SOL     OW20789   0.808   2.154   6.666
 1216SOL    HW120790   0.727   2.194   6.699
 1216SOL    HW220791   0.808   2.066   6.703
 1217SOL     OW20792   4.284   0.780   6.295
 1217SOL    HW120793   4.200   0.758   6.255
 1217SOL    HW220794   4.349   0.761   6.227
 1218SOL     OW20795   3.422   0.436   2.550
 1218SOL    HW120796   3.429   0.509   2.489
 1218SOL    HW220797   3.328   0.424   2.562
 1219SOL     OW20798   1.729   3.058   1.224
 1219SOL    HW120799   1.757   2.972   1.253
 1219SOL    HW220800   1.702   3.045   1.133
 1220SOL     OW20801   2.233   0.242   0.709
 1220SOL    HW120802   2.192   0.155   0.703
 1220SOL    HW220803   2.233   0.275   0.620
 1221SOL     OW20804   0.215   3.452   0.214
 1221SOL    HW120805   0.293   3.425   0.165
 1221SOL    HW220806   0.234   3.427   0.305
 1222SOL     OW20807   6.367   0.890   7.685
 1222SOL    HW120808   6.390   0.926   7.600
 1222SOL    HW220809   6.282   0.848   7.671
 1223SOL     OW20810   2.955   6.101   7.443
 1223SOL    HW120811   3.035   6.153   7.432
 1223SOL    HW220812   2.927   6.081   7.353
 1224SOL     OW20813   0.804   0.606   2.156
 1224SOL    HW120814   0.871   0.540   2.138
 1224SOL    HW220815   0.736   0.560   2.205
 1225SOL     OW20816   4.655   6.415   0.790
 1225SOL    HW120817   4.587   6.464   0.744
 1225SOL    HW220818   4.666   6.335   0.739
 1226SOL     OW20819   2.575   3.490   1.287
 1226SOL    HW120820   2.572   3.400   1.320
 1226SOL    HW220821   2.609   3.542   1.361
 1227SOL     OW20822   1.059   1.380   7.646
 1227SOL    HW120823   0.986   1.321   7.668
 1227SOL    HW220824   1.099   1.399   7.731
 1228SOL     OW20825   4.150   4.288   1.907
 1228SOL    HW120826   4.141   4.353   1.977
 1228SOL    HW220827   4.195   4.335   1.837
 1229SOL     OW20828   5.275   3.886   0.966
 1229SOL    HW120829   5.210   3.817   0.975
 1229SOL    HW220830   5.225   3.965   0.944
 1230SOL     OW20831   2.700   5.346   0.870
 1230SOL    HW120832   2.790   5.355   0.902
 1230SOL    HW220833   2.692   5.253   0.848
 1231SOL     OW20834   3.024   2.796   2.254
 1231SOL    HW120835   3.018   2.891   2.242
 1231SOL    HW220836   3.056   2.786   2.344
 1232SOL     OW20837   3.537   2.930   0.529
 1232SOL    HW120838   3.457   2.980   0.511
 1232SOL    HW220839   3.599   2.995   0.563
 1233SOL     OW20840   1.735   3.404   7.008
 1233SOL    HW120841   1.691   3.472   7.059
 1233SOL    HW220842   1.754   3.335   7.072
 1234SOL     OW20843   2.827   4.715   7.305
 1234SOL    HW120844   2.756   4.778   7.290
 1234SOL    HW220845   2.905   4.758   7.268
 1235SOL     OW20846   2.293   0.380   1.770
 1235SOL    HW120847   2.342   0.314   1.721
 1235SOL    HW220848   2.211   0.336   1.793
 1236SOL     OW20849   1.946   1.033   1.443
 1236SOL    HW120850   1.869   0.976   1.439
 1236SOL    HW220851   2.008   0.986   1.500
 1237SOL     OW20852   0.668   0.660   6.377
 1237SOL    HW120853   0.618   0.697   6.304
 1237SOL    HW220854   0.669   0.730   6.442
 1238SOL     OW20855   2.649   3.521   7.508
 1238SOL    HW120856   2.607   3.493   7.426
 1238SOL    HW220857   2.738   3.488   7.502
 1239SOL     OW20858   0.663   2.562   5.891
 1239SOL    HW120859   0.699   2.554   5.979
 1239SOL    HW220860   0.739   2.552   5.833
 1240SOL     OW20861   0.357   4.452   1.389
 1240SOL    HW120862   0.374   4.526   1.331
 1240SOL    HW220863   0.410   4.469   1.466
 1241SOL     OW20864   1.567   1.587   5.794
 1241SOL    HW120865   1.618   1.508   5.809
 1241SOL    HW220866   1.477   1.556   5.786
 1242SOL     OW20867   5.294   0.686   7.328
 1242SOL    HW120868   5.201   0.709   7.321
 1242SOL    HW220869   5.297   0.592   7.313
 1243SOL     OW20870   4.403   1.742   0.737
 1243SOL    HW120871   4.347   1.793   0.795
 1243SOL    HW220872   4.444   1.807   0.680
 1244SOL     OW20873   5.250   2.367   5.439
 1244SOL    HW120874   5.301   2.448   5.444
 1244SOL    HW220875   5.168   2.387   5.483
 1245SOL     OW20876   4.456   1.565   7.649
 1245SOL    HW120877   4.544   1.594   7.674
 1245SOL    HW220878   4.433   1.620   7.574
 1246SOL     OW20879   1.483   5.435   6.939
 1246SOL    HW120880   1.451   5.365   6.881
 1246SOL    HW220881   1.534   5.389   7.006
 1247SOL     OW20882   6.364   3.557   6.963
 1247SOL    HW120883   6.310   3.480   6.944
 1247SOL    HW220884   6.340   3.583   7.052
 1248SOL     OW20885   1.419   1.013   0.901
 1248SOL    HW120886   1.478   1.059   0.843
 1248SOL    HW220887   1.457   1.024   0.988
 1249SOL     OW20888   0.742   1.319   1.030
 1249SOL    HW120889   0.721   1.264   1.105
 1249SOL    HW220890   0.708   1.271   0.955
 1250SOL     OW20891   3.422   0.598   7.495
 1250SOL    HW120892   3.416   0.505   7.521
 1250SOL    HW220893   3.469   0.639   7.567
 1251SOL     OW20894   5.486   4.916   0.519
 1251SOL    HW120895   5.511   4.969   0.443
 1251SOL    HW220896   5.456   4.979   0.584
 1252SOL     OW20897   1.021   0.245   1.673
 1252SOL    HW120898   0.969   0.165   1.684
 1252SOL    HW220899   1.079   0.247   1.750
 1253SOL     OW20900   1.818   5.431   7.304
 1253SOL    HW120901   1.771   5.476   7.375
 1253SOL    HW220902   1.750   5.379   7.261
 1254SOL     OW20903   1.625   3.115   7.687
 1254SOL    HW120904   1.559   3.047   7.683
 1254SOL    HW220905   1.709   3.069   7.682
 1255SOL     OW20906   3.582   2.969   1.416
 1255SOL    HW120907   3.564   2.959   1.322
 1255SOL    HW220908   3.569   3.062   1.433
 1256SOL     OW20909   3.493   2.347   1.144
 1256SOL    HW120910   3.525   2.282   1.082
 1256SOL    HW220911   3.455   2.417   1.090
 1257SOL     OW20912   4.245   6.439   7.411
 1257SOL    HW120913   4.276   6.378   7.344
 1257SOL    HW220914   4.202   6.509   7.361
 1258SOL     OW20915   4.686   0.584   6.901
 1258SOL    HW120916   4.652   0.610   6.816
 1258SOL    HW220917   4.635   0.634   6.964
 1259SOL     OW20918   4.234   1.247   0.526
 1259SOL    HW120919   4.151   1.209   0.497
 1259SOL    HW220920   4.301   1.194   0.483
 1260SOL     OW20921   0.013   2.917   0.789
 1260SOL    HW120922   0.022   2.825   0.763
 1260SOL    HW220923   0.010   2.914   0.884
 1261SOL     OW20924   1.239   2.830   0.507
 1261SOL    HW120925   1.166   2.875   0.550
 1261SOL    HW220926   1.266   2.764   0.571
 1262SOL     OW20927   2.051   4.926   0.928
 1262SOL    HW120928   2.019   4.851   0.879
 1262SOL    HW220929   1.977   4.954   0.981
 1263SOL     OW20930   3.390   0.323   1.068
 1263SOL    HW120931   3.378   0.310   0.974
 1263SOL    HW220932   3.328   0.263   1.109
 1264SOL     OW20933   2.845   2.768   0.675
 1264SOL    HW120934   2.864   2.837   0.738
 1264SOL    HW220935   2.829   2.690   0.728
 1265SOL     OW20936   0.163   5.542   1.519
 1265SOL    HW120937   0.105   5.466   1.528
 1265SOL    HW220938   0.201   5.532   1.431
 1266SOL     OW20939   2.630   4.351   7.299
 1266SOL    HW120940   2.583   4.268   7.304
 1266SOL    HW220941   2.592   4.395   7.223
 1267SOL     OW20942   3.409   4.316   7.726
 1267SOL    HW120943   3.503   4.330   7.738
 1267SOL    HW220944   3.373   4.317   7.815
 1268SOL     OW20945   1.244   0.971   5.598
 1268SOL    HW120946   1.199   0.982   5.515
 1268SOL    HW220947   1.332   1.006   5.583
 1269SOL     OW20948   5.332   5.208   6.284
 1269SOL    HW120949   5.349   5.116   6.265
 1269SOL    HW220950   5.417   5.250   6.279
 1270SOL     OW20951   4.452   5.265   6.755
 1270SOL    HW120952   4.400   5.346   6.758
 1270SOL    HW220953   4.537   5.290   6.792
 1271SOL     OW20954   3.074   1.653   2.147
 1271SOL    HW120955   3.060   1.676   2.055
 1271SOL    HW220956   3.079   1.558   2.148
 1272SOL     OW20957   3.651   4.552   1.384
 1272SOL    HW120958   3.683   4.464   1.361
 1272SOL    HW220959   3.646   4.597   1.300
 1273SOL     OW20960   3.567   5.698   7.456
 1273SOL    HW120961   3.576   5.719   7.549
 1273SOL    HW220962   3.633   5.631   7.440
 1274SOL     OW20963   2.852   1.487   0.494
 1274SOL    HW120964   2.828   1.416   0.434
 1274SOL    HW220965   2.903   1.548   0.440
 1275SOL     OW20966   2.124   2.636   6.788
 1275SOL    HW120967   2.087   2.677   6.710
 1275SOL    HW220968   2.127   2.542   6.767
 1276SOL     OW20969   6.190   6.326   6.328
 1276SOL    HW120970   6.211   6.246   6.376
 1276SOL    HW220971   6.130   6.299   6.259
 1277SOL     OW20972   1.735   1.200   6.604
 1277SOL    HW120973   1.704   1.163   6.686
 1277SOL    HW220974   1.677   1.275   6.588
 1278SOL     OW20975   3.514   0.429   1.328
 1278SOL    HW120976   3.531   0.340   1.359
 1278SOL    HW220977   3.518   0.483   1.406
 1279SOL     OW20978   6.440   2.735   0.449
 1279SOL    HW120979   6.430   2.691   0.533
 1279SOL    HW220980   6.529   2.712   0.420
 1280SOL     OW20981   4.112   3.150   1.434
 1280SOL    HW120982   4.063   3.216   1.483
 1280SOL    HW220983   4.050   3.079   1.419
 1281SOL     OW20984   3.138   2.488   1.383
 1281SOL    HW120985   3.066   2.523   1.331
 1281SOL    HW220986   3.188   2.565   1.410
 1282SOL     OW20987   5.776   1.594   1.919
 1282SOL    HW120988   5.708   1.644   1.965
 1282SOL    HW220989   5.756   1.608   1.826
 1283SOL     OW20990   1.393   5.727   7.271
 1283SOL    HW120991   1.308   5.697   7.238
 1283SOL    HW220992   1.387   5.823   7.270
 1284SOL     OW20993   1.715   0.413   7.270
 1284SOL    HW120994   1.793   0.419   7.214
 1284SOL    HW220995   1.746   0.436   7.357
 1285SOL     OW20996   2.916   2.995   0.498
 1285SOL    HW120997   2.987   2.974   0.559
 1285SOL    HW220998   2.942   3.079   0.461
 1286SOL     OW20999   5.210   6.430   6.901
 1286SOL    HW121000   5.175   6.386   6.824
 1286SOL    HW221001   5.286   6.479   6.869
 1287SOL     OW21002   1.936   0.176   7.410
 1287SOL    HW121003   1.994   0.246   7.438
 1287SOL    HW221004   1.995   0.106   7.382
 1288SOL     OW21005   3.408   0.924   2.081
 1288SOL    HW121006   3.397   0.854   2.017
 1288SOL    HW221007   3.376   0.886   2.164
 1289SOL     OW21008   5.166   4.298   2.928
 1289SOL    HW121009   5.071   4.313   2.921
 1289SOL    HW221010   5.193   4.349   3.004
 1290SOL     OW21011   2.147   6.170   7.680
 1290SOL    HW121012   2.175   6.209   7.597
 1290SOL    HW221013   2.226   6.168   7.734
 1291SOL     OW21014   0.254   5.191   0.395
 1291SOL    HW121015   0.165   5.174   0.427
 1291SOL    HW221016   0.288   5.259   0.453
 1292SOL     OW21017   6.163   4.967   1.007
 1292SOL    HW121018   6.112   4.945   1.085
 1292SOL    HW221019   6.212   4.888   0.986
 1293SOL     OW21020   5.302   6.299   0.584
 1293SOL    HW121021   5.235   6.275   0.520
 1293SOL    HW221022   5.350   6.218   0.599
 1294SOL     OW21023   1.386   4.340   1.831
 1294SOL    HW121024   1.431   4.356   1.914
 1294SOL    HW221025   1.365   4.246   1.832
 1295SOL     OW21026   5.166   1.267   7.643
 1295SOL    HW121027   5.182   1.295   7.552
 1295SOL    HW221028   5.182   1.346   7.695
 1296SOL     OW21029   1.415   2.125   7.159
 1296SOL    HW121030   1.353   2.132   7.086
 1296SOL    HW221031   1.361   2.110   7.236
 1297SOL     OW21032   2.885   5.048   6.195
 1297SOL    HW121033   2.924   5.039   6.108
 1297SOL    HW221034   2.930   5.122   6.235
 1298SOL     OW21035   5.195   2.560   0.711
 1298SOL    HW121036   5.198   2.475   0.668
 1298SOL    HW221037   5.152   2.618   0.648
 1299SOL     OW21038   3.343   4.226   7.016
 1299SOL    HW121039   3.294   4.281   7.077
 1299SOL    HW221040   3.434   4.235   7.043
 1300SOL     OW21041   2.493   1.076   6.580
 1300SOL    HW121042   2.568   1.018   6.596
 1300SOL    HW221043   2.419   1.016   6.571
 1301SOL     OW21044   2.302   2.889   1.286
 1301SOL    HW121045   2.279   2.965   1.234
 1301SOL    HW221046   2.219   2.843   1.299
 1302SOL     OW21047   2.215   6.277   0.946
 1302SOL    HW121048   2.207   6.321   1.030
 1302SOL    HW221049   2.309   6.257   0.938
 1303SOL     OW21050   5.826   1.647   1.122
 1303SOL    HW121051   5.818   1.727   1.071
 1303SOL    HW221052   5.736   1.619   1.137
 1304SOL     OW21053   2.423   0.631   6.397
 1304SOL    HW121054   2.388   0.702   6.343
 1304SOL    HW221055   2.391   0.551   6.355
 1305SOL     OW21056   6.315   4.419   6.198
 1305SOL    HW121057   6.238   4.405   6.143
 1305SOL    HW221058   6.296   4.373   6.279
 1306SOL     OW21059   2.971   3.863   6.690
 1306SOL    HW121060   2.944   3.927   6.624
 1306SOL    HW221061   3.065   3.877   6.699
 1307SOL     OW21062   6.123   4.108   0.308
 1307SOL    HW121063   6.028   4.096   0.305
 1307SOL    HW221064   6.137   4.196   0.274
 1308SOL     OW21065   0.171   6.452   6.269
 1308SOL    HW121066   0.089   6.466   6.316
 1308SOL    HW221067   0.202   6.366   6.299
 1309SOL     OW21068   4.972   3.584   0.399
 1309SOL    HW121069   4.910   3.542   0.339
 1309SOL    HW221070   5.050   3.530   0.396
 1310SOL     OW21071   0.585   5.791   7.279
 1310SOL    HW121072   0.594   5.807   7.185
 1310SOL    HW221073   0.555   5.701   7.286
 1311SOL     OW21074   1.205   5.090   7.726
 1311SOL    HW121075   1.229   5.132   7.809
 1311SOL    HW221076   1.259   5.011   7.723
 1312SOL     OW21077   4.150   0.013   1.295
 1312SOL    HW121078   4.082   0.055   1.348
 1312SOL    HW221079   4.172  -0.066   1.344
 1313SOL     OW21080   0.010   3.238   0.337
 1313SOL    HW121081   0.045   3.232   0.426
 1313SOL    HW221082   0.039   3.323   0.305
 1314SOL     OW21083   1.236   0.721   2.054
 1314SOL    HW121084   1.312   0.721   1.996
 1314SOL    HW221085   1.244   0.803   2.103
 1315SOL     OW21086   2.046   4.501   7.423
 1315SOL    HW121087   1.969   4.447   7.441
 1315SOL    HW221088   2.017   4.591   7.440
 1316SOL     OW21089   4.396   6.040   0.781
 1316SOL    HW121090   4.373   6.063   0.871
 1316SOL    HW221091   4.433   5.952   0.788
 1317SOL     OW21092   5.828   4.815   0.287
 1317SOL    HW121093   5.776   4.738   0.311
 1317SOL    HW221094   5.846   4.858   0.370
 1318SOL     OW21095   4.090   0.629   6.895
 1318SOL    HW121096   4.044   0.578   6.961
 1318SOL    HW221097   4.182   0.607   6.908
 1319SOL     OW21098   4.698   4.601   6.515
 1319SOL    HW121099   4.631   4.540   6.547
 1319SOL    HW221100   4.706   4.582   6.422
 1320SOL     OW21101   3.655   0.163   5.701
 1320SOL    HW121102   3.619   0.157   5.790
 1320SOL    HW221103   3.699   0.080   5.687
 1321SOL     OW21104   3.059   4.633   1.627
 1321SOL    HW121105   3.060   4.559   1.687
 1321SOL    HW221106   2.977   4.678   1.645
 1322SOL     OW21107   2.480   4.289   6.879
 1322SOL    HW121108   2.566   4.250   6.895
 1322SOL    HW221109   2.484   4.374   6.923
 1323SOL     OW21110   5.490   5.668   7.695
 1323SOL    HW121111   5.512   5.585   7.652
 1323SOL    HW221112   5.394   5.671   7.692
 1324SOL     OW21113   2.240   5.412   6.913
 1324SOL    HW121114   2.326   5.426   6.952
 1324SOL    HW221115   2.177   5.434   6.982
 1325SOL     OW21116   0.103   1.095   0.728
 1325SOL    HW121117   0.055   1.099   0.645
 1325SOL    HW221118   0.035   1.085   0.795
 1326SOL     OW21119   1.012   5.413   6.286
 1326SOL    HW121120   1.094   5.457   6.307
 1326SOL    HW221121   0.949   5.450   6.349
 1327SOL     OW21122   0.133   1.174   5.641
 1327SOL    HW121123   0.092   1.240   5.586
 1327SOL    HW221124   0.177   1.115   5.579
 1328SOL     OW21125   4.453   4.451   6.569
 1328SOL    HW121126   4.404   4.522   6.610
 1328SOL    HW221127   4.438   4.463   6.475
 1329SOL     OW21128   1.683   0.997   7.718
 1329SOL    HW121129   1.636   1.080   7.706
 1329SOL    HW221130   1.772   1.016   7.689
 1330SOL     OW21131   3.927   5.845   7.362
 1330SOL    HW121132   3.916   5.783   7.434
 1330SOL    HW221133   3.991   5.909   7.395
 1331SOL     OW21134   0.417   4.808   6.456
 1331SOL    HW121135   0.503   4.830   6.421
 1331SOL    HW221136   0.400   4.719   6.423
 1332SOL     OW21137   5.131   5.488   1.663
 1332SOL    HW121138   5.141   5.439   1.744
 1332SOL    HW221139   5.217   5.527   1.648
 1333SOL     OW21140   3.354   4.380   0.222
 1333SOL    HW121141   3.309   4.336   0.293
 1333SOL    HW221142   3.419   4.436   0.265
 1334SOL     OW21143   1.268   2.376   0.877
 1334SOL    HW121144   1.306   2.316   0.812
 1334SOL    HW221145   1.292   2.339   0.961
 1335SOL     OW21146   4.209   2.194   7.540
 1335SOL    HW121147   4.280   2.173   7.602
 1335SOL    HW221148   4.182   2.282   7.564
 1336SOL     OW21149   2.352   3.852   6.447
 1336SOL    HW121150   2.374   3.856   6.354
 1336SOL    HW221151   2.276   3.910   6.456
 1337SOL     OW21152   2.330   0.634   7.588
 1337SOL    HW121153   2.373   0.614   7.670
 1337SOL    HW221154   2.394   0.614   7.520
 1338SOL     OW21155   0.904   4.739   6.244
 1338SOL    HW121156   0.921   4.740   6.150
 1338SOL    HW221157   0.910   4.646   6.269
 1339SOL     OW21158   3.343   1.206   7.595
 1339SOL    HW121159   3.361   1.220   7.502
 1339SOL    HW221160   3.259   1.161   7.598
 1340SOL     OW21161   1.928   0.120   6.627
 1340SOL    HW121162   1.941   0.062   6.552
 1340SOL    HW221163   1.853   0.174   6.602
 1341SOL     OW21164   0.147   2.138   1.439
 1341SOL    HW121165   0.162   2.103   1.527
 1341SOL    HW221166   0.149   2.233   1.451
 1342SOL     OW21167   6.306   6.409   0.358
 1342SOL    HW121168   6.350   6.481   0.402
 1342SOL    HW221169   6.328   6.332   0.410
 1343SOL     OW21170   1.720   5.323   1.524
 1343SOL    HW121171   1.714   5.408   1.480
 1343SOL    HW221172   1.813   5.303   1.525
 1344SOL     OW21173   0.193   0.405   6.487
 1344SOL    HW121174   0.209   0.488   6.442
 1344SOL    HW221175   0.180   0.342   6.416
 1345SOL     OW21176   6.239   0.221   6.673
 1345SOL    HW121177   6.276   0.133   6.665
 1345SOL    HW221178   6.268   0.266   6.593
 1346SOL     OW21179   4.993   4.663   0.103
 1346SOL    HW121180   5.014   4.677   0.011
 1346SOL    HW221181   5.078   4.648   0.145
 1347SOL     OW21182   1.215   0.327   1.227
 1347SOL    HW121183   1.169   0.323   1.311
 1347SOL    HW221184   1.289   0.267   1.237
 1348SOL     OW21185   4.462   5.441   0.631
 1348SOL    HW121186   4.375   5.446   0.590
 1348SOL    HW221187   4.444   5.455   0.724
 1349SOL     OW21188   2.497   2.738   5.673
 1349SOL    HW121189   2.570   2.685   5.643
 1349SOL    HW221190   2.538   2.805   5.728
 1350SOL     OW21191   0.206   5.187   1.408
 1350SOL    HW121192   0.141   5.122   1.436
 1350SOL    HW221193   0.259   5.141   1.342
 1351SOL     OW21194   0.220   3.800   6.996
 1351SOL    HW121195   0.141   3.840   7.031
 1351SOL    HW221196   0.211   3.707   7.016
 1352SOL     OW21197   6.134   3.779   1.377
 1352SOL    HW121198   6.137   3.703   1.319
 1352SOL    HW221199   6.091   3.847   1.326
 1353SOL     OW21200   5.136   6.160   0.401
 1353SOL    HW121201   5.143   6.064   0.409
 1353SOL    HW221202   5.191   6.181   0.326
 1354SOL     OW21203   4.342   5.784   1.492
 1354SOL    HW121204   4.259   5.792   1.538
 1354SOL    HW221205   4.408   5.788   1.561
 1355SOL     OW21206   2.545   1.970   6.968
 1355SOL    HW121207   2.525   2.006   6.881
 1355SOL    HW221208   2.467   1.920   6.991
 1356SOL     OW21209   2.557   4.317   7.696
 1356SOL    HW121210   2.543   4.245   7.635
 1356SOL    HW221211   2.620   4.374   7.652
 1357SOL     OW21212   3.178   3.025   6.938
 1357SOL    HW121213   3.129   3.105   6.957
 1357SOL    HW221214   3.270   3.052   6.942
 1358SOL     OW21215   2.191   6.079   1.631
 1358SOL    HW121216   2.148   6.050   1.711
 1358SOL    HW221217   2.283   6.053   1.642
 1359SOL     OW21218   0.532   5.448   0.234
 1359SOL    HW121219   0.567   5.469   0.320
 1359SOL    HW221220   0.437   5.458   0.243
 1360SOL     OW21221   1.895   2.981   7.650
 1360SOL    HW121222   1.880   2.936   7.567
 1360SOL    HW221223   1.989   2.973   7.665
 1361SOL     OW21224   3.404   1.706   1.095
 1361SOL    HW121225   3.357   1.727   1.175
 1361SOL    HW221226   3.487   1.752   1.102
 1362SOL     OW21227   0.785   0.411   6.046
 1362SOL    HW121228   0.813   0.382   5.959
 1362SOL    HW221229   0.691   0.426   6.038
 1363SOL     OW21230   2.330   6.372   6.201
 1363SOL    HW121231   2.291   6.409   6.122
 1363SOL    HW221232   2.306   6.279   6.198
 1364SOL     OW21233   3.910   1.594   1.383
 1364SOL    HW121234   3.957   1.515   1.410
 1364SOL    HW221235   3.910   1.590   1.288
 1365SOL     OW21236   6.334   1.530   6.298
 1365SOL    HW121237   6.305   1.583   6.223
 1365SOL    HW221238   6.427   1.548   6.305
 1366SOL     OW21239   1.515   5.817   6.817
 1366SOL    HW121240   1.585   5.801   6.880
 1366SOL    HW221241   1.436   5.787   6.862
 1367SOL     OW21242   5.241   0.713   1.351
 1367SOL    HW121243   5.283   0.652   1.411
 1367SOL    HW221244   5.312   0.771   1.321
 1368SOL     OW21245   1.625   1.815   2.485
 1368SOL    HW121246   1.634   1.743   2.423
 1368SOL    HW221247   1.676   1.787   2.561
 1369SOL     OW21248   2.573   5.570   0.153
 1369SOL    HW121249   2.654   5.575   0.203
 1369SOL    HW221250   2.593   5.613   0.070
 1370SOL     OW21251   1.468   5.246   7.658
 1370SOL    HW121252   1.519   5.190   7.717
 1370SOL    HW221253   1.404   5.289   7.714
 1371SOL     OW21254   3.955   2.421   1.961
 1371SOL    HW121255   3.998   2.478   2.024
 1371SOL    HW221256   3.862   2.444   1.967
 1372SOL     OW21257   0.920   3.372   5.720
 1372SOL    HW121258   1.003   3.344   5.681
 1372SOL    HW221259   0.853   3.338   5.661
 1373SOL     OW21260   2.291   1.474   7.002
 1373SOL    HW121261   2.375   1.492   6.961
 1373SOL    HW221262   2.228   1.525   6.950
 1374SOL     OW21263   4.762   0.072   7.372
 1374SOL    HW121264   4.690   0.115   7.326
 1374SOL    HW221265   4.720   0.027   7.446
 1375SOL     OW21266   1.550   5.972   0.189
 1375SOL    HW121267   1.554   5.955   0.095
 1375SOL    HW221268   1.469   6.021   0.202
 1376SOL     OW21269   0.628   6.128   0.654
 1376SOL    HW121270   0.715   6.147   0.621
 1376SOL    HW221271   0.642   6.085   0.738
 1377SOL     OW21272   4.830   5.932   6.407
 1377SOL    HW121273   4.863   6.015   6.375
 1377SOL    HW221274   4.903   5.871   6.396
 1378SOL     OW21275   3.557   0.632   1.582
 1378SOL    HW121276   3.544   0.723   1.559
 1378SOL    HW221277   3.514   0.622   1.667
 1379SOL     OW21278   5.458   2.282   7.559
 1379SOL    HW121279   5.400   2.297   7.633
 1379SOL    HW221280   5.471   2.187   7.558
 1380SOL     OW21281   3.765   4.628   0.155
 1380SOL    HW121282   3.831   4.645   0.221
 1380SOL    HW221283   3.810   4.640   0.071
 1381SOL     OW21284   1.576   1.385   6.474
 1381SOL    HW121285   1.529   1.460   6.437
 1381SOL    HW221286   1.516   1.311   6.461
 1382SOL     OW21287   5.741   3.804   1.401
 1382SOL    HW121288   5.798   3.774   1.471
 1382SOL    HW221289   5.794   3.865   1.350
 1383SOL     OW21290   5.830   1.979   0.223
 1383SOL    HW121291   5.897   2.035   0.264
 1383SOL    HW221292   5.880   1.910   0.179
 1384SOL     OW21293   5.529   2.591   1.361
 1384SOL    HW121294   5.458   2.566   1.419
 1384SOL    HW221295   5.550   2.681   1.385
 1385SOL     OW21296   0.846   2.813   1.352
 1385SOL    HW121297   0.895   2.892   1.330
 1385SOL    HW221298   0.912   2.744   1.361
 1386SOL     OW21299   3.522   4.063   6.407
 1386SOL    HW121300   3.460   4.079   6.478
 1386SOL    HW221301   3.583   4.136   6.411
 1387SOL     OW21302   2.154   0.882   0.170
 1387SOL    HW121303   2.131   0.852   0.258
 1387SOL    HW221304   2.247   0.861   0.160
 1388SOL     OW21305   6.194   2.761   6.845
 1388SOL    HW121306   6.248   2.690   6.877
 1388SOL    HW221307   6.117   2.762   6.903
 1389SOL     OW21308   0.210   4.233   7.503
 1389SOL    HW121309   0.230   4.142   7.520
 1389SOL    HW221310   0.128   4.231   7.453
 1390SOL     OW21311   3.471   1.705   0.236
 1390SOL    HW121312   3.382   1.674   0.249
 1390SOL    HW221313   3.518   1.678   0.315
 1391SOL     OW21314   0.303   1.793   1.261
 1391SOL    HW121315   0.371   1.846   1.302
 1391SOL    HW221316   0.321   1.799   1.167
 1392SOL     OW21317   1.621   2.035   1.980
 1392SOL    HW121318   1.561   1.979   1.930
 1392SOL    HW221319   1.598   2.017   2.072
 1393SOL     OW21320   3.637   3.759   6.584
 1393SOL    HW121321   3.546   3.749   6.615
 1393SOL    HW221322   3.671   3.832   6.635
 1394SOL     OW21323   3.041   6.151   1.506
 1394SOL    HW121324   2.965   6.094   1.516
 1394SOL    HW221325   3.111   6.094   1.474
 1395SOL     OW21326   2.508   5.588   0.587
 1395SOL    HW121327   2.423   5.631   0.598
 1395SOL    HW221328   2.550   5.636   0.515
 1396SOL     OW21329   1.846   5.090   7.148
 1396SOL    HW121330   1.840   5.004   7.189
 1396SOL    HW221331   1.934   5.093   7.111
 1397SOL     OW21332   5.784   0.409   0.053
 1397SOL    HW121333   5.765   0.371  -0.033
 1397SOL    HW221334   5.699   0.410   0.097
 1398SOL     OW21335   0.562   2.312   7.277
 1398SOL    HW121336   0.550   2.232   7.227
 1398SOL    HW221337   0.520   2.380   7.224
 1399SOL     OW21338   3.456   3.617   7.020
 1399SOL    HW121339   3.393   3.552   7.052
 1399SOL    HW221340   3.529   3.565   6.988
 1400SOL     OW21341   5.991   5.603   1.108
 1400SOL    HW121342   5.899   5.589   1.086
 1400SOL    HW221343   5.991   5.612   1.204
 1401SOL     OW21344   5.915   2.079   1.105
 1401SOL    HW121345   6.004   2.059   1.136
 1401SOL    HW221346   5.865   2.094   1.185
 1402SOL     OW21347   1.560   4.764   7.565
 1402SOL    HW121348   1.582   4.690   7.622
 1402SOL    HW221349   1.624   4.831   7.587
 1403SOL     OW21350   0.525   3.032   5.820
 1403SOL    HW121351   0.505   2.939   5.834
 1403SOL    HW221352   0.528   3.069   5.909
 1404SOL     OW21353   2.034   0.885   5.912
 1404SOL    HW121354   1.959   0.882   5.852
 1404SOL    HW221355   2.082   0.964   5.885
 1405SOL     OW21356   1.224   5.045   0.742
 1405SOL    HW121357   1.151   5.006   0.790
 1405SOL    HW221358   1.302   5.003   0.779
 1406SOL     OW21359   2.600   0.629   0.516
 1406SOL    HW121360   2.676   0.614   0.573
 1406SOL    HW221361   2.531   0.575   0.554
 1407SOL     OW21362   6.069   5.679   0.491
 1407SOL    HW121363   6.046   5.769   0.470
 1407SOL    HW221364   6.145   5.685   0.549
 1408SOL     OW21365   1.515   1.662   1.404
 1408SOL    HW121366   1.546   1.712   1.328
 1408SOL    HW221367   1.453   1.599   1.368
 1409SOL     OW21368   1.245   5.086   1.414
 1409SOL    HW121369   1.314   5.151   1.429
 1409SOL    HW221370   1.228   5.049   1.500
 1410SOL     OW21371   5.495   3.330   7.036
 1410SOL    HW121372   5.484   3.334   7.131
 1410SOL    HW221373   5.586   3.304   7.023
 1411SOL     OW21374   0.656   2.951   6.532
 1411SOL    HW121375   0.722   2.935   6.599
 1411SOL    HW221376   0.697   2.924   6.450
 1412SOL     OW21377   5.589   0.150   0.852
 1412SOL    HW121378   5.679   0.155   0.820
 1412SOL    HW221379   5.574   0.234   0.895
 1413SOL     OW21380   3.032   4.858   0.485
 1413SOL    HW121381   2.995   4.770   0.472
 1413SOL    HW221382   3.005   4.881   0.574
 1414SOL     OW21383   3.947   5.601   0.039
 1414SOL    HW121384   4.009   5.658   0.083
 1414SOL    HW221385   3.906   5.551   0.110
 1415SOL     OW21386   5.553   5.569   0.421
 1415SOL    HW121387   5.590   5.592   0.336
 1415SOL    HW221388   5.588   5.635   0.481
 1416SOL     OW21389   0.671   1.631   7.771
 1416SOL    HW121390   0.610   1.627   7.697
 1416SOL    HW221391   0.722   1.551   7.766
 1417SOL     OW21392   4.831   5.381   0.959
 1417SOL    HW121393   4.893   5.309   0.970
 1417SOL    HW221394   4.797   5.397   1.047
 1418SOL     OW21395   2.536   4.147   0.346
 1418SOL    HW121396   2.590   4.161   0.424
 1418SOL    HW221397   2.562   4.217   0.286
 1419SOL     OW21398   0.316   2.978   0.711
 1419SOL    HW121399   0.233   2.949   0.750
 1419SOL    HW221400   0.328   3.067   0.745
 1420SOL     OW21401   6.300   0.910   6.366
 1420SOL    HW121402   6.326   0.945   6.451
 1420SOL    HW221403   6.241   0.837   6.387
 1421SOL     OW21404   0.583   4.576   6.331
 1421SOL    HW121405   0.542   4.627   6.260
 1421SOL    HW221406   0.619   4.642   6.390
 1422SOL     OW21407   5.198   1.885   2.260
 1422SOL    HW121408   5.290   1.870   2.239
 1422SOL    HW221409   5.200   1.948   2.332
 1423SOL     OW21410   2.309   4.207   1.151
 1423SOL    HW121411   2.231   4.165   1.115
 1423SOL    HW221412   2.283   4.298   1.165
 1424SOL     OW21413   4.657   6.067   7.318
 1424SOL    HW121414   4.727   6.121   7.354
 1424SOL    HW221415   4.577   6.115   7.337
 1425SOL     OW21416   4.883   6.233   0.285
 1425SOL    HW121417   4.963   6.220   0.336
 1425SOL    HW221418   4.915   6.253   0.197
 1426SOL     OW21419   3.551   4.578   7.658
 1426SOL    HW121420   3.609   4.521   7.710
 1426SOL    HW221421   3.489   4.613   7.722
 1427SOL     OW21422   5.599   6.395   6.712
 1427SOL    HW121423   5.528   6.453   6.740
 1427SOL    HW221424   5.580   6.375   6.621
 1428SOL     OW21425   2.707   2.325   7.148
 1428SOL    HW121426   2.744   2.410   7.172
 1428SOL    HW221427   2.619   2.325   7.185
 1429SOL     OW21428   3.085   6.137   7.719
 1429SOL    HW121429   3.006   6.162   7.767
 1429SOL    HW221430   3.057   6.130   7.628
 1430SOL     OW21431   1.114   2.697   1.548
 1430SOL    HW121432   1.107   2.683   1.454
 1430SOL    HW221433   1.142   2.788   1.557
 1431SOL     OW21434   5.667   2.650   6.464
 1431SOL    HW121435   5.663   2.735   6.420
 1431SOL    HW221436   5.576   2.621   6.468
 1432SOL     OW21437   2.539   3.360   0.737
 1432SOL    HW121438   2.565   3.387   0.826
 1432SOL    HW221439   2.610   3.302   0.708
 1433SOL     OW21440   4.423   3.497   7.691
 1433SOL    HW121441   4.410   3.422   7.749
 1433SOL    HW221442   4.351   3.556   7.713
 1434SOL     OW21443   4.370   3.098   1.459
 1434SOL    HW121444   4.419   3.095   1.376
 1434SOL    HW221445   4.280   3.116   1.432
 1435SOL     OW21446   4.900   1.207   7.660
 1435SOL    HW121447   4.873   1.295   7.633
 1435SOL    HW221448   4.995   1.210   7.657
 1436SOL     OW21449   4.959   5.815   0.070
 1436SOL    HW121450   4.970   5.754  -0.003
 1436SOL    HW221451   4.868   5.842   0.065
 1437SOL     OW21452   6.229   4.512   1.184
 1437SOL    HW121453   6.181   4.547   1.259
 1437SOL    HW221454   6.266   4.429   1.216
 1438SOL     OW21455   1.979   0.397   0.466
 1438SOL    HW121456   2.053   0.423   0.411
 1438SOL    HW221457   1.902   0.428   0.420
 1439SOL     OW21458   3.708   5.466   1.661
 1439SOL    HW121459   3.757   5.436   1.737
 1439SOL    HW221460   3.680   5.386   1.617
 1440SOL     OW21461   0.068   4.769   0.826
 1440SOL    HW121462   0.130   4.832   0.788
 1440SOL    HW221463   0.035   4.813   0.905
 1441SOL     OW21464   2.528   0.603   7.413
 1441SOL    HW121465   2.481   0.573   7.336
 1441SOL    HW221466   2.580   0.677   7.381
 1442SOL     OW21467   3.943   3.231   1.709
 1442SOL    HW121468   3.867   3.182   1.739
 1442SOL    HW221469   3.908   3.294   1.646
 1443SOL     OW21470   4.392   3.800   1.730
 1443SOL    HW121471   4.476   3.754   1.737
 1443SOL    HW221472   4.329   3.739   1.769
 1444SOL     OW21473   1.909   2.816   1.265
 1444SOL    HW121474   1.988   2.767   1.244
 1444SOL    HW221475   1.848   2.795   1.195
 1445SOL     OW21476   3.090   2.705   1.156
 1445SOL    HW121477   3.033   2.732   1.228
 1445SOL    HW221478   3.050   2.625   1.122
 1446SOL     OW21479   0.725   5.819   0.497
 1446SOL    HW121480   0.788   5.795   0.564
 1446SOL    HW221481   0.775   5.815   0.415
 1447SOL     OW21482   0.760   0.849   7.752
 1447SOL    HW121483   0.843   0.843   7.705
 1447SOL    HW221484   0.700   0.793   7.701
 1448SOL     OW21485   1.706   2.755   2.434
 1448SOL    HW121486   1.769   2.758   2.506
 1448SOL    HW221487   1.620   2.757   2.476
 1449SOL     OW21488   3.288   5.805   0.716
 1449SOL    HW121489   3.264   5.871   0.780
 1449SOL    HW221490   3.314   5.854   0.639
 1450SOL     OW21491   1.491   3.686   0.752
 1450SOL    HW121492   1.544   3.749   0.704
 1450SOL    HW221493   1.550   3.653   0.820
 1451SOL     OW21494   3.364   3.144   0.261
 1451SOL    HW121495   3.296   3.196   0.304
 1451SOL    HW221496   3.344   3.151   0.168
 1452SOL     OW21497   4.363   4.421   7.708
 1452SOL    HW121498   4.449   4.390   7.737
 1452SOL    HW221499   4.347   4.373   7.626
 1453SOL     OW21500   1.685   0.132   7.304
 1453SOL    HW121501   1.661   0.200   7.241
 1453SOL    HW221502   1.763   0.166   7.347
 1454SOL     OW21503   3.721   5.282   0.090
 1454SOL    HW121504   3.648   5.340   0.068
 1454SOL    HW221505   3.700   5.247   0.176
 1455SOL     OW21506   3.885   6.363   0.409
 1455SOL    HW121507   3.920   6.274   0.402
 1455SOL    HW221508   3.938   6.415   0.349
 1456SOL     OW21509   0.964   1.880   7.171
 1456SOL    HW121510   0.992   1.794   7.201
 1456SOL    HW221511   0.910   1.861   7.094
 1457SOL     OW21512   0.928   1.624   0.696
 1457SOL    HW121513   0.890   1.536   0.701
 1457SOL    HW221514   0.882   1.674   0.762
 1458SOL     OW21515   5.019   1.705   5.464
 1458SOL    HW121516   5.061   1.655   5.535
 1458SOL    HW221517   5.091   1.743   5.415
 1459SOL     OW21518   3.976   0.523   6.227
 1459SOL    HW121519   4.026   0.446   6.253
 1459SOL    HW221520   3.987   0.586   6.298
 1460SOL     OW21521   3.835   6.248   6.458
 1460SOL    HW121522   3.867   6.336   6.481
 1460SOL    HW221523   3.770   6.264   6.389
 1461SOL     OW21524   5.122   3.582   7.499
 1461SOL    HW121525   5.096   3.673   7.507
 1461SOL    HW221526   5.097   3.558   7.410
 1462SOL     OW21527   2.354   5.648   6.194
 1462SOL    HW121528   2.339   5.668   6.286
 1462SOL    HW221529   2.276   5.599   6.167
 1463SOL     OW21530   3.343   5.727   1.997
 1463SOL    HW121531   3.286   5.676   1.940
 1463SOL    HW221532   3.334   5.686   2.083
 1464SOL     OW21533   3.272   2.448   6.405
 1464SOL    HW121534   3.214   2.379   6.440
 1464SOL    HW221535   3.303   2.413   6.322
 1465SOL     OW21536   6.443   3.585   2.507
 1465SOL    HW121537   6.446   3.541   2.592
 1465SOL    HW221538   6.413   3.517   2.447
 1466SOL     OW21539   5.421   4.050   5.925
 1466SOL    HW121540   5.381   4.042   5.838
 1466SOL    HW221541   5.490   4.115   5.913
 1467SOL     OW21542   2.944   5.666   0.715
 1467SOL    HW121543   3.013   5.668   0.781
 1467SOL    HW221544   2.879   5.729   0.745
 1468SOL     OW21545   1.863   4.743   7.117
 1468SOL    HW121546   1.943   4.780   7.154
 1468SOL    HW221547   1.876   4.648   7.125
 1469SOL     OW21548   2.968   6.231   1.216
 1469SOL    HW121549   2.999   6.210   1.304
 1469SOL    HW221550   3.040   6.205   1.159
 1470SOL     OW21551   4.382   4.369   7.409
 1470SOL    HW121552   4.413   4.459   7.402
 1470SOL    HW221553   4.462   4.316   7.413
 1471SOL     OW21554   3.157   0.043   0.018
 1471SOL    HW121555   3.078   0.031  -0.035
 1471SOL    HW221556   3.144  -0.014   0.093
 1472SOL     OW21557   5.390   2.525   6.441
 1472SOL    HW121558   5.367   2.446   6.489
 1472SOL    HW221559   5.310   2.577   6.442
 1473SOL     OW21560   0.993   2.815   6.873
 1473SOL    HW121561   0.945   2.755   6.930
 1473SOL    HW221562   1.057   2.759   6.829
 1474SOL     OW21563   0.187   2.709   6.910
 1474SOL    HW121564   0.100   2.669   6.914
 1474SOL    HW221565   0.229   2.683   6.992
 1475SOL     OW21566   4.246   5.161   1.276
 1475SOL    HW121567   4.156   5.128   1.283
 1475SOL    HW221568   4.250   5.202   1.189
 1476SOL     OW21569   6.316   6.002   7.300
 1476SOL    HW121570   6.340   6.066   7.233
 1476SOL    HW221571   6.252   5.945   7.257
 1477SOL     OW21572   1.937   3.925   6.552
 1477SOL    HW121573   1.965   3.921   6.460
 1477SOL    HW221574   2.001   3.983   6.594
 1478SOL     OW21575   4.755   1.445   6.905
 1478SOL    HW121576   4.757   1.395   6.987
 1478SOL    HW221577   4.727   1.382   6.839
 1479SOL     OW21578   2.964   4.470   6.958
 1479SOL    HW121579   2.928   4.390   6.920
 1479SOL    HW221580   3.055   4.472   6.929
 1480SOL     OW21581   2.942   6.202   6.658
 1480SOL    HW121582   3.031   6.224   6.630
 1480SOL    HW221583   2.948   6.192   6.753
 1481SOL     OW21584   3.211   3.621   0.150
 1481SOL    HW121585   3.260   3.621   0.232
 1481SOL    HW221586   3.266   3.670   0.089
 1482SOL     OW21587   5.588   5.271   2.092
 1482SOL    HW121588   5.627   5.192   2.054
 1482SOL    HW221589   5.641   5.343   2.057
 1483SOL     OW21590   5.362   6.378   0.135
 1483SOL    HW121591   5.287   6.338   0.091
 1483SOL    HW221592   5.432   6.314   0.125
 1484SOL     OW21593   1.025   2.455   0.427
 1484SOL    HW121594   0.989   2.367   0.422
 1484SOL    HW221595   1.039   2.470   0.521
 1485SOL     OW21596   5.998   4.480   6.343
 1485SOL    HW121597   5.908   4.450   6.330
 1485SOL    HW221598   6.048   4.433   6.276
 1486SOL     OW21599   3.223   4.844   6.420
 1486SOL    HW121600   3.131   4.869   6.425
 1486SOL    HW221601   3.249   4.865   6.330
 1487SOL     OW21602   2.631   5.333   5.586
 1487SOL    HW121603   2.658   5.378   5.667
 1487SOL    HW221604   2.557   5.385   5.554
 1488SOL     OW21605   1.203   2.943   1.492
 1488SOL    HW121606   1.287   2.968   1.454
 1488SOL    HW221607   1.182   3.015   1.551
 1489SOL     OW21608   2.989   4.446   7.244
 1489SOL    HW121609   2.977   4.459   7.150
 1489SOL    HW221610   2.990   4.534   7.281
 1490SOL     OW21611   6.444   2.634   0.712
 1490SOL    HW121612   6.463   2.599   0.799
 1490SOL    HW221613   6.369   2.584   0.681
 1491SOL     OW21614   3.601   5.953   7.325
 1491SOL    HW121615   3.687   5.968   7.364
 1491SOL    HW221616   3.569   5.873   7.366
 1492SOL     OW21617   0.908   4.559   7.229
 1492SOL    HW121618   0.933   4.590   7.142
 1492SOL    HW221619   0.863   4.634   7.269
 1493SOL     OW21620   3.938   0.111   5.432
 1493SOL    HW121621   3.926   0.205   5.417
 1493SOL    HW221622   4.028   0.094   5.403
 1494SOL     OW21623   4.035   5.472   0.427
 1494SOL    HW121624   4.048   5.492   0.520
 1494SOL    HW221625   3.966   5.533   0.399
 1495SOL     OW21626   3.157   3.197   7.274
 1495SOL    HW121627   3.118   3.110   7.282
 1495SOL    HW221628   3.086   3.253   7.243
 1496SOL     OW21629   3.270   1.969   2.003
 1496SOL    HW121630   3.177   1.954   2.019
 1496SOL    HW221631   3.311   1.963   2.090
 1497SOL     OW21632   2.793   3.794   0.117
 1497SOL    HW121633   2.794   3.882   0.156
 1497SOL    HW221634   2.867   3.750   0.158
 1498SOL     OW21635   0.900   0.436   0.068
 1498SOL    HW121636   0.848   0.433  -0.012
 1498SOL    HW221637   0.989   0.457   0.038
 1499SOL     OW21638   5.625   0.509   7.142
 1499SOL    HW121639   5.544   0.555   7.120
 1499SOL    HW221640   5.649   0.543   7.228
 1500SOL     OW21641   3.309   1.569   1.662
 1500SOL    HW121642   3.326   1.630   1.733
 1500SOL    HW221643   3.358   1.490   1.685
 1501SOL     OW21644   3.611   3.044   7.651
 1501SOL    HW121645   3.684   3.056   7.589
 1501SOL    HW221646   3.649   2.991   7.722
 1502SOL     OW21647   2.936   5.872   6.241
 1502SOL    HW121648   2.993   5.899   6.169
 1502SOL    HW221649   2.911   5.954   6.283
 1503SOL     OW21650   0.189   4.958   6.386
 1503SOL    HW121651   0.262   4.897   6.399
 1503SOL    HW221652   0.220   5.017   6.317
 1504SOL     OW21653   4.771   3.142   0.416
 1504SOL    HW121654   4.721   3.213   0.456
 1504SOL    HW221655   4.729   3.062   0.446
 1505SOL     OW21656   1.632   3.946   1.335
 1505SOL    HW121657   1.727   3.957   1.343
 1505SOL    HW221658   1.606   4.011   1.270
 1506SOL     OW21659   2.954   3.477   6.716
 1506SOL    HW121660   2.901   3.476   6.796
 1506SOL    HW221661   2.936   3.393   6.674
 1507SOL     OW21662   2.780   0.867   7.710
 1507SOL    HW121663   2.757   0.952   7.673
 1507SOL    HW221664   2.850   0.835   7.654
 1508SOL     OW21665   0.407   3.896   5.672
 1508SOL    HW121666   0.401   3.965   5.606
 1508SOL    HW221667   0.372   3.936   5.752
 1509SOL     OW21668   4.332   1.848   7.483
 1509SOL    HW121669   4.384   1.776   7.446
 1509SOL    HW221670   4.365   1.926   7.439
 1510SOL     OW21671   5.447   3.470   5.725
 1510SOL    HW121672   5.416   3.390   5.682
 1510SOL    HW221673   5.542   3.468   5.713
 1511SOL     OW21674   1.118   1.677   7.197
 1511SOL    HW121675   1.206   1.683   7.160
 1511SOL    HW221676   1.106   1.584   7.215
 1512SOL     OW21677   3.901   2.164   7.514
 1512SOL    HW121678   3.881   2.073   7.538
 1512SOL    HW221679   3.986   2.182   7.554
 1513SOL     OW21680   3.364   1.475   5.457
 1513SOL    HW121681   3.289   1.494   5.399
 1513SOL    HW221682   3.333   1.498   5.544
 1514SOL     OW21683   5.409   3.526   1.015
 1514SOL    HW121684   5.383   3.489   0.931
 1514SOL    HW221685   5.387   3.619   1.007
 1515SOL     OW21686   4.524   2.836   0.162
 1515SOL    HW121687   4.534   2.785   0.242
 1515SOL    HW221688   4.613   2.842   0.127
 1516SOL     OW21689   2.006   1.010   7.727
 1516SOL    HW121690   2.058   0.935   7.754
 1516SOL    HW221691   2.042   1.035   7.641
 1517SOL     OW21692   0.450   3.164   1.690
 1517SOL    HW121693   0.382   3.172   1.623
 1517SOL    HW221694   0.521   3.220   1.658
 1518SOL     OW21695   4.337   1.493   1.211
 1518SOL    HW121696   4.433   1.497   1.210
 1518SOL    HW221697   4.317   1.400   1.207
 1519SOL     OW21698   4.592   4.172   7.457
 1519SOL    HW121699   4.626   4.149   7.543
 1519SOL    HW221700   4.640   4.115   7.397
 1520SOL     OW21701   5.044   2.645   7.447
 1520SOL    HW121702   5.088   2.610   7.525
 1520SOL    HW221703   4.951   2.635   7.466
 1521SOL     OW21704   4.628   0.395   6.035
 1521SOL    HW121705   4.708   0.343   6.046
 1521SOL    HW221706   4.617   0.401   5.940
 1522SOL     OW21707   2.545   1.920   1.026
 1522SOL    HW121708   2.548   1.842   1.081
 1522SOL    HW221709   2.519   1.991   1.085
 1523SOL     OW21710   5.410   2.312   0.062
 1523SOL    HW121711   5.457   2.395   0.072
 1523SOL    HW221712   5.476   2.245   0.080
 1524SOL     OW21713   6.401   3.773   6.788
 1524SOL    HW121714   6.380   3.715   6.861
 1524SOL    HW221715   6.371   3.859   6.817
 1525SOL     OW21716   2.938   3.732   7.588
 1525SOL    HW121717   2.949   3.663   7.653
 1525SOL    HW221718   2.847   3.761   7.599
 1526SOL     OW21719   1.083   0.548   0.381
 1526SOL    HW121720   1.003   0.572   0.334
 1526SOL    HW221721   1.142   0.621   0.366
 1527SOL     OW21722   3.594   6.328   7.565
 1527SOL    HW121723   3.565   6.333   7.474
 1527SOL    HW221724   3.522   6.282   7.610
 1528SOL     OW21725   2.770   1.032   1.577
 1528SOL    HW121726   2.862   1.019   1.556
 1528SOL    HW221727   2.723   0.993   1.503
 1529SOL     OW21728   3.249   3.151   1.009
 1529SOL    HW121729   3.342   3.168   1.020
 1529SOL    HW221730   3.244   3.059   0.984
 1530SOL     OW21731   2.619   0.393   6.183
 1530SOL    HW121732   2.625   0.302   6.154
 1530SOL    HW221733   2.528   0.417   6.168
 1531SOL     OW21734   6.033   3.559   7.229
 1531SOL    HW121735   5.967   3.541   7.296
 1531SOL    HW221736   6.062   3.472   7.201
 1532SOL     OW21737   2.616   3.574   1.637
 1532SOL    HW121738   2.525   3.603   1.642
 1532SOL    HW221739   2.650   3.588   1.725
 1533SOL     OW21740   2.573   5.470   1.649
 1533SOL    HW121741   2.616   5.528   1.587
 1533SOL    HW221742   2.482   5.499   1.651
 1534SOL     OW21743   1.817   0.776   0.836
 1534SOL    HW121744   1.783   0.845   0.779
 1534SOL    HW221745   1.889   0.737   0.787
 1535SOL     OW21746   1.840   5.546   7.644
 1535SOL    HW121747   1.822   5.490   7.719
 1535SOL    HW221748   1.754   5.569   7.610
 1536SOL     OW21749   3.031   1.375   2.208
 1536SOL    HW121750   3.002   1.406   2.293
 1536SOL    HW221751   2.955   1.329   2.171
 1537SOL     OW21752   0.439   1.176   6.165
 1537SOL    HW121753   0.445   1.253   6.108
 1537SOL    HW221754   0.445   1.102   6.105
 1538SOL     OW21755   3.764   3.707   7.240
 1538SOL    HW121756   3.785   3.700   7.147
 1538SOL    HW221757   3.680   3.753   7.241
 1539SOL     OW21758   1.890   0.287   5.742
 1539SOL    HW121759   1.948   0.219   5.776
 1539SOL    HW221760   1.802   0.248   5.748
 1540SOL     OW21761   6.090   1.079   7.731
 1540SOL    HW121762   6.133   1.038   7.806
 1540SOL    HW221763   6.084   1.010   7.665
 1541SOL     OW21764   0.340   1.956   0.150
 1541SOL    HW121765   0.411   2.004   0.108
 1541SOL    HW221766   0.261   1.987   0.106
 1542SOL     OW21767   2.409   0.810   0.111
 1542SOL    HW121768   2.441   0.851   0.031
 1542SOL    HW221769   2.471   0.838   0.178
 1543SOL     OW21770   3.218   3.946   6.719
 1543SOL    HW121771   3.222   4.041   6.716
 1543SOL    HW221772   3.258   3.922   6.802
 1544SOL     OW21773   2.595   0.178   0.148
 1544SOL    HW121774   2.565   0.257   0.193
 1544SOL    HW221775   2.627   0.122   0.218
 1545SOL     OW21776   4.274   2.331   7.048
 1545SOL    HW121777   4.311   2.407   7.092
 1545SOL    HW221778   4.277   2.354   6.955
 1546SOL     OW21779   2.699   5.477   5.794
 1546SOL    HW121780   2.642   5.503   5.866
 1546SOL    HW221781   2.744   5.557   5.768
 1547SOL     OW21782   0.836   2.611   6.550
 1547SOL    HW121783   0.900   2.674   6.517
 1547SOL    HW221784   0.778   2.594   6.476
 1548SOL     OW21785   5.560   5.089   7.428
 1548SOL    HW121786   5.626   5.114   7.492
 1548SOL    HW221787   5.477   5.093   7.476
 1549SOL     OW21788   5.677   2.095   1.329
 1549SOL    HW121789   5.655   2.181   1.367
 1549SOL    HW221790   5.772   2.090   1.336
 1550SOL     OW21791   2.185   3.987   7.196
 1550SOL    HW121792   2.264   4.024   7.235
 1550SOL    HW221793   2.209   3.968   7.105
 1551SOL     OW21794   3.780   3.405   0.632
 1551SOL    HW121795   3.859   3.458   0.638
 1551SOL    HW221796   3.772   3.364   0.718
 1552SOL     OW21797   3.819   1.288   1.246
 1552SOL    HW121798   3.896   1.344   1.255
 1552SOL    HW221799   3.811   1.273   1.152
 1553SOL     OW21800   5.075   0.876   7.545
 1553SOL    HW121801   5.117   0.954   7.581
 1553SOL    HW221802   5.007   0.853   7.609
 1554SOL     OW21803   3.473   6.158   1.622
 1554SOL    HW121804   3.530   6.149   1.545
 1554SOL    HW221805   3.530   6.143   1.697
 1555SOL     OW21806   6.163   4.611   7.610
 1555SOL    HW121807   6.132   4.688   7.657
 1555SOL    HW221808   6.217   4.646   7.539
 1556SOL     OW21809   2.119   3.218   0.347
 1556SOL    HW121810   2.208   3.251   0.333
 1556SOL    HW221811   2.064   3.297   0.348
 1557SOL     OW21812   1.320   3.253   1.004
 1557SOL    HW121813   1.342   3.264   0.912
 1557SOL    HW221814   1.329   3.341   1.041
 1558SOL     OW21815   0.468   5.870   0.410
 1558SOL    HW121816   0.563   5.861   0.425
 1558SOL    HW221817   0.454   5.830   0.323
 1559SOL     OW21818   1.479   2.330   1.445
 1559SOL    HW121819   1.543   2.259   1.448
 1559SOL    HW221820   1.488   2.374   1.529
 1560SOL     OW21821   5.075   3.210   6.114
 1560SOL    HW121822   5.085   3.288   6.168
 1560SOL    HW221823   5.155   3.160   6.129
 1561SOL     OW21824   4.039   2.059   0.681
 1561SOL    HW121825   3.966   2.109   0.718
 1561SOL    HW221826   4.023   1.969   0.709
 1562SOL     OW21827   4.503   1.311   5.599
 1562SOL    HW121828   4.503   1.365   5.520
 1562SOL    HW221829   4.456   1.231   5.574
 1563SOL     OW21830   5.333   4.008   6.171
 1563SOL    HW121831   5.375   3.923   6.187
 1563SOL    HW221832   5.372   4.039   6.089
 1564SOL     OW21833   6.082   0.452   2.119
 1564SOL    HW121834   6.082   0.357   2.124
 1564SOL    HW221835   6.148   0.473   2.053
 1565SOL     OW21836   1.245   2.876   6.329
 1565SOL    HW121837   1.253   2.971   6.339
 1565SOL    HW221838   1.216   2.863   6.239
 1566SOL     OW21839   5.186   1.329   0.221
 1566SOL    HW121840   5.198   1.362   0.310
 1566SOL    HW221841   5.093   1.305   0.217
 1567SOL     OW21842   3.798   4.187   2.776
 1567SOL    HW121843   3.828   4.246   2.845
 1567SOL    HW221844   3.712   4.221   2.751
 1568SOL     OW21845   5.104   5.750   1.204
 1568SOL    HW121846   5.070   5.665   1.175
 1568SOL    HW221847   5.172   5.772   1.141
 1569SOL     OW21848   4.686   4.747   0.124
 1569SOL    HW121849   4.781   4.736   0.116
 1569SOL    HW221850   4.673   4.772   0.216
 1570SOL     OW21851   5.686   4.907   2.647
 1570SOL    HW121852   5.776   4.906   2.680
 1570SOL    HW221853   5.676   4.825   2.599
 1571SOL     OW21854   0.290   3.535   1.747
 1571SOL    HW121855   0.206   3.518   1.704
 1571SOL    HW221856   0.291   3.476   1.822
 1572SOL     OW21857   0.538   4.474   1.017
 1572SOL    HW121858   0.556   4.563   1.046
 1572SOL    HW221859   0.443   4.465   1.023
 1573SOL     OW21860   4.742   0.951   7.075
 1573SOL    HW121861   4.680   1.016   7.106
 1573SOL    HW221862   4.690   0.892   7.020
 1574SOL     OW21863   2.082   2.542   7.203
 1574SOL    HW121864   1.989   2.531   7.220
 1574SOL    HW221865   2.115   2.453   7.190
 1575SOL     OW21866   1.439   1.323   5.863
 1575SOL    HW121867   1.528   1.340   5.833
 1575SOL    HW221868   1.439   1.352   5.955
 1576SOL     OW21869   5.272   1.011   7.684
 1576SOL    HW121870   5.272   1.107   7.694
 1576SOL    HW221871   5.265   0.978   7.773
 1577SOL     OW21872   3.370   0.718   1.881
 1577SOL    HW121873   3.305   0.659   1.919
 1577SOL    HW221874   3.330   0.749   1.800
 1578SOL     OW21875   0.853   1.956   6.833
 1578SOL    HW121876   0.775   1.907   6.862
 1578SOL    HW221877   0.921   1.889   6.826
 1579SOL     OW21878   4.286   4.771   0.319
 1579SOL    HW121879   4.337   4.763   0.238
 1579SOL    HW221880   4.196   4.755   0.292
 1580SOL     OW21881   2.242   1.697   6.109
 1580SOL    HW121882   2.269   1.608   6.133
 1580SOL    HW221883   2.270   1.707   6.018
 1581SOL     OW21884   3.748   6.337   6.871
 1581SOL    HW121885   3.716   6.363   6.784
 1581SOL    HW221886   3.835   6.378   6.877
 1582SOL     OW21887   2.642   1.950   7.248
 1582SOL    HW121888   2.579   1.880   7.257
 1582SOL    HW221889   2.618   1.993   7.166
 1583SOL     OW21890   2.648   0.484   6.441
 1583SOL    HW121891   2.578   0.541   6.472
 1583SOL    HW221892   2.608   0.435   6.369
 1584SOL     OW21893   6.240   5.589   0.725
 1584SOL    HW121894   6.225   5.644   0.802
 1584SOL    HW221895   6.319   5.539   0.745
 1585SOL     OW21896   6.273   5.018   2.367
 1585SOL    HW121897   6.344   4.970   2.326
 1585SOL    HW221898   6.271   5.102   2.321
 1586SOL     OW21899   0.100   3.713   7.324
 1586SOL    HW121900   0.071   3.755   7.405
 1586SOL    HW221901   0.066   3.769   7.254
 1587SOL     OW21902   2.004   4.020   0.527
 1587SOL    HW121903   1.967   4.094   0.575
 1587SOL    HW221904   2.099   4.030   0.537
 1588SOL     OW21905   3.128   5.759   6.470
 1588SOL    HW121906   3.123   5.846   6.509
 1588SOL    HW221907   3.081   5.768   6.387
 1589SOL     OW21908   6.080   2.811   1.380
 1589SOL    HW121909   6.001   2.827   1.329
 1589SOL    HW221910   6.049   2.765   1.459
 1590SOL     OW21911   2.936   4.565   0.589
 1590SOL    HW121912   2.844   4.545   0.570
 1590SOL    HW221913   2.984   4.488   0.561
 1591SOL     OW21914   0.388   5.560   1.966
 1591SOL    HW121915   0.357   5.603   1.886
 1591SOL    HW221916   0.458   5.502   1.936
 1592SOL     OW21917   2.335   0.619   1.000
 1592SOL    HW121918   2.371   0.706   0.983
 1592SOL    HW221919   2.382   0.589   1.078
 1593SOL     OW21920   6.330   2.360   5.773
 1593SOL    HW121921   6.366   2.428   5.829
 1593SOL    HW221922   6.256   2.401   5.728
 1594SOL     OW21923   3.815   1.339   6.554
 1594SOL    HW121924   3.882   1.367   6.492
 1594SOL    HW221925   3.856   1.347   6.640
 1595SOL     OW21926   3.295   4.058   2.612
 1595SOL    HW121927   3.326   4.027   2.526
 1595SOL    HW221928   3.250   3.982   2.650
 1596SOL     OW21929   5.488   2.030   7.189
 1596SOL    HW121930   5.539   1.965   7.141
 1596SOL    HW221931   5.412   2.046   7.134
 1597SOL     OW21932   3.341   2.078   0.248
 1597SOL    HW121933   3.257   2.034   0.265
 1597SOL    HW221934   3.378   2.032   0.173
 1598SOL     OW21935   4.412   4.730   0.068
 1598SOL    HW121936   4.507   4.716   0.071
 1598SOL    HW221937   4.383   4.679  -0.008
 1599SOL     OW21938   5.353   1.206   1.060
 1599SOL    HW121939   5.338   1.245   0.974
 1599SOL    HW221940   5.425   1.143   1.046
 1600SOL     OW21941   5.320   1.780   6.459
 1600SOL    HW121942   5.257   1.847   6.486
 1600SOL    HW221943   5.363   1.817   6.382
 1601SOL     OW21944   6.244   0.594   1.747
 1601SOL    HW121945   6.215   0.684   1.757
 1601SOL    HW221946   6.237   0.576   1.654
 1602SOL     OW21947   1.212   2.107   6.316
 1602SOL    HW121948   1.201   2.033   6.257
 1602SOL    HW221949   1.168   2.080   6.397
 1603SOL     OW21950   5.394   6.018   1.342
 1603SOL    HW121951   5.346   5.969   1.276
 1603SOL    HW221952   5.484   6.022   1.310
 1604SOL     OW21953   6.380   2.828   1.046
 1604SOL    HW121954   6.329   2.768   0.991
 1604SOL    HW221955   6.392   2.781   1.128
 1605SOL     OW21956   0.046   1.627   0.432
 1605SOL    HW121957   0.137   1.652   0.415
 1605SOL    HW221958   0.053   1.537   0.466
 1606SOL     OW21959   0.243   3.331   0.985
 1606SOL    HW121960   0.276   3.270   1.051
 1606SOL    HW221961   0.148   3.324   0.991
 1607SOL     OW21962   3.382   2.679   0.519
 1607SOL    HW121963   3.437   2.751   0.550
 1607SOL    HW221964   3.444   2.609   0.499
 1608SOL     OW21965   3.486   2.941   1.810
 1608SOL    HW121966   3.458   2.873   1.870
 1608SOL    HW221967   3.523   3.009   1.866
 1609SOL     OW21968   3.306   5.934   7.373
 1609SOL    HW121969   3.226   5.943   7.321
 1609SOL    HW221970   3.376   5.921   7.309
 1610SOL     OW21971   2.427   1.847   1.978
 1610SOL    HW121972   2.462   1.767   1.937
 1610SOL    HW221973   2.348   1.817   2.024
 1611SOL     OW21974   2.718   3.138   0.655
 1611SOL    HW121975   2.761   3.166   0.736
 1611SOL    HW221976   2.779   3.074   0.617
 1612SOL     OW21977   1.132   6.171   1.754
 1612SOL    HW121978   1.097   6.125   1.677
 1612SOL    HW221979   1.134   6.105   1.823
 1613SOL     OW21980   0.702   5.935   7.723
 1613SOL    HW121981   0.746   5.945   7.808
 1613SOL    HW221982   0.730   6.011   7.672
 1614SOL     OW21983   4.445   2.878   2.167
 1614SOL    HW121984   4.370   2.936   2.180
 1614SOL    HW221985   4.410   2.790   2.179
 1615SOL     OW21986   0.601   4.558   7.707
 1615SOL    HW121987   0.545   4.605   7.769
 1615SOL    HW221988   0.561   4.574   7.621
 1616SOL     OW21989   0.371   2.154   6.906
 1616SOL    HW121990   0.418   2.089   6.854
 1616SOL    HW221991   0.435   2.222   6.924
 1617SOL     OW21992   1.588   5.116   2.280
 1617SOL    HW121993   1.519   5.143   2.220
 1617SOL    HW221994   1.616   5.030   2.248
 1618SOL     OW21995   5.741   4.034   1.653
 1618SOL    HW121996   5.811   4.027   1.589
 1618SOL    HW221997   5.677   4.093   1.611
 1619SOL     OW21998   0.066   2.125   6.578
 1619SOL    HW121999   0.142   2.077   6.545
 1619SOL    HW222000   0.014   2.058   6.623
 1620SOL     OW22001   3.425   5.769   0.220
 1620SOL    HW122002   3.345   5.720   0.201
 1620SOL    HW222003   3.484   5.746   0.148
 1621SOL     OW22004   0.948   6.399   6.727
 1621SOL    HW122005   0.924   6.475   6.780
 1621SOL    HW222006   1.022   6.360   6.774
 1622SOL     OW22007   2.301   1.744   7.695
 1622SOL    HW122008   2.269   1.698   7.617
 1622SOL    HW222009   2.365   1.684   7.734
 1623SOL     OW22010   1.937   2.615   0.112
 1623SOL    HW122011   1.861   2.619   0.055
 1623SOL    HW222012   1.964   2.706   0.123
 1624SOL     OW22013   1.384   4.907   6.664
 1624SOL    HW122014   1.407   4.994   6.632
 1624SOL    HW222015   1.451   4.850   6.628
 1625SOL     OW22016   6.250   1.301   7.641
 1625SOL    HW122017   6.331   1.273   7.683
 1625SOL    HW222018   6.185   1.236   7.668
 1626SOL     OW22019   4.043   3.878   7.776
 1626SOL    HW122020   4.071   3.938   7.707
 1626SOL    HW222021   3.969   3.922   7.817
 1627SOL     OW22022   1.562   6.358   0.431
 1627SOL    HW122023   1.527   6.447   0.437
 1627SOL    HW222024   1.643   6.361   0.482
 1628SOL     OW22025   5.176   2.712   1.954
 1628SOL    HW122026   5.124   2.791   1.970
 1628SOL    HW222027   5.115   2.639   1.971
 1629SOL     OW22028   5.978   1.304   6.624
 1629SOL    HW122029   6.062   1.273   6.660
 1629SOL    HW222030   5.916   1.296   6.696
 1630SOL     OW22031   2.111   1.916   0.713
 1630SOL    HW122032   2.127   1.957   0.798
 1630SOL    HW222033   2.138   1.825   0.724
 1631SOL     OW22034   0.104   1.202   6.049
 1631SOL    HW122035   0.167   1.147   6.096
 1631SOL    HW222036   0.153   1.283   6.030
 1632SOL     OW22037   0.575   2.385   0.083
 1632SOL    HW122038   0.659   2.382   0.039
 1632SOL    HW222039   0.583   2.457   0.146
 1633SOL     OW22040   1.555   2.032   0.093
 1633SOL    HW122041   1.546   1.950   0.045
 1633SOL    HW222042   1.636   2.022   0.142
 1634SOL     OW22043   1.674   4.168   0.555
 1634SOL    HW122044   1.746   4.217   0.594
 1634SOL    HW222045   1.606   4.167   0.623
 1635SOL     OW22046   1.004   0.186   7.091
 1635SOL    HW122047   1.053   0.158   7.014
 1635SOL    HW222048   1.009   0.111   7.151
 1636SOL     OW22049   2.044   3.855   7.404
 1636SOL    HW122050   1.988   3.929   7.380
 1636SOL    HW222051   2.119   3.861   7.344
 1637SOL     OW22052   3.264   3.283   7.556
 1637SOL    HW122053   3.285   3.376   7.542
 1637SOL    HW222054   3.246   3.249   7.468
 1638SOL     OW22055   6.252   5.493   6.950
 1638SOL    HW122056   6.197   5.559   6.992
 1638SOL    HW222057   6.334   5.496   6.999
 1639SOL     OW22058   1.833   4.300   6.690
 1639SOL    HW122059   1.897   4.234   6.662
 1639SOL    HW222060   1.750   4.253   6.692
 1640SOL     OW22061   3.033   4.028   1.057
 1640SOL    HW122062   3.059   4.120   1.047
 1640SOL    HW222063   2.945   4.032   1.094
 1641SOL     OW22064   4.612   1.530   1.254
 1641SOL    HW122065   4.666   1.526   1.175
 1641SOL    HW222066   4.673   1.554   1.323
 1642SOL     OW22067   4.247   2.117   7.267
 1642SOL    HW122068   4.214   2.140   7.354
 1642SOL    HW222069   4.268   2.200   7.226
 1643SOL     OW22070   4.829   3.669   7.639
 1643SOL    HW122071   4.898   3.726   7.673
 1643SOL    HW222072   4.848   3.584   7.678
 1644SOL     OW22073   2.706   2.797   6.307
 1644SOL    HW122074   2.699   2.893   6.308
 1644SOL    HW222075   2.738   2.776   6.220
 1645SOL     OW22076   2.838   5.319   2.111
 1645SOL    HW122077   2.872   5.380   2.046
 1645SOL    HW222078   2.876   5.235   2.087
 1646SOL     OW22079   2.584   4.789   0.008
 1646SOL    HW122080   2.500   4.787   0.053
 1646SOL    HW222081   2.571   4.847  -0.067
 1647SOL     OW22082   2.438   2.355   7.227
 1647SOL    HW122083   2.429   2.260   7.223
 1647SOL    HW222084   2.378   2.388   7.161
 1648SOL     OW22085   0.452   4.993   7.286
 1648SOL    HW122086   0.505   5.028   7.357
 1648SOL    HW222087   0.497   4.912   7.260
 1649SOL     OW22088   1.565   2.465   1.694
 1649SOL    HW122089   1.608   2.422   1.768
 1649SOL    HW222090   1.629   2.529   1.663
 1650SOL     OW22091   4.648   0.079   6.436
 1650SOL    HW122092   4.696   0.109   6.359
 1650SOL    HW222093   4.694  -0.001   6.463
 1651SOL     OW22094   0.300   5.812   0.846
 1651SOL    HW122095   0.240   5.767   0.786
 1651SOL    HW222096   0.381   5.762   0.840
 1652SOL     OW22097   5.580   4.429   0.272
 1652SOL    HW122098   5.565   4.504   0.330
 1652SOL    HW222099   5.570   4.352   0.329
 1653SOL     OW22100   5.839   4.950   0.545
 1653SOL    HW122101   5.778   5.004   0.595
 1653SOL    HW222102   5.911   4.933   0.606
 1654SOL     OW22103   4.376   1.972   7.745
 1654SOL    HW122104   4.333   1.938   7.824
 1654SOL    HW222105   4.329   1.931   7.673
 1655SOL     OW22106   3.463   6.439   1.207
 1655SOL    HW122107   3.400   6.462   1.276
 1655SOL    HW222108   3.486   6.522   1.167
 1656SOL     OW22109   3.871   2.226   0.852
 1656SOL    HW122110   3.904   2.313   0.873
 1656SOL    HW222111   3.776   2.233   0.865
 1657SOL     OW22112   2.477   1.161   6.316
 1657SOL    HW122113   2.489   1.123   6.403
 1657SOL    HW222114   2.480   1.086   6.257
 1658SOL     OW22115   0.499   1.042   0.439
 1658SOL    HW122116   0.470   1.049   0.530
 1658SOL    HW222117   0.496   0.948   0.420
 1659SOL     OW22118   3.176   5.366   5.869
 1659SOL    HW122119   3.195   5.452   5.906
 1659SOL    HW222120   3.256   5.341   5.823
 1660SOL     OW22121   0.650   5.194   1.921
 1660SOL    HW122122   0.745   5.184   1.928
 1660SOL    HW222123   0.636   5.212   1.828
 1661SOL     OW22124   5.638   1.163   6.418
 1661SOL    HW122125   5.574   1.231   6.438
 1661SOL    HW222126   5.589   1.098   6.367
 1662SOL     OW22127   4.167   2.749   6.380
 1662SOL    HW122128   4.240   2.808   6.361
 1662SOL    HW222129   4.207   2.674   6.424
 1663SOL     OW22130   3.643   0.080   7.712
 1663SOL    HW122131   3.602   0.040   7.636
 1663SOL    HW222132   3.639   0.175   7.695
 1664SOL     OW22133   1.110   3.556   0.934
 1664SOL    HW122134   1.195   3.523   0.965
 1664SOL    HW222135   1.132   3.628   0.876
 1665SOL     OW22136   1.926   2.742   0.792
 1665SOL    HW122137   1.867   2.787   0.731
 1665SOL    HW222138   1.889   2.654   0.801
 1666SOL     OW22139   4.459   0.443   1.788
 1666SOL    HW122140   4.444   0.457   1.881
 1666SOL    HW222141   4.546   0.403   1.783
 1667SOL     OW22142   6.198   6.423   0.741
 1667SOL    HW122143   6.112   6.392   0.712
 1667SOL    HW222144   6.203   6.514   0.712
 1668SOL     OW22145   4.904   6.337   0.894
 1668SOL    HW122146   4.930   6.384   0.973
 1668SOL    HW222147   4.814   6.365   0.879
 1669SOL     OW22148   3.591   4.211   7.113
 1669SOL    HW122149   3.622   4.247   7.196
 1669SOL    HW222150   3.664   4.159   7.080
 1670SOL     OW22151   4.389   3.055   5.698
 1670SOL    HW122152   4.467   3.105   5.722
 1670SOL    HW222153   4.317   3.118   5.701
 1671SOL     OW22154   5.831   5.216   7.331
 1671SOL    HW122155   5.800   5.302   7.361
 1671SOL    HW222156   5.836   5.163   7.410
 1672SOL     OW22157   2.883   1.704   1.368
 1672SOL    HW122158   2.926   1.762   1.305
 1672SOL    HW222159   2.928   1.720   1.451
 1673SOL     OW22160   2.961   5.319   6.240
 1673SOL    HW122161   2.917   5.335   6.157
 1673SOL    HW222162   3.045   5.364   6.231
 1674SOL     OW22163   5.201   4.642   1.226
 1674SOL    HW122164   5.210   4.551   1.198
 1674SOL    HW222165   5.215   4.640   1.320
 1675SOL     OW22166   4.573   1.211   6.545
 1675SOL    HW122167   4.655   1.216   6.495
 1675SOL    HW222168   4.534   1.298   6.536
 1676SOL     OW22169   5.017   3.810   2.052
 1676SOL    HW122170   5.053   3.804   2.141
 1676SOL    HW222171   5.047   3.730   2.009
 1677SOL     OW22172   6.113   1.116   6.197
 1677SOL    HW122173   6.192   1.167   6.210
 1677SOL    HW222174   6.097   1.074   6.282
 1678SOL     OW22175   4.132   4.630   6.443
 1678SOL    HW122176   4.137   4.725   6.448
 1678SOL    HW222177   4.095   4.603   6.527
 1679SOL     OW22178   2.074   3.573   7.531
 1679SOL    HW122179   2.041   3.662   7.519
 1679SOL    HW222180   2.036   3.544   7.614
 1680SOL     OW22181   5.632   4.311   7.678
 1680SOL    HW122182   5.675   4.230   7.651
 1680SOL    HW222183   5.607   4.354   7.596
 1681SOL     OW22184   3.614   0.247   6.727
 1681SOL    HW122185   3.572   0.190   6.663
 1681SOL    HW222186   3.703   0.260   6.694
 1682SOL     OW22187   3.095   4.839   5.412
 1682SOL    HW122188   3.069   4.930   5.397
 1682SOL    HW222189   3.140   4.841   5.496
 1683SOL     OW22190   0.866   3.715   7.470
 1683SOL    HW122191   0.825   3.758   7.545
 1683SOL    HW222192   0.802   3.725   7.400
 1684SOL     OW22193   2.149   1.084   6.156
 1684SOL    HW122194   2.090   1.009   6.158
 1684SOL    HW222195   2.133   1.124   6.070
 1685SOL     OW22196   1.628   4.526   1.182
 1685SOL    HW122197   1.676   4.589   1.237
 1685SOL    HW222198   1.695   4.470   1.144
 1686SOL     OW22199   1.657   4.893   7.295
 1686SOL    HW122200   1.650   4.850   7.380
 1686SOL    HW222201   1.707   4.832   7.241
 1687SOL     OW22202   5.448   2.759   6.804
 1687SOL    HW122203   5.413   2.696   6.868
 1687SOL    HW222204   5.540   2.736   6.796
 1688SOL     OW22205   2.092   3.891   6.828
 1688SOL    HW122206   2.161   3.945   6.865
 1688SOL    HW222207   2.139   3.818   6.786
 1689SOL     OW22208   0.566   1.483   1.224
 1689SOL    HW122209   0.475   1.466   1.252
 1689SOL    HW222210   0.620   1.441   1.291
 1690SOL     OW22211   1.736   0.989   0.675
 1690SOL    HW122212   1.771   1.017   0.591
 1690SOL    HW222213   1.674   1.058   0.700
 1691SOL     OW22214   2.474   6.080   0.481
 1691SOL    HW122215   2.513   6.125   0.406
 1691SOL    HW222216   2.549   6.046   0.530
 1692SOL     OW22217   3.436   2.083   6.724
 1692SOL    HW122218   3.502   2.147   6.749
 1692SOL    HW222219   3.486   2.005   6.700
 1693SOL     OW22220   4.392   0.486   6.408
 1693SOL    HW122221   4.471   0.449   6.448
 1693SOL    HW222222   4.345   0.527   6.480
 1694SOL     OW22223   0.378   5.442   6.538
 1694SOL    HW122224   0.353   5.354   6.566
 1694SOL    HW222225   0.335   5.501   6.601
 1695SOL     OW22226   4.478   0.393   0.799
 1695SOL    HW122227   4.386   0.419   0.791
 1695SOL    HW222228   4.496   0.394   0.893
 1696SOL     OW22229   0.452   3.311   2.156
 1696SOL    HW122230   0.547   3.327   2.156
 1696SOL    HW222231   0.438   3.250   2.228
 1697SOL     OW22232   3.468   0.590   2.312
 1697SOL    HW122233   3.388   0.641   2.301
 1697SOL    HW222234   3.537   0.656   2.321
 1698SOL     OW22235   4.016   5.140   7.326
 1698SOL    HW122236   4.012   5.234   7.306
 1698SOL    HW222237   3.928   5.119   7.357
 1699SOL     OW22238   5.773   4.377   1.207
 1699SOL    HW122239   5.764   4.460   1.159
 1699SOL    HW222240   5.701   4.377   1.269
 1700SOL     OW22241   5.969   0.934   6.051
 1700SOL    HW122242   6.033   0.992   6.093
 1700SOL    HW222243   5.888   0.947   6.100
 1701SOL     OW22244   4.114   5.751   0.214
 1701SOL    HW122245   4.038   5.739   0.271
 1701SOL    HW222246   4.187   5.765   0.273
 1702SOL     OW22247   1.006   5.401   1.156
 1702SOL    HW122248   1.032   5.486   1.191
 1702SOL    HW222249   0.938   5.421   1.091
 1703SOL     OW22250   1.891   2.128   6.983
 1703SOL    HW122251   1.813   2.090   7.024
 1703SOL    HW222252   1.943   2.161   7.056
 1704SOL     OW22253   6.331   6.212   5.991
 1704SOL    HW122254   6.393   6.191   6.061
 1704SOL    HW222255   6.334   6.308   5.984
 1705SOL     OW22256   2.650   6.263   1.671
 1705SOL    HW122257   2.585   6.194   1.658
 1705SOL    HW222258   2.706   6.231   1.742
 1706SOL     OW22259   1.231   4.400   5.515
 1706SOL    HW122260   1.152   4.398   5.460
 1706SOL    HW222261   1.244   4.493   5.535
 1707SOL     OW22262   5.411   1.471   1.685
 1707SOL    HW122263   5.396   1.537   1.617
 1707SOL    HW222264   5.331   1.417   1.684
 1708SOL     OW22265   4.544   1.503   5.384
 1708SOL    HW122266   4.540   1.547   5.299
 1708SOL    HW222267   4.635   1.513   5.412
 1709SOL     OW22268   5.129   4.823   0.842
 1709SOL    HW122269   5.124   4.750   0.781
 1709SOL    HW222270   5.193   4.883   0.804
 1710SOL     OW22271   4.180   4.127   1.321
 1710SOL    HW122272   4.142   4.214   1.310
 1710SOL    HW222273   4.253   4.140   1.381
 1711SOL     OW22274   2.348   2.566   7.723
 1711SOL    HW122275   2.266   2.599   7.687
 1711SOL    HW222276   2.355   2.477   7.688
 1712SOL     OW22277   4.975   3.005   0.285
 1712SOL    HW122278   4.914   3.067   0.323
 1712SOL    HW222279   4.942   2.919   0.311
 1713SOL     OW22280   3.019   0.534   0.550
 1713SOL    HW122281   3.111   0.559   0.545
 1713SOL    HW222282   2.997   0.505   0.462
 1714SOL     OW22283   1.406   6.215   0.274
 1714SOL    HW122284   1.482   6.226   0.331
 1714SOL    HW222285   1.349   6.288   0.296
 1715SOL     OW22286   5.995   5.636   6.365
 1715SOL    HW122287   6.055   5.700   6.325
 1715SOL    HW222288   5.909   5.661   6.331
 1716SOL     OW22289   5.826   5.485   0.874
 1716SOL    HW122290   5.837   5.538   0.794
 1716SOL    HW222291   5.764   5.417   0.849
 1717SOL     OW22292   4.270   3.175   6.106
 1717SOL    HW122293   4.339   3.114   6.134
 1717SOL    HW222294   4.306   3.216   6.027
 1718SOL     OW22295   4.621   0.168   0.125
 1718SOL    HW122296   4.612   0.193   0.217
 1718SOL    HW222297   4.567   0.090   0.115
 1719SOL     OW22298   4.241   6.413   7.702
 1719SOL    HW122299   4.227   6.507   7.709
 1719SOL    HW222300   4.236   6.395   7.608
 1720SOL     OW22301   4.533   5.491   1.615
 1720SOL    HW122302   4.592   5.438   1.668
 1720SOL    HW222303   4.569   5.579   1.619
 1721SOL     OW22304   3.878   5.921   1.247
 1721SOL    HW122305   3.907   5.993   1.191
 1721SOL    HW222306   3.894   5.953   1.336
 1722SOL     OW22307   1.263   3.363   2.585
 1722SOL    HW122308   1.175   3.400   2.586
 1722SOL    HW222309   1.309   3.413   2.517
 1723SOL     OW22310   4.207   2.303   1.943
 1723SOL    HW122311   4.207   2.207   1.942
 1723SOL    HW222312   4.116   2.327   1.959
 1724SOL     OW22313   0.504   2.134   0.004
 1724SOL    HW122314   0.533   2.145  -0.086
 1724SOL    HW222315   0.528   2.215   0.048
 1725SOL     OW22316   4.800   1.994   5.958
 1725SOL    HW122317   4.722   1.940   5.971
 1725SOL    HW222318   4.843   1.957   5.881
 1726SOL     OW22319   5.917   1.841   7.211
 1726SOL    HW122320   5.920   1.807   7.301
 1726SOL    HW222321   5.979   1.785   7.163
 1727SOL     OW22322   4.536   1.526   0.866
 1727SOL    HW122323   4.455   1.484   0.896
 1727SOL    HW222324   4.509   1.612   0.835
 1728SOL     OW22325   2.144   2.387   1.798
 1728SOL    HW122326   2.066   2.441   1.783
 1728SOL    HW222327   2.216   2.438   1.761
 1729SOL     OW22328   0.270   4.199   6.663
 1729SOL    HW122329   0.293   4.115   6.704
 1729SOL    HW222330   0.344   4.218   6.605
 1730SOL     OW22331   2.764   4.894   1.151
 1730SOL    HW122332   2.748   4.832   1.223
 1730SOL    HW222333   2.716   4.857   1.077
 1731SOL     OW22334   3.342   0.417   7.257
 1731SOL    HW122335   3.315   0.508   7.248
 1731SOL    HW222336   3.339   0.382   7.168
 1732SOL     OW22337   4.074   0.747   6.150
 1732SOL    HW122338   4.020   0.669   6.153
 1732SOL    HW222339   4.015   0.819   6.174
 1733SOL     OW22340   2.270   2.149   1.174
 1733SOL    HW122341   2.205   2.081   1.194
 1733SOL    HW222342   2.342   2.130   1.233
 1734SOL     OW22343   0.338   3.128   1.148
 1734SOL    HW122344   0.344   3.059   1.214
 1734SOL    HW222345   0.424   3.130   1.107
 1735SOL     OW22346   5.651   3.955   6.153
 1735SOL    HW122347   5.574   3.906   6.124
 1735SOL    HW222348   5.693   3.898   6.217
 1736SOL     OW22349   2.205   4.683   6.042
 1736SOL    HW122350   2.187   4.707   6.133
 1736SOL    HW222351   2.293   4.716   6.025
 1737SOL     OW22352   1.743   4.883   1.548
 1737SOL    HW122353   1.733   4.856   1.456
 1737SOL    HW222354   1.766   4.802   1.594
 1738SOL     OW22355   5.070   2.668   6.923
 1738SOL    HW122356   5.094   2.654   6.832
 1738SOL    HW222357   5.071   2.580   6.962
 1739SOL     OW22358   6.247   5.314   2.323
 1739SOL    HW122359   6.286   5.352   2.402
 1739SOL    HW222360   6.259   5.381   2.256
 1740SOL     OW22361   4.922   4.984   6.471
 1740SOL    HW122362   4.906   4.930   6.394
 1740SOL    HW222363   4.866   4.947   6.539
 1741SOL     OW22364   6.110   2.438   1.326
 1741SOL    HW122365   6.119   2.431   1.421
 1741SOL    HW222366   6.022   2.405   1.307
 1742SOL     OW22367   3.038   4.956   6.943
 1742SOL    HW122368   2.949   4.979   6.917
 1742SOL    HW222369   3.066   5.028   6.999
 1743SOL     OW22370   3.840   2.040   0.065
 1743SOL    HW122371   3.914   2.101   0.055
 1743SOL    HW222372   3.788   2.077   0.136
 1744SOL     OW22373   6.191   2.302   6.431
 1744SOL    HW122374   6.157   2.212   6.436
 1744SOL    HW222375   6.131   2.353   6.486
 1745SOL     OW22376   4.339   5.075   6.599
 1745SOL    HW122377   4.384   5.140   6.654
 1745SOL    HW222378   4.309   5.126   6.523
 1746SOL     OW22379   3.968   3.076   0.713
 1746SOL    HW122380   3.974   3.118   0.627
 1746SOL    HW222381   4.041   3.014   0.714
 1747SOL     OW22382   1.557   5.186   0.161
 1747SOL    HW122383   1.539   5.256   0.225
 1747SOL    HW222384   1.635   5.143   0.196
 1748SOL     OW22385   5.467   5.999   2.047
 1748SOL    HW122386   5.403   6.068   2.061
 1748SOL    HW222387   5.545   6.045   2.014
 1749SOL     OW22388   2.204   0.553   1.456
 1749SOL    HW122389   2.228   0.478   1.402
 1749SOL    HW222390   2.186   0.623   1.393
 1750SOL     OW22391   0.674   1.881   1.341
 1750SOL    HW122392   0.641   1.945   1.405
 1750SOL    HW222393   0.749   1.841   1.384
 1751SOL     OW22394   0.198   3.501   6.988
 1751SOL    HW122395   0.103   3.515   6.983
 1751SOL    HW222396   0.210   3.439   7.060
 1752SOL     OW22397   5.406   0.140   6.781
 1752SOL    HW122398   5.434   0.200   6.850
 1752SOL    HW222399   5.342   0.190   6.730
 1753SOL     OW22400   1.212   3.717   1.263
 1753SOL    HW122401   1.267   3.777   1.311
 1753SOL    HW222402   1.148   3.685   1.327
 1754SOL     OW22403   1.019   4.351   2.195
 1754SOL    HW122404   1.082   4.290   2.232
 1754SOL    HW222405   1.056   4.376   2.110
 1755SOL     OW22406   4.401   3.318   0.116
 1755SOL    HW122407   4.426   3.381   0.185
 1755SOL    HW222408   4.382   3.237   0.164
 1756SOL     OW22409   4.946   5.400   7.228
 1756SOL    HW122410   4.938   5.317   7.181
 1756SOL    HW222411   4.857   5.420   7.258
 1757SOL     OW22412   5.173   1.551   5.672
 1757SOL    HW122413   5.220   1.534   5.754
 1757SOL    HW222414   5.190   1.473   5.618
 1758SOL     OW22415   1.031   1.786   6.589
 1758SOL    HW122416   1.065   1.874   6.573
 1758SOL    HW222417   1.034   1.777   6.685
 1759SOL     OW22418   3.907   2.472   7.572
 1759SOL    HW122419   3.902   2.436   7.484
 1759SOL    HW222420   3.833   2.532   7.578
 1760SOL     OW22421   4.990   4.598   7.273
 1760SOL    HW122422   5.052   4.607   7.345
 1760SOL    HW222423   5.030   4.646   7.201
 1761SOL     OW22424   5.371   4.048   1.537
 1761SOL    HW122425   5.347   3.989   1.609
 1761SOL    HW222426   5.365   4.135   1.575
 1762SOL     OW22427   6.003   0.035   1.469
 1762SOL    HW122428   5.985  -0.013   1.550
 1762SOL    HW222429   6.054  -0.026   1.416
 1763SOL     OW22430   6.370   0.962   0.449
 1763SOL    HW122431   6.385   0.958   0.354
 1763SOL    HW222432   6.309   1.035   0.459
 1764SOL     OW22433   0.441   5.383   1.488
 1764SOL    HW122434   0.444   5.462   1.433
 1764SOL    HW222435   0.355   5.346   1.472
 1765SOL     OW22436   0.473   4.245   1.251
 1765SOL    HW122437   0.435   4.320   1.297
 1765SOL    HW222438   0.556   4.277   1.217
 1766SOL     OW22439   5.060   5.105   1.726
 1766SOL    HW122440   5.096   5.194   1.721
 1766SOL    HW222441   5.073   5.079   1.817
 1767SOL     OW22442   0.323   0.576   0.721
 1767SOL    HW122443   0.275   0.655   0.745
 1767SOL    HW222444   0.260   0.505   0.734
 1768SOL     OW22445   4.489   5.468   2.016
 1768SOL    HW122446   4.527   5.524   2.085
 1768SOL    HW222447   4.398   5.456   2.042
 1769SOL     OW22448   4.775   2.693   0.036
 1769SOL    HW122449   4.828   2.617   0.009
 1769SOL    HW222450   4.809   2.765  -0.017
 1770SOL     OW22451   4.614   2.920   0.479
 1770SOL    HW122452   4.523   2.943   0.497
 1770SOL    HW222453   4.610   2.834   0.437
 1771SOL     OW22454   2.751   1.110   1.011
 1771SOL    HW122455   2.695   1.187   1.019
 1771SOL    HW222456   2.836   1.144   0.982
 1772SOL     OW22457   6.172   2.315   0.039
 1772SOL    HW122458   6.134   2.339  -0.046
 1772SOL    HW222459   6.103   2.266   0.083
 1773SOL     OW22460   0.255   2.933   0.398
 1773SOL    HW122461   0.313   2.857   0.391
 1773SOL    HW222462   0.256   2.955   0.491
 1774SOL     OW22463   2.970   1.628   7.416
 1774SOL    HW122464   3.012   1.702   7.372
 1774SOL    HW222465   2.958   1.563   7.347
 1775SOL     OW22466   4.847   3.535   5.392
 1775SOL    HW122467   4.906   3.595   5.347
 1775SOL    HW222468   4.817   3.584   5.469
 1776SOL     OW22469   2.810   4.736   6.813
 1776SOL    HW122470   2.855   4.690   6.884
 1776SOL    HW222471   2.849   4.701   6.733
 1777SOL     OW22472   5.125   4.555   2.626
 1777SOL    HW122473   5.138   4.470   2.668
 1777SOL    HW222474   5.045   4.544   2.574
 1778SOL     OW22475   5.301   2.727   7.091
 1778SOL    HW122476   5.355   2.656   7.128
 1778SOL    HW222477   5.223   2.683   7.059
 1779SOL     OW22478   1.550   2.881   6.904
 1779SOL    HW122479   1.481   2.820   6.930
 1779SOL    HW222480   1.523   2.964   6.942
 1780SOL     OW22481   4.877   5.260   6.336
 1780SOL    HW122482   4.961   5.299   6.311
 1780SOL    HW222483   4.901   5.184   6.390
 1781SOL     OW22484   2.291   6.429   1.175
 1781SOL    HW122485   2.223   6.441   1.241
 1781SOL    HW222486   2.369   6.468   1.213
 1782SOL     OW22487   5.897   5.963   5.657
 1782SOL    HW122488   5.916   6.055   5.673
 1782SOL    HW222489   5.976   5.917   5.684
 1783SOL     OW22490   5.888   2.103   7.476
 1783SOL    HW122491   5.803   2.132   7.442
 1783SOL    HW222492   5.951   2.123   7.407
 1784SOL     OW22493   2.806   1.181   0.643
 1784SOL    HW122494   2.868   1.205   0.713
 1784SOL    HW222495   2.862   1.163   0.568
 1785SOL     OW22496   0.214   2.924   0.996
 1785SOL    HW122497   0.262   2.990   1.045
 1785SOL    HW222498   0.248   2.841   1.029
 1786SOL     OW22499   5.473   3.782   1.165
 1786SOL    HW122500   5.422   3.851   1.123
 1786SOL    HW222501   5.465   3.800   1.259
 1787SOL     OW22502   3.319   1.848   7.663
 1787SOL    HW122503   3.334   1.902   7.585
 1787SOL    HW222504   3.268   1.905   7.721
 1788SOL     OW22505   5.540   2.599   1.851
 1788SOL    HW122506   5.570   2.571   1.938
 1788SOL    HW222507   5.598   2.672   1.828
 1789SOL     OW22508   1.589   5.567   0.568
 1789SOL    HW122509   1.509   5.563   0.621
 1789SOL    HW222510   1.579   5.496   0.505
 1790SOL     OW22511   5.151   0.517   0.889
 1790SOL    HW122512   5.151   0.538   0.983
 1790SOL    HW222513   5.102   0.589   0.849
 1791SOL     OW22514   1.146   2.012   1.216
 1791SOL    HW122515   1.131   1.951   1.144
 1791SOL    HW222516   1.101   2.092   1.189
 1792SOL     OW22517   3.717   3.903   1.931
 1792SOL    HW122518   3.784   3.905   1.999
 1792SOL    HW222519   3.674   3.988   1.937
 1793SOL     OW22520   2.723   5.286   1.782
 1793SOL    HW122521   2.814   5.299   1.754
 1793SOL    HW222522   2.674   5.354   1.737
 1794SOL     OW22523   0.312   2.344   0.355
 1794SOL    HW122524   0.361   2.352   0.273
 1794SOL    HW222525   0.375   2.369   0.423
 1795SOL     OW22526   2.251   3.171   6.442
 1795SOL    HW122527   2.222   3.208   6.526
 1795SOL    HW222528   2.222   3.080   6.445
 1796SOL     OW22529   3.134   3.788   2.389
 1796SOL    HW122530   3.212   3.842   2.399
 1796SOL    HW222531   3.084   3.804   2.469
 1797SOL     OW22532   2.708   2.547   7.495
 1797SOL    HW122533   2.665   2.468   7.527
 1797SOL    HW222534   2.676   2.617   7.552
 1798SOL     OW22535   4.554   2.596   0.882
 1798SOL    HW122536   4.631   2.652   0.889
 1798SOL    HW222537   4.577   2.518   0.932
 1799SOL     OW22538   0.324   3.912   7.500
 1799SOL    HW122539   0.390   3.963   7.452
 1799SOL    HW222540   0.367   3.830   7.521
 1800SOL     OW22541   3.828   5.645   1.491
 1800SOL    HW122542   3.792   5.604   1.569
 1800SOL    HW222543   3.816   5.580   1.422
 1801SOL     OW22544   0.598   0.376   1.485
 1801SOL    HW122545   0.583   0.402   1.576
 1801SOL    HW222546   0.668   0.311   1.490
 1802SOL     OW22547   2.143   4.593   1.713
 1802SOL    HW122548   2.218   4.538   1.689
 1802SOL    HW222549   2.148   4.667   1.653
 1803SOL     OW22550   4.001   6.142   0.274
 1803SOL    HW122551   3.941   6.068   0.278
 1803SOL    HW222552   3.995   6.173   0.184
 1804SOL     OW22553   2.613   0.155   5.318
 1804SOL    HW122554   2.679   0.089   5.335
 1804SOL    HW222555   2.662   0.233   5.293
 1805SOL     OW22556   5.927   1.034   7.478
 1805SOL    HW122557   5.896   0.984   7.553
 1805SOL    HW222558   5.869   1.008   7.406
 1806SOL     OW22559   6.013   5.915   6.852
 1806SOL    HW122560   6.050   5.962   6.777
 1806SOL    HW222561   6.054   5.955   6.928
 1807SOL     OW22562   6.075   2.779   7.695
 1807SOL    HW122563   6.056   2.765   7.787
 1807SOL    HW222564   6.171   2.772   7.689
 1808SOL     OW22565   2.712   4.517   7.476
 1808SOL    HW122566   2.744   4.586   7.418
 1808SOL    HW222567   2.678   4.450   7.417
 1809SOL     OW22568   1.108   2.855   1.239
 1809SOL    HW122569   1.187   2.888   1.195
 1809SOL    HW222570   1.116   2.887   1.329
 1810SOL     OW22571   4.281   4.801   1.724
 1810SOL    HW122572   4.331   4.881   1.711
 1810SOL    HW222573   4.326   4.735   1.671
 1811SOL     OW22574   4.108   3.765   1.890
 1811SOL    HW122575   4.132   3.690   1.945
 1811SOL    HW222576   4.035   3.806   1.937
 1812SOL     OW22577   1.468   6.374   1.314
 1812SOL    HW122578   1.478   6.322   1.233
 1812SOL    HW222579   1.395   6.332   1.360
 1813SOL     OW22580   5.923   1.712   1.365
 1813SOL    HW122581   5.881   1.667   1.291
 1813SOL    HW222582   6.013   1.725   1.338
 1814SOL     OW22583   0.288   4.194   2.328
 1814SOL    HW122584   0.226   4.267   2.332
 1814SOL    HW222585   0.366   4.226   2.374
 1815SOL     OW22586   3.523   5.277   0.707
 1815SOL    HW122587   3.510   5.370   0.691
 1815SOL    HW222588   3.469   5.258   0.784
 1816SOL     OW22589   1.988   2.425   5.827
 1816SOL    HW122590   1.965   2.491   5.892
 1816SOL    HW222591   1.981   2.342   5.874
 1817SOL     OW22592   5.206   2.172   7.116
 1817SOL    HW122593   5.114   2.187   7.140
 1817SOL    HW222594   5.201   2.125   7.033
 1818SOL     OW22595   4.361   4.462   1.108
 1818SOL    HW122596   4.411   4.399   1.055
 1818SOL    HW222597   4.357   4.541   1.054
 1819SOL     OW22598   2.297   1.980   0.274
 1819SOL    HW122599   2.206   1.993   0.298
 1819SOL    HW222600   2.298   1.988   0.179
 1820SOL     OW22601   1.454   5.117   7.402
 1820SOL    HW122602   1.512   5.042   7.392
 1820SOL    HW222603   1.491   5.167   7.475
 1821SOL     OW22604   3.619   5.522   5.973
 1821SOL    HW122605   3.710   5.492   5.978
 1821SOL    HW222606   3.598   5.549   6.062
 1822SOL     OW22607   4.145   0.323   6.343
 1822SOL    HW122608   4.161   0.336   6.437
 1822SOL    HW222609   4.183   0.237   6.325
 1823SOL     OW22610   2.654   5.413   2.258
 1823SOL    HW122611   2.690   5.499   2.277
 1823SOL    HW222612   2.715   5.375   2.194
 1824SOL     OW22613   2.954   3.794   0.751
 1824SOL    HW122614   2.907   3.739   0.814
 1824SOL    HW222615   2.990   3.732   0.688
 1825SOL     OW22616   4.449   3.898   7.049
 1825SOL    HW122617   4.455   3.848   7.130
 1825SOL    HW222618   4.535   3.937   7.037
 1826SOL     OW22619   2.913   0.360   1.459
 1826SOL    HW122620   2.904   0.452   1.483
 1826SOL    HW222621   2.963   0.321   1.530
 1827SOL     OW22622   3.711   2.710   6.595
 1827SOL    HW122623   3.802   2.737   6.607
 1827SOL    HW222624   3.667   2.788   6.561
 1828SOL     OW22625   3.945   2.555   1.488
 1828SOL    HW122626   3.955   2.494   1.561
 1828SOL    HW222627   3.850   2.564   1.477
 1829SOL     OW22628   0.323   3.325   6.624
 1829SOL    HW122629   0.320   3.240   6.581
 1829SOL    HW222630   0.275   3.383   6.565
 1830SOL     OW22631   3.136   0.917   6.385
 1830SOL    HW122632   3.144   0.846   6.449
 1830SOL    HW222633   3.083   0.882   6.315
 1831SOL     OW22634   6.129   6.456   7.052
 1831SOL    HW122635   6.066   6.514   7.009
 1831SOL    HW222636   6.074   6.396   7.103
 1832SOL     OW22637   2.628   2.247   2.623
 1832SOL    HW122638   2.578   2.280   2.548
 1832SOL    HW222639   2.686   2.320   2.647
 1833SOL     OW22640   2.460   0.022   6.575
 1833SOL    HW122641   2.472   0.095   6.514
 1833SOL    HW222642   2.547  -0.016   6.585
 1834SOL     OW22643   2.833   2.846   5.745
 1834SOL    HW122644   2.751   2.853   5.794
 1834SOL    HW222645   2.897   2.895   5.798
 1835SOL     OW22646   1.775   3.119   1.966
 1835SOL    HW122647   1.746   3.117   2.057
 1835SOL    HW222648   1.871   3.125   1.972
 1836SOL     OW22649   5.777   3.481   1.471
 1836SOL    HW122650   5.809   3.571   1.466
 1836SOL    HW222651   5.778   3.460   1.564
 1837SOL     OW22652   3.211   3.940   0.737
 1837SOL    HW122653   3.122   3.928   0.769
 1837SOL    HW222654   3.202   3.990   0.656
 1838SOL     OW22655   5.541   0.875   7.235
 1838SOL    HW122656   5.515   0.945   7.295
 1838SOL    HW222657   5.479   0.804   7.252
 1839SOL     OW22658   2.358   0.464   7.235
 1839SOL    HW122659   2.341   0.380   7.194
 1839SOL    HW222660   2.320   0.528   7.175
 1840SOL     OW22661   1.681   3.884   0.662
 1840SOL    HW122662   1.723   3.896   0.747
 1840SOL    HW222663   1.714   3.955   0.608
 1841SOL     OW22664   1.046   4.436   1.422
 1841SOL    HW122665   1.074   4.494   1.493
 1841SOL    HW222666   1.100   4.358   1.431
 1842SOL     OW22667   1.826   1.930   7.287
 1842SOL    HW122668   1.744   1.907   7.332
 1842SOL    HW222669   1.860   2.004   7.338
 1843SOL     OW22670   6.341   5.631   7.521
 1843SOL    HW122671   6.301   5.679   7.593
 1843SOL    HW222672   6.296   5.546   7.521
 1844SOL     OW22673   2.666   3.779   7.654
 1844SOL    HW122674   2.645   3.694   7.617
 1844SOL    HW222675   2.663   3.765   7.749
 1845SOL     OW22676   5.927   3.170   0.893
 1845SOL    HW122677   5.856   3.157   0.831
 1845SOL    HW222678   5.886   3.163   0.979
 1846SOL     OW22679   4.083   0.899   0.732
 1846SOL    HW122680   4.009   0.841   0.713
 1846SOL    HW222681   4.125   0.861   0.809
 1847SOL     OW22682   1.419   2.950   1.352
 1847SOL    HW122683   1.483   2.881   1.372
 1847SOL    HW222684   1.409   2.946   1.257
 1848SOL     OW22685   1.854   4.739   0.487
 1848SOL    HW122686   1.770   4.694   0.496
 1848SOL    HW222687   1.902   4.689   0.421
 1849SOL     OW22688   3.144   0.294   6.271
 1849SOL    HW122689   3.065   0.290   6.216
 1849SOL    HW222690   3.185   0.208   6.259
 1850SOL     OW22691   1.714   3.811   6.161
 1850SOL    HW122692   1.659   3.823   6.238
 1850SOL    HW222693   1.789   3.868   6.177
 1851SOL     OW22694   3.465   5.297   5.897
 1851SOL    HW122695   3.537   5.257   5.847
 1851SOL    HW222696   3.504   5.373   5.939
 1852SOL     OW22697   4.533   3.091   5.995
 1852SOL    HW122698   4.530   3.140   5.913
 1852SOL    HW222699   4.615   3.118   6.036
 1853SOL     OW22700   1.405   4.332   0.334
 1853SOL    HW122701   1.456   4.252   0.343
 1853SOL    HW222702   1.351   4.317   0.256
 1854SOL     OW22703   4.514   0.646   6.689
 1854SOL    HW122704   4.580   0.680   6.628
 1854SOL    HW222705   4.430   0.668   6.649
 1855SOL     OW22706   3.716   6.320   7.223
 1855SOL    HW122707   3.624   6.327   7.246
 1855SOL    HW222708   3.738   6.405   7.185
 1856SOL     OW22709   2.960   0.415   0.231
 1856SOL    HW122710   3.026   0.470   0.189
 1856SOL    HW222711   2.898   0.394   0.161
 1857SOL     OW22712   3.513   3.513   0.184
 1857SOL    HW122713   3.600   3.479   0.163
 1857SOL    HW222714   3.477   3.452   0.247
 1858SOL     OW22715   3.974   5.914   6.830
 1858SOL    HW122716   4.049   5.919   6.769
 1858SOL    HW222717   3.905   5.873   6.779
 1859SOL     OW22718   1.528   0.469   0.867
 1859SOL    HW122719   1.496   0.453   0.778
 1859SOL    HW222720   1.507   0.560   0.884
 1860SOL     OW22721   2.684   3.165   0.009
 1860SOL    HW122722   2.732   3.153   0.091
 1860SOL    HW222723   2.595   3.188   0.037
 1861SOL     OW22724   6.111   3.029   2.191
 1861SOL    HW122725   6.030   3.001   2.148
 1861SOL    HW222726   6.181   2.996   2.134
 1862SOL     OW22727   1.605   5.795   2.147
 1862SOL    HW122728   1.530   5.835   2.103
 1862SOL    HW222729   1.614   5.843   2.229
 1863SOL     OW22730   2.044   1.009   0.705
 1863SOL    HW122731   2.052   1.066   0.628
 1863SOL    HW222732   2.004   1.065   0.772
 1864SOL     OW22733   4.044   3.439   6.777
 1864SOL    HW122734   4.050   3.344   6.768
 1864SOL    HW222735   4.072   3.457   6.867
 1865SOL     OW22736   2.254   6.368   6.470
 1865SOL    HW122737   2.327   6.411   6.515
 1865SOL    HW222738   2.287   6.352   6.382
 1866SOL     OW22739   0.165   0.796   0.793
 1866SOL    HW122740   0.156   0.886   0.761
 1866SOL    HW222741   0.079   0.773   0.826
 1867SOL     OW22742   0.071   4.150   7.219
 1867SOL    HW122743   0.133   4.128   7.150
 1867SOL    HW222744   0.029   4.231   7.189
 1868SOL     OW22745   2.277   3.252   0.882
 1868SOL    HW122746   2.315   3.211   0.804
 1868SOL    HW222747   2.187   3.274   0.857
 1869SOL     OW22748   2.322   4.735   0.104
 1869SOL    HW122749   2.251   4.774   0.154
 1869SOL    HW222750   2.278   4.678   0.040
 1870SOL     OW22751   2.514   4.496   7.067
 1870SOL    HW122752   2.451   4.509   7.137
 1870SOL    HW222753   2.483   4.553   6.996
 1871SOL     OW22754   4.817   3.214   6.070
 1871SOL    HW122755   4.788   3.259   6.149
 1871SOL    HW222756   4.913   3.217   6.074
 1872SOL     OW22757   5.529   1.958   7.720
 1872SOL    HW122758   5.433   1.959   7.714
 1872SOL    HW222759   5.559   1.962   7.629
 1873SOL     OW22760   1.397   5.215   2.113
 1873SOL    HW122761   1.365   5.125   2.102
 1873SOL    HW222762   1.349   5.265   2.047
 1874SOL     OW22763   0.834   2.899   1.042
 1874SOL    HW122764   0.892   2.936   1.109
 1874SOL    HW222765   0.886   2.903   0.962
 1875SOL     OW22766   0.750   3.009   2.027
 1875SOL    HW122767   0.657   3.030   2.013
 1875SOL    HW222768   0.753   2.972   2.115
 1876SOL     OW22769   4.434   3.331   6.309
 1876SOL    HW122770   4.388   3.272   6.369
 1876SOL    HW222771   4.397   3.311   6.223
 1877SOL     OW22772   2.051   3.083   1.931
 1877SOL    HW122773   2.025   3.012   1.872
 1877SOL    HW222774   2.113   3.043   1.992
 1878SOL     OW22775   5.202   4.120   2.356
 1878SOL    HW122776   5.165   4.208   2.366
 1878SOL    HW222777   5.133   4.062   2.390
 1879SOL     OW22778   5.974   5.278   2.022
 1879SOL    HW122779   5.895   5.331   2.033
 1879SOL    HW222780   6.039   5.339   1.988
 1880SOL     OW22781   5.681   4.011   6.920
 1880SOL    HW122782   5.722   4.018   7.006
 1880SOL    HW222783   5.623   3.936   6.928
 1881SOL     OW22784   0.613   1.790   5.516
 1881SOL    HW122785   0.620   1.883   5.537
 1881SOL    HW222786   0.600   1.747   5.601
 1882SOL     OW22787   2.704   4.833   0.267
 1882SOL    HW122788   2.617   4.819   0.303
 1882SOL    HW222789   2.691   4.837   0.172
 1883SOL     OW22790   3.078   5.971   0.251
 1883SOL    HW122791   3.160   6.020   0.256
 1883SOL    HW222792   3.082   5.911   0.325
 1884SOL     OW22793   0.877   0.395   6.775
 1884SOL    HW122794   0.839   0.455   6.711
 1884SOL    HW222795   0.934   0.451   6.829
 1885SOL     OW22796   5.503   6.181   1.048
 1885SOL    HW122797   5.545   6.231   1.118
 1885SOL    HW222798   5.420   6.225   1.033
 1886SOL     OW22799   2.871   3.531   0.445
 1886SOL    HW122800   2.802   3.595   0.429
 1886SOL    HW222801   2.940   3.580   0.489
 1887SOL     OW22802   2.525   6.364   2.508
 1887SOL    HW122803   2.616   6.366   2.479
 1887SOL    HW222804   2.517   6.284   2.560
 1888SOL     OW22805   3.982   5.748   0.925
 1888SOL    HW122806   4.061   5.755   0.978
 1888SOL    HW222807   3.968   5.836   0.890
 1889SOL     OW22808   2.666   4.017   0.927
 1889SOL    HW122809   2.715   3.945   0.888
 1889SOL    HW222810   2.703   4.027   1.015
 1890SOL     OW22811   1.433   4.909   1.325
 1890SOL    HW122812   1.374   4.976   1.359
 1890SOL    HW222813   1.394   4.826   1.352
 1891SOL     OW22814   2.406   2.548   0.252
 1891SOL    HW122815   2.346   2.600   0.305
 1891SOL    HW222816   2.360   2.535   0.169
 1892SOL     OW22817   0.717   2.443   1.739
 1892SOL    HW122818   0.726   2.364   1.793
 1892SOL    HW222819   0.781   2.432   1.669
 1893SOL     OW22820   4.345   6.073   5.710
 1893SOL    HW122821   4.259   6.039   5.687
 1893SOL    HW222822   4.406   6.004   5.685
 1894SOL     OW22823   0.262   5.138   6.148
 1894SOL    HW122824   0.348   5.099   6.135
 1894SOL    HW222825   0.234   5.164   6.060
 1895SOL     OW22826   5.927   4.001   1.849
 1895SOL    HW122827   5.865   4.013   1.776
 1895SOL    HW222828   5.970   4.086   1.859
 1896SOL     OW22829   5.139   1.707   1.060
 1896SOL    HW122830   5.140   1.640   1.128
 1896SOL    HW222831   5.134   1.790   1.107
 1897SOL     OW22832   6.409   4.320   0.652
 1897SOL    HW122833   6.437   4.397   0.603
 1897SOL    HW222834   6.480   4.303   0.714
 1898SOL     OW22835   2.951   2.767   6.469
 1898SOL    HW122836   2.998   2.803   6.394
 1898SOL    HW222837   2.885   2.833   6.491
 1899SOL     OW22838   1.054   3.158   1.046
 1899SOL    HW122839   1.147   3.181   1.042
 1899SOL    HW222840   1.008   3.242   1.041
 1900SOL     OW22841   6.115   2.052   6.507
 1900SOL    HW122842   6.179   2.024   6.572
 1900SOL    HW222843   6.032   2.015   6.538
 1901SOL     OW22844   5.069   3.669   5.330
 1901SOL    HW122845   5.138   3.634   5.274
 1901SOL    HW222846   5.107   3.749   5.367
 1902SOL     OW22847   2.317   0.169   6.764
 1902SOL    HW122848   2.357   0.251   6.735
 1902SOL    HW222849   2.360   0.101   6.711
 1903SOL     OW22850   4.116   6.341   7.134
 1903SOL    HW122851   4.057   6.363   7.062
 1903SOL    HW222852   4.064   6.286   7.192
 1904SOL     OW22853   2.582   3.052   1.152
 1904SOL    HW122854   2.591   2.990   1.080
 1904SOL    HW222855   2.489   3.075   1.154
 1905SOL     OW22856   2.655   0.809   6.056
 1905SOL    HW122857   2.563   0.802   6.035
 1905SOL    HW222858   2.698   0.835   5.975
 1906SOL     OW22859   3.266   4.508   0.559
 1906SOL    HW122860   3.230   4.596   0.573
 1906SOL    HW222861   3.193   4.449   0.579
 1907SOL     OW22862   6.012   5.361   6.385
 1907SOL    HW122863   5.998   5.342   6.477
 1907SOL    HW222864   6.020   5.456   6.380
 1908SOL     OW22865   2.218   0.296   1.368
 1908SOL    HW122866   2.314   0.296   1.359
 1908SOL    HW222867   2.195   0.207   1.392
 1909SOL     OW22868   4.241   6.220   1.451
 1909SOL    HW122869   4.291   6.170   1.515
 1909SOL    HW222870   4.155   6.179   1.450
 1910SOL     OW22871   6.247   6.068   6.393
 1910SOL    HW122872   6.304   5.993   6.413
 1910SOL    HW222873   6.180   6.033   6.335
 1911SOL     OW22874   4.325   0.246   0.168
 1911SOL    HW122875   4.347   0.218   0.079
 1911SOL    HW222876   4.351   0.339   0.171
 1912SOL     OW22877   6.353   2.872   6.663
 1912SOL    HW122878   6.284   2.845   6.723
 1912SOL    HW222879   6.360   2.967   6.674
 1913SOL     OW22880   4.025   0.014   5.951
 1913SOL    HW122881   4.104   0.047   5.993
 1913SOL    HW222882   4.056  -0.037   5.876
 1914SOL     OW22883   1.785   3.880   1.638
 1914SOL    HW122884   1.723   3.851   1.571
 1914SOL    HW222885   1.828   3.800   1.667
 1915SOL     OW22886   0.867   2.078   7.359
 1915SOL    HW122887   0.853   2.041   7.272
 1915SOL    HW222888   0.875   2.002   7.416
 1916SOL     OW22889   6.323   5.971   1.048
 1916SOL    HW122890   6.333   6.065   1.039
 1916SOL    HW222891   6.412   5.936   1.037
 1917SOL     OW22892   3.565   1.468   0.959
 1917SOL    HW122893   3.631   1.477   1.027
 1917SOL    HW222894   3.500   1.536   0.979
 1918SOL     OW22895   2.409   1.224   0.758
 1918SOL    HW122896   2.422   1.314   0.788
 1918SOL    HW222897   2.422   1.171   0.836
 1919SOL     OW22898   5.747   1.034   1.845
 1919SOL    HW122899   5.732   1.124   1.876
 1919SOL    HW222900   5.834   1.036   1.806
 1920SOL     OW22901   1.830   2.415   7.470
 1920SOL    HW122902   1.755   2.392   7.524
 1920SOL    HW222903   1.820   2.509   7.453
 1921SOL     OW22904   5.814   3.610   0.890
 1921SOL    HW122905   5.898   3.652   0.911
 1921SOL    HW222906   5.763   3.618   0.971
 1922SOL     OW22907   4.627   4.245   6.705
 1922SOL    HW122908   4.607   4.327   6.660
 1922SOL    HW222909   4.543   4.198   6.708
 1923SOL     OW22910   1.005   1.062   0.780
 1923SOL    HW122911   1.047   1.115   0.848
 1923SOL    HW222912   1.056   1.077   0.701
 1924SOL     OW22913   4.932   2.243   7.384
 1924SOL    HW122914   4.856   2.293   7.352
 1924SOL    HW222915   5.006   2.303   7.375
 1925SOL     OW22916   5.009   5.286   5.913
 1925SOL    HW122917   5.071   5.220   5.883
 1925SOL    HW222918   5.055   5.369   5.903
 1926SOL     OW22919   5.632   0.757   1.567
 1926SOL    HW122920   5.679   0.841   1.572
 1926SOL    HW222921   5.644   0.718   1.653
 1927SOL     OW22922   4.769   3.307   5.493
 1927SOL    HW122923   4.798   3.386   5.448
 1927SOL    HW222924   4.831   3.296   5.565
 1928SOL     OW22925   6.454   6.319   1.486
 1928SOL    HW122926   6.505   6.258   1.432
 1928SOL    HW222927   6.378   6.340   1.432
 1929SOL     OW22928   0.985   3.598   6.432
 1929SOL    HW122929   1.003   3.679   6.480
 1929SOL    HW222930   1.020   3.613   6.344
 1930SOL     OW22931   1.006   4.615   5.389
 1930SOL    HW122932   1.089   4.621   5.436
 1930SOL    HW222933   0.977   4.525   5.403
 1931SOL     OW22934   2.425   3.712   1.145
 1931SOL    HW122935   2.396   3.635   1.095
 1931SOL    HW222936   2.469   3.675   1.221
 1932SOL     OW22937   5.268   3.757   0.142
 1932SOL    HW122938   5.315   3.697   0.201
 1932SOL    HW222939   5.322   3.836   0.140
 1933SOL     OW22940   2.101   0.013   0.217
 1933SOL    HW122941   2.040   0.041   0.286
 1933SOL    HW222942   2.062  -0.067   0.181
 1934SOL     OW22943   6.117   4.170   5.869
 1934SOL    HW122944   6.197   4.119   5.859
 1934SOL    HW222945   6.051   4.123   5.819
 1935SOL     OW22946   2.967   0.778   7.524
 1935SOL    HW122947   3.034   0.822   7.577
 1935SOL    HW222948   2.964   0.688   7.558
 1936SOL     OW22949   5.674   4.932   1.262
 1936SOL    HW122950   5.712   4.916   1.349
 1936SOL    HW222951   5.695   5.024   1.243
 1937SOL     OW22952   1.105   3.582   1.949
 1937SOL    HW122953   1.152   3.569   2.031
 1937SOL    HW222954   1.098   3.677   1.939
 1938SOL     OW22955   3.897   3.976   1.371
 1938SOL    HW122956   3.949   4.056   1.361
 1938SOL    HW222957   3.962   3.906   1.375
 1939SOL     OW22958   1.385   1.116   1.411
 1939SOL    HW122959   1.370   1.086   1.501
 1939SOL    HW222960   1.322   1.068   1.359
 1940SOL     OW22961   3.387   5.234   0.940
 1940SOL    HW122962   3.358   5.320   0.971
 1940SOL    HW222963   3.313   5.177   0.956
 1941SOL     OW22964   2.123   5.440   1.282
 1941SOL    HW122965   2.154   5.530   1.274
 1941SOL    HW222966   2.090   5.418   1.194
 1942SOL     OW22967   5.521   3.024   6.814
 1942SOL    HW122968   5.528   2.931   6.796
 1942SOL    HW222969   5.494   3.030   6.906
 1943SOL     OW22970   1.356   2.634   0.936
 1943SOL    HW122971   1.273   2.681   0.946
 1943SOL    HW222972   1.329   2.544   0.918
 1944SOL     OW22973   3.769   0.935   6.334
 1944SOL    HW122974   3.784   1.011   6.277
 1944SOL    HW222975   3.683   0.903   6.307
 1945SOL     OW22976   5.312   0.269   7.137
 1945SOL    HW122977   5.372   0.204   7.174
 1945SOL    HW222978   5.227   0.226   7.138
 1946SOL     OW22979   1.628   1.960   2.231
 1946SOL    HW122980   1.564   1.937   2.299
 1946SOL    HW222981   1.710   1.920   2.261
 1947SOL     OW22982   4.338   3.227   0.723
 1947SOL    HW122983   4.263   3.210   0.780
 1947SOL    HW222984   4.400   3.275   0.778
 1948SOL     OW22985   6.113   5.992   6.610
 1948SOL    HW122986   6.147   5.903   6.613
 1948SOL    HW222987   6.121   6.018   6.518
 1949SOL     OW22988   2.921   6.439   6.930
 1949SOL    HW122989   2.930   6.347   6.906
 1949SOL    HW222990   2.884   6.437   7.018
 1950SOL     OW22991   0.991   0.045   0.091
 1950SOL    HW122992   0.956  -0.043   0.096
 1950SOL    HW222993   0.986   0.067  -0.002
 1951SOL     OW22994   1.231   6.315   1.425
 1951SOL    HW122995   1.158   6.279   1.374
 1951SOL    HW222996   1.196   6.396   1.461
 1952SOL     OW22997   1.309   2.134   0.632
 1952SOL    HW122998   1.368   2.162   0.702
 1952SOL    HW222999   1.348   2.170   0.552
 1953SOL     OW23000   5.068   6.157   1.284
 1953SOL    HW123001   5.052   6.137   1.191
 1953SOL    HW223002   5.009   6.099   1.331
 1954SOL     OW23003   6.240   1.898   5.809
 1954SOL    HW123004   6.241   1.863   5.720
 1954SOL    HW223005   6.198   1.984   5.800
 1955SOL     OW23006   5.046   4.870   7.642
 1955SOL    HW123007   4.981   4.860   7.572
 1955SOL    HW223008   5.026   4.955   7.681
 1956SOL     OW23009   0.253   6.402   0.852
 1956SOL    HW123010   0.308   6.479   0.860
 1956SOL    HW223011   0.305   6.340   0.800
 1957SOL     OW23012   2.959   6.179   0.565
 1957SOL    HW123013   2.981   6.114   0.631
 1957SOL    HW223014   3.038   6.235   0.560
 1958SOL     OW23015   2.881   1.833   6.103
 1958SOL    HW123016   2.877   1.792   6.017
 1958SOL    HW223017   2.963   1.883   6.102
 1959SOL     OW23018   3.850   3.647   1.373
 1959SOL    HW123019   3.806   3.682   1.296
 1959SOL    HW223020   3.779   3.623   1.432
 1960SOL     OW23021   5.880   2.491   0.652
 1960SOL    HW123022   5.825   2.414   0.640
 1960SOL    HW223023   5.819   2.564   0.658
 1961SOL     OW23024   2.459   0.732   6.764
 1961SOL    HW123025   2.420   0.768   6.843
 1961SOL    HW223026   2.553   0.737   6.778
 1962SOL     OW23027   0.502   1.601   7.568
 1962SOL    HW123028   0.531   1.615   7.478
 1962SOL    HW223029   0.439   1.671   7.585
 1963SOL     OW23030   5.458   0.920   0.691
 1963SOL    HW123031   5.487   0.969   0.614
 1963SOL    HW223032   5.518   0.846   0.698
 1964SOL     OW23033   4.076   1.295   0.751
 1964SOL    HW123034   4.002   1.240   0.726
 1964SOL    HW223035   4.125   1.308   0.670
 1965SOL     OW23036   0.361   0.049   7.272
 1965SOL    HW123037   0.269   0.069   7.290
 1965SOL    HW223038   0.400   0.039   7.359
 1966SOL     OW23039   5.200   2.832   6.675
 1966SOL    HW123040   5.284   2.818   6.717
 1966SOL    HW223041   5.142   2.861   6.745
 1967SOL     OW23042   1.226   2.001   6.786
 1967SOL    HW123043   1.298   1.942   6.768
 1967SOL    HW223044   1.233   2.019   6.880
 1968SOL     OW23045   0.365   3.578   7.294
 1968SOL    HW123046   0.394   3.641   7.360
 1968SOL    HW223047   0.274   3.602   7.277
 1969SOL     OW23048   6.093   4.561   2.595
 1969SOL    HW123049   6.091   4.513   2.512
 1969SOL    HW223050   6.002   4.563   2.624
 1970SOL     OW23051   3.082   3.840   2.669
 1970SOL    HW123052   3.084   3.745   2.661
 1970SOL    HW223053   2.994   3.860   2.701
 1971SOL     OW23054   2.519   5.556   0.889
 1971SOL    HW123055   2.579   5.482   0.894
 1971SOL    HW223056   2.524   5.584   0.798
 1972SOL     OW23057   5.171   6.454   1.272
 1972SOL    HW123058   5.254   6.462   1.319
 1972SOL    HW223059   5.135   6.370   1.301
 1973SOL     OW23060   3.305   0.907   7.438
 1973SOL    HW123061   3.346   0.970   7.379
 1973SOL    HW223062   3.370   0.837   7.447
 1974SOL     OW23063   2.455   2.347   5.799
 1974SOL    HW123064   2.406   2.421   5.763
 1974SOL    HW223065   2.541   2.352   5.756
 1975SOL     OW23066   5.893   4.683   6.062
 1975SOL    HW123067   5.937   4.649   5.984
 1975SOL    HW223068   5.893   4.778   6.050
 1976SOL     OW23069   5.803   1.859   0.956
 1976SOL    HW123070   5.852   1.921   1.009
 1976SOL    HW223071   5.851   1.855   0.873
 1977SOL     OW23072   4.594   2.395   1.100
 1977SOL    HW123073   4.635   2.385   1.185
 1977SOL    HW223074   4.667   2.400   1.038
 1978SOL     OW23075   5.912   4.715   0.000
 1978SOL    HW123076   5.871   4.738   0.084
 1978SOL    HW223077   5.987   4.775  -0.006
 1979SOL     OW23078   2.968   3.346   0.721
 1979SOL    HW123079   2.895   3.334   0.783
 1979SOL    HW223080   3.046   3.341   0.776
 1980SOL     OW23081   0.676   4.817   1.082
 1980SOL    HW123082   0.660   4.762   1.005
 1980SOL    HW223083   0.687   4.905   1.047
 1981SOL     OW23084   2.809   5.229   6.789
 1981SOL    HW123085   2.734   5.286   6.802
 1981SOL    HW223086   2.778   5.142   6.816
 1982SOL     OW23087   4.800   0.761   0.993
 1982SOL    HW123088   4.844   0.802   0.919
 1982SOL    HW223089   4.711   0.796   0.991
 1983SOL     OW23090   0.412   5.924   0.017
 1983SOL    HW123091   0.451   6.010   0.033
 1983SOL    HW223092   0.320   5.943  -0.004
 1984SOL     OW23093   6.051   4.384   1.468
 1984SOL    HW123094   6.099   4.456   1.508
 1984SOL    HW223095   5.960   4.413   1.466
 1985SOL     OW23096   5.346   2.842   5.592
 1985SOL    HW123097   5.339   2.937   5.597
 1985SOL    HW223098   5.396   2.817   5.670
 1986SOL     OW23099   3.149   1.583   2.546
 1986SOL    HW123100   3.225   1.616   2.497
 1986SOL    HW223101   3.132   1.649   2.612
 1987SOL     OW23102   1.474   4.859   6.112
 1987SOL    HW123103   1.505   4.900   6.031
 1987SOL    HW223104   1.381   4.841   6.096
 1988SOL     OW23105   4.828   1.191   7.340
 1988SOL    HW123106   4.789   1.104   7.349
 1988SOL    HW223107   4.812   1.234   7.424
 1989SOL     OW23108   1.876   4.758   1.782
 1989SOL    HW123109   1.806   4.718   1.833
 1989SOL    HW223110   1.956   4.731   1.827
 1990SOL     OW23111   1.247   1.899   6.131
 1990SOL    HW123112   1.164   1.904   6.083
 1990SOL    HW223113   1.303   1.965   6.089
 1991SOL     OW23114   1.525   5.225   0.558
 1991SOL    HW123115   1.489   5.140   0.532
 1991SOL    HW223116   1.607   5.203   0.601
 1992SOL     OW23117   2.716   0.827   0.929
 1992SOL    HW123118   2.752   0.822   0.841
 1992SOL    HW223119   2.701   0.921   0.944
 1993SOL     OW23120   3.584   0.203   0.772
 1993SOL    HW123121   3.675   0.172   0.772
 1993SOL    HW223122   3.591   0.298   0.781
 1994SOL     OW23123   0.274   0.609   6.331
 1994SOL    HW123124   0.324   0.689   6.346
 1994SOL    HW223125   0.248   0.614   6.239
 1995SOL     OW23126   6.033   6.254   0.943
 1995SOL    HW123127   5.997   6.254   0.854
 1995SOL    HW223128   6.122   6.285   0.932
 1996SOL     OW23129   4.011   3.123   0.422
 1996SOL    HW123130   4.060   3.201   0.398
 1996SOL    HW223131   4.039   3.056   0.360
 1997SOL     OW23132   4.335   5.525   1.330
 1997SOL    HW123133   4.321   5.613   1.364
 1997SOL    HW223134   4.425   5.504   1.354
 1998SOL     OW23135   3.653   1.993   1.606
 1998SOL    HW123136   3.580   2.053   1.619
 1998SOL    HW223137   3.731   2.049   1.609
 1999SOL     OW23138   5.055   4.403   1.533
 1999SOL    HW123139   5.074   4.342   1.605
 1999SOL    HW223140   5.140   4.440   1.511
 2000SOL     OW23141   4.347   4.404   1.765
 2000SOL    HW123142   4.390   4.479   1.724
 2000SOL    HW223143   4.419   4.345   1.788
 2001SOL     OW23144   3.999   2.413   1.263
 2001SOL    HW123145   3.925   2.355   1.283
 2001SOL    HW223146   3.999   2.476   1.335
 2002SOL     OW23147   5.444   3.588   6.358
 2002SOL    HW123148   5.407   3.502   6.379
 2002SOL    HW223149   5.457   3.631   6.442
 2003SOL     OW23150   0.109   5.549   7.019
 2003SOL    HW123151   0.165   5.618   7.055
 2003SOL    HW223152   0.043   5.534   7.086
 2004SOL     OW23153   3.844   1.656   7.326
 2004SOL    HW123154   3.802   1.602   7.394
 2004SOL    HW223155   3.933   1.669   7.359
 2005SOL     OW23156   1.703   1.990   0.756
 2005SOL    HW123157   1.675   1.908   0.716
 2005SOL    HW223158   1.634   2.012   0.818
 2006SOL     OW23159   2.198   0.124   7.198
 2006SOL    HW123160   2.262   0.109   7.268
 2006SOL    HW223161   2.228   0.069   7.126
 2007SOL     OW23162   0.804   3.410   6.702
 2007SOL    HW123163   0.807   3.314   6.707
 2007SOL    HW223164   0.896   3.437   6.709
 2008SOL     OW23165   0.755   0.038   0.486
 2008SOL    HW123166   0.848   0.015   0.483
 2008SOL    HW223167   0.731   0.029   0.579
 2009SOL     OW23168   3.262   3.559   2.244
 2009SOL    HW123169   3.332   3.593   2.188
 2009SOL    HW223170   3.231   3.635   2.292
 2010SOL     OW23171   3.579   2.647   1.145
 2010SOL    HW123172   3.605   2.628   1.055
 2010SOL    HW223173   3.562   2.561   1.183
 2011SOL     OW23174   6.464   2.988   5.335
 2011SOL    HW123175   6.370   2.980   5.320
 2011SOL    HW223176   6.496   2.898   5.330
 2012SOL     OW23177   4.000   2.398   1.703
 2012SOL    HW123178   3.972   2.413   1.793
 2012SOL    HW223179   4.040   2.311   1.704
 2013SOL     OW23180   3.511   1.090   1.904
 2013SOL    HW123181   3.485   1.174   1.942
 2013SOL    HW223182   3.464   1.025   1.956
 2014SOL     OW23183   4.834   4.462   2.807
 2014SOL    HW123184   4.806   4.371   2.814
 2014SOL    HW223185   4.774   4.500   2.743
 2015SOL     OW23186   4.086   6.037   7.477
 2015SOL    HW123187   4.098   6.035   7.572
 2015SOL    HW223188   4.025   6.109   7.463
 2016SOL     OW23189   0.553   3.998   7.346
 2016SOL    HW123190   0.528   3.965   7.259
 2016SOL    HW223191   0.636   3.954   7.364
 2017SOL     OW23192   3.852   5.737   6.656
 2017SOL    HW123193   3.762   5.704   6.660
 2017SOL    HW223194   3.901   5.668   6.610
 2018SOL     OW23195   4.844   1.529   5.973
 2018SOL    HW123196   4.803   1.446   5.996
 2018SOL    HW223197   4.938   1.511   5.981
 2019SOL     OW23198   4.689   2.690   5.433
 2019SOL    HW123199   4.620   2.755   5.444
 2019SOL    HW223200   4.644   2.613   5.399
 2020SOL     OW23201   5.731   1.212   0.215
 2020SOL    HW123202   5.772   1.205   0.128
 2020SOL    HW223203   5.672   1.287   0.208
 2021SOL     OW23204   3.697   3.805   6.295
 2021SOL    HW123205   3.710   3.769   6.383
 2021SOL    HW223206   3.670   3.895   6.309
 2022SOL     OW23207   2.769   5.355   7.658
 2022SOL    HW123208   2.765   5.448   7.678
 2022SOL    HW223209   2.680   5.323   7.674
 2023SOL     OW23210   1.171   5.227   6.934
 2023SOL    HW123211   1.229   5.249   6.861
 2023SOL    HW223212   1.151   5.312   6.974
 2024SOL     OW23213   1.295   1.051   6.138
 2024SOL    HW123214   1.298   0.962   6.174
 2024SOL    HW223215   1.305   1.038   6.043
 2025SOL     OW23216   4.242   0.100   5.295
 2025SOL    HW123217   4.253   0.125   5.386
 2025SOL    HW223218   4.289   0.167   5.246
 2026SOL     OW23219   3.815   1.448   5.265
 2026SOL    HW123220   3.744   1.445   5.330
 2026SOL    HW223221   3.819   1.358   5.231
 2027SOL     OW23222   6.455   4.903   2.209
 2027SOL    HW123223   6.545   4.892   2.180
 2027SOL    HW223224   6.406   4.923   2.129
 2028SOL     OW23225   4.381   1.397   6.969
 2028SOL    HW123226   4.439   1.463   6.932
 2028SOL    HW223227   4.370   1.333   6.899
 2029SOL     OW23228   0.170   3.783   2.255
 2029SOL    HW123229   0.136   3.698   2.283
 2029SOL    HW223230   0.249   3.795   2.307
 2030SOL     OW23231   2.747   1.690   1.796
 2030SOL    HW123232   2.694   1.676   1.874
 2030SOL    HW223233   2.684   1.705   1.726
 2031SOL     OW23234   2.879   6.171   6.240
 2031SOL    HW123235   2.818   6.130   6.179
 2031SOL    HW223236   2.829   6.242   6.280
 2032SOL     OW23237   2.347   6.254   1.442
 2032SOL    HW123238   2.368   6.241   1.350
 2032SOL    HW223239   2.301   6.174   1.467
 2033SOL     OW23240   4.864   6.291   7.290
 2033SOL    HW123241   4.959   6.290   7.296
 2033SOL    HW223242   4.839   6.382   7.307
 2034SOL     OW23243   4.983   1.618   6.906
 2034SOL    HW123244   4.901   1.569   6.907
 2034SOL    HW223245   5.049   1.553   6.885
 2035SOL     OW23246   2.940   4.526   5.815
 2035SOL    HW123247   2.988   4.599   5.854
 2035SOL    HW223248   2.975   4.518   5.726
 2036SOL     OW23249   2.143   2.984   7.278
 2036SOL    HW123250   2.128   2.967   7.185
 2036SOL    HW223251   2.211   3.052   7.279
 2037SOL     OW23252   3.424   5.587   0.629
 2037SOL    HW123253   3.387   5.563   0.544
 2037SOL    HW223254   3.377   5.667   0.654
 2038SOL     OW23255   4.629   3.060   7.745
 2038SOL    HW123256   4.631   3.101   7.659
 2038SOL    HW223257   4.548   3.010   7.746
 2039SOL     OW23258   0.090   1.489   6.782
 2039SOL    HW123259   0.168   1.524   6.740
 2039SOL    HW223260   0.118   1.405   6.818
 2040SOL     OW23261   3.675   5.158   5.778
 2040SOL    HW123262   3.686   5.192   5.689
 2040SOL    HW223263   3.726   5.077   5.779
 2041SOL     OW23264   1.335   3.532   1.102
 2041SOL    HW123265   1.424   3.544   1.134
 2041SOL    HW223266   1.283   3.598   1.149
 2042SOL     OW23267   1.070   3.839   6.511
 2042SOL    HW123268   1.022   3.915   6.479
 2042SOL    HW223269   1.162   3.860   6.495
 2043SOL     OW23270   5.957   1.446   7.603
 2043SOL    HW123271   6.037   1.493   7.625
 2043SOL    HW223272   5.985   1.375   7.544
 2044SOL     OW23273   5.365   2.300   6.582
 2044SOL    HW123274   5.311   2.368   6.620
 2044SOL    HW223275   5.435   2.286   6.645
 2045SOL     OW23276   4.744   5.496   1.186
 2045SOL    HW123277   4.702   5.431   1.242
 2045SOL    HW223278   4.800   5.546   1.245
 2046SOL     OW23279   1.951   6.327   6.156
 2046SOL    HW123280   1.994   6.251   6.116
 2046SOL    HW223281   1.992   6.402   6.113
 2047SOL     OW23282   5.794   5.870   7.001
 2047SOL    HW123283   5.865   5.869   6.938
 2047SOL    HW223284   5.714   5.867   6.948
 2048SOL     OW23285   5.855   1.404   0.388
 2048SOL    HW123286   5.798   1.480   0.379
 2048SOL    HW223287   5.803   1.331   0.355
 2049SOL     OW23288   2.035   1.652   1.068
 2049SOL    HW123289   1.982   1.626   1.143
 2049SOL    HW223290   1.973   1.690   1.006
 2050SOL     OW23291   2.478   4.046   1.328
 2050SOL    HW123292   2.431   4.076   1.406
 2050SOL    HW223293   2.428   4.084   1.255
 2051SOL     OW23294   3.976   2.629   6.227
 2051SOL    HW123295   4.006   2.699   6.285
 2051SOL    HW223296   3.881   2.627   6.240
 2052SOL     OW23297   0.523   4.167   2.124
 2052SOL    HW123298   0.606   4.153   2.170
 2052SOL    HW223299   0.457   4.166   2.193
 2053SOL     OW23300   3.843   5.643   7.547
 2053SOL    HW123301   3.841   5.612   7.638
 2053SOL    HW223302   3.811   5.568   7.496
 2054SOL     OW23303   5.399   5.548   2.656
 2054SOL    HW123304   5.468   5.601   2.696
 2054SOL    HW223305   5.432   5.458   2.661
 2055SOL     OW23306   3.559   5.630   0.866
 2055SOL    HW123307   3.497   5.589   0.805
 2055SOL    HW223308   3.579   5.715   0.825
 2056SOL     OW23309   2.921   2.965   0.856
 2056SOL    HW123310   3.001   3.009   0.828
 2056SOL    HW223311   2.923   2.970   0.951
 2057SOL     OW23312   1.012   1.031   2.199
 2057SOL    HW123313   1.012   1.123   2.225
 2057SOL    HW223314   1.100   1.001   2.219
 2058SOL     OW23315   2.178   2.732   7.379
 2058SOL    HW123316   2.182   2.817   7.333
 2058SOL    HW223317   2.124   2.677   7.322
 2059SOL     OW23318   4.414   5.346   6.197
 2059SOL    HW123319   4.503   5.375   6.179
 2059SOL    HW223320   4.376   5.328   6.111
 2060SOL     OW23321   3.409   3.692   7.752
 2060SOL    HW123322   3.469   3.697   7.677
 2060SOL    HW223323   3.425   3.605   7.789
 2061SOL     OW23324   5.814   5.186   0.306
 2061SOL    HW123325   5.905   5.157   0.307
 2061SOL    HW223326   5.807   5.243   0.384
 2062SOL     OW23327   6.299   0.139   5.716
 2062SOL    HW123328   6.343   0.209   5.669
 2062SOL    HW223329   6.207   0.166   5.719
 2063SOL     OW23330   4.291   1.183   1.880
 2063SOL    HW123331   4.326   1.193   1.969
 2063SOL    HW223332   4.283   1.273   1.847
 2064SOL     OW23333   6.323   3.306   2.097
 2064SOL    HW123334   6.352   3.227   2.051
 2064SOL    HW223335   6.382   3.375   2.066
 2065SOL     OW23336   2.629   3.084   6.268
 2065SOL    HW123337   2.568   3.038   6.209
 2065SOL    HW223338   2.583   3.164   6.292
 2066SOL     OW23339   3.862   4.129   6.199
 2066SOL    HW123340   3.814   4.134   6.281
 2066SOL    HW223341   3.951   4.106   6.224
 2067SOL     OW23342   6.416   4.319   1.217
 2067SOL    HW123343   6.500   4.274   1.215
 2067SOL    HW223344   6.430   4.398   1.165
 2068SOL     OW23345   0.268   5.719   7.491
 2068SOL    HW123346   0.202   5.775   7.452
 2068SOL    HW223347   0.343   5.777   7.506
 2069SOL     OW23348   2.359   6.148   0.076
 2069SOL    HW123349   2.347   6.080   0.142
 2069SOL    HW223350   2.415   6.213   0.118
 2070SOL     OW23351   1.078   4.975   6.952
 2070SOL    HW123352   1.121   5.059   6.934
 2070SOL    HW223353   1.010   4.996   7.016
 2071SOL     OW23354   3.323   2.531   1.701
 2071SOL    HW123355   3.281   2.599   1.753
 2071SOL    HW223356   3.409   2.519   1.741
 2072SOL     OW23357   1.866   1.764   6.392
 2072SOL    HW123358   1.934   1.728   6.449
 2072SOL    HW223359   1.903   1.846   6.360
 2073SOL     OW23360   4.342   1.069   5.555
 2073SOL    HW123361   4.250   1.061   5.579
 2073SOL    HW223362   4.384   0.995   5.598
 2074SOL     OW23363   3.326   2.651   1.478
 2074SOL    HW123364   3.400   2.709   1.494
 2074SOL    HW223365   3.332   2.585   1.547
 2075SOL     OW23366   3.924   0.260   7.243
 2075SOL    HW123367   3.850   0.321   7.240
 2075SOL    HW223368   3.893   0.183   7.195
 2076SOL     OW23369   6.002   3.557   5.362
 2076SOL    HW123370   6.051   3.535   5.441
 2076SOL    HW223371   6.029   3.646   5.341
 2077SOL     OW23372   2.833   2.994   7.060
 2077SOL    HW123373   2.805   2.971   7.149
 2077SOL    HW223374   2.755   2.981   7.007
 2078SOL     OW23375   1.940   1.591   1.574
 2078SOL    HW123376   1.890   1.617   1.651
 2078SOL    HW223377   1.892   1.517   1.537
 2079SOL     OW23378   3.403   3.774   1.620
 2079SOL    HW123379   3.400   3.810   1.708
 2079SOL    HW223380   3.367   3.844   1.564
 2080SOL     OW23381   6.157   1.743   1.247
 2080SOL    HW123382   6.209   1.817   1.277
 2080SOL    HW223383   6.202   1.712   1.168
 2081SOL     OW23384   3.394   3.236   1.928
 2081SOL    HW123385   3.329   3.305   1.913
 2081SOL    HW223386   3.367   3.195   2.010
 2082SOL     OW23387   4.168   2.404   7.703
 2082SOL    HW123388   4.203   2.429   7.789
 2082SOL    HW223389   4.073   2.415   7.713
 2083SOL     OW23390   5.903   6.034   7.498
 2083SOL    HW123391   5.985   6.082   7.483
 2083SOL    HW223392   5.906   5.961   7.436
 2084SOL     OW23393   2.229   5.520   0.316
 2084SOL    HW123394   2.295   5.452   0.306
 2084SOL    HW223395   2.239   5.574   0.237
 2085SOL     OW23396   3.456   5.638   1.704
 2085SOL    HW123397   3.421   5.726   1.723
 2085SOL    HW223398   3.405   5.580   1.761
 2086SOL     OW23399   4.052   4.904   6.191
 2086SOL    HW123400   4.070   4.846   6.117
 2086SOL    HW223401   4.010   4.848   6.256
 2087SOL     OW23402   0.519   4.315   2.415
 2087SOL    HW123403   0.529   4.386   2.351
 2087SOL    HW223404   0.534   4.356   2.500
 2088SOL     OW23405   2.413   2.059   1.428
 2088SOL    HW123406   2.499   2.028   1.401
 2088SOL    HW223407   2.429   2.109   1.508
 2089SOL     OW23408   6.217   3.336   6.913
 2089SOL    HW123409   6.192   3.337   6.821
 2089SOL    HW223410   6.207   3.245   6.940
 2090SOL     OW23411   1.183   2.413   7.289
 2090SOL    HW123412   1.127   2.398   7.365
 2090SOL    HW223413   1.122   2.415   7.215
 2091SOL     OW23414   4.848   0.250   6.648
 2091SOL    HW123415   4.904   0.263   6.725
 2091SOL    HW223416   4.833   0.156   6.645
 2092SOL     OW23417   1.771   1.409   1.443
 2092SOL    HW123418   1.768   1.323   1.401
 2092SOL    HW223419   1.700   1.406   1.508
 2093SOL     OW23420   3.578   3.577   1.547
 2093SOL    HW123421   3.529   3.659   1.557
 2093SOL    HW223422   3.614   3.559   1.633
 2094SOL     OW23423   2.327   1.055   6.842
 2094SOL    HW123424   2.259   1.113   6.808
 2094SOL    HW223425   2.407   1.109   6.842
 2095SOL     OW23426   4.409   4.390   6.895
 2095SOL    HW123427   4.399   4.317   6.833
 2095SOL    HW223428   4.500   4.383   6.925
 2096SOL     OW23429   0.479   5.900   7.516
 2096SOL    HW123430   0.537   5.881   7.441
 2096SOL    HW223431   0.539   5.932   7.584
 2097SOL     OW23432   1.651   5.356   0.921
 2097SOL    HW123433   1.620   5.444   0.942
 2097SOL    HW223434   1.707   5.368   0.844
 2098SOL     OW23435   1.935   0.549   5.625
 2098SOL    HW123436   1.939   0.457   5.650
 2098SOL    HW223437   1.870   0.587   5.684
 2099SOL     OW23438   0.830   2.629   0.332
 2099SOL    HW123439   0.867   2.643   0.245
 2099SOL    HW223440   0.885   2.561   0.371
 2100SOL     OW23441   1.254   0.316   0.875
 2100SOL    HW123442   1.302   0.397   0.888
 2100SOL    HW223443   1.163   0.343   0.861
 2101SOL     OW23444   5.499   4.613   2.095
 2101SOL    HW123445   5.406   4.600   2.077
 2101SOL    HW223446   5.502   4.656   2.180
 2102SOL     OW23447   2.608   5.082   0.876
 2102SOL    HW123448   2.644   4.994   0.888
 2102SOL    HW223449   2.563   5.078   0.791
 2103SOL     OW23450   5.661   5.865   5.950
 2103SOL    HW123451   5.584   5.814   5.978
 2103SOL    HW223452   5.646   5.880   5.856
 2104SOL     OW23453   0.414   4.993   1.589
 2104SOL    HW123454   0.347   4.957   1.532
 2104SOL    HW223455   0.480   4.924   1.596
 2105SOL     OW23456   4.688   5.858   0.012
 2105SOL    HW123457   4.665   5.777  -0.033
 2105SOL    HW223458   4.607   5.886   0.054
 2106SOL     OW23459   0.182   3.628   0.552
 2106SOL    HW123460   0.166   3.548   0.503
 2106SOL    HW223461   0.199   3.599   0.642
 2107SOL     OW23462   3.916   0.769   1.019
 2107SOL    HW123463   3.965   0.691   0.992
 2107SOL    HW223464   3.881   0.745   1.105
 2108SOL     OW23465   4.389   4.150   1.501
 2108SOL    HW123466   4.337   4.150   1.582
 2108SOL    HW223467   4.438   4.232   1.505
 2109SOL     OW23468   1.897   2.172   1.135
 2109SOL    HW123469   1.882   2.139   1.223
 2109SOL    HW223470   1.950   2.105   1.092
 2110SOL     OW23471   5.884   6.357   0.104
 2110SOL    HW123472   5.866   6.265   0.125
 2110SOL    HW223473   5.819   6.406   0.153
 2111SOL     OW23474   6.293   2.919   7.225
 2111SOL    HW123475   6.357   2.861   7.186
 2111SOL    HW223476   6.246   2.865   7.288
 2112SOL     OW23477   3.840   3.466   5.617
 2112SOL    HW123478   3.933   3.480   5.637
 2112SOL    HW223479   3.803   3.554   5.611
 2113SOL     OW23480   4.811   4.686   7.567
 2113SOL    HW123481   4.850   4.693   7.480
 2113SOL    HW223482   4.771   4.772   7.582
 2114SOL     OW23483   5.016   6.274   5.910
 2114SOL    HW123484   5.082   6.342   5.923
 2114SOL    HW223485   4.977   6.294   5.825
 2115SOL     OW23486   5.423   6.044   6.227
 2115SOL    HW123487   5.393   6.039   6.136
 2115SOL    HW223488   5.402   6.133   6.254
 2116SOL     OW23489   0.384   4.085   1.700
 2116SOL    HW123490   0.322   4.022   1.736
 2116SOL    HW223491   0.345   4.171   1.718
 2117SOL     OW23492   6.258   4.067   0.545
 2117SOL    HW123493   6.275   4.161   0.553
 2117SOL    HW223494   6.197   4.061   0.471
 2118SOL     OW23495   0.479   3.888   7.079
 2118SOL    HW123496   0.386   3.894   7.057
 2118SOL    HW223497   0.516   3.970   7.048
 2119SOL     OW23498   2.932   0.137   6.430
 2119SOL    HW123499   2.891   0.107   6.349
 2119SOL    HW223500   2.965   0.225   6.409
 2120SOL     OW23501   0.920   3.151   2.547
 2120SOL    HW123502   0.928   3.245   2.566
 2120SOL    HW223503   0.843   3.145   2.490
 2121SOL     OW23504   4.174   2.077   1.165
 2121SOL    HW123505   4.187   2.062   1.072
 2121SOL    HW223506   4.226   2.156   1.184
 2122SOL     OW23507   2.041   0.717   0.666
 2122SOL    HW123508   2.058   0.804   0.701
 2122SOL    HW223509   2.079   0.657   0.730
 2123SOL     OW23510   1.623   2.751   6.665
 2123SOL    HW123511   1.584   2.782   6.747
 2123SOL    HW223512   1.577   2.669   6.645
 2124SOL     OW23513   1.287   4.616   6.986
 2124SOL    HW123514   1.307   4.698   6.940
 2124SOL    HW223515   1.371   4.586   7.020
 2125SOL     OW23516   3.812   2.954   5.967
 2125SOL    HW123517   3.861   2.925   6.043
 2125SOL    HW223518   3.864   2.926   5.892
 2126SOL     OW23519   0.121   4.497   0.925
 2126SOL    HW123520   0.111   4.587   0.893
 2126SOL    HW223521   0.176   4.455   0.858
 2127SOL     OW23522   0.414   3.387   0.054
 2127SOL    HW123523   0.377   3.431  -0.023
 2127SOL    HW223524   0.400   3.294   0.038
 2128SOL     OW23525   4.343   5.873   7.470
 2128SOL    HW123526   4.296   5.956   7.476
 2128SOL    HW223527   4.277   5.806   7.484
 2129SOL     OW23528   3.185   0.799   5.798
 2129SOL    HW123529   3.191   0.777   5.891
 2129SOL    HW223530   3.092   0.790   5.777
 2130SOL     OW23531   3.510   0.977   5.890
 2130SOL    HW123532   3.590   0.971   5.943
 2130SOL    HW223533   3.538   1.017   5.808
 2131SOL     OW23534   4.362   0.831   5.677
 2131SOL    HW123535   4.415   0.752   5.665
 2131SOL    HW223536   4.293   0.804   5.739
 2132SOL     OW23537   1.489   0.418   7.592
 2132SOL    HW123538   1.579   0.412   7.622
 2132SOL    HW223539   1.443   0.349   7.640
 2133SOL     OW23540   0.205   6.162   1.708
 2133SOL    HW123541   0.235   6.165   1.618
 2133SOL    HW223542   0.167   6.249   1.724
 2134SOL     OW23543   2.445   5.714   7.063
 2134SOL    HW123544   2.416   5.805   7.074
 2134SOL    HW223545   2.495   5.715   6.981
 2135SOL     OW23546   4.945   3.563   6.655
 2135SOL    HW123547   4.875   3.552   6.719
 2135SOL    HW223548   4.954   3.476   6.615
 2136SOL     OW23549   6.454   4.213   0.052
 2136SOL    HW123550   6.485   4.303   0.037
 2136SOL    HW223551   6.359   4.218   0.042
 2137SOL     OW23552   3.559   4.687   1.089
 2137SOL    HW123553   3.469   4.685   1.121
 2137SOL    HW223554   3.577   4.598   1.061
 2138SOL     OW23555   4.989   1.706   0.471
 2138SOL    HW123556   4.912   1.677   0.520
 2138SOL    HW223557   5.062   1.662   0.514
 2139SOL     OW23558   1.750   2.286   0.922
 2139SOL    HW123559   1.800   2.249   0.995
 2139SOL    HW223560   1.785   2.241   0.845
 2140SOL     OW23561   3.745   5.892   1.538
 2140SOL    HW123562   3.802   5.932   1.604
 2140SOL    HW223563   3.782   5.805   1.524
 2141SOL     OW23564   6.222   2.535   0.925
 2141SOL    HW123565   6.197   2.539   0.832
 2141SOL    HW223566   6.144   2.503   0.969
 2142SOL     OW23567   1.273   1.986   0.229
 2142SOL    HW123568   1.326   2.044   0.284
 2142SOL    HW223569   1.276   1.901   0.274
 2143SOL     OW23570   2.754   2.634   5.603
 2143SOL    HW123571   2.782   2.711   5.653
 2143SOL    HW223572   2.828   2.573   5.609
 2144SOL     OW23573   2.478   6.152   0.995
 2144SOL    HW123574   2.502   6.213   1.065
 2144SOL    HW223575   2.533   6.178   0.921
 2145SOL     OW23576   1.668   0.637   1.249
 2145SOL    HW123577   1.726   0.585   1.194
 2145SOL    HW223578   1.582   0.596   1.240
 2146SOL     OW23579   5.796   0.511   2.129
 2146SOL    HW123580   5.857   0.447   2.167
 2146SOL    HW223581   5.852   0.576   2.087
 2147SOL     OW23582   2.894   2.655   6.792
 2147SOL    HW123583   2.919   2.743   6.764
 2147SOL    HW223584   2.866   2.666   6.883
 2148SOL     OW23585   6.213   3.332   0.405
 2148SOL    HW123586   6.180   3.416   0.372
 2148SOL    HW223587   6.294   3.317   0.354
 2149SOL     OW23588   0.256   4.630   1.148
 2149SOL    HW123589   0.200   4.634   1.226
 2149SOL    HW223590   0.216   4.561   1.094
 2150SOL     OW23591   6.015   2.727   6.582
 2150SOL    HW123592   6.048   2.812   6.614
 2150SOL    HW223593   6.081   2.664   6.612
 2151SOL     OW23594   6.211   5.104   0.664
 2151SOL    HW123595   6.157   5.031   0.693
 2151SOL    HW223596   6.287   5.063   0.623
 2152SOL     OW23597   5.689   3.230   7.426
 2152SOL    HW123598   5.648   3.261   7.507
 2152SOL    HW223599   5.782   3.244   7.440
 2153SOL     OW23600   4.930   4.055   7.712
 2153SOL    HW123601   4.969   4.083   7.630
 2153SOL    HW223602   4.967   3.969   7.729
 2154SOL     OW23603   5.007   5.150   0.031
 2154SOL    HW123604   4.960   5.158   0.114
 2154SOL    HW223605   5.040   5.239   0.014
 2155SOL     OW23606   4.646   0.378   7.109
 2155SOL    HW123607   4.617   0.307   7.165
 2155SOL    HW223608   4.637   0.344   7.020
 2156SOL     OW23609   4.719   2.093   7.594
 2156SOL    HW123610   4.668   2.118   7.517
 2156SOL    HW223611   4.785   2.033   7.560
 2157SOL     OW23612   1.627   4.525   7.709
 2157SOL    HW123613   1.674   4.466   7.768
 2157SOL    HW223614   1.567   4.469   7.661
 2158SOL     OW23615   2.665   1.371   1.083
 2158SOL    HW123616   2.685   1.399   1.172
 2158SOL    HW223617   2.720   1.427   1.028
 2159SOL     OW23618   1.221   3.344   0.337
 2159SOL    HW123619   1.190   3.302   0.258
 2159SOL    HW223620   1.229   3.273   0.401
 2160SOL     OW23621   2.588   2.493   0.802
 2160SOL    HW123622   2.580   2.494   0.706
 2160SOL    HW223623   2.517   2.549   0.833
 2161SOL     OW23624   2.174   0.895   7.554
 2161SOL    HW123625   2.233   0.823   7.577
 2161SOL    HW223626   2.091   0.853   7.533
 2162SOL     OW23627   1.658   0.253   0.988
 2162SOL    HW123628   1.733   0.298   1.027
 2162SOL    HW223629   1.600   0.322   0.958
 2163SOL     OW23630   1.721   2.651   1.607
 2163SOL    HW123631   1.783   2.600   1.555
 2163SOL    HW223632   1.673   2.703   1.543
 2164SOL     OW23633   2.678   1.438   2.540
 2164SOL    HW123634   2.640   1.506   2.596
 2164SOL    HW223635   2.610   1.418   2.476
 2165SOL     OW23636   5.111   4.083   0.855
 2165SOL    HW123637   5.045   4.150   0.837
 2165SOL    HW223638   5.178   4.098   0.788
 2166SOL     OW23639   3.675   1.531   1.495
 2166SOL    HW123640   3.688   1.610   1.548
 2166SOL    HW223641   3.745   1.534   1.430
 2167SOL     OW23642   0.886   5.438   0.940
 2167SOL    HW123643   0.888   5.364   0.879
 2167SOL    HW223644   0.947   5.501   0.903
 2168SOL     OW23645   6.064   6.118   7.063
 2168SOL    HW123646   6.075   6.166   7.145
 2168SOL    HW223647   6.114   6.169   6.999
 2169SOL     OW23648   3.107   1.825   0.682
 2169SOL    HW123649   3.087   1.789   0.769
 2169SOL    HW223650   3.100   1.920   0.693
 2170SOL     OW23651   1.373   5.601   1.000
 2170SOL    HW123652   1.437   5.633   0.937
 2170SOL    HW223653   1.425   5.567   1.072
 2171SOL     OW23654   2.611   3.496   1.007
 2171SOL    HW123655   2.525   3.523   0.978
 2171SOL    HW223656   2.604   3.493   1.103
 2172SOL     OW23657   3.309   0.757   6.811
 2172SOL    HW123658   3.326   0.708   6.730
 2172SOL    HW223659   3.364   0.835   6.804
 2173SOL     OW23660   3.595   6.025   2.093
 2173SOL    HW123661   3.635   6.106   2.126
 2173SOL    HW223662   3.526   6.005   2.156
 2174SOL     OW23663   6.029   2.785   5.753
 2174SOL    HW123664   6.085   2.861   5.767
 2174SOL    HW223665   5.962   2.792   5.821
 2175SOL     OW23666   4.524   2.818   6.587
 2175SOL    HW123667   4.570   2.882   6.640
 2175SOL    HW223668   4.467   2.772   6.649
 2176SOL     OW23669   2.469   3.842   6.698
 2176SOL    HW123670   2.429   3.838   6.611
 2176SOL    HW223671   2.433   3.767   6.745
 2177SOL     OW23672   2.794   1.998   5.784
 2177SOL    HW123673   2.702   2.004   5.756
 2177SOL    HW223674   2.802   1.908   5.816
 2178SOL     OW23675   0.624   0.534   0.359
 2178SOL    HW123676   0.576   0.498   0.284
 2178SOL    HW223677   0.655   0.457   0.406
 2179SOL     OW23678   6.298   2.953   6.050
 2179SOL    HW123679   6.370   2.901   6.014
 2179SOL    HW223680   6.246   2.977   5.973
 2180SOL     OW23681   1.224   5.564   6.333
 2180SOL    HW123682   1.286   5.514   6.280
 2180SOL    HW223683   1.232   5.654   6.302
 2181SOL     OW23684   0.760   0.561   6.616
 2181SOL    HW123685   0.720   0.538   6.532
 2181SOL    HW223686   0.687   0.591   6.669
 2182SOL     OW23687   1.372   2.604   6.394
 2182SOL    HW123688   1.382   2.510   6.382
 2182SOL    HW223689   1.309   2.631   6.328
 2183SOL     OW23690   1.145   4.415   1.947
 2183SOL    HW123691   1.209   4.377   1.888
 2183SOL    HW223692   1.187   4.494   1.980
 2184SOL     OW23693   6.357   1.282   5.793
 2184SOL    HW123694   6.434   1.264   5.846
 2184SOL    HW223695   6.387   1.344   5.727
 2185SOL     OW23696   0.858   5.532   6.448
 2185SOL    HW123697   0.769   5.566   6.440
 2185SOL    HW223698   0.862   5.495   6.536
 2186SOL     OW23699   1.455   4.632   0.396
 2186SOL    HW123700   1.492   4.626   0.485
 2186SOL    HW223701   1.466   4.544   0.360
 2187SOL     OW23702   0.465   4.367   1.913
 2187SOL    HW123703   0.421   4.440   1.956
 2187SOL    HW223704   0.471   4.299   1.980
 2188SOL     OW23705   5.690   5.760   7.384
 2188SOL    HW123706   5.638   5.818   7.440
 2188SOL    HW223707   5.766   5.813   7.360
 2189SOL     OW23708   5.043   3.801   0.015
 2189SOL    HW123709   4.971   3.780   0.074
 2189SOL    HW223710   5.122   3.788   0.067
 2190SOL     OW23711   1.782   0.643   0.350
 2190SOL    HW123712   1.762   0.653   0.256
 2190SOL    HW223713   1.848   0.709   0.367
 2191SOL     OW23714   6.150   3.814   1.804
 2191SOL    HW123715   6.094   3.737   1.799
 2191SOL    HW223716   6.091   3.886   1.828
 2192SOL     OW23717   1.930   5.012   2.669
 2192SOL    HW123718   1.873   4.976   2.736
 2192SOL    HW223719   1.876   5.015   2.590
 2193SOL     OW23720   2.859   5.236   5.486
 2193SOL    HW123721   2.923   5.221   5.556
 2193SOL    HW223722   2.783   5.272   5.531
 2194SOL     OW23723   6.422   6.179   0.441
 2194SOL    HW123724   6.509   6.203   0.471
 2194SOL    HW223725   6.431   6.089   0.410
 2195SOL     OW23726   4.789   0.782   2.107
 2195SOL    HW123727   4.857   0.727   2.068
 2195SOL    HW223728   4.709   0.761   2.059
 2196SOL     OW23729   0.420   0.614   7.476
 2196SOL    HW123730   0.339   0.651   7.510
 2196SOL    HW223731   0.394   0.531   7.436
 2197SOL     OW23732   2.480   4.549   6.587
 2197SOL    HW123733   2.551   4.489   6.562
 2197SOL    HW223734   2.474   4.610   6.514
 2198SOL     OW23735   5.167   4.410   7.704
 2198SOL    HW123736   5.230   4.391   7.774
 2198SOL    HW223737   5.091   4.355   7.726
 2199SOL     OW23738   4.883   5.606   2.129
 2199SOL    HW123739   4.882   5.667   2.055
 2199SOL    HW223740   4.851   5.657   2.202
 2200SOL     OW23741   1.649   1.082   6.853
 2200SOL    HW123742   1.596   1.004   6.869
 2200SOL    HW223743   1.674   1.112   6.940
 2201SOL     OW23744   5.709   5.081   0.740
 2201SOL    HW123745   5.751   5.128   0.811
 2201SOL    HW223746   5.634   5.037   0.781
 2202SOL     OW23747   1.839   3.354   6.753
 2202SOL    HW123748   1.791   3.429   6.718
 2202SOL    HW223749   1.814   3.351   6.846
 2203SOL     OW23750   4.167   4.579   2.497
 2203SOL    HW123751   4.125   4.524   2.430
 2203SOL    HW223752   4.131   4.666   2.482
 2204SOL     OW23753   0.710   2.503   6.773
 2204SOL    HW123754   0.634   2.561   6.773
 2204SOL    HW223755   0.758   2.526   6.694
 2205SOL     OW23756   1.958   3.334   1.519
 2205SOL    HW123757   1.889   3.268   1.531
 2205SOL    HW223758   2.016   3.322   1.595
 2206SOL     OW23759   0.883   4.034   0.531
 2206SOL    HW123760   0.892   4.059   0.623
 2206SOL    HW223761   0.789   4.017   0.520
 2207SOL     OW23762   4.588   0.777   1.277
 2207SOL    HW123763   4.578   0.721   1.200
 2207SOL    HW223764   4.594   0.716   1.350
 2208SOL     OW23765   6.060   1.513   6.410
 2208SOL    HW123766   6.153   1.520   6.388
 2208SOL    HW223767   6.057   1.447   6.479
 2209SOL     OW23768   4.047   5.505   0.707
 2209SOL    HW123769   4.015   5.424   0.747
 2209SOL    HW223770   4.016   5.575   0.766
 2210SOL     OW23771   0.192   1.395   0.173
 2210SOL    HW123772   0.108   1.354   0.192
 2210SOL    HW223773   0.254   1.350   0.231
 2211SOL     OW23774   2.674   4.053   7.322
 2211SOL    HW123775   2.699   3.992   7.253
 2211SOL    HW223776   2.750   4.110   7.334
 2212SOL     OW23777   3.164   0.593   2.036
 2212SOL    HW123778   3.159   0.498   2.047
 2212SOL    HW223779   3.183   0.626   2.124
 2213SOL     OW23780   1.224   4.029   7.348
 2213SOL    HW123781   1.223   4.072   7.434
 2213SOL    HW223782   1.188   3.942   7.364
 2214SOL     OW23783   0.238   5.628   6.670
 2214SOL    HW123784   0.175   5.564   6.703
 2214SOL    HW223785   0.186   5.688   6.617
 2215SOL     OW23786   0.851   5.486   7.436
 2215SOL    HW123787   0.811   5.470   7.522
 2215SOL    HW223788   0.906   5.409   7.420
 2216SOL     OW23789   6.141   2.801   7.404
 2216SOL    HW123790   6.107   2.820   7.492
 2216SOL    HW223791   6.188   2.718   7.414
 2217SOL     OW23792   1.401   4.820   0.845
 2217SOL    HW123793   1.491   4.844   0.868
 2217SOL    HW223794   1.354   4.820   0.928
 2218SOL     OW23795   4.147   4.250   2.415
 2218SOL    HW123796   4.089   4.313   2.373
 2218SOL    HW223797   4.108   4.236   2.501
 2219SOL     OW23798   0.288   3.254   0.724
 2219SOL    HW123799   0.196   3.241   0.701
 2219SOL    HW223800   0.286   3.301   0.807
 2220SOL     OW23801   4.952   5.385   6.632
 2220SOL    HW123802   5.009   5.339   6.570
 2220SOL    HW223803   4.902   5.315   6.674
 2221SOL     OW23804   5.489   2.939   2.476
 2221SOL    HW123805   5.552   2.912   2.409
 2221SOL    HW223806   5.543   2.957   2.553
 2222SOL     OW23807   0.715   4.341   1.226
 2222SOL    HW123808   0.699   4.411   1.289
 2222SOL    HW223809   0.810   4.336   1.218
 2223SOL     OW23810   5.553   5.475   7.084
 2223SOL    HW123811   5.578   5.386   7.110
 2223SOL    HW223812   5.467   5.465   7.044
 2224SOL     OW23813   1.562   0.949   7.388
 2224SOL    HW123814   1.616   0.871   7.404
 2224SOL    HW223815   1.501   0.951   7.462
 2225SOL     OW23816   5.917   1.118   6.408
 2225SOL    HW123817   5.823   1.136   6.407
 2225SOL    HW223818   5.957   1.201   6.435
 2226SOL     OW23819   4.373   1.585   6.031
 2226SOL    HW123820   4.447   1.534   5.996
 2226SOL    HW223821   4.375   1.666   5.980
 2227SOL     OW23822   2.448   2.351   6.569
 2227SOL    HW123823   2.446   2.390   6.481
 2227SOL    HW223824   2.492   2.416   6.624
 2228SOL     OW23825   1.649   1.739   7.663
 2228SOL    HW123826   1.673   1.733   7.756
 2228SOL    HW223827   1.732   1.727   7.616
 2229SOL     OW23828   3.495   4.331   0.584
 2229SOL    HW123829   3.434   4.404   0.597
 2229SOL    HW223830   3.523   4.339   0.493
 2230SOL     OW23831   3.386   1.650   2.390
 2230SOL    HW123832   3.396   1.584   2.321
 2230SOL    HW223833   3.404   1.733   2.346
 2231SOL     OW23834   2.543   0.778   1.592
 2231SOL    HW123835   2.562   0.712   1.659
 2231SOL    HW223836   2.561   0.734   1.509
 2232SOL     OW23837   0.453   4.613   6.772
 2232SOL    HW123838   0.431   4.667   6.847
 2232SOL    HW223839   0.508   4.543   6.808
 2233SOL     OW23840   0.510   0.768   6.172
 2233SOL    HW123841   0.437   0.713   6.143
 2233SOL    HW223842   0.511   0.842   6.111
 2234SOL     OW23843   6.332   5.097   0.269
 2234SOL    HW123844   6.246   5.132   0.291
 2234SOL    HW223845   6.393   5.147   0.323
 2235SOL     OW23846   1.003   1.922   5.982
 2235SOL    HW123847   0.944   1.846   5.986
 2235SOL    HW223848   0.968   1.976   5.912
 2236SOL     OW23849   1.580   3.245   6.829
 2236SOL    HW123850   1.619   3.292   6.903
 2236SOL    HW223851   1.512   3.190   6.868
 2237SOL     OW23852   3.826   4.196   7.542
 2237SOL    HW123853   3.838   4.123   7.481
 2237SOL    HW223854   3.732   4.193   7.564
 2238SOL     OW23855   4.189   1.852   1.311
 2238SOL    HW123856   4.187   1.938   1.269
 2238SOL    HW223857   4.098   1.835   1.337
 2239SOL     OW23858   1.099   2.668   2.378
 2239SOL    HW123859   1.013   2.657   2.337
 2239SOL    HW223860   1.090   2.747   2.432
 2240SOL     OW23861   2.338   0.846   1.299
 2240SOL    HW123862   2.348   0.878   1.389
 2240SOL    HW223863   2.245   0.824   1.292
 2241SOL     OW23864   3.863   1.719   6.567
 2241SOL    HW123865   3.846   1.637   6.520
 2241SOL    HW223866   3.922   1.695   6.637
 2242SOL     OW23867   3.124   0.676   6.053
 2242SOL    HW123868   3.081   0.618   5.990
 2242SOL    HW223869   3.052   0.707   6.109
 2243SOL     OW23870   4.428   0.447   7.656
 2243SOL    HW123871   4.418   0.488   7.742
 2243SOL    HW223872   4.349   0.472   7.607
 2244SOL     OW23873   3.009   4.327   0.231
 2244SOL    HW123874   2.950   4.402   0.221
 2244SOL    HW223875   3.012   4.287   0.144
 2245SOL     OW23876   1.451   6.343   7.029
 2245SOL    HW123877   1.456   6.434   7.058
 2245SOL    HW223878   1.469   6.347   6.935
 2246SOL     OW23879   2.490   1.669   1.685
 2246SOL    HW123880   2.504   1.627   1.769
 2246SOL    HW223881   2.472   1.598   1.624
 2247SOL     OW23882   1.597   3.919   7.364
 2247SOL    HW123883   1.537   3.880   7.427
 2247SOL    HW223884   1.575   4.012   7.363
 2248SOL     OW23885   4.395   3.663   0.487
 2248SOL    HW123886   4.312   3.708   0.502
 2248SOL    HW223887   4.462   3.728   0.508
 2249SOL     OW23888   6.363   1.241   6.243
 2249SOL    HW123889   6.367   1.335   6.260
 2249SOL    HW223890   6.431   1.226   6.177
 2250SOL     OW23891   5.770   3.826   6.361
 2250SOL    HW123892   5.737   3.838   6.450
 2250SOL    HW223893   5.779   3.731   6.351
 2251SOL     OW23894   4.385   6.396   0.361
 2251SOL    HW123895   4.424   6.444   0.434
 2251SOL    HW223896   4.332   6.329   0.403
 2252SOL     OW23897   6.021   1.743   6.632
 2252SOL    HW123898   6.111   1.737   6.665
 2252SOL    HW223899   6.020   1.688   6.554
 2253SOL     OW23900   3.531   1.083   7.732
 2253SOL    HW123901   3.618   1.105   7.697
 2253SOL    HW223902   3.470   1.125   7.672
 2254SOL     OW23903   1.930   2.564   1.775
 2254SOL    HW123904   1.909   2.547   1.683
 2254SOL    HW223905   1.850   2.600   1.812
 2255SOL     OW23906   2.284   1.896   7.356
 2255SOL    HW123907   2.214   1.831   7.355
 2255SOL    HW223908   2.349   1.861   7.417
 2256SOL     OW23909   3.939   0.502   1.922
 2256SOL    HW123910   4.032   0.497   1.899
 2256SOL    HW223911   3.903   0.567   1.862
 2257SOL     OW23912   4.462   6.323   7.273
 2257SOL    HW123913   4.413   6.244   7.248
 2257SOL    HW223914   4.527   6.334   7.204
 2258SOL     OW23915   0.183   1.239   6.910
 2258SOL    HW123916   0.237   1.169   6.947
 2258SOL    HW223917   0.106   1.195   6.876
 2259SOL     OW23918   3.030   0.818   6.777
 2259SOL    HW123919   3.116   0.780   6.794
 2259SOL    HW223920   3.046   0.886   6.711
 2260SOL     OW23921   0.106   0.791   6.535
 2260SOL    HW123922   0.192   0.799   6.495
 2260SOL    HW223923   0.050   0.758   6.465
 2261SOL     OW23924   6.196   6.322   1.295
 2261SOL    HW123925   6.205   6.227   1.287
 2261SOL    HW223926   6.215   6.355   1.207
 2262SOL     OW23927   3.604   0.869   7.571
 2262SOL    HW123928   3.695   0.899   7.572
 2262SOL    HW223929   3.553   0.948   7.589
 2263SOL     OW23930   0.607   3.562   0.140
 2263SOL    HW123931   0.551   3.500   0.093
 2263SOL    HW223932   0.563   3.647   0.129
 2264SOL     OW23933   5.578   1.140   7.651
 2264SOL    HW123934   5.669   1.144   7.681
 2264SOL    HW223935   5.526   1.145   7.731
 2265SOL     OW23936   3.052   5.115   1.878
 2265SOL    HW123937   3.014   5.115   1.966
 2265SOL    HW223938   3.147   5.117   1.892
 2266SOL     OW23939   2.663   1.334   7.398
 2266SOL    HW123940   2.604   1.315   7.325
 2266SOL    HW223941   2.675   1.429   7.394
 2267SOL     OW23942   2.171   4.887   2.559
 2267SOL    HW123943   2.103   4.942   2.599
 2267SOL    HW223944   2.131   4.800   2.555
 2268SOL     OW23945   3.869   6.248   7.578
 2268SOL    HW123946   3.783   6.280   7.604
 2268SOL    HW223947   3.866   6.244   7.483
 2269SOL     OW23948   5.807   2.389   2.187
 2269SOL    HW123949   5.885   2.336   2.203
 2269SOL    HW223950   5.790   2.433   2.271
 2270SOL     OW23951   2.737   5.857   7.269
 2270SOL    HW123952   2.783   5.822   7.193
 2270SOL    HW223953   2.746   5.952   7.262
 2271SOL     OW23954   2.911   0.355   1.942
 2271SOL    HW123955   2.821   0.377   1.966
 2271SOL    HW223956   2.954   0.336   2.025
 2272SOL     OW23957   5.311   0.405   7.373
 2272SOL    HW123958   5.236   0.420   7.430
 2272SOL    HW223959   5.279   0.347   7.305
 2273SOL     OW23960   2.975   0.504   7.576
 2273SOL    HW123961   2.920   0.462   7.643
 2273SOL    HW223962   3.062   0.465   7.589
 2274SOL     OW23963   5.734   3.170   6.312
 2274SOL    HW123964   5.793   3.222   6.366
 2274SOL    HW223965   5.664   3.231   6.287
 2275SOL     OW23966   6.247   0.258   1.301
 2275SOL    HW123967   6.171   0.233   1.353
 2275SOL    HW223968   6.321   0.249   1.361
 2276SOL     OW23969   5.487   5.407   1.111
 2276SOL    HW123970   5.558   5.468   1.134
 2276SOL    HW223971   5.448   5.383   1.195
 2277SOL     OW23972   1.819   4.287   1.299
 2277SOL    HW123973   1.848   4.286   1.391
 2277SOL    HW223974   1.849   4.204   1.264
 2278SOL     OW23975   3.784   1.267   5.645
 2278SOL    HW123976   3.807   1.231   5.731
 2278SOL    HW223977   3.858   1.323   5.622
 2279SOL     OW23978   4.877   0.889   0.755
 2279SOL    HW123979   4.822   0.849   0.688
 2279SOL    HW223980   4.965   0.854   0.738
 2280SOL     OW23981   4.823   1.065   6.377
 2280SOL    HW123982   4.897   1.124   6.364
 2280SOL    HW223983   4.798   1.038   6.288
 2281SOL     OW23984   1.133   5.559   0.569
 2281SOL    HW123985   1.195   5.496   0.604
 2281SOL    HW223986   1.155   5.641   0.613
 2282SOL     OW23987   5.413   4.020   7.063
 2282SOL    HW123988   5.478   4.088   7.047
 2282SOL    HW223989   5.462   3.950   7.108
 2283SOL     OW23990   5.181   3.295   2.639
 2283SOL    HW123991   5.090   3.279   2.666
 2283SOL    HW223992   5.207   3.214   2.594
 2284SOL     OW23993   0.870   5.504   0.598
 2284SOL    HW123994   0.892   5.433   0.659
 2284SOL    HW223995   0.955   5.534   0.566
 2285SOL     OW23996   1.294   4.846   7.519
 2285SOL    HW123997   1.374   4.803   7.551
 2285SOL    HW223998   1.224   4.782   7.536
 2286SOL     OW23999   6.106   0.479   6.246
 2286SOL    HW124000   6.194   0.446   6.230
 2286SOL    HW224001   6.048   0.419   6.198
 2287SOL     OW24002   2.304   2.258   0.105
 2287SOL    HW124003   2.219   2.290   0.136
 2287SOL    HW224004   2.284   2.183   0.051
 2288SOL     OW24005   0.187   1.469   6.007
 2288SOL    HW124006   0.174   1.549   5.957
 2288SOL    HW224007   0.213   1.403   5.943
 2289SOL     OW24008   2.915   4.205   7.359
 2289SOL    HW124009   2.945   4.283   7.312
 2289SOL    HW224010   2.925   4.227   7.451
 2290SOL     OW24011   6.096   5.370   0.943
 2290SOL    HW124012   6.053   5.405   0.865
 2290SOL    HW224013   6.062   5.423   1.015
 2291SOL     OW24014   2.955   3.633   2.198
 2291SOL    HW124015   2.863   3.630   2.225
 2291SOL    HW224016   3.003   3.659   2.277
 2292SOL     OW24017   3.518   1.352   6.063
 2292SOL    HW124018   3.587   1.418   6.068
 2292SOL    HW224019   3.504   1.339   5.970
 2293SOL     OW24020   6.079   1.033   6.821
 2293SOL    HW124021   6.065   0.976   6.897
 2293SOL    HW224022   6.072   0.975   6.746
 2294SOL     OW24023   5.711   4.955   6.101
 2294SOL    HW124024   5.774   5.000   6.157
 2294SOL    HW224025   5.761   4.929   6.024
 2295SOL     OW24026   1.341   4.082   1.824
 2295SOL    HW124027   1.316   4.005   1.774
 2295SOL    HW224028   1.273   4.090   1.891
 2296SOL     OW24029   1.956   5.320   6.631
 2296SOL    HW124030   2.023   5.271   6.679
 2296SOL    HW224031   1.975   5.412   6.650
 2297SOL     OW24032   3.297   6.092   7.083
 2297SOL    HW124033   3.222   6.042   7.114
 2297SOL    HW224034   3.300   6.074   6.989
 2298SOL     OW24035   4.175   1.182   0.119
 2298SOL    HW124036   4.237   1.234   0.170
 2298SOL    HW224037   4.210   1.182   0.030
 2299SOL     OW24038   2.353   5.987   7.028
 2299SOL    HW124039   2.266   6.024   7.041
 2299SOL    HW224040   2.386   6.030   6.950
 2300SOL     OW24041   4.667   5.614   2.464
 2300SOL    HW124042   4.630   5.698   2.489
 2300SOL    HW224043   4.761   5.630   2.457
 2301SOL     OW24044   3.243   2.185   1.824
 2301SOL    HW124045   3.278   2.113   1.876
 2301SOL    HW224046   3.310   2.201   1.758
 2302SOL     OW24047   6.352   4.740   1.739
 2302SOL    HW124048   6.349   4.803   1.811
 2302SOL    HW224049   6.385   4.660   1.779
 2303SOL     OW24050   2.133   2.207   1.522
 2303SOL    HW124051   2.122   2.240   1.611
 2303SOL    HW224052   2.225   2.180   1.518
 2304SOL     OW24053   1.020   2.784   6.438
 2304SOL    HW124054   1.107   2.807   6.406
 2304SOL    HW224055   0.966   2.778   6.359
 2305SOL     OW24056   4.993   2.127   6.084
 2305SOL    HW124057   4.915   2.080   6.053
 2305SOL    HW224058   4.991   2.209   6.035
 2306SOL     OW24059   0.882   6.449   1.250
 2306SOL    HW124060   0.965   6.408   1.224
 2306SOL    HW224061   0.831   6.452   1.170
 2307SOL     OW24062   1.686   1.589   2.339
 2307SOL    HW124063   1.619   1.532   2.301
 2307SOL    HW224064   1.766   1.536   2.334
 2308SOL     OW24065   3.337   2.829   6.305
 2308SOL    HW124066   3.354   2.797   6.216
 2308SOL    HW224067   3.259   2.885   6.295
 2309SOL     OW24068   5.111   6.149   6.121
 2309SOL    HW124069   5.189   6.107   6.084
 2309SOL    HW224070   5.064   6.182   6.045
 2310SOL     OW24071   0.446   0.126   0.318
 2310SOL    HW124072   0.461   0.142   0.411
 2310SOL    HW224073   0.480   0.038   0.303
 2311SOL     OW24074   2.635   1.931   1.337
 2311SOL    HW124075   2.714   1.907   1.385
 2311SOL    HW224076   2.622   1.859   1.275
 2312SOL     OW24077   2.375   4.282   7.442
 2312SOL    HW124078   2.305   4.295   7.506
 2312SOL    HW224079   2.385   4.367   7.400
 2313SOL     OW24080   2.061   2.982   7.037
 2313SOL    HW124081   1.991   2.955   6.978
 2313SOL    HW224082   2.132   3.011   6.980
 2314SOL     OW24083   6.075   4.644   0.567
 2314SOL    HW124084   6.087   4.708   0.497
 2314SOL    HW224085   6.149   4.657   0.626
 2315SOL     OW24086   1.651   0.377   0.071
 2315SOL    HW124087   1.559   0.374   0.094
 2315SOL    HW224088   1.686   0.291   0.095
 2316SOL     OW24089   1.275   2.212   5.990
 2316SOL    HW124090   1.337   2.190   6.060
 2316SOL    HW224091   1.291   2.147   5.922
 2317SOL     OW24092   5.458   0.766   0.301
 2317SOL    HW124093   5.367   0.742   0.318
 2317SOL    HW224094   5.459   0.862   0.306
 2318SOL     OW24095   4.307   2.193   6.529
 2318SOL    HW124096   4.231   2.160   6.577
 2318SOL    HW224097   4.300   2.153   6.442
 2319SOL     OW24098   3.078   5.642   6.739
 2319SOL    HW124099   2.989   5.618   6.766
 2319SOL    HW224100   3.076   5.638   6.643
 2320SOL     OW24101   0.325   5.237   7.360
 2320SOL    HW124102   0.339   5.146   7.337
 2320SOL    HW224103   0.295   5.279   7.280
 2321SOL     OW24104   2.597   2.009   6.057
 2321SOL    HW124105   2.685   2.040   6.035
 2321SOL    HW224106   2.573   1.951   5.985
 2322SOL     OW24107   5.583   0.393   0.982
 2322SOL    HW124108   5.563   0.449   0.906
 2322SOL    HW224109   5.656   0.437   1.025
 2323SOL     OW24110   5.494   0.785   1.309
 2323SOL    HW124111   5.560   0.823   1.251
 2323SOL    HW224112   5.530   0.798   1.397
 2324SOL     OW24113   4.418   1.851   0.372
 2324SOL    HW124114   4.486   1.894   0.424
 2324SOL    HW224115   4.376   1.791   0.434
 2325SOL     OW24116   3.843   1.418   1.653
 2325SOL    HW124117   3.820   1.477   1.724
 2325SOL    HW224118   3.770   1.423   1.592
 2326SOL     OW24119   5.626   4.219   7.142
 2326SOL    HW124120   5.708   4.171   7.135
 2326SOL    HW224121   5.651   4.308   7.165
 2327SOL     OW24122   0.221   2.273   6.236
 2327SOL    HW124123   0.264   2.282   6.321
 2327SOL    HW224124   0.259   2.343   6.183
 2328SOL     OW24125   0.770   4.946   6.708
 2328SOL    HW124126   0.795   4.866   6.662
 2328SOL    HW224127   0.746   4.918   6.796
 2329SOL     OW24128   1.309   4.377   7.144
 2329SOL    HW124129   1.251   4.421   7.208
 2329SOL    HW224130   1.274   4.404   7.059
 2330SOL     OW24131   1.972   1.059   7.178
 2330SOL    HW124132   1.993   0.993   7.113
 2330SOL    HW224133   2.018   1.138   7.148
 2331SOL     OW24134   5.384   4.016   1.243
 2331SOL    HW124135   5.289   4.019   1.233
 2331SOL    HW224136   5.400   4.050   1.331
 2332SOL     OW24137   0.999   5.450   0.049
 2332SOL    HW124138   1.049   5.521   0.008
 2332SOL    HW224139   0.992   5.474   0.141
 2333SOL     OW24140   1.913   0.102   2.143
 2333SOL    HW124141   1.924   0.041   2.216
 2333SOL    HW224142   1.833   0.073   2.099
 2334SOL     OW24143   0.999   2.982   7.678
 2334SOL    HW124144   0.952   2.961   7.759
 2334SOL    HW224145   1.066   2.914   7.671
 2335SOL     OW24146   0.348   5.160   0.732
 2335SOL    HW124147   0.378   5.215   0.660
 2335SOL    HW224148   0.335   5.221   0.805
 2336SOL     OW24149   3.075   4.605   5.564
 2336SOL    HW124150   3.062   4.616   5.470
 2336SOL    HW224151   3.135   4.675   5.589
 2337SOL     OW24152   1.751   3.469   5.871
 2337SOL    HW124153   1.758   3.396   5.932
 2337SOL    HW224154   1.688   3.440   5.805
 2338SOL     OW24155   5.563   1.454   0.583
 2338SOL    HW124156   5.582   1.530   0.529
 2338SOL    HW224157   5.647   1.431   0.623
 2339SOL     OW24158   0.206   3.929   6.365
 2339SOL    HW124159   0.143   3.996   6.389
 2339SOL    HW224160   0.218   3.877   6.445
 2340SOL     OW24161   3.629   6.100   1.408
 2340SOL    HW124162   3.672   6.026   1.451
 2340SOL    HW224163   3.621   6.073   1.317
 2341SOL     OW24164   2.092   4.158   6.557
 2341SOL    HW124165   2.167   4.194   6.605
 2341SOL    HW224166   2.127   4.140   6.469
 2342SOL     OW24167   2.418   4.786   0.375
 2342SOL    HW124168   2.326   4.802   0.356
 2342SOL    HW224169   2.427   4.690   0.372
 2343SOL     OW24170   2.095   0.395   6.691
 2343SOL    HW124171   2.158   0.338   6.735
 2343SOL    HW224172   2.015   0.386   6.742
 2344SOL     OW24173   3.568   0.566   0.157
 2344SOL    HW124174   3.635   0.625   0.191
 2344SOL    HW224175   3.583   0.563   0.063
 2345SOL     OW24176   3.225   3.411   7.048
 2345SOL    HW124177   3.136   3.443   7.065
 2345SOL    HW224178   3.251   3.371   7.131
 2346SOL     OW24179   5.540   3.805   2.708
 2346SOL    HW124180   5.529   3.865   2.782
 2346SOL    HW224181   5.615   3.840   2.659
 2347SOL     OW24182   4.938   4.194   2.280
 2347SOL    HW124183   4.886   4.259   2.327
 2347SOL    HW224184   4.928   4.114   2.330
 2348SOL     OW24185   4.984   0.025   1.089
 2348SOL    HW124186   5.015   0.107   1.050
 2348SOL    HW224187   5.031   0.018   1.172
 2349SOL     OW24188   4.482   1.955   1.476
 2349SOL    HW124189   4.499   1.957   1.382
 2349SOL    HW224190   4.414   2.021   1.489
 2350SOL     OW24191   0.727   0.340   7.353
 2350SOL    HW124192   0.752   0.378   7.269
 2350SOL    HW224193   0.717   0.247   7.334
 2351SOL     OW24194   5.723   5.678   6.630
 2351SOL    HW124195   5.671   5.754   6.656
 2351SOL    HW224196   5.804   5.715   6.595
 2352SOL     OW24197   0.185   5.939   6.929
 2352SOL    HW124198   0.175   6.014   6.988
 2352SOL    HW224199   0.205   5.978   6.844
 2353SOL     OW24200   5.075   1.860   0.134
 2353SOL    HW124201   5.140   1.803   0.175
 2353SOL    HW224202   5.123   1.906   0.065
 2354SOL     OW24203   5.833   3.555   7.423
 2354SOL    HW124204   5.803   3.627   7.478
 2354SOL    HW224205   5.885   3.500   7.482
 2355SOL     OW24206   6.195   4.922   6.956
 2355SOL    HW124207   6.244   4.994   6.915
 2355SOL    HW224208   6.219   4.845   6.905
 2356SOL     OW24209   4.881   5.331   2.011
 2356SOL    HW124210   4.853   5.410   2.056
 2356SOL    HW224211   4.936   5.285   2.074
 2357SOL     OW24212   2.175   4.616   5.791
 2357SOL    HW124213   2.114   4.543   5.792
 2357SOL    HW224214   2.181   4.644   5.882
 2358SOL     OW24215   3.921   6.022   7.079
 2358SOL    HW124216   3.830   5.995   7.091
 2358SOL    HW224217   3.938   6.008   6.986
 2359SOL     OW24218   4.112   2.902   0.249
 2359SOL    HW124219   4.068   2.835   0.198
 2359SOL    HW224220   4.156   2.854   0.319
 2360SOL     OW24221   2.342   3.510   0.976
 2360SOL    HW124222   2.325   3.416   0.970
 2360SOL    HW224223   2.256   3.551   0.961
 2361SOL     OW24224   1.452   4.161   0.731
 2361SOL    HW124225   1.421   4.070   0.735
 2361SOL    HW224226   1.372   4.213   0.736
 2362SOL     OW24227   6.439   5.012   0.528
 2362SOL    HW124228   6.532   5.001   0.548
 2362SOL    HW224229   6.427   4.971   0.442
 2363SOL     OW24230   2.017   3.611   0.107
 2363SOL    HW124231   1.965   3.669   0.051
 2363SOL    HW224232   2.006   3.524   0.068
 2364SOL     OW24233   0.316   2.241   0.883
 2364SOL    HW124234   0.267   2.253   0.964
 2364SOL    HW224235   0.277   2.164   0.842
 2365SOL     OW24236   4.575   0.980   5.774
 2365SOL    HW124237   4.492   0.948   5.738
 2365SOL    HW224238   4.612   1.034   5.704
 2366SOL     OW24239   0.886   0.849   2.047
 2366SOL    HW124240   0.891   0.778   2.111
 2366SOL    HW224241   0.931   0.922   2.090
 2367SOL     OW24242   4.171   4.290   0.457
 2367SOL    HW124243   4.222   4.365   0.427
 2367SOL    HW224244   4.207   4.215   0.409
 2368SOL     OW24245   3.240   3.925   1.414
 2368SOL    HW124246   3.227   3.867   1.339
 2368SOL    HW224247   3.151   3.947   1.443
 2369SOL     OW24248   3.726   4.620   6.468
 2369SOL    HW124249   3.774   4.627   6.386
 2369SOL    HW224250   3.791   4.590   6.532
 2370SOL     OW24251   3.323   2.649   0.061
 2370SOL    HW124252   3.325   2.707  -0.015
 2370SOL    HW224253   3.307   2.706   0.135
 2371SOL     OW24254   2.156   0.184   6.430
 2371SOL    HW124255   2.088   0.186   6.497
 2371SOL    HW224256   2.153   0.094   6.395
 2372SOL     OW24257   5.021   1.534   1.250
 2372SOL    HW124258   5.056   1.456   1.205
 2372SOL    HW224259   4.952   1.565   1.193
 2373SOL     OW24260   3.025   1.763   0.941
 2373SOL    HW124261   2.930   1.752   0.935
 2373SOL    HW224262   3.040   1.794   1.030
 2374SOL     OW24263   3.872   1.548   1.102
 2374SOL    HW124264   3.847   1.506   1.020
 2374SOL    HW224265   3.966   1.564   1.093
 2375SOL     OW24266   5.563   5.909   1.155
 2375SOL    HW124267   5.613   5.838   1.116
 2375SOL    HW224268   5.540   5.966   1.082
 2376SOL     OW24269   5.883   0.815   6.746
 2376SOL    HW124270   5.794   0.845   6.727
 2376SOL    HW224271   5.872   0.722   6.768
 2377SOL     OW24272   1.534   0.652   0.464
 2377SOL    HW124273   1.617   0.657   0.417
 2377SOL    HW224274   1.501   0.742   0.465
 2378SOL     OW24275   5.137   4.757   2.116
 2378SOL    HW124276   5.173   4.685   2.064
 2378SOL    HW224277   5.156   4.733   2.207
 2379SOL     OW24278   4.345   5.733   0.510
 2379SOL    HW124279   4.351   5.677   0.587
 2379SOL    HW224280   4.252   5.744   0.494
 2380SOL     OW24281   1.703   1.753   7.071
 2380SOL    HW124282   1.687   1.734   7.163
 2380SOL    HW224283   1.686   1.847   7.063
 2381SOL     OW24284   1.231   2.598   0.173
 2381SOL    HW124285   1.233   2.526   0.111
 2381SOL    HW224286   1.314   2.645   0.158
 2382SOL     OW24287   3.454   3.820   1.183
 2382SOL    HW124288   3.453   3.734   1.226
 2382SOL    HW224289   3.415   3.804   1.097
 2383SOL     OW24290   0.642   5.251   7.623
 2383SOL    HW124291   0.725   5.227   7.579
 2383SOL    HW224292   0.664   5.329   7.674
 2384SOL     OW24293   1.766   2.085   7.508
 2384SOL    HW124294   1.785   2.104   7.600
 2384SOL    HW224295   1.687   2.135   7.488
 2385SOL     OW24296   1.096   0.151   7.541
 2385SOL    HW124297   1.092   0.209   7.617
 2385SOL    HW224298   1.174   0.179   7.493
 2386SOL     OW24299   1.706   3.027   5.699
 2386SOL    HW124300   1.771   3.026   5.629
 2386SOL    HW224301   1.646   3.097   5.675
 2387SOL     OW24302   3.243   3.994   6.990
 2387SOL    HW124303   3.176   4.000   7.058
 2387SOL    HW224304   3.285   4.080   6.991
 2388SOL     OW24305   2.042   1.561   7.295
 2388SOL    HW124306   2.060   1.634   7.237
 2388SOL    HW224307   2.113   1.498   7.277
 2389SOL     OW24308   3.190   1.226   1.112
 2389SOL    HW124309   3.127   1.222   1.184
 2389SOL    HW224310   3.149   1.285   1.048
 2390SOL     OW24311   2.565   2.057   6.708
 2390SOL    HW124312   2.583   2.029   6.618
 2390SOL    HW224313   2.605   2.143   6.715
 2391SOL     OW24314   6.163   1.549   1.445
 2391SOL    HW124315   6.215   1.606   1.502
 2391SOL    HW224316   6.157   1.595   1.362
 2392SOL     OW24317   3.328   2.849   7.640
 2392SOL    HW124318   3.386   2.907   7.690
 2392SOL    HW224319   3.356   2.859   7.549
 2393SOL     OW24320   6.421   6.237   1.061
 2393SOL    HW124321   6.374   6.320   1.067
 2393SOL    HW224322   6.460   6.238   0.974
 2394SOL     OW24323   1.472   4.154   1.503
 2394SOL    HW124324   1.496   4.158   1.595
 2394SOL    HW224325   1.529   4.087   1.466
 2395SOL     OW24326   1.504   0.090   6.440
 2395SOL    HW124327   1.449   0.046   6.504
 2395SOL    HW224328   1.473   0.057   6.355
 2396SOL     OW24329   2.547   4.063   7.575
 2396SOL    HW124330   2.595   3.985   7.605
 2396SOL    HW224331   2.567   4.069   7.482
 2397SOL     OW24332   3.365   6.174   0.685
 2397SOL    HW124333   3.361   6.268   0.669
 2397SOL    HW224334   3.419   6.140   0.614
 2398SOL     OW24335   3.282   5.743   6.101
 2398SOL    HW124336   3.238   5.814   6.147
 2398SOL    HW224337   3.224   5.723   6.027
 2399SOL     OW24338   2.516   3.926   2.201
 2399SOL    HW124339   2.510   3.849   2.143
 2399SOL    HW224340   2.440   3.979   2.177
 2400SOL     OW24341   2.903   2.786   1.346
 2400SOL    HW124342   2.854   2.706   1.365
 2400SOL    HW224343   2.876   2.847   1.415
 2401SOL     OW24344   3.464   6.224   7.305
 2401SOL    HW124345   3.427   6.188   7.225
 2401SOL    HW224346   3.505   6.149   7.348
 2402SOL     OW24347   4.557   3.674   7.540
 2402SOL    HW124348   4.644   3.686   7.579
 2402SOL    HW224349   4.520   3.598   7.586
 2403SOL     OW24350   4.012   1.855   6.969
 2403SOL    HW124351   4.073   1.892   7.033
 2403SOL    HW224352   3.971   1.931   6.928
 2404SOL     OW24353   5.889   5.931   7.251
 2404SOL    HW124354   5.833   5.897   7.181
 2404SOL    HW224355   5.978   5.918   7.218
 2405SOL     OW24356   5.756   3.479   0.662
 2405SOL    HW124357   5.761   3.542   0.733
 2405SOL    HW224358   5.814   3.407   0.689
 2406SOL     OW24359   1.289   2.120   7.748
 2406SOL    HW124360   1.378   2.152   7.737
 2406SOL    HW224361   1.293   2.061   7.822
 2407SOL     OW24362   1.481   1.415   0.398
 2407SOL    HW124363   1.418   1.473   0.354
 2407SOL    HW224364   1.430   1.337   0.418
 2408SOL     OW24365   5.303   1.281   2.120
 2408SOL    HW124366   5.232   1.301   2.059
 2408SOL    HW224367   5.311   1.360   2.173
 2409SOL     OW24368   1.453   3.575   6.704
 2409SOL    HW124369   1.371   3.549   6.663
 2409SOL    HW224370   1.435   3.573   6.798
 2410SOL     OW24371   5.941   2.130   5.711
 2410SOL    HW124372   5.863   2.077   5.722
 2410SOL    HW224373   5.917   2.196   5.646
 2411SOL     OW24374   1.455   2.926   7.574
 2411SOL    HW124375   1.461   2.993   7.505
 2411SOL    HW224376   1.361   2.920   7.593
 2412SOL     OW24377   1.674   6.280   6.192
 2412SOL    HW124378   1.650   6.188   6.197
 2412SOL    HW224379   1.770   6.280   6.189
 2413SOL     OW24380   5.840   1.074   0.601
 2413SOL    HW124381   5.858   0.984   0.573
 2413SOL    HW224382   5.826   1.068   0.695
 2414SOL     OW24383   3.025   5.808   0.489
 2414SOL    HW124384   3.086   5.867   0.534
 2414SOL    HW224385   3.009   5.738   0.551
 2415SOL     OW24386   0.095   0.364   0.041
 2415SOL    HW124387   0.163   0.299   0.025
 2415SOL    HW224388   0.021   0.335  -0.011
 2416SOL     OW24389   0.773   3.546   5.912
 2416SOL    HW124390   0.807   3.528   5.824
 2416SOL    HW224391   0.677   3.545   5.900
 2417SOL     OW24392   2.841   0.204   0.417
 2417SOL    HW124393   2.919   0.224   0.469
 2417SOL    HW224394   2.869   0.214   0.326
 2418SOL     OW24395   2.843   0.687   1.128
 2418SOL    HW124396   2.848   0.597   1.096
 2418SOL    HW224397   2.777   0.729   1.072
 2419SOL     OW24398   0.774   2.494   6.167
 2419SOL    HW124399   0.822   2.575   6.183
 2419SOL    HW224400   0.841   2.426   6.171
 2420SOL     OW24401   4.677   4.537   6.244
 2420SOL    HW124402   4.621   4.522   6.168
 2420SOL    HW224403   4.659   4.463   6.302
 2421SOL     OW24404   1.059   2.086   2.182
 2421SOL    HW124405   1.021   2.130   2.107
 2421SOL    HW224406   0.984   2.055   2.233
 2422SOL     OW24407   3.648   1.400   0.677
 2422SOL    HW124408   3.623   1.433   0.764
 2422SOL    HW224409   3.585   1.330   0.659
 2423SOL     OW24410   5.251   1.999   7.703
 2423SOL    HW124411   5.212   2.076   7.744
 2423SOL    HW224412   5.224   2.005   7.611
 2424SOL     OW24413   1.967   0.878   5.456
 2424SOL    HW124414   1.927   0.903   5.539
 2424SOL    HW224415   1.995   0.788   5.469
 2425SOL     OW24416   3.979   3.073   0.059
 2425SOL    HW124417   3.893   3.087   0.100
 2425SOL    HW224418   4.029   3.025   0.124
 2426SOL     OW24419   2.961   5.798   2.077
 2426SOL    HW124420   2.901   5.872   2.079
 2426SOL    HW224421   3.048   5.838   2.074
 2427SOL     OW24422   0.928   6.407   6.438
 2427SOL    HW124423   0.929   6.412   6.533
 2427SOL    HW224424   0.867   6.336   6.418
 2428SOL     OW24425   3.731   1.724   2.418
 2428SOL    HW124426   3.657   1.750   2.363
 2428SOL    HW224427   3.701   1.644   2.462
 2429SOL     OW24428   5.699   2.222   5.888
 2429SOL    HW124429   5.698   2.142   5.836
 2429SOL    HW224430   5.738   2.195   5.971
 2430SOL     OW24431   4.533   1.282   0.420
 2430SOL    HW124432   4.590   1.277   0.497
 2430SOL    HW224433   4.531   1.375   0.398
 2431SOL     OW24434   4.913   2.739   6.166
 2431SOL    HW124435   4.857   2.672   6.128
 2431SOL    HW224436   5.000   2.720   6.131
 2432SOL     OW24437   5.990   4.175   0.553
 2432SOL    HW124438   5.927   4.139   0.491
 2432SOL    HW224439   5.972   4.129   0.635
 2433SOL     OW24440   3.682   0.461   0.848
 2433SOL    HW124441   3.650   0.542   0.808
 2433SOL    HW224442   3.679   0.479   0.942
 2434SOL     OW24443   2.992   3.993   1.516
 2434SOL    HW124444   2.906   3.953   1.529
 2434SOL    HW224445   2.976   4.063   1.452
 2435SOL     OW24446   3.655   4.044   1.486
 2435SOL    HW124447   3.718   4.080   1.548
 2435SOL    HW224448   3.699   3.967   1.449
 2436SOL     OW24449   2.412   3.756   7.186
 2436SOL    HW124450   2.448   3.750   7.274
 2436SOL    HW224451   2.318   3.771   7.199
 2437SOL     OW24452   3.218   4.283   1.309
 2437SOL    HW124453   3.260   4.303   1.225
 2437SOL    HW224454   3.287   4.239   1.359
 2438SOL     OW24455   3.115   5.715   7.032
 2438SOL    HW124456   3.122   5.621   7.044
 2438SOL    HW224457   3.124   5.728   6.937
 2439SOL     OW24458   1.129   2.325   1.662
 2439SOL    HW124459   1.199   2.270   1.697
 2439SOL    HW224460   1.088   2.365   1.739
 2440SOL     OW24461   3.190   0.186   1.196
 2440SOL    HW124462   3.148   0.108   1.159
 2440SOL    HW224463   3.126   0.256   1.183
 2441SOL     OW24464   4.820   4.068   6.881
 2441SOL    HW124465   4.771   4.130   6.827
 2441SOL    HW224466   4.905   4.061   6.838
 2442SOL     OW24467   1.906   1.761   5.538
 2442SOL    HW124468   1.835   1.808   5.495
 2442SOL    HW224469   1.982   1.776   5.482
 2443SOL     OW24470   0.718   6.370   2.175
 2443SOL    HW124471   0.626   6.360   2.199
 2443SOL    HW224472   0.719   6.444   2.114
 2444SOL     OW24473   5.185   1.038   7.094
 2444SOL    HW124474   5.145   0.992   7.168
 2444SOL    HW224475   5.227   0.969   7.043
 2445SOL     OW24476   1.551   3.650   1.221
 2445SOL    HW124477   1.611   3.620   1.289
 2445SOL    HW224478   1.530   3.740   1.245
 2446SOL     OW24479   4.530   5.884   6.373
 2446SOL    HW124480   4.470   5.946   6.331
 2446SOL    HW224481   4.601   5.938   6.407
 2447SOL     OW24482   5.132   5.396   6.186
 2447SOL    HW124483   5.173   5.328   6.239
 2447SOL    HW224484   5.185   5.474   6.201
 2448SOL     OW24485   5.339   1.790   6.892
 2448SOL    HW124486   5.360   1.707   6.935
 2448SOL    HW224487   5.269   1.768   6.830
 2449SOL     OW24488   5.446   3.766   6.150
 2449SOL    HW124489   5.443   3.711   6.072
 2449SOL    HW224490   5.451   3.705   6.223
 2450SOL     OW24491   5.781   3.720   0.189
 2450SOL    HW124492   5.806   3.693   0.278
 2450SOL    HW224493   5.805   3.812   0.184
 2451SOL     OW24494   1.815   2.549   7.187
 2451SOL    HW124495   1.843   2.565   7.097
 2451SOL    HW224496   1.756   2.474   7.180
 2452SOL     OW24497   2.822   2.987   6.544
 2452SOL    HW124498   2.829   2.988   6.639
 2452SOL    HW224499   2.731   3.010   6.526
 2453SOL     OW24500   6.294   3.037   1.877
 2453SOL    HW124501   6.302   2.966   1.941
 2453SOL    HW224502   6.200   3.053   1.870
 2454SOL     OW24503   0.155   6.032   7.728
 2454SOL    HW124504   0.149   6.126   7.707
 2454SOL    HW224505   0.123   5.988   7.649
 2455SOL     OW24506   4.313   5.283   6.441
 2455SOL    HW124507   4.329   5.285   6.347
 2455SOL    HW224508   4.400   5.288   6.481
 2456SOL     OW24509   4.908   3.186   1.342
 2456SOL    HW124510   4.870   3.158   1.425
 2456SOL    HW224511   4.853   3.259   1.313
 2457SOL     OW24512   1.163   3.686   6.991
 2457SOL    HW124513   1.125   3.739   6.920
 2457SOL    HW224514   1.097   3.688   7.060
 2458SOL     OW24515   4.270   2.205   0.659
 2458SOL    HW124516   4.264   2.254   0.741
 2458SOL    HW224517   4.194   2.147   0.660
 2459SOL     OW24518   1.606   3.803   7.095
 2459SOL    HW124519   1.582   3.867   7.161
 2459SOL    HW224520   1.701   3.807   7.090
 2460SOL     OW24521   5.784   2.366   1.732
 2460SOL    HW124522   5.808   2.397   1.819
 2460SOL    HW224523   5.849   2.299   1.711
 2461SOL     OW24524   4.865   2.139   0.883
 2461SOL    HW124525   4.949   2.111   0.920
 2461SOL    HW224526   4.805   2.068   0.906
 2462SOL     OW24527   3.296   5.213   6.102
 2462SOL    HW124528   3.342   5.225   6.019
 2462SOL    HW224529   3.266   5.300   6.127
 2463SOL     OW24530   2.412   3.157   7.143
 2463SOL    HW124531   2.494   3.148   7.191
 2463SOL    HW224532   2.375   3.240   7.174
 2464SOL     OW24533   1.930   4.596   1.451
 2464SOL    HW124534   1.851   4.560   1.492
 2464SOL    HW224535   1.981   4.632   1.524
 2465SOL     OW24536   0.944   4.454   6.308
 2465SOL    HW124537   0.960   4.423   6.397
 2465SOL    HW224538   1.025   4.436   6.261
 2466SOL     OW24539   5.040   1.270   7.183
 2466SOL    HW124540   5.089   1.189   7.195
 2466SOL    HW224541   4.950   1.248   7.205
 2467SOL     OW24542   0.244   1.110   6.334
 2467SOL    HW124543   0.320   1.155   6.299
 2467SOL    HW224544   0.228   1.037   6.274
 2468SOL     OW24545   5.353   5.529   5.540
 2468SOL    HW124546   5.393   5.578   5.613
 2468SOL    HW224547   5.349   5.592   5.468
 2469SOL     OW24548   2.607   1.499   0.642
 2469SOL    HW124549   2.685   1.508   0.587
 2469SOL    HW224550   2.592   1.405   0.646
 2470SOL     OW24551   5.993   4.547   7.406
 2470SOL    HW124552   6.065   4.600   7.373
 2470SOL    HW224553   6.002   4.548   7.501
 2471SOL     OW24554   0.652   5.020   2.195
 2471SOL    HW124555   0.613   5.035   2.109
 2471SOL    HW224556   0.725   4.960   2.179
 2472SOL     OW24557   4.994   3.916   6.067
 2472SOL    HW124558   5.020   3.900   5.976
 2472SOL    HW224559   4.907   3.956   6.059
 2473SOL     OW24560   1.831   4.408   1.020
 2473SOL    HW124561   1.830   4.312   1.017
 2473SOL    HW224562   1.788   4.434   0.938
 2474SOL     OW24563   3.493   3.779   7.239
 2474SOL    HW124564   3.419   3.838   7.227
 2474SOL    HW224565   3.497   3.729   7.157
 2475SOL     OW24566   3.118   6.315   5.965
 2475SOL    HW124567   3.211   6.290   5.964
 2475SOL    HW224568   3.119   6.409   5.944
 2476SOL     OW24569   0.240   5.452   0.297
 2476SOL    HW124570   0.195   5.375   0.332
 2476SOL    HW224571   0.182   5.485   0.229
 2477SOL     OW24572   0.274   0.777   0.225
 2477SOL    HW124573   0.336   0.709   0.197
 2477SOL    HW224574   0.305   0.801   0.313
 2478SOL     OW24575   5.196   4.550   6.952
 2478SOL    HW124576   5.190   4.636   6.993
 2478SOL    HW224577   5.106   4.517   6.950
 2479SOL     OW24578   5.057   0.678   0.576
 2479SOL    HW124579   5.096   0.690   0.489
 2479SOL    HW224580   5.039   0.585   0.582
 2480SOL     OW24581   5.172   2.225   6.274
 2480SOL    HW124582   5.210   2.261   6.194
 2480SOL    HW224583   5.090   2.185   6.245
 2481SOL     OW24584   5.165   2.066   0.899
 2481SOL    HW124585   5.204   2.149   0.929
 2481SOL    HW224586   5.225   2.034   0.833
 2482SOL     OW24587   2.828   4.227   1.614
 2482SOL    HW124588   2.889   4.214   1.542
 2482SOL    HW224589   2.759   4.162   1.600
 2483SOL     OW24590   2.026   3.563   6.896
 2483SOL    HW124591   2.001   3.637   6.951
 2483SOL    HW224592   1.943   3.530   6.861
 2484SOL     OW24593   0.021   3.651   6.174
 2484SOL    HW124594  -0.002   3.733   6.130
 2484SOL    HW224595   0.102   3.622   6.130
 2485SOL     OW24596   2.016   1.251   0.866
 2485SOL    HW124597   1.926   1.282   0.879
 2485SOL    HW224598   2.053   1.312   0.802
 2486SOL     OW24599   5.672   3.001   7.660
 2486SOL    HW124600   5.643   2.922   7.705
 2486SOL    HW224601   5.634   3.073   7.711
 2487SOL     OW24602   4.861   5.690   1.350
 2487SOL    HW124603   4.848   5.693   1.445
 2487SOL    HW224604   4.951   5.720   1.338
 2488SOL     OW24605   5.319   1.538   2.744
 2488SOL    HW124606   5.342   1.486   2.821
 2488SOL    HW224607   5.402   1.557   2.701
 2489SOL     OW24608   4.601   5.035   1.531
 2489SOL    HW124609   4.665   5.046   1.600
 2489SOL    HW224610   4.633   5.089   1.459
 2490SOL     OW24611   0.815   4.317   0.068
 2490SOL    HW124612   0.839   4.329   0.159
 2490SOL    HW224613   0.870   4.378   0.020
 2491SOL     OW24614   6.188   3.086   7.759
 2491SOL    HW124615   6.120   3.019   7.751
 2491SOL    HW224616   6.214   3.105   7.669
 2492SOL     OW24617   0.984   6.219   0.178
 2492SOL    HW124618   0.894   6.191   0.193
 2492SOL    HW224619   1.019   6.152   0.119
 2493SOL     OW24620   0.612   5.615   5.654
 2493SOL    HW124621   0.696   5.638   5.694
 2493SOL    HW224622   0.636   5.566   5.575
 2494SOL     OW24623   3.760   4.365   7.303
 2494SOL    HW124624   3.774   4.454   7.336
 2494SOL    HW224625   3.721   4.318   7.377
 2495SOL     OW24626   2.378   1.548   6.583
 2495SOL    HW124627   2.421   1.511   6.506
 2495SOL    HW224628   2.318   1.480   6.613
 2496SOL     OW24629   3.640   5.462   6.908
 2496SOL    HW124630   3.729   5.456   6.874
 2496SOL    HW224631   3.614   5.371   6.923
 2497SOL     OW24632   1.791   0.837   1.352
 2497SOL    HW124633   1.747   0.762   1.311
 2497SOL    HW224634   1.851   0.869   1.284
 2498SOL     OW24635   5.293   3.551   6.591
 2498SOL    HW124636   5.268   3.461   6.568
 2498SOL    HW224637   5.332   3.543   6.678
 2499SOL     OW24638   2.755   6.167   0.361
 2499SOL    HW124639   2.809   6.182   0.439
 2499SOL    HW224640   2.769   6.075   0.340
 2500SOL     OW24641   2.811   1.493   0.891
 2500SOL    HW124642   2.786   1.461   0.804
 2500SOL    HW224643   2.789   1.586   0.890
 2501SOL     OW24644   3.864   3.709   7.004
 2501SOL    HW124645   3.937   3.648   6.992
 2501SOL    HW224646   3.883   3.780   6.942
 2502SOL     OW24647   3.298   0.521   6.232
 2502SOL    HW124648   3.245   0.446   6.260
 2502SOL    HW224649   3.246   0.562   6.162
 2503SOL     OW24650   5.824   2.324   0.973
 2503SOL    HW124651   5.882   2.251   0.994
 2503SOL    HW224652   5.868   2.401   1.008
 2504SOL     OW24653   2.436   4.683   5.681
 2504SOL    HW124654   2.427   4.762   5.628
 2504SOL    HW224655   2.346   4.658   5.703
 2505SOL     OW24656   0.362   0.708   1.987
 2505SOL    HW124657   0.412   0.626   1.986
 2505SOL    HW224658   0.429   0.776   1.975
 2506SOL     OW24659   1.265   0.443   6.993
 2506SOL    HW124660   1.201   0.461   7.063
 2506SOL    HW224661   1.294   0.530   6.965
 2507SOL     OW24662   0.058   2.237   0.362
 2507SOL    HW124663   0.152   2.254   0.363
 2507SOL    HW224664   0.034   2.240   0.269
 2508SOL     OW24665   5.205   2.983   7.011
 2508SOL    HW124666   5.149   2.957   6.938
 2508SOL    HW224667   5.242   2.901   7.044
 2509SOL     OW24668   1.183   4.653   5.585
 2509SOL    HW124669   1.245   4.726   5.584
 2509SOL    HW224670   1.116   4.679   5.648
 2510SOL     OW24671   0.979   2.065   5.449
 2510SOL    HW124672   1.006   2.088   5.538
 2510SOL    HW224673   0.883   2.072   5.451
 2511SOL     OW24674   1.802   5.423   0.119
 2511SOL    HW124675   1.797   5.372   0.200
 2511SOL    HW224676   1.815   5.513   0.147
 2512SOL     OW24677   3.977   1.806   0.784
 2512SOL    HW124678   4.025   1.730   0.816
 2512SOL    HW224679   3.935   1.843   0.862
 2513SOL     OW24680   1.821   1.742   6.843
 2513SOL    HW124681   1.754   1.739   6.775
 2513SOL    HW224682   1.773   1.759   6.924
 2514SOL     OW24683   2.023   3.295   0.787
 2514SOL    HW124684   1.979   3.213   0.768
 2514SOL    HW224685   1.953   3.360   0.788
 2515SOL     OW24686   1.811   1.752   0.932
 2515SOL    HW124687   1.751   1.702   0.988
 2515SOL    HW224688   1.771   1.747   0.845
 2516SOL     OW24689   3.789   4.616   0.722
 2516SOL    HW124690   3.799   4.603   0.816
 2516SOL    HW224691   3.737   4.696   0.714
 2517SOL     OW24692   2.320   2.756   7.025
 2517SOL    HW124693   2.232   2.787   7.047
 2517SOL    HW224694   2.306   2.688   6.960
 2518SOL     OW24695   3.873   6.428   2.064
 2518SOL    HW124696   3.879   6.415   1.970
 2518SOL    HW224697   3.963   6.424   2.096
 2519SOL     OW24698   6.119   0.860   0.210
 2519SOL    HW124699   6.046   0.898   0.260
 2519SOL    HW224700   6.132   0.773   0.249
 2520SOL     OW24701   0.079   3.866   7.579
 2520SOL    HW124702   0.168   3.900   7.580
 2520SOL    HW224703   0.047   3.880   7.668
 2521SOL     OW24704   2.463   4.924   6.520
 2521SOL    HW124705   2.527   4.994   6.506
 2521SOL    HW224706   2.489   4.854   6.459
 2522SOL     OW24707   5.597   5.557   6.198
 2522SOL    HW124708   5.652   5.632   6.222
 2522SOL    HW224709   5.646   5.481   6.227
 2523SOL     OW24710   0.726   4.601   0.191
 2523SOL    HW124711   0.766   4.686   0.172
 2523SOL    HW224712   0.688   4.573   0.107
 2524SOL     OW24713   2.848   0.375   6.908
 2524SOL    HW124714   2.922   0.392   6.850
 2524SOL    HW224715   2.778   0.348   6.849
 2525SOL     OW24716   2.453   1.769   0.676
 2525SOL    HW124717   2.377   1.715   0.657
 2525SOL    HW224718   2.527   1.709   0.670
 2526SOL     OW24719   1.590   5.113   1.589
 2526SOL    HW124720   1.651   5.185   1.574
 2526SOL    HW224721   1.639   5.035   1.565
 2527SOL     OW24722   5.828   4.024   0.393
 2527SOL    HW124723   5.806   3.944   0.440
 2527SOL    HW224724   5.780   4.017   0.310
 2528SOL     OW24725   0.215   6.273   0.557
 2528SOL    HW124726   0.279   6.328   0.602
 2528SOL    HW224727   0.265   6.231   0.487
 2529SOL     OW24728   3.997   6.409   6.219
 2529SOL    HW124729   3.999   6.442   6.129
 2529SOL    HW224730   4.007   6.315   6.209
 2530SOL     OW24731   4.529   5.040   1.257
 2530SOL    HW124732   4.442   5.029   1.220
 2530SOL    HW224733   4.515   5.034   1.352
 2531SOL     OW24734   3.489   4.681   1.566
 2531SOL    HW124735   3.424   4.724   1.511
 2531SOL    HW224736   3.552   4.643   1.504
 2532SOL     OW24737   3.800   0.545   7.463
 2532SOL    HW124738   3.755   0.573   7.382
 2532SOL    HW224739   3.888   0.521   7.434
 2533SOL     OW24740   3.261   2.193   6.904
 2533SOL    HW124741   3.338   2.140   6.885
 2533SOL    HW224742   3.187   2.133   6.895
 2534SOL     OW24743   3.309   0.514   0.216
 2534SOL    HW124744   3.312   0.418   0.211
 2534SOL    HW224745   3.399   0.542   0.201
 2535SOL     OW24746   2.242   5.308   6.226
 2535SOL    HW124747   2.184   5.376   6.192
 2535SOL    HW224748   2.292   5.279   6.149
 2536SOL     OW24749   6.083   3.761   5.783
 2536SOL    HW124750   6.058   3.847   5.750
 2536SOL    HW224751   6.151   3.780   5.848
 2537SOL     OW24752   1.644   6.008   1.467
 2537SOL    HW124753   1.690   6.074   1.415
 2537SOL    HW224754   1.576   6.058   1.512
 2538SOL     OW24755   3.947   0.720   6.428
 2538SOL    HW124756   3.936   0.707   6.522
 2538SOL    HW224757   3.892   0.795   6.407
 2539SOL     OW24758   4.560   2.664   0.369
 2539SOL    HW124759   4.565   2.629   0.458
 2539SOL    HW224760   4.558   2.587   0.312
 2540SOL     OW24761   3.290   4.666   7.199
 2540SOL    HW124762   3.317   4.660   7.107
 2540SOL    HW224763   3.358   4.718   7.241
 2541SOL     OW24764   6.147   0.057   6.109
 2541SOL    HW124765   6.106  -0.030   6.112
 2541SOL    HW224766   6.233   0.042   6.070
 2542SOL     OW24767   4.863   3.775   6.453
 2542SOL    HW124768   4.841   3.766   6.546
 2542SOL    HW224769   4.954   3.746   6.447
 2543SOL     OW24770   4.191   0.051   0.727
 2543SOL    HW124771   4.171   0.122   0.665
 2543SOL    HW224772   4.137   0.071   0.804
 2544SOL     OW24773   1.079   2.056   6.578
 2544SOL    HW124774   0.990   2.084   6.601
 2544SOL    HW224775   1.126   2.053   6.661
 2545SOL     OW24776   2.542   2.248   0.241
 2545SOL    HW124777   2.585   2.317   0.190
 2545SOL    HW224778   2.453   2.245   0.207
 2546SOL     OW24779   6.008   2.329   7.568
 2546SOL    HW124780   5.937   2.314   7.631
 2546SOL    HW224781   6.029   2.241   7.536
 2547SOL     OW24782   1.695   2.782   1.040
 2547SOL    HW124783   1.624   2.719   1.025
 2547SOL    HW224784   1.765   2.754   0.982
 2548SOL     OW24785   4.192   5.937   1.290
 2548SOL    HW124786   4.266   5.919   1.347
 2548SOL    HW224787   4.136   5.860   1.297
 2549SOL     OW24788   3.126   2.469   7.420
 2549SOL    HW124789   3.047   2.415   7.423
 2549SOL    HW224790   3.173   2.448   7.500
 2550SOL     OW24791   2.609   0.208   1.803
 2550SOL    HW124792   2.571   0.120   1.800
 2550SOL    HW224793   2.694   0.195   1.845
 2551SOL     OW24794   5.960   1.997   0.736
 2551SOL    HW124795   5.992   1.927   0.679
 2551SOL    HW224796   5.999   2.077   0.699
 2552SOL     OW24797   4.389   4.130   2.542
 2552SOL    HW124798   4.354   4.210   2.503
 2552SOL    HW224799   4.478   4.123   2.507
 2553SOL     OW24800   1.738   1.490   0.326
 2553SOL    HW124801   1.797   1.443   0.385
 2553SOL    HW224802   1.656   1.439   0.329
 2554SOL     OW24803   5.220   2.365   0.444
 2554SOL    HW124804   5.272   2.420   0.385
 2554SOL    HW224805   5.283   2.301   0.479
 2555SOL     OW24806   5.334   2.943   5.909
 2555SOL    HW124807   5.300   3.001   5.841
 2555SOL    HW224808   5.391   2.882   5.862
 2556SOL     OW24809   0.773   1.379   0.713
 2556SOL    HW124810   0.744   1.293   0.745
 2556SOL    HW224811   0.725   1.391   0.631
 2557SOL     OW24812   5.215   4.399   6.680
 2557SOL    HW124813   5.285   4.448   6.638
 2557SOL    HW224814   5.191   4.451   6.757
 2558SOL     OW24815   1.348   5.427   0.682
 2558SOL    HW124816   1.392   5.371   0.619
 2558SOL    HW224817   1.364   5.386   0.767
 2559SOL     OW24818   3.657   0.514   1.096
 2559SOL    HW124819   3.608   0.485   1.174
 2559SOL    HW224820   3.663   0.609   1.106
 2560SOL     OW24821   6.254   6.090   1.540
 2560SOL    HW124822   6.268   6.049   1.455
 2560SOL    HW224823   6.333   6.141   1.555
 2561SOL     OW24824   2.873   2.456   0.546
 2561SOL    HW124825   2.880   2.383   0.484
 2561SOL    HW224826   2.948   2.512   0.526
 2562SOL     OW24827   0.537   6.313   7.529
 2562SOL    HW124828   0.593   6.292   7.603
 2562SOL    HW224829   0.522   6.408   7.536
 2563SOL     OW24830   4.155   3.326   0.305
 2563SOL    HW124831   4.135   3.346   0.214
 2563SOL    HW224832   4.244   3.357   0.319
 2564SOL     OW24833   6.204   3.222   0.895
 2564SOL    HW124834   6.121   3.187   0.862
 2564SOL    HW224835   6.266   3.208   0.824
 2565SOL     OW24836   5.307   4.392   1.161
 2565SOL    HW124837   5.254   4.349   1.228
 2565SOL    HW224838   5.315   4.326   1.091
 2566SOL     OW24839   6.019   2.592   7.259
 2566SOL    HW124840   5.935   2.590   7.305
 2566SOL    HW224841   6.078   2.539   7.312
 2567SOL     OW24842   1.308   1.041   6.837
 2567SOL    HW124843   1.316   1.124   6.790
 2567SOL    HW224844   1.346   0.976   6.778
 2568SOL     OW24845   1.556   5.051   5.925
 2568SOL    HW124846   1.611   5.097   5.861
 2568SOL    HW224847   1.485   5.112   5.944
 2569SOL     OW24848   0.386   2.015   7.484
 2569SOL    HW124849   0.469   2.062   7.482
 2569SOL    HW224850   0.327   2.069   7.432
 2570SOL     OW24851   4.080   2.125   6.626
 2570SOL    HW124852   4.040   2.124   6.713
 2570SOL    HW224853   4.037   2.053   6.579
 2571SOL     OW24854   3.922   2.876   0.932
 2571SOL    HW124855   3.952   2.965   0.912
 2571SOL    HW224856   3.829   2.887   0.953
 2572SOL     OW24857   5.563   1.552   7.318
 2572SOL    HW124858   5.630   1.604   7.363
 2572SOL    HW224859   5.539   1.484   7.381
 2573SOL     OW24860   1.765   0.991   1.785
 2573SOL    HW124861   1.717   0.919   1.826
 2573SOL    HW224862   1.708   1.067   1.797
 2574SOL     OW24863   6.137   0.998   7.303
 2574SOL    HW124864   6.087   1.000   7.384
 2574SOL    HW224865   6.226   0.977   7.331
 2575SOL     OW24866   5.692   6.091   0.866
 2575SOL    HW124867   5.683   6.172   0.815
 2575SOL    HW224868   5.621   6.096   0.930
 2576SOL     OW24869   6.027   0.191   7.345
 2576SOL    HW124870   5.976   0.153   7.274
 2576SOL    HW224871   6.072   0.266   7.306
 2577SOL     OW24872   5.670   2.433   7.123
 2577SOL    HW124873   5.677   2.374   7.198
 2577SOL    HW224874   5.611   2.502   7.152
 2578SOL     OW24875   0.505   5.946   6.141
 2578SOL    HW124876   0.466   5.957   6.054
 2578SOL    HW224877   0.481   6.026   6.188
 2579SOL     OW24878   3.520   0.341   2.212
 2579SOL    HW124879   3.572   0.386   2.145
 2579SOL    HW224880   3.475   0.411   2.259
 2580SOL     OW24881   3.513   0.422   6.922
 2580SOL    HW124882   3.419   0.404   6.916
 2580SOL    HW224883   3.554   0.358   6.864
 2581SOL     OW24884   0.023   4.202   1.494
 2581SOL    HW124885   0.054   4.200   1.404
 2581SOL    HW224886  -0.072   4.194   1.486
 2582SOL     OW24887   0.618   6.291   1.451
 2582SOL    HW124888   0.585   6.346   1.380
 2582SOL    HW224889   0.652   6.353   1.516
 2583SOL     OW24890   1.240   3.141   7.709
 2583SOL    HW124891   1.184   3.087   7.654
 2583SOL    HW224892   1.190   3.154   7.789
 2584SOL     OW24893   4.877   2.990   0.684
 2584SOL    HW124894   4.955   3.028   0.643
 2584SOL    HW224895   4.815   3.062   0.690
 2585SOL     OW24896   5.136   3.532   7.044
 2585SOL    HW124897   5.096   3.495   7.123
 2585SOL    HW224898   5.214   3.577   7.077
 2586SOL     OW24899   5.721   0.778   1.822
 2586SOL    HW124900   5.741   0.871   1.823
 2586SOL    HW224901   5.802   0.736   1.851
 2587SOL     OW24902   2.483   3.877   0.272
 2587SOL    HW124903   2.394   3.893   0.242
 2587SOL    HW224904   2.523   3.964   0.275
 2588SOL     OW24905   2.563   2.779   0.183
 2588SOL    HW124906   2.511   2.702   0.205
 2588SOL    HW224907   2.638   2.775   0.241
 2589SOL     OW24908   4.994   4.650   6.483
 2589SOL    HW124909   4.938   4.660   6.561
 2589SOL    HW224910   4.932   4.649   6.410
 2590SOL     OW24911   6.169   6.048   7.713
 2590SOL    HW124912   6.160   6.125   7.769
 2590SOL    HW224913   6.182   6.083   7.625
 2591SOL     OW24914   2.012   3.478   0.372
 2591SOL    HW124915   1.945   3.497   0.306
 2591SOL    HW224916   2.035   3.563   0.408
 2592SOL     OW24917   4.754   4.486   1.222
 2592SOL    HW124918   4.667   4.455   1.250
 2592SOL    HW224919   4.752   4.580   1.239
 2593SOL     OW24920   5.540   4.706   1.340
 2593SOL    HW124921   5.458   4.742   1.374
 2593SOL    HW224922   5.584   4.781   1.299
 2594SOL     OW24923   2.897   0.403   7.322
 2594SOL    HW124924   2.973   0.349   7.341
 2594SOL    HW224925   2.874   0.441   7.407
 2595SOL     OW24926   0.844   4.825   0.090
 2595SOL    HW124927   0.821   4.887   0.159
 2595SOL    HW224928   0.896   4.877   0.028
 2596SOL     OW24929   1.887   3.230   5.982
 2596SOL    HW124930   1.935   3.245   5.900
 2596SOL    HW224931   1.818   3.168   5.958
 2597SOL     OW24932   3.427   3.696   5.981
 2597SOL    HW124933   3.377   3.629   5.934
 2597SOL    HW224934   3.502   3.650   6.017
 2598SOL     OW24935   4.532   3.441   6.901
 2598SOL    HW124936   4.536   3.442   6.997
 2598SOL    HW224937   4.486   3.360   6.880
 2599SOL     OW24938   0.283   2.578   1.784
 2599SOL    HW124939   0.351   2.641   1.808
 2599SOL    HW224940   0.298   2.503   1.842
 2600SOL     OW24941   4.749   3.687   7.132
 2600SOL    HW124942   4.782   3.688   7.222
 2600SOL    HW224943   4.818   3.728   7.080
 2601SOL     OW24944   0.134   6.337   6.735
 2601SOL    HW124945   0.226   6.310   6.741
 2601SOL    HW224946   0.106   6.307   6.649
 2602SOL     OW24947   5.396   0.820   5.998
 2602SOL    HW124948   5.409   0.913   6.019
 2602SOL    HW224949   5.406   0.815   5.903
 2603SOL     OW24950   2.309   0.867   6.249
 2603SOL    HW124951   2.306   0.957   6.216
 2603SOL    HW224952   2.239   0.822   6.203
 2604SOL     OW24953   4.015   3.938   6.433
 2604SOL    HW124954   3.970   3.998   6.492
 2604SOL    HW224955   4.065   3.994   6.374
 2605SOL     OW24956   6.153   4.850   7.762
 2605SOL    HW124957   6.123   4.924   7.709
 2605SOL    HW224958   6.244   4.871   7.782
 2606SOL     OW24959   5.783   4.525   1.473
 2606SOL    HW124960   5.822   4.538   1.560
 2606SOL    HW224961   5.689   4.527   1.489
 2607SOL     OW24962   4.773   3.956   0.350
 2607SOL    HW124963   4.797   3.907   0.271
 2607SOL    HW224964   4.815   3.909   0.422
 2608SOL     OW24965   5.983   6.187   1.532
 2608SOL    HW124966   5.986   6.235   1.615
 2608SOL    HW224967   6.075   6.177   1.507
 2609SOL     OW24968   4.612   1.838   1.258
 2609SOL    HW124969   4.576   1.752   1.279
 2609SOL    HW224970   4.700   1.838   1.296
 2610SOL     OW24971   2.144   5.134   6.738
 2610SOL    HW124972   2.165   5.153   6.647
 2610SOL    HW224973   2.224   5.095   6.774
 2611SOL     OW24974   1.324   5.118   7.140
 2611SOL    HW124975   1.301   5.186   7.077
 2611SOL    HW224976   1.370   5.164   7.210
 2612SOL     OW24977   3.407   4.135   1.461
 2612SOL    HW124978   3.491   4.098   1.487
 2612SOL    HW224979   3.356   4.060   1.432
 2613SOL     OW24980   4.988   4.209   7.504
 2613SOL    HW124981   4.930   4.282   7.525
 2613SOL    HW224982   5.075   4.240   7.529
 2614SOL     OW24983   3.893   5.708   7.128
 2614SOL    HW124984   3.802   5.720   7.097
 2614SOL    HW224985   3.904   5.776   7.194
 2615SOL     OW24986   5.691   1.728   6.686
 2615SOL    HW124987   5.714   1.694   6.773
 2615SOL    HW224988   5.768   1.707   6.632
 2616SOL     OW24989   5.621   2.069   1.634
 2616SOL    HW124990   5.677   2.073   1.557
 2616SOL    HW224991   5.676   2.031   1.702
 2617SOL     OW24992   3.394   2.048   7.441
 2617SOL    HW124993   3.390   2.136   7.477
 2617SOL    HW224994   3.464   2.052   7.375
 2618SOL     OW24995   0.605   5.286   0.725
 2618SOL    HW124996   0.681   5.304   0.670
 2618SOL    HW224997   0.641   5.271   0.812
 2619SOL     OW24998   4.533   5.268   7.137
 2619SOL    HW124999   4.580   5.275   7.054
 2619SOL    HW225000   4.469   5.199   7.123
 2620SOL     OW25001   3.601   0.122   5.960
 2620SOL    HW125002   3.510   0.097   5.943
 2620SOL    HW225003   3.609   0.121   6.055
 2621SOL     OW25004   2.925   0.616   1.527
 2621SOL    HW125005   2.999   0.649   1.475
 2621SOL    HW225006   2.941   0.649   1.615
 2622SOL     OW25007   5.435   1.467   2.286
 2622SOL    HW125008   5.512   1.508   2.247
 2622SOL    HW225009   5.469   1.422   2.364
 2623SOL     OW25010   6.090   4.022   1.017
 2623SOL    HW125011   6.167   4.056   0.971
 2623SOL    HW225012   6.023   4.089   1.004
 2624SOL     OW25013   4.489   0.028   6.699
 2624SOL    HW125014   4.547  -0.027   6.752
 2624SOL    HW225015   4.538   0.045   6.619
 2625SOL     OW25016   1.257   2.184   1.861
 2625SOL    HW125017   1.303   2.142   1.933
 2625SOL    HW225018   1.171   2.205   1.897
 2626SOL     OW25019   1.408   0.637   7.730
 2626SOL    HW125020   1.440   0.604   7.646
 2626SOL    HW225021   1.468   0.601   7.795
 2627SOL     OW25022   2.027   2.424   6.563
 2627SOL    HW125023   1.969   2.351   6.586
 2627SOL    HW225024   2.114   2.386   6.561
 2628SOL     OW25025   4.131   1.133   1.005
 2628SOL    HW125026   4.182   1.193   1.059
 2628SOL    HW225027   4.167   1.144   0.917
 2629SOL     OW25028   3.493   5.072   0.522
 2629SOL    HW125029   3.514   5.131   0.594
 2629SOL    HW225030   3.400   5.053   0.532
 2630SOL     OW25031   0.983   1.583   0.289
 2630SOL    HW125032   0.928   1.641   0.342
 2630SOL    HW225033   0.922   1.523   0.248
 2631SOL     OW25034   0.934   5.063   1.958
 2631SOL    HW125035   1.000   4.993   1.957
 2631SOL    HW225036   0.977   5.136   1.912
 2632SOL     OW25037   5.058   6.131   0.968
 2632SOL    HW125038   4.987   6.077   1.003
 2632SOL    HW225039   5.014   6.205   0.927
 2633SOL     OW25040   1.806   5.055   2.427
 2633SOL    HW125041   1.721   5.025   2.394
 2633SOL    HW225042   1.817   5.143   2.390
 2634SOL     OW25043   4.597   3.935   5.588
 2634SOL    HW125044   4.511   3.912   5.622
 2634SOL    HW225045   4.584   3.946   5.494
 2635SOL     OW25046   5.156   3.707   6.134
 2635SOL    HW125047   5.245   3.738   6.119
 2635SOL    HW225048   5.102   3.786   6.134
 2636SOL     OW25049   5.185   0.746   0.318
 2636SOL    HW125050   5.154   0.828   0.281
 2636SOL    HW225051   5.185   0.685   0.244
 2637SOL     OW25052   5.845   5.040   6.775
 2637SOL    HW125053   5.850   4.945   6.787
 2637SOL    HW225054   5.915   5.075   6.830
 2638SOL     OW25055   3.365   5.861   0.469
 2638SOL    HW125056   3.375   5.826   0.381
 2638SOL    HW225057   3.417   5.941   0.470
 2639SOL     OW25058   3.184   0.448   2.332
 2639SOL    HW125059   3.155   0.403   2.253
 2639SOL    HW225060   3.176   0.541   2.312
 2640SOL     OW25061   2.689   2.375   5.669
 2640SOL    HW125062   2.699   2.464   5.636
 2640SOL    HW225063   2.774   2.334   5.652
 2641SOL     OW25064   1.477   4.459   6.770
 2641SOL    HW125065   1.458   4.546   6.803
 2641SOL    HW225066   1.573   4.453   6.769
 2642SOL     OW25067   2.771   6.434   6.554
 2642SOL    HW125068   2.832   6.360   6.554
 2642SOL    HW225069   2.825   6.510   6.532
 2643SOL     OW25070   5.812   5.146   7.617
 2643SOL    HW125071   5.804   5.224   7.671
 2643SOL    HW225072   5.797   5.073   7.676
 2644SOL     OW25073   4.437   2.993   7.028
 2644SOL    HW125074   4.489   2.933   7.082
 2644SOL    HW225075   4.378   3.036   7.090
 2645SOL     OW25076   2.832   0.114   6.168
 2645SOL    HW125077   2.886   0.188   6.137
 2645SOL    HW225078   2.829   0.054   6.093
 2646SOL     OW25079   2.859   4.059   0.182
 2646SOL    HW125080   2.904   4.125   0.130
 2646SOL    HW225081   2.772   4.095   0.198
 2647SOL     OW25082   4.667   6.300   5.790
 2647SOL    HW125083   4.691   6.211   5.766
 2647SOL    HW225084   4.700   6.310   5.879
 2648SOL     OW25085   2.255   1.861   1.552
 2648SOL    HW125086   2.307   1.807   1.612
 2648SOL    HW225087   2.318   1.923   1.516
 2649SOL     OW25088   3.504   1.301   0.309
 2649SOL    HW125089   3.439   1.324   0.374
 2649SOL    HW225090   3.461   1.316   0.225
 2650SOL     OW25091   1.778   2.848   0.116
 2650SOL    HW125092   1.784   2.921   0.177
 2650SOL    HW225093   1.816   2.881   0.034
 2651SOL     OW25094   1.792   6.135   2.622
 2651SOL    HW125095   1.881   6.126   2.655
 2651SOL    HW225096   1.779   6.058   2.567
 2652SOL     OW25097   5.159   2.051   7.448
 2652SOL    HW125098   5.193   2.028   7.361
 2652SOL    HW225099   5.070   2.080   7.432
 2653SOL     OW25100   5.404   0.876   5.727
 2653SOL    HW125101   5.476   0.938   5.741
 2653SOL    HW225102   5.428   0.830   5.647
 2654SOL     OW25103   4.635   5.515   5.689
 2654SOL    HW125104   4.548   5.546   5.667
 2654SOL    HW225105   4.621   5.446   5.754
 2655SOL     OW25106   2.772   1.414   1.779
 2655SOL    HW125107   2.725   1.417   1.863
 2655SOL    HW225108   2.817   1.498   1.774
 2656SOL     OW25109   3.250   0.401   6.965
 2656SOL    HW125110   3.189   0.423   6.895
 2656SOL    HW225111   3.219   0.450   7.041
 2657SOL     OW25112   0.383   4.730   0.058
 2657SOL    HW125113   0.390   4.801   0.122
 2657SOL    HW225114   0.293   4.735   0.026
 2658SOL     OW25115   5.141   0.532   1.150
 2658SOL    HW125116   5.052   0.547   1.182
 2658SOL    HW225117   5.198   0.573   1.214
 2659SOL     OW25118   6.017   2.241   2.252
 2659SOL    HW125119   6.037   2.156   2.213
 2659SOL    HW225120   6.042   2.231   2.344
 2660SOL     OW25121   0.882   5.642   5.703
 2660SOL    HW125122   0.859   5.657   5.794
 2660SOL    HW225123   0.977   5.632   5.704
 2661SOL     OW25124   3.534   5.993   6.315
 2661SOL    HW125125   3.561   6.060   6.253
 2661SOL    HW225126   3.599   5.998   6.385
 2662SOL     OW25127   0.744   5.221   0.514
 2662SOL    HW125128   0.676   5.184   0.458
 2662SOL    HW225129   0.816   5.242   0.454
 2663SOL     OW25130   2.550   3.645   0.138
 2663SOL    HW125131   2.620   3.593   0.178
 2663SOL    HW225132   2.553   3.729   0.184
 2664SOL     OW25133   3.104   2.164   0.996
 2664SOL    HW125134   3.029   2.125   0.950
 2664SOL    HW225135   3.177   2.155   0.935
 2665SOL     OW25136   3.817   1.229   0.981
 2665SOL    HW125137   3.877   1.154   0.976
 2665SOL    HW225138   3.733   1.194   0.953
 2666SOL     OW25139   2.869   3.097   1.793
 2666SOL    HW125140   2.870   3.026   1.857
 2666SOL    HW225141   2.892   3.176   1.843
 2667SOL     OW25142   1.237   3.084   6.700
 2667SOL    HW125143   1.234   2.990   6.680
 2667SOL    HW225144   1.322   3.112   6.665
 2668SOL     OW25145   3.227   3.339   0.394
 2668SOL    HW125146   3.232   3.435   0.391
 2668SOL    HW225147   3.300   3.312   0.448
 2669SOL     OW25148   5.851   1.848   2.197
 2669SOL    HW125149   5.935   1.887   2.174
 2669SOL    HW225150   5.786   1.909   2.161
 2670SOL     OW25151   5.864   2.611   6.043
 2670SOL    HW125152   5.770   2.598   6.049
 2670SOL    HW225153   5.875   2.704   6.022
 2671SOL     OW25154   2.691   1.964   2.649
 2671SOL    HW125155   2.641   2.044   2.631
 2671SOL    HW225156   2.782   1.994   2.655
 2672SOL     OW25157   3.897   3.393   1.146
 2672SOL    HW125158   3.973   3.349   1.184
 2672SOL    HW225159   3.924   3.485   1.138
 2673SOL     OW25160   4.098   6.152   6.027
 2673SOL    HW125161   4.077   6.138   5.935
 2673SOL    HW225162   4.192   6.139   6.033
 2674SOL     OW25163   5.585   5.692   0.186
 2674SOL    HW125164   5.675   5.723   0.182
 2674SOL    HW225165   5.560   5.678   0.095
 2675SOL     OW25166   0.241   3.875   1.784
 2675SOL    HW125167   0.220   3.785   1.809
 2675SOL    HW225168   0.191   3.890   1.704
 2676SOL     OW25169   2.177   4.842   6.997
 2676SOL    HW125170   2.168   4.751   7.028
 2676SOL    HW225171   2.229   4.835   6.917
 2677SOL     OW25172   4.487   3.364   1.513
 2677SOL    HW125173   4.446   3.281   1.493
 2677SOL    HW225174   4.521   3.396   1.429
 2678SOL     OW25175   3.180   4.749   6.849
 2678SOL    HW125176   3.137   4.830   6.876
 2678SOL    HW225177   3.131   4.719   6.773
 2679SOL     OW25178   2.759   1.268   6.460
 2679SOL    HW125179   2.665   1.284   6.451
 2679SOL    HW225180   2.798   1.355   6.461
 2680SOL     OW25181   4.943   0.576   0.115
 2680SOL    HW125182   5.035   0.566   0.142
 2680SOL    HW225183   4.914   0.486   0.097
 2681SOL     OW25184   3.808   0.700   2.571
 2681SOL    HW125185   3.889   0.652   2.555
 2681SOL    HW225186   3.770   0.659   2.648
 2682SOL     OW25187   5.916   2.902   1.117
 2682SOL    HW125188   6.000   2.946   1.128
 2682SOL    HW225189   5.901   2.904   1.022
 2683SOL     OW25190   0.814   2.346   7.777
 2683SOL    HW125191   0.859   2.268   7.809
 2683SOL    HW225192   0.851   2.361   7.690
 2684SOL     OW25193   1.765   1.452   7.248
 2684SOL    HW125194   1.846   1.497   7.270
 2684SOL    HW225195   1.696   1.516   7.265
 2685SOL     OW25196   5.398   4.607   6.662
 2685SOL    HW125197   5.490   4.622   6.640
 2685SOL    HW225198   5.351   4.618   6.580
 2686SOL     OW25199   3.236   3.555   1.693
 2686SOL    HW125200   3.313   3.606   1.670
 2686SOL    HW225201   3.243   3.541   1.788
 2687SOL     OW25202   2.160   5.443   1.806
 2687SOL    HW125203   2.105   5.364   1.810
 2687SOL    HW225204   2.131   5.496   1.880
 2688SOL     OW25205   1.600   5.485   7.520
 2688SOL    HW125206   1.538   5.557   7.514
 2688SOL    HW225207   1.555   5.418   7.571
 2689SOL     OW25208   0.266   2.702   7.164
 2689SOL    HW125209   0.216   2.727   7.242
 2689SOL    HW225210   0.352   2.743   7.176
 2690SOL     OW25211   2.965   4.776   2.431
 2690SOL    HW125212   2.995   4.686   2.422
 2690SOL    HW225213   2.954   4.807   2.341
 2691SOL     OW25214   1.845   5.315   0.366
 2691SOL    HW125215   1.884   5.335   0.451
 2691SOL    HW225216   1.862   5.221   0.354
 2692SOL     OW25217   4.950   1.903   5.748
 2692SOL    HW125218   4.896   1.826   5.730
 2692SOL    HW225219   5.012   1.906   5.675
 2693SOL     OW25220   3.606   4.263   2.413
 2693SOL    HW125221   3.521   4.273   2.370
 2693SOL    HW225222   3.664   4.325   2.367
 2694SOL     OW25223   5.146   3.586   1.955
 2694SOL    HW125224   5.133   3.497   1.922
 2694SOL    HW225225   5.231   3.583   1.998
 2695SOL     OW25226   4.251   4.735   1.990
 2695SOL    HW125227   4.242   4.822   2.030
 2695SOL    HW225228   4.284   4.753   1.902
 2696SOL     OW25229   0.473   4.638   7.471
 2696SOL    HW125230   0.493   4.646   7.377
 2696SOL    HW225231   0.391   4.589   7.474
 2697SOL     OW25232   3.009   4.588   6.238
 2697SOL    HW125233   3.005   4.527   6.311
 2697SOL    HW225234   3.047   4.537   6.166
 2698SOL     OW25235   2.369   1.218   5.920
 2698SOL    HW125236   2.442   1.176   5.965
 2698SOL    HW225237   2.402   1.305   5.896
 2699SOL     OW25238   5.523   5.169   0.035
 2699SOL    HW125239   5.446   5.113   0.034
 2699SOL    HW225240   5.593   5.112   0.067
 2700SOL     OW25241   1.131   2.572   6.229
 2700SOL    HW125242   1.103   2.656   6.192
 2700SOL    HW225243   1.084   2.506   6.178
 2701SOL     OW25244   1.003   4.310   0.821
 2701SOL    HW125245   0.955   4.228   0.809
 2701SOL    HW225246   0.942   4.367   0.869
 2702SOL     OW25247   0.972   1.518   5.303
 2702SOL    HW125248   0.889   1.560   5.281
 2702SOL    HW225249   0.950   1.457   5.374
 2703SOL     OW25250   1.707   4.398   1.717
 2703SOL    HW125251   1.689   4.441   1.800
 2703SOL    HW225252   1.657   4.317   1.719
 2704SOL     OW25253   5.816   1.068   7.008
 2704SOL    HW125254   5.895   1.063   6.954
 2704SOL    HW225255   5.840   1.126   7.080
 2705SOL     OW25256   6.351   4.488   0.168
 2705SOL    HW125257   6.276   4.446   0.126
 2705SOL    HW225258   6.327   4.581   0.173
 2706SOL     OW25259   6.389   0.018   5.973
 2706SOL    HW125260   6.480  -0.008   5.960
 2706SOL    HW225261   6.363   0.057   5.889
 2707SOL     OW25262   3.102   5.885   1.603
 2707SOL    HW125263   3.050   5.964   1.620
 2707SOL    HW225264   3.137   5.898   1.515
 2708SOL     OW25265   5.417   2.849   7.366
 2708SOL    HW125266   5.353   2.898   7.314
 2708SOL    HW225267   5.370   2.825   7.446
 2709SOL     OW25268   5.068   6.216   0.084
 2709SOL    HW125269   5.118   6.135   0.077
 2709SOL    HW225270   5.034   6.230  -0.005
 2710SOL     OW25271   6.204   0.242   0.919
 2710SOL    HW125272   6.154   0.324   0.915
 2710SOL    HW225273   6.199   0.207   0.830
 2711SOL     OW25274   2.310   0.627   1.700
 2711SOL    HW125275   2.290   0.611   1.608
 2711SOL    HW225276   2.288   0.544   1.744
 2712SOL     OW25277   3.763   2.750   7.590
 2712SOL    HW125278   3.746   2.756   7.684
 2712SOL    HW225279   3.833   2.814   7.574
 2713SOL     OW25280   5.452   5.852   1.822
 2713SOL    HW125281   5.454   5.908   1.900
 2713SOL    HW225282   5.441   5.913   1.749
 2714SOL     OW25283   2.288   5.760   1.798
 2714SOL    HW125284   2.321   5.726   1.882
 2714SOL    HW225285   2.324   5.700   1.733
 2715SOL     OW25286   1.136   4.820   6.748
 2715SOL    HW125287   1.106   4.870   6.824
 2715SOL    HW225288   1.226   4.849   6.735
 2716SOL     OW25289   1.634   0.197   6.684
 2716SOL    HW125290   1.582   0.156   6.614
 2716SOL    HW225291   1.568   0.234   6.743
 2717SOL     OW25292   4.805   4.397   7.579
 2717SOL    HW125293   4.736   4.384   7.645
 2717SOL    HW225294   4.805   4.492   7.564
 2718SOL     OW25295   0.663   1.508   6.486
 2718SOL    HW125296   0.751   1.497   6.451
 2718SOL    HW225297   0.673   1.496   6.581
 2719SOL     OW25298   0.114   0.107   7.353
 2719SOL    HW125299   0.044   0.155   7.310
 2719SOL    HW225300   0.089   0.015   7.345
 2720SOL     OW25301   0.111   5.710   0.698
 2720SOL    HW125302   0.123   5.677   0.609
 2720SOL    HW225303   0.067   5.639   0.745
 2721SOL     OW25304   2.721   6.191   7.576
 2721SOL    HW125305   2.808   6.178   7.540
 2721SOL    HW225306   2.680   6.256   7.518
 2722SOL     OW25307   1.775   5.254   1.222
 2722SOL    HW125308   1.680   5.240   1.222
 2722SOL    HW225309   1.794   5.284   1.311
 2723SOL     OW25310   4.756   3.221   0.146
 2723SOL    HW125311   4.752   3.163   0.222
 2723SOL    HW225312   4.715   3.172   0.075
 2724SOL     OW25313   2.795   2.526   6.401
 2724SOL    HW125314   2.786   2.502   6.493
 2724SOL    HW225315   2.842   2.609   6.402
 2725SOL     OW25316   5.274   2.969   0.238
 2725SOL    HW125317   5.187   3.008   0.224
 2725SOL    HW225318   5.326   2.999   0.164
 2726SOL     OW25319   0.379   0.879   6.788
 2726SOL    HW125320   0.468   0.896   6.757
 2726SOL    HW225321   0.340   0.822   6.721
 2727SOL     OW25322   5.795   4.446   7.239
 2727SOL    HW125323   5.833   4.427   7.154
 2727SOL    HW225324   5.865   4.487   7.289
 2728SOL     OW25325   5.173   1.248   1.490
 2728SOL    HW125326   5.265   1.243   1.465
 2728SOL    HW225327   5.126   1.210   1.416
 2729SOL     OW25328   3.922   1.748   2.209
 2729SOL    HW125329   3.934   1.659   2.177
 2729SOL    HW225330   3.846   1.744   2.267
 2730SOL     OW25331   4.743   4.028   6.040
 2730SOL    HW125332   4.714   3.982   5.962
 2730SOL    HW225333   4.713   4.118   6.027
 2731SOL     OW25334   1.500   2.068   6.100
 2731SOL    HW125335   1.565   2.107   6.041
 2731SOL    HW225336   1.510   1.973   6.087
 2732SOL     OW25337   0.109   5.968   6.273
 2732SOL    HW125338   0.104   5.974   6.177
 2732SOL    HW225339   0.040   5.906   6.297
 2733SOL     OW25340   0.617   2.437   6.395
 2733SOL    HW125341   0.547   2.502   6.406
 2733SOL    HW225342   0.653   2.456   6.308
 2734SOL     OW25343   0.051   5.427   5.549
 2734SOL    HW125344  -0.015   5.420   5.479
 2734SOL    HW225345   0.073   5.336   5.570
 2735SOL     OW25346   4.521   6.408   7.538
 2735SOL    HW125347   4.504   6.501   7.528
 2735SOL    HW225348   4.483   6.367   7.460
 2736SOL     OW25349   6.178   3.087   7.055
 2736SOL    HW125350   6.223   3.034   7.121
 2736SOL    HW225351   6.139   3.023   6.995
 2737SOL     OW25352   4.993   0.953   7.271
 2737SOL    HW125353   4.908   0.919   7.242
 2737SOL    HW225354   4.993   0.941   7.365
 2738SOL     OW25355   1.654   2.127   1.409
 2738SOL    HW125356   1.616   2.053   1.456
 2738SOL    HW225357   1.748   2.115   1.418
 2739SOL     OW25358   4.179   6.230   0.674
 2739SOL    HW125359   4.162   6.321   0.694
 2739SOL    HW225360   4.266   6.213   0.710
 2740SOL     OW25361   3.807   1.567   1.854
 2740SOL    HW125362   3.769   1.535   1.936
 2740SOL    HW225363   3.754   1.644   1.832
 2741SOL     OW25364   2.969   4.581   1.144
 2741SOL    HW125365   3.000   4.638   1.214
 2741SOL    HW225366   3.006   4.618   1.064
 2742SOL     OW25367   3.598   2.193   0.898
 2742SOL    HW125368   3.603   2.272   0.845
 2742SOL    HW225369   3.505   2.172   0.902
 2743SOL     OW25370   2.217   4.317   6.938
 2743SOL    HW125371   2.305   4.280   6.942
 2743SOL    HW225372   2.213   4.360   6.852
 2744SOL     OW25373   0.375   4.938   0.243
 2744SOL    HW125374   0.294   4.975   0.277
 2744SOL    HW225375   0.396   4.991   0.167
 2745SOL     OW25376   4.006   1.056   6.164
 2745SOL    HW125377   3.986   1.017   6.079
 2745SOL    HW225378   3.937   1.121   6.177
 2746SOL     OW25379   0.263   4.891   1.378
 2746SOL    HW125380   0.352   4.870   1.351
 2746SOL    HW225381   0.209   4.822   1.340
 2747SOL     OW25382   2.129   1.850   5.402
 2747SOL    HW125383   2.194   1.794   5.361
 2747SOL    HW225384   2.174   1.933   5.417
 2748SOL     OW25385   2.963   4.929   6.584
 2748SOL    HW125386   2.883   4.981   6.571
 2748SOL    HW225387   2.931   4.842   6.607
 2749SOL     OW25388   0.140   4.782   1.633
 2749SOL    HW125389   0.218   4.741   1.672
 2749SOL    HW225390   0.074   4.778   1.702
 2750SOL     OW25391   0.181   1.774   6.943
 2750SOL    HW125392   0.138   1.856   6.967
 2750SOL    HW225393   0.113   1.708   6.952
 2751SOL     OW25394   4.376   0.995   2.162
 2751SOL    HW125395   4.467   0.987   2.191
 2751SOL    HW225396   4.360   1.089   2.159
 2752SOL     OW25397   4.794   0.999   0.041
 2752SOL    HW125398   4.838   0.916   0.021
 2752SOL    HW225399   4.828   1.061  -0.024
 2753SOL     OW25400   6.335   3.663   2.236
 2753SOL    HW125401   6.368   3.689   2.322
 2753SOL    HW225402   6.243   3.643   2.251
 2754SOL     OW25403   6.198   2.045   0.212
 2754SOL    HW125404   6.287   2.022   0.239
 2754SOL    HW225405   6.163   1.965   0.172
 2755SOL     OW25406   4.383   4.545   5.446
 2755SOL    HW125407   4.362   4.633   5.476
 2755SOL    HW225408   4.386   4.492   5.525
 2756SOL     OW25409   5.484   2.585   7.250
 2756SOL    HW125410   5.425   2.513   7.272
 2756SOL    HW225411   5.453   2.659   7.303
 2757SOL     OW25412   6.378   3.945   2.365
 2757SOL    HW125413   6.385   3.957   2.460
 2757SOL    HW225414   6.467   3.923   2.337
 2758SOL     OW25415   5.828   6.298   6.338
 2758SOL    HW125416   5.848   6.306   6.432
 2758SOL    HW225417   5.735   6.276   6.335
 2759SOL     OW25418   5.736   3.443   5.366
 2759SOL    HW125419   5.740   3.365   5.311
 2759SOL    HW225420   5.827   3.473   5.372
 2760SOL     OW25421   0.473   4.293   6.497
 2760SOL    HW125422   0.548   4.315   6.442
 2760SOL    HW225423   0.402   4.276   6.435
 2761SOL     OW25424   0.752   5.480   7.714
 2761SOL    HW125425   0.846   5.466   7.720
 2761SOL    HW225426   0.729   5.522   7.797
 2762SOL     OW25427   3.425   2.508   6.964
 2762SOL    HW125428   3.475   2.443   7.014
 2762SOL    HW225429   3.341   2.465   6.948
 2763SOL     OW25430   1.147   5.889   7.523
 2763SOL    HW125431   1.240   5.910   7.514
 2763SOL    HW225432   1.102   5.954   7.470
 2764SOL     OW25433   0.630   4.971   0.676
 2764SOL    HW125434   0.628   4.904   0.608
 2764SOL    HW225435   0.616   5.053   0.630
 2765SOL     OW25436   4.796   1.134   0.855
 2765SOL    HW125437   4.809   1.175   0.770
 2765SOL    HW225438   4.802   1.040   0.837
 2766SOL     OW25439   2.695   1.583   6.508
 2766SOL    HW125440   2.630   1.532   6.460
 2766SOL    HW225441   2.723   1.651   6.447
 2767SOL     OW25442   6.186   4.159   7.101
 2767SOL    HW125443   6.228   4.230   7.151
 2767SOL    HW225444   6.145   4.105   7.168
 2768SOL     OW25445   3.807   1.906   7.593
 2768SOL    HW125446   3.770   1.819   7.606
 2768SOL    HW225447   3.828   1.937   7.681
 2769SOL     OW25448   4.286   0.901   1.680
 2769SOL    HW125449   4.210   0.843   1.685
 2769SOL    HW225450   4.315   0.909   1.771
 2770SOL     OW25451   5.752   1.285   1.974
 2770SOL    HW125452   5.790   1.279   2.061
 2770SOL    HW225453   5.758   1.377   1.950
 2771SOL     OW25454   5.982   2.514   1.080
 2771SOL    HW125455   5.904   2.548   1.123
 2771SOL    HW225456   6.047   2.505   1.150
 2772SOL     OW25457   6.066   4.280   6.146
 2772SOL    HW125458   6.084   4.243   6.060
 2772SOL    HW225459   5.995   4.226   6.182
 2773SOL     OW25460   6.056   5.720   1.380
 2773SOL    HW125461   5.995   5.789   1.356
 2773SOL    HW225462   6.139   5.765   1.393
 2774SOL     OW25463   5.449   1.005   6.290
 2774SOL    HW125464   5.399   0.924   6.282
 2774SOL    HW225465   5.410   1.064   6.226
 2775SOL     OW25466   2.434   0.898   0.720
 2775SOL    HW125467   2.440   0.949   0.800
 2775SOL    HW225468   2.523   0.898   0.684
 2776SOL     OW25469   0.077   6.403   1.724
 2776SOL    HW125470   0.042   6.387   1.637
 2776SOL    HW225471   0.000   6.431   1.775
 2777SOL     OW25472   1.261   0.167   6.110
 2777SOL    HW125473   1.316   0.102   6.154
 2777SOL    HW225474   1.172   0.145   6.137
 2778SOL     OW25475   5.151   0.994   0.176
 2778SOL    HW125476   5.073   1.045   0.196
 2778SOL    HW225477   5.222   1.041   0.218
 2779SOL     OW25478   0.592   2.711   0.025
 2779SOL    HW125479   0.591   2.806   0.027
 2779SOL    HW225480   0.505   2.687  -0.006
 2780SOL     OW25481   1.645   5.967   7.416
 2780SOL    HW125482   1.717   5.912   7.384
 2780SOL    HW225483   1.688   6.045   7.451
 2781SOL     OW25484   2.681   2.789   1.658
 2781SOL    HW125485   2.647   2.874   1.629
 2781SOL    HW225486   2.642   2.776   1.745
 2782SOL     OW25487   0.678   3.144   2.395
 2782SOL    HW125488   0.693   3.225   2.346
 2782SOL    HW225489   0.586   3.150   2.422
 2783SOL     OW25490   1.647   5.695   7.107
 2783SOL    HW125491   1.634   5.601   7.117
 2783SOL    HW225492   1.580   5.735   7.163
 2784SOL     OW25493   2.990   1.126   7.605
 2784SOL    HW125494   2.999   1.031   7.599
 2784SOL    HW225495   2.997   1.157   7.515
 2785SOL     OW25496   4.551   4.505   5.984
 2785SOL    HW125497   4.596   4.569   5.929
 2785SOL    HW225498   4.474   4.552   6.017
 2786SOL     OW25499   4.844   4.916   1.921
 2786SOL    HW125500   4.814   4.997   1.879
 2786SOL    HW225501   4.926   4.941   1.963
 2787SOL     OW25502   4.831   4.092   1.578
 2787SOL    HW125503   4.862   4.116   1.665
 2787SOL    HW225504   4.818   3.997   1.582
 2788SOL     OW25505   1.544   2.710   1.415
 2788SOL    HW125506   1.462   2.674   1.449
 2788SOL    HW225507   1.584   2.638   1.367
 2789SOL     OW25508   0.367   4.690   1.782
 2789SOL    HW125509   0.297   4.659   1.839
 2789SOL    HW225510   0.447   4.658   1.824
 2790SOL     OW25511   1.628   5.600   1.161
 2790SOL    HW125512   1.704   5.563   1.206
 2790SOL    HW225513   1.656   5.610   1.070
 2791SOL     OW25514   1.198   2.754   2.135
 2791SOL    HW125515   1.110   2.765   2.098
 2791SOL    HW225516   1.183   2.739   2.229
 2792SOL     OW25517   4.230   1.873   0.187
 2792SOL    HW125518   4.299   1.886   0.253
 2792SOL    HW225519   4.246   1.786   0.151
 2793SOL     OW25520   0.461   2.358   0.608
 2793SOL    HW125521   0.438   2.398   0.692
 2793SOL    HW225522   0.553   2.332   0.618
 2794SOL     OW25523   5.624   1.884   1.903
 2794SOL    HW125524   5.533   1.885   1.873
 2794SOL    HW225525   5.620   1.919   1.993
 2795SOL     OW25526   4.638   6.379   1.672
 2795SOL    HW125527   4.667   6.441   1.738
 2795SOL    HW225528   4.703   6.387   1.602
 2796SOL     OW25529   3.791   4.017   0.058
 2796SOL    HW125530   3.751   3.944   0.104
 2796SOL    HW225531   3.732   4.091   0.075
 2797SOL     OW25532   1.434   3.909   0.986
 2797SOL    HW125533   1.426   3.904   0.891
 2797SOL    HW225534   1.499   3.978   1.001
 2798SOL     OW25535   5.070   2.569   7.746
 2798SOL    HW125536   5.120   2.621   7.808
 2798SOL    HW225537   5.032   2.498   7.798
 2799SOL     OW25538   6.269   4.427   0.879
 2799SOL    HW125539   6.262   4.514   0.920
 2799SOL    HW225540   6.305   4.445   0.792
 2800SOL     OW25541   1.045   2.241   6.823
 2800SOL    HW125542   1.065   2.162   6.873
 2800SOL    HW225543   0.956   2.227   6.791
 2801SOL     OW25544   3.172   1.184   6.311
 2801SOL    HW125545   3.264   1.204   6.324
 2801SOL    HW225546   3.164   1.091   6.331
 2802SOL     OW25547   5.605   1.362   0.932
 2802SOL    HW125548   5.677   1.395   0.878
 2802SOL    HW225549   5.530   1.358   0.873
 2803SOL     OW25550   4.982   0.389   0.608
 2803SOL    HW125551   4.893   0.354   0.604
 2803SOL    HW225552   5.011   0.370   0.698
 2804SOL     OW25553   0.276   4.207   0.535
 2804SOL    HW125554   0.209   4.198   0.602
 2804SOL    HW225555   0.228   4.209   0.453
 2805SOL     OW25556   3.626   3.592   6.141
 2805SOL    HW125557   3.579   3.534   6.200
 2805SOL    HW225558   3.658   3.663   6.196
 2806SOL     OW25559   1.258   1.887   0.718
 2806SOL    HW125560   1.202   1.887   0.796
 2806SOL    HW225561   1.263   1.979   0.692
 2807SOL     OW25562   2.628   5.898   1.929
 2807SOL    HW125563   2.687   5.924   2.000
 2807SOL    HW225564   2.684   5.847   1.870
 2808SOL     OW25565   0.924   3.977   0.242
 2808SOL    HW125566   0.850   3.919   0.257
 2808SOL    HW225567   0.909   4.051   0.300
 2809SOL     OW25568   0.700   1.973   7.140
 2809SOL    HW125569   0.619   2.020   7.162
 2809SOL    HW225570   0.673   1.907   7.076
 2810SOL     OW25571   5.484   5.710   7.207
 2810SOL    HW125572   5.548   5.727   7.276
 2810SOL    HW225573   5.491   5.616   7.190
 2811SOL     OW25574   2.746   4.283   6.257
 2811SOL    HW125575   2.689   4.212   6.288
 2811SOL    HW225576   2.799   4.242   6.189
 2812SOL     OW25577   2.093   3.928   7.771
 2812SOL    HW125578   2.156   3.948   7.702
 2812SOL    HW225579   2.146   3.890   7.841
 2813SOL     OW25580   2.300   4.993   1.020
 2813SOL    HW125581   2.209   4.963   1.021
 2813SOL    HW225582   2.309   5.036   0.934
 2814SOL     OW25583   1.992   2.379   1.273
 2814SOL    HW125584   2.085   2.384   1.253
 2814SOL    HW225585   1.962   2.301   1.227
 2815SOL     OW25586   4.763   3.475   0.110
 2815SOL    HW125587   4.773   3.381   0.097
 2815SOL    HW225588   4.689   3.483   0.171
 2816SOL     OW25589   2.806   2.109   2.343
 2816SOL    HW125590   2.813   2.198   2.376
 2816SOL    HW225591   2.726   2.109   2.289
 2817SOL     OW25592   2.528   5.771   6.819
 2817SOL    HW125593   2.491   5.858   6.805
 2817SOL    HW225594   2.610   5.771   6.771
 2818SOL     OW25595   2.333   3.637   7.441
 2818SOL    HW125596   2.383   3.620   7.521
 2818SOL    HW225597   2.248   3.595   7.456
 2819SOL     OW25598   1.763   1.933   1.776
 2819SOL    HW125599   1.718   1.994   1.835
 2819SOL    HW225600   1.856   1.951   1.789
 2820SOL     OW25601   4.750   3.940   5.798
 2820SOL    HW125602   4.814   4.008   5.779
 2820SOL    HW225603   4.692   3.939   5.722
 2821SOL     OW25604   2.499   2.961   1.516
 2821SOL    HW125605   2.540   3.024   1.458
 2821SOL    HW225606   2.430   2.920   1.463
 2822SOL     OW25607   0.422   1.697   7.253
 2822SOL    HW125608   0.445   1.619   7.202
 2822SOL    HW225609   0.327   1.705   7.242
 2823SOL     OW25610   0.865   1.719   0.940
 2823SOL    HW125611   0.906   1.648   0.989
 2823SOL    HW225612   0.803   1.758   1.001
 2824SOL     OW25613   1.546   4.218   7.657
 2824SOL    HW125614   1.464   4.216   7.705
 2824SOL    HW225615   1.608   4.168   7.711
 2825SOL     OW25616   1.436   1.635   0.168
 2825SOL    HW125617   1.402   1.687   0.241
 2825SOL    HW225618   1.531   1.650   0.171
 2826SOL     OW25619   0.503   3.414   5.706
 2826SOL    HW125620   0.526   3.506   5.688
 2826SOL    HW225621   0.436   3.419   5.774
 2827SOL     OW25622   3.483   3.343   0.497
 2827SOL    HW125623   3.506   3.436   0.494
 2827SOL    HW225624   3.545   3.306   0.560
 2828SOL     OW25625   2.499   0.950   7.671
 2828SOL    HW125626   2.515   0.923   7.581
 2828SOL    HW225627   2.554   1.028   7.683
 2829SOL     OW25628   2.792   6.231   0.985
 2829SOL    HW125629   2.869   6.218   1.041
 2829SOL    HW225630   2.780   6.326   0.982
 2830SOL     OW25631   3.109   0.431   0.951
 2830SOL    HW125632   3.133   0.519   0.980
 2830SOL    HW225633   3.052   0.398   1.020
 2831SOL     OW25634   2.422   2.669   6.727
 2831SOL    HW125635   2.454   2.734   6.664
 2831SOL    HW225636   2.327   2.680   6.726
 2832SOL     OW25637   5.191   1.351   1.738
 2832SOL    HW125638   5.153   1.317   1.657
 2832SOL    HW225639   5.126   1.328   1.805
 2833SOL     OW25640   5.984   1.714   0.329
 2833SOL    HW125641   6.010   1.754   0.246
 2833SOL    HW225642   6.026   1.628   0.329
 2834SOL     OW25643   2.346   5.959   0.258
 2834SOL    HW125644   2.372   5.867   0.250
 2834SOL    HW225645   2.385   5.988   0.340
 2835SOL     OW25646   4.773   0.057   1.867
 2835SOL    HW125647   4.720   0.027   1.940
 2835SOL    HW225648   4.850   0.001   1.868
 2836SOL     OW25649   6.322   2.230   0.971
 2836SOL    HW125650   6.267   2.193   1.040
 2836SOL    HW225651   6.369   2.302   1.014
 2837SOL     OW25652   5.505   0.352   0.405
 2837SOL    HW125653   5.420   0.361   0.449
 2837SOL    HW225654   5.497   0.270   0.355
 2838SOL     OW25655   5.489   0.655   6.789
 2838SOL    HW125656   5.510   0.746   6.812
 2838SOL    HW225657   5.395   0.648   6.801
 2839SOL     OW25658   0.111   4.830   0.351
 2839SOL    HW125659   0.147   4.755   0.398
 2839SOL    HW225660   0.095   4.797   0.263
 2840SOL     OW25661   5.606   2.899   6.341
 2840SOL    HW125662   5.621   2.982   6.294
 2840SOL    HW225663   5.585   2.836   6.272
 2841SOL     OW25664   1.697   4.499   7.363
 2841SOL    HW125665   1.740   4.498   7.277
 2841SOL    HW225666   1.746   4.564   7.413
 2842SOL     OW25667   3.929   1.825   1.741
 2842SOL    HW125668   4.018   1.823   1.778
 2842SOL    HW225669   3.943   1.835   1.647
 2843SOL     OW25670   4.119   6.236   5.451
 2843SOL    HW125671   4.103   6.163   5.510
 2843SOL    HW225672   4.192   6.207   5.395
 2844SOL     OW25673   0.627   2.952   0.295
 2844SOL    HW125674   0.575   2.877   0.323
 2844SOL    HW225675   0.651   2.997   0.376
 2845SOL     OW25676   2.213   0.677   5.839
 2845SOL    HW125677   2.119   0.658   5.827
 2845SOL    HW225678   2.250   0.663   5.752
 2846SOL     OW25679   2.796   2.638   0.915
 2846SOL    HW125680   2.734   2.568   0.895
 2846SOL    HW225681   2.863   2.596   0.969
 2847SOL     OW25682   3.061   5.581   2.342
 2847SOL    HW125683   3.085   5.526   2.268
 2847SOL    HW225684   3.068   5.524   2.418
 2848SOL     OW25685   0.995   1.716   6.870
 2848SOL    HW125686   0.951   1.643   6.913
 2848SOL    HW225687   1.086   1.711   6.902
 2849SOL     OW25688   2.771   4.700   2.017
 2849SOL    HW125689   2.810   4.777   2.058
 2849SOL    HW225690   2.815   4.625   2.059
 2850SOL     OW25691   6.283   0.087   7.773
 2850SOL    HW125692   6.280   0.104   7.679
 2850SOL    HW225693   6.229   0.009   7.785
 2851SOL     OW25694   4.944   1.927   1.405
 2851SOL    HW125695   5.021   1.911   1.350
 2851SOL    HW225696   4.937   1.848   1.459
 2852SOL     OW25697   0.406   5.714   0.184
 2852SOL    HW125698   0.412   5.791   0.127
 2852SOL    HW225699   0.374   5.645   0.127
 2853SOL     OW25700   0.275   6.211   6.347
 2853SOL    HW125701   0.369   6.212   6.328
 2853SOL    HW225702   0.244   6.128   6.311
 2854SOL     OW25703   4.880   0.541   1.209
 2854SOL    HW125704   4.814   0.472   1.217
 2854SOL    HW225705   4.840   0.606   1.151
 2855SOL     OW25706   0.887   5.424   1.915
 2855SOL    HW125707   0.961   5.464   1.960
 2855SOL    HW225708   0.925   5.351   1.865
 2856SOL     OW25709   5.767   0.136   1.377
 2856SOL    HW125710   5.846   0.089   1.403
 2856SOL    HW225711   5.773   0.140   1.281
 2857SOL     OW25712   4.008   2.837   5.820
 2857SOL    HW125713   3.974   2.753   5.850
 2857SOL    HW225714   4.103   2.824   5.814
 2858SOL     OW25715   2.269   4.626   0.715
 2858SOL    HW125716   2.237   4.541   0.743
 2858SOL    HW225717   2.355   4.608   0.676
 2859SOL     OW25718   4.544   2.606   2.002
 2859SOL    HW125719   4.480   2.635   2.065
 2859SOL    HW225720   4.493   2.579   1.926
 2860SOL     OW25721   2.091   4.466   6.484
 2860SOL    HW125722   2.089   4.552   6.442
 2860SOL    HW225723   2.025   4.415   6.437
 2861SOL     OW25724   2.273   3.814   0.571
 2861SOL    HW125725   2.218   3.760   0.513
 2861SOL    HW225726   2.341   3.754   0.602
 2862SOL     OW25727   0.617   0.868   6.581
 2862SOL    HW125728   0.666   0.854   6.662
 2862SOL    HW225729   0.680   0.911   6.522
 2863SOL     OW25730   0.873   6.450   7.545
 2863SOL    HW125731   0.959   6.489   7.532
 2863SOL    HW225732   0.864   6.387   7.474
 2864SOL     OW25733   1.352   0.675   1.626
 2864SOL    HW125734   1.363   0.673   1.721
 2864SOL    HW225735   1.438   0.700   1.592
 2865SOL     OW25736   3.200   2.070   1.503
 2865SOL    HW125737   3.282   2.030   1.473
 2865SOL    HW225738   3.170   2.121   1.428
 2866SOL     OW25739   4.335   0.167   5.544
 2866SOL    HW125740   4.343   0.235   5.611
 2866SOL    HW225741   4.393   0.097   5.574
 2867SOL     OW25742   4.651   2.258   7.312
 2867SOL    HW125743   4.630   2.165   7.321
 2867SOL    HW225744   4.617   2.282   7.226
 2868SOL     OW25745   5.982   5.401   6.638
 2868SOL    HW125746   6.043   5.360   6.699
 2868SOL    HW225747   5.942   5.472   6.689
 2869SOL     OW25748   2.701   1.585   7.454
 2869SOL    HW125749   2.795   1.602   7.448
 2869SOL    HW225750   2.673   1.630   7.534
 2870SOL     OW25751   5.344   4.494   7.352
 2870SOL    HW125752   5.273   4.541   7.395
 2870SOL    HW225753   5.424   4.529   7.393
 2871SOL     OW25754   2.456   2.383   7.492
 2871SOL    HW125755   2.378   2.438   7.501
 2871SOL    HW225756   2.459   2.361   7.399
 2872SOL     OW25757   4.103   3.645   0.810
 2872SOL    HW125758   4.094   3.704   0.884
 2872SOL    HW225759   4.055   3.688   0.739
 2873SOL     OW25760   2.655   2.240   7.605
 2873SOL    HW125761   2.577   2.283   7.569
 2873SOL    HW225762   2.646   2.250   7.700
 2874SOL     OW25763   5.776   2.673   1.657
 2874SOL    HW125764   5.871   2.680   1.662
 2874SOL    HW225765   5.757   2.584   1.684
 2875SOL     OW25766   2.233   5.153   1.609
 2875SOL    HW125767   2.298   5.120   1.547
 2875SOL    HW225768   2.240   5.248   1.603
 2876SOL     OW25769   3.890   2.699   0.404
 2876SOL    HW125770   3.797   2.715   0.390
 2876SOL    HW225771   3.901   2.701   0.499
 2877SOL     OW25772   4.753   4.709   0.443
 2877SOL    HW125773   4.724   4.734   0.531
 2877SOL    HW225774   4.834   4.758   0.429
 2878SOL     OW25775   5.094   0.269   1.022
 2878SOL    HW125776   5.104   0.360   0.997
 2878SOL    HW225777   5.183   0.239   1.040
 2879SOL     OW25778   4.181   3.978   7.426
 2879SOL    HW125779   4.262   3.952   7.471
 2879SOL    HW225780   4.148   3.898   7.387
 2880SOL     OW25781   6.293   1.646   0.273
 2880SOL    HW125782   6.372   1.642   0.328
 2880SOL    HW225783   6.242   1.570   0.299
 2881SOL     OW25784   1.319   2.059   2.097
 2881SOL    HW125785   1.337   1.967   2.120
 2881SOL    HW225786   1.231   2.075   2.131
 2882SOL     OW25787   6.036   1.746   5.911
 2882SOL    HW125788   5.947   1.769   5.883
 2882SOL    HW225789   6.093   1.802   5.858
 2883SOL     OW25790   5.568   1.138   0.530
 2883SOL    HW125791   5.554   1.224   0.570
 2883SOL    HW225792   5.661   1.120   0.543
 2884SOL     OW25793   2.081   0.021   0.590
 2884SOL    HW125794   2.125  -0.053   0.549
 2884SOL    HW225795   2.039   0.067   0.517
 2885SOL     OW25796   4.373   5.750   6.541
 2885SOL    HW125797   4.309   5.730   6.473
 2885SOL    HW225798   4.437   5.806   6.499
 2886SOL     OW25799   2.488   2.425   1.965
 2886SOL    HW125800   2.451   2.337   1.970
 2886SOL    HW225801   2.550   2.429   2.038
 2887SOL     OW25802   3.705   3.006   2.063
 2887SOL    HW125803   3.748   2.922   2.079
 2887SOL    HW225804   3.631   3.007   2.124
 2888SOL     OW25805   3.507   6.102   0.439
 2888SOL    HW125806   3.503   6.179   0.382
 2888SOL    HW225807   3.596   6.104   0.475
 2889SOL     OW25808   3.606   5.602   6.656
 2889SOL    HW125809   3.631   5.544   6.584
 2889SOL    HW225810   3.589   5.543   6.729
 2890SOL     OW25811   3.439   3.452   6.588
 2890SOL    HW125812   3.476   3.387   6.646
 2890SOL    HW225813   3.378   3.502   6.643
 2891SOL     OW25814   0.805   2.260   0.323
 2891SOL    HW125815   0.798   2.166   0.305
 2891SOL    HW225816   0.750   2.301   0.256
 2892SOL     OW25817   1.558   3.405   7.584
 2892SOL    HW125818   1.566   3.372   7.494
 2892SOL    HW225819   1.559   3.327   7.638
 2893SOL     OW25820   4.534   2.160   6.646
 2893SOL    HW125821   4.462   2.173   6.584
 2893SOL    HW225822   4.587   2.240   6.638
 2894SOL     OW25823   5.373   1.589   0.698
 2894SOL    HW125824   5.411   1.608   0.783
 2894SOL    HW225825   5.434   1.528   0.657
 2895SOL     OW25826   6.231   1.419   7.313
 2895SOL    HW125827   6.183   1.374   7.382
 2895SOL    HW225828   6.273   1.348   7.263
 2896SOL     OW25829   6.205   5.184   5.929
 2896SOL    HW125830   6.148   5.256   5.955
 2896SOL    HW225831   6.292   5.224   5.918
 2897SOL     OW25832   5.130   5.940   6.670
 2897SOL    HW125833   5.174   5.863   6.633
 2897SOL    HW225834   5.087   5.908   6.749
 2898SOL     OW25835   1.035   1.297   5.498
 2898SOL    HW125836   0.969   1.301   5.567
 2898SOL    HW225837   1.118   1.313   5.544
 2899SOL     OW25838   6.196   1.925   7.293
 2899SOL    HW125839   6.275   1.911   7.242
 2899SOL    HW225840   6.164   2.011   7.266
 2900SOL     OW25841   0.744   0.215   0.142
 2900SOL    HW125842   0.771   0.305   0.128
 2900SOL    HW225843   0.824   0.169   0.167
 2901SOL     OW25844   2.139   5.366   0.635
 2901SOL    HW125845   2.215   5.353   0.578
 2901SOL    HW225846   2.175   5.372   0.723
 2902SOL     OW25847   3.160   0.279   7.425
 2902SOL    HW125848   3.177   0.295   7.518
 2902SOL    HW225849   3.225   0.332   7.379
 2903SOL     OW25850   5.393   1.272   0.073
 2903SOL    HW125851   5.429   1.357   0.050
 2903SOL    HW225852   5.319   1.291   0.131
 2904SOL     OW25853   4.502   3.507   6.517
 2904SOL    HW125854   4.489   3.444   6.446
 2904SOL    HW225855   4.537   3.455   6.589
 2905SOL     OW25856   2.391   4.200   1.906
 2905SOL    HW125857   2.437   4.141   1.967
 2905SOL    HW225858   2.376   4.279   1.956
 2906SOL     OW25859   2.375   4.158   1.619
 2906SOL    HW125860   2.293   4.108   1.612
 2906SOL    HW225861   2.377   4.187   1.710
 2907SOL     OW25862   6.124   2.357   1.604
 2907SOL    HW125863   6.052   2.300   1.631
 2907SOL    HW225864   6.200   2.325   1.654
 2908SOL     OW25865   5.680   3.567   2.081
 2908SOL    HW125866   5.690   3.653   2.040
 2908SOL    HW225867   5.747   3.512   2.039
 2909SOL     OW25868   3.633   6.314   2.168
 2909SOL    HW125869   3.715   6.355   2.140
 2909SOL    HW225870   3.580   6.386   2.202
 2910SOL     OW25871   3.989   0.814   0.422
 2910SOL    HW125872   3.958   0.856   0.503
 2910SOL    HW225873   3.993   0.721   0.443
 2911SOL     OW25874   0.254   4.883   7.615
 2911SOL    HW125875   0.342   4.846   7.603
 2911SOL    HW225876   0.269   4.975   7.632
 2912SOL     OW25877   5.902   4.708   6.541
 2912SOL    HW125878   5.840   4.637   6.525
 2912SOL    HW225879   5.968   4.697   6.473
 2913SOL     OW25880   1.269   4.768   0.215
 2913SOL    HW125881   1.318   4.717   0.280
 2913SOL    HW225882   1.326   4.840   0.192
 2914SOL     OW25883   3.333   1.373   2.251
 2914SOL    HW125884   3.246   1.384   2.213
 2914SOL    HW225885   3.317   1.330   2.335
 2915SOL     OW25886   4.428   0.977   0.434
 2915SOL    HW125887   4.502   1.000   0.378
 2915SOL    HW225888   4.352   0.979   0.376
 2916SOL     OW25889   1.888   6.248   7.631
 2916SOL    HW125890   1.862   6.211   7.547
 2916SOL    HW225891   1.965   6.197   7.657
 2917SOL     OW25892   0.062   0.828   1.133
 2917SOL    HW125893   0.005   0.839   1.058
 2917SOL    HW225894   0.136   0.886   1.115
 2918SOL     OW25895   0.675   5.067   0.919
 2918SOL    HW125896   0.641   5.040   0.833
 2918SOL    HW225897   0.767   5.042   0.918
 2919SOL     OW25898   1.171   6.436   1.765
 2919SOL    HW125899   1.179   6.343   1.784
 2919SOL    HW225900   1.077   6.449   1.749
 2920SOL     OW25901   2.184   4.370   0.785
 2920SOL    HW125902   2.266   4.331   0.815
 2920SOL    HW225903   2.180   4.348   0.692
 2921SOL     OW25904   1.993   3.484   7.263
 2921SOL    HW125905   1.917   3.540   7.247
 2921SOL    HW225906   2.025   3.511   7.349
 2922SOL     OW25907   4.541   5.020   2.206
 2922SOL    HW125908   4.468   5.070   2.242
 2922SOL    HW225909   4.541   4.938   2.256
 2923SOL     OW25910   1.918   0.377   2.004
 2923SOL    HW125911   1.898   0.302   2.059
 2923SOL    HW225912   1.975   0.342   1.935
 2924SOL     OW25913   3.687   3.757   2.246
 2924SOL    HW125914   3.733   3.739   2.328
 2924SOL    HW225915   3.672   3.851   2.246
 2925SOL     OW25916   2.783   5.904   0.258
 2925SOL    HW125917   2.766   5.868   0.171
 2925SOL    HW225918   2.876   5.929   0.256
 2926SOL     OW25919   0.941   5.007   0.871
 2926SOL    HW125920   1.002   5.025   0.941
 2926SOL    HW225921   0.941   4.912   0.863
 2927SOL     OW25922   3.755   2.244   1.287
 2927SOL    HW125923   3.764   2.154   1.254
 2927SOL    HW225924   3.662   2.264   1.277
 2928SOL     OW25925   2.935   1.196   6.799
 2928SOL    HW125926   2.943   1.140   6.721
 2928SOL    HW225927   2.966   1.281   6.771
 2929SOL     OW25928   0.879   4.330   5.164
 2929SOL    HW125929   0.903   4.420   5.139
 2929SOL    HW225930   0.793   4.317   5.124
 2930SOL     OW25931   5.246   3.566   2.654
 2930SOL    HW125932   5.227   3.473   2.640
 2930SOL    HW225933   5.267   3.571   2.747
 2931SOL     OW25934   3.885   4.616   6.205
 2931SOL    HW125935   3.967   4.618   6.155
 2931SOL    HW225936   3.847   4.530   6.187
 2932SOL     OW25937   1.992   3.734   0.550
 2932SOL    HW125938   2.022   3.824   0.538
 2932SOL    HW225939   1.897   3.739   0.546
 2933SOL     OW25940   0.765   5.004   0.274
 2933SOL    HW125941   0.829   5.021   0.343
 2933SOL    HW225942   0.693   5.065   0.292
 2934SOL     OW25943   3.428   4.908   6.583
 2934SOL    HW125944   3.425   4.999   6.611
 2934SOL    HW225945   3.350   4.896   6.530
 2935SOL     OW25946   5.535   1.150   2.095
 2935SOL    HW125947   5.594   1.209   2.046
 2935SOL    HW225948   5.449   1.190   2.087
 2936SOL     OW25949   4.522   1.197   0.166
 2936SOL    HW125950   4.520   1.217   0.259
 2936SOL    HW225951   4.543   1.104   0.162
 2937SOL     OW25952   3.763   4.909   0.492
 2937SOL    HW125953   3.690   4.881   0.547
 2937SOL    HW225954   3.729   4.905   0.402
 2938SOL     OW25955   4.768   2.547   7.487
 2938SOL    HW125956   4.754   2.478   7.551
 2938SOL    HW225957   4.772   2.628   7.540
 2939SOL     OW25958   5.881   4.775   6.847
 2939SOL    HW125959   5.898   4.755   6.939
 2939SOL    HW225960   5.833   4.699   6.815
 2940SOL     OW25961   4.146   4.088   6.227
 2940SOL    HW125962   4.234   4.115   6.254
 2940SOL    HW225963   4.161   4.020   6.161
 2941SOL     OW25964   1.210   3.326   7.322
 2941SOL    HW125965   1.210   3.413   7.362
 2941SOL    HW225966   1.118   3.302   7.318
 2942SOL     OW25967   2.456   0.604   1.264
 2942SOL    HW125968   2.548   0.623   1.282
 2942SOL    HW225969   2.412   0.689   1.275
 2943SOL     OW25970   4.782   5.129   1.716
 2943SOL    HW125971   4.759   5.221   1.706
 2943SOL    HW225972   4.873   5.124   1.687
 2944SOL     OW25973   3.373   2.311   6.175
 2944SOL    HW125974   3.456   2.351   6.148
 2944SOL    HW225975   3.359   2.239   6.113
 2945SOL     OW25976   5.320   2.568   2.184
 2945SOL    HW125977   5.415   2.563   2.186
 2945SOL    HW225978   5.300   2.624   2.109
 2946SOL     OW25979   5.804   2.617   0.123
 2946SOL    HW125980   5.865   2.679   0.163
 2946SOL    HW225981   5.846   2.532   0.132
 2947SOL     OW25982   3.776   4.056   1.106
 2947SOL    HW125983   3.709   4.088   1.166
 2947SOL    HW225984   3.833   4.002   1.160
 2948SOL     OW25985   1.321   3.426   0.702
 2948SOL    HW125986   1.337   3.498   0.762
 2948SOL    HW225987   1.280   3.467   0.626
 2949SOL     OW25988   0.822   0.889   6.817
 2949SOL    HW125989   0.859   0.868   6.903
 2949SOL    HW225990   0.820   0.985   6.814
 2950SOL     OW25991   0.543   5.146   6.683
 2950SOL    HW125992   0.560   5.208   6.753
 2950SOL    HW225993   0.602   5.073   6.701
 2951SOL     OW25994   3.977   2.461   7.086
 2951SOL    HW125995   3.936   2.536   7.128
 2951SOL    HW225996   3.929   2.385   7.119
 2952SOL     OW25997   5.274   2.446   1.188
 2952SOL    HW125998   5.342   2.484   1.133
 2952SOL    HW225999   5.277   2.496   1.270
 2953SOL     OW26000   1.206   3.630   0.088
 2953SOL    HW126001   1.236   3.574   0.016
 2953SOL    HW226002   1.112   3.638   0.075
 2954SOL     OW26003   2.797   3.849   7.156
 2954SOL    HW126004   2.796   3.810   7.069
 2954SOL    HW226005   2.810   3.776   7.216
 2955SOL     OW26006   4.429   2.271   0.010
 2955SOL    HW126007   4.404   2.181   0.029
 2955SOL    HW226008   4.345   2.317   0.000
 2956SOL     OW26009   5.695   4.566   6.814
 2956SOL    HW126010   5.654   4.480   6.817
 2956SOL    HW226011   5.646   4.618   6.878
 2957SOL     OW26012   5.833   6.099   6.554
 2957SOL    HW126013   5.915   6.051   6.566
 2957SOL    HW226014   5.811   6.087   6.462
 2958SOL     OW26015   1.728   4.005   6.683
 2958SOL    HW126016   1.661   3.938   6.691
 2958SOL    HW226017   1.805   3.959   6.650
 2959SOL     OW26018   0.414   5.347   0.550
 2959SOL    HW126019   0.404   5.434   0.512
 2959SOL    HW226020   0.498   5.350   0.596
 2960SOL     OW26021   5.197   2.507   6.715
 2960SOL    HW126022   5.109   2.484   6.685
 2960SOL    HW226023   5.224   2.578   6.656
 2961SOL     OW26024   2.702   2.245   0.817
 2961SOL    HW126025   2.668   2.334   0.812
 2961SOL    HW226026   2.635   2.191   0.775
 2962SOL     OW26027   3.148   1.789   2.733
 2962SOL    HW126028   3.168   1.856   2.799
 2962SOL    HW226029   3.079   1.829   2.679
 2963SOL     OW26030   3.805   1.966   1.255
 2963SOL    HW126031   3.728   1.927   1.214
 2963SOL    HW226032   3.871   1.967   1.186
 2964SOL     OW26033   2.972   5.531   2.014
 2964SOL    HW126034   3.048   5.524   1.956
 2964SOL    HW226035   2.974   5.623   2.043
 2965SOL     OW26036   3.363   2.846   0.251
 2965SOL    HW126037   3.367   2.940   0.237
 2965SOL    HW226038   3.345   2.837   0.345
 2966SOL     OW26039   0.041   5.906   7.508
 2966SOL    HW126040  -0.017   5.952   7.447
 2966SOL    HW226041   0.008   5.816   7.509
 2967SOL     OW26042   0.133   1.525   1.911
 2967SOL    HW126043   0.085   1.594   1.958
 2967SOL    HW226044   0.211   1.509   1.964
 2968SOL     OW26045   3.824   6.282   5.978
 2968SOL    HW126046   3.874   6.363   5.986
 2968SOL    HW226047   3.887   6.219   5.943
 2969SOL     OW26048   0.952   5.076   0.015
 2969SOL    HW126049   0.953   5.098   0.108
 2969SOL    HW226050   1.040   5.097  -0.016
 2970SOL     OW26051   3.347   5.921   1.757
 2970SOL    HW126052   3.384   6.003   1.724
 2970SOL    HW226053   3.274   5.902   1.698
 2971SOL     OW26054   3.823   3.676   1.070
 2971SOL    HW126055   3.910   3.710   1.051
 2971SOL    HW226056   3.764   3.735   1.022
 2972SOL     OW26057   4.959   2.423   0.390
 2972SOL    HW126058   5.053   2.408   0.405
 2972SOL    HW226059   4.926   2.457   0.473
 2973SOL     OW26060   4.050   1.990   2.244
 2973SOL    HW126061   4.008   1.904   2.241
 2973SOL    HW226062   4.084   1.997   2.333
 2974SOL     OW26063   5.880   1.884   1.573
 2974SOL    HW126064   5.907   1.845   1.490
 2974SOL    HW226065   5.811   1.826   1.605
 2975SOL     OW26066   2.875   4.225   0.820
 2975SOL    HW126067   2.828   4.298   0.861
 2975SOL    HW226068   2.823   4.148   0.841
 2976SOL     OW26069   5.770   3.547   6.427
 2976SOL    HW126070   5.790   3.516   6.515
 2976SOL    HW226071   5.820   3.489   6.369
 2977SOL     OW26072   6.465   6.271   7.637
 2977SOL    HW126073   6.451   6.278   7.731
 2977SOL    HW226074   6.386   6.308   7.598
 2978SOL     OW26075   0.244   5.920   1.209
 2978SOL    HW126076   0.198   6.003   1.211
 2978SOL    HW226077   0.332   5.942   1.178
 2979SOL     OW26078   0.097   2.981   0.182
 2979SOL    HW126079   0.055   3.066   0.197
 2979SOL    HW226080   0.139   2.960   0.265
 2980SOL     OW26081   2.842   3.728   1.206
 2980SOL    HW126082   2.771   3.750   1.265
 2980SOL    HW226083   2.867   3.639   1.231
 2981SOL     OW26084   4.058   4.099   7.621
 2981SOL    HW126085   3.987   4.156   7.591
 2981SOL    HW226086   4.086   4.052   7.542
 2982SOL     OW26087   4.989   1.476   7.356
 2982SOL    HW126088   5.011   1.412   7.287
 2982SOL    HW226089   4.899   1.454   7.380
 2983SOL     OW26090   3.821   4.099   6.981
 2983SOL    HW126091   3.848   4.021   6.933
 2983SOL    HW226092   3.845   4.172   6.924
 2984SOL     OW26093   4.531   5.783   5.769
 2984SOL    HW126094   4.494   5.700   5.739
 2984SOL    HW226095   4.556   5.829   5.689
 2985SOL     OW26096   4.199   4.918   0.537
 2985SOL    HW126097   4.236   4.882   0.456
 2985SOL    HW226098   4.139   4.987   0.508
 2986SOL     OW26099   1.229   0.817   1.418
 2986SOL    HW126100   1.264   0.783   1.500
 2986SOL    HW226101   1.161   0.754   1.394
 2987SOL     OW26102   4.809   4.134   1.309
 2987SOL    HW126103   4.795   4.140   1.404
 2987SOL    HW226104   4.861   4.212   1.288
 2988SOL     OW26105   1.374   6.350   0.643
 2988SOL    HW126106   1.399   6.314   0.558
 2988SOL    HW226107   1.439   6.314   0.704
 2989SOL     OW26108   4.330   6.378   6.286
 2989SOL    HW126109   4.278   6.320   6.230
 2989SOL    HW226110   4.406   6.401   6.231
 2990SOL     OW26111   0.168   5.998   2.094
 2990SOL    HW126112   0.123   5.915   2.080
 2990SOL    HW226113   0.132   6.031   2.176
 2991SOL     OW26114   5.230   5.471   1.306
 2991SOL    HW126115   5.293   5.542   1.300
 2991SOL    HW226116   5.165   5.490   1.238
 2992SOL     OW26117   5.454   4.378   0.698
 2992SOL    HW126118   5.545   4.359   0.724
 2992SOL    HW226119   5.425   4.443   0.762
 2993SOL     OW26120   0.779   1.237   7.182
 2993SOL    HW126121   0.711   1.184   7.222
 2993SOL    HW226122   0.741   1.266   7.099
 2994SOL     OW26123   2.873   3.276   2.049
 2994SOL    HW126124   2.812   3.216   2.092
 2994SOL    HW226125   2.943   3.288   2.112
 2995SOL     OW26126   5.462   1.037   7.429
 2995SOL    HW126127   5.536   1.057   7.487
 2995SOL    HW226128   5.385   1.065   7.478
 2996SOL     OW26129   2.066   0.456   6.396
 2996SOL    HW126130   2.125   0.391   6.358
 2996SOL    HW226131   2.063   0.434   6.489
 2997SOL     OW26132   0.249   3.730   0.129
 2997SOL    HW126133   0.209   3.643   0.134
 2997SOL    HW226134   0.211   3.779   0.202
 2998SOL     OW26135   2.273   3.290   1.322
 2998SOL    HW126136   2.353   3.343   1.333
 2998SOL    HW226137   2.302   3.215   1.269
 2999SOL     OW26138   0.397   1.395   6.954
 2999SOL    HW126139   0.326   1.344   6.915
 2999SOL    HW226140   0.373   1.403   7.047
 3000SOL     OW26141   6.456   6.285   0.139
 3000SOL    HW126142   6.419   6.372   0.129
 3000SOL    HW226143   6.422   6.253   0.223
 3001SOL     OW26144   1.592   1.547   0.977
 3001SOL    HW126145   1.563   1.472   1.029
 3001SOL    HW226146   1.522   1.560   0.913
 3002SOL     OW26147   5.999   6.327   7.295
 3002SOL    HW126148   5.922   6.278   7.324
 3002SOL    HW226149   6.014   6.390   7.365
 3003SOL     OW26150   0.967   0.921   7.562
 3003SOL    HW126151   0.917   0.995   7.528
 3003SOL    HW226152   1.058   0.952   7.565
 3004SOL     OW26153   0.373   4.395   6.007
 3004SOL    HW126154   0.409   4.469   5.957
 3004SOL    HW226155   0.278   4.403   5.996
 3005SOL     OW26156   1.021   5.710   1.830
 3005SOL    HW126157   1.026   5.650   1.904
 3005SOL    HW226158   1.055   5.793   1.864
 3006SOL     OW26159   4.073   6.102   1.123
 3006SOL    HW126160   4.142   6.167   1.111
 3006SOL    HW226161   4.104   6.046   1.193
 3007SOL     OW26162   4.056   1.566   6.683
 3007SOL    HW126163   4.122   1.558   6.614
 3007SOL    HW226164   4.106   1.556   6.764
 3008SOL     OW26165   3.274   2.479   5.660
 3008SOL    HW126166   3.330   2.422   5.712
 3008SOL    HW226167   3.323   2.493   5.579
 3009SOL     OW26168   2.274   1.165   7.639
 3009SOL    HW126169   2.361   1.124   7.639
 3009SOL    HW226170   2.291   1.258   7.631
 3010SOL     OW26171   2.453   4.787   6.083
 3010SOL    HW126172   2.504   4.769   6.162
 3010SOL    HW226173   2.427   4.879   6.092
 3011SOL     OW26174   2.675   3.742   6.831
 3011SOL    HW126175   2.712   3.686   6.762
 3011SOL    HW226176   2.626   3.809   6.784
 3012SOL     OW26177   5.978   4.465   7.034
 3012SOL    HW126178   6.058   4.515   7.019
 3012SOL    HW226179   5.951   4.436   6.947
 3013SOL     OW26180   5.569   3.829   7.193
 3013SOL    HW126181   5.513   3.751   7.193
 3013SOL    HW226182   5.639   3.808   7.130
 3014SOL     OW26183   2.571   4.617   1.855
 3014SOL    HW126184   2.594   4.527   1.833
 3014SOL    HW226185   2.618   4.635   1.936
 3015SOL     OW26186   5.377   3.602   1.590
 3015SOL    HW126187   5.451   3.598   1.651
 3015SOL    HW226188   5.408   3.654   1.517
 3016SOL     OW26189   2.126   2.653   6.425
 3016SOL    HW126190   2.097   2.643   6.334
 3016SOL    HW226191   2.056   2.615   6.477
 3017SOL     OW26192   6.128   5.970   0.690
 3017SOL    HW126193   6.222   5.991   0.689
 3017SOL    HW226194   6.122   5.890   0.742
 3018SOL     OW26195   4.619   6.184   6.387
 3018SOL    HW126196   4.582   6.178   6.299
 3018SOL    HW226197   4.705   6.225   6.375
 3019SOL     OW26198   4.714   2.890   2.088
 3019SOL    HW126199   4.622   2.898   2.113
 3019SOL    HW226200   4.715   2.820   2.023
 3020SOL     OW26201   5.938   2.969   6.397
 3020SOL    HW126202   5.920   2.876   6.413
 3020SOL    HW226203   5.858   3.002   6.356
 3021SOL     OW26204   2.797   2.780   0.369
 3021SOL    HW126205   2.827   2.856   0.418
 3021SOL    HW226206   2.795   2.709   0.434
 3022SOL     OW26207   4.442   5.833   6.994
 3022SOL    HW126208   4.455   5.741   7.015
 3022SOL    HW226209   4.378   5.863   7.059
 3023SOL     OW26210   5.719   4.245   2.048
 3023SOL    HW126211   5.670   4.175   2.005
 3023SOL    HW226212   5.811   4.217   2.041
 3024SOL     OW26213   3.381   1.800   0.658
 3024SOL    HW126214   3.381   1.754   0.574
 3024SOL    HW226215   3.291   1.829   0.670
 3025SOL     OW26216   5.399   5.788   6.760
 3025SOL    HW126217   5.380   5.708   6.710
 3025SOL    HW226218   5.421   5.853   6.693
 3026SOL     OW26219   0.193   4.617   6.263
 3026SOL    HW126220   0.214   4.571   6.344
 3026SOL    HW226221   0.182   4.548   6.198
 3027SOL     OW26222   5.681   0.979   6.639
 3027SOL    HW126223   5.663   1.046   6.573
 3027SOL    HW226224   5.707   1.029   6.717
 3028SOL     OW26225   1.078   0.560   0.919
 3028SOL    HW126226   1.035   0.631   0.871
 3028SOL    HW226227   1.006   0.502   0.945
 3029SOL     OW26228   4.663   4.060   7.100
 3029SOL    HW126229   4.714   4.027   7.174
 3029SOL    HW226230   4.719   4.046   7.023
 3030SOL     OW26231   3.203   3.587   7.480
 3030SOL    HW126232   3.225   3.673   7.517
 3030SOL    HW226233   3.112   3.595   7.452
 3031SOL     OW26234   5.684   3.121   0.212
 3031SOL    HW126235   5.599   3.159   0.189
 3031SOL    HW226236   5.677   3.100   0.305
 3032SOL     OW26237   1.571   5.759   1.539
 3032SOL    HW126238   1.529   5.789   1.619
 3032SOL    HW226239   1.621   5.835   1.508
 3033SOL     OW26240   5.390   4.376   6.226
 3033SOL    HW126241   5.473   4.328   6.227
 3033SOL    HW226242   5.344   4.346   6.303
 3034SOL     OW26243   0.213   2.805   6.465
 3034SOL    HW126244   0.229   2.840   6.553
 3034SOL    HW226245   0.130   2.758   6.473
 3035SOL     OW26246   1.433   3.746   0.488
 3035SOL    HW126247   1.440   3.808   0.560
 3035SOL    HW226248   1.369   3.681   0.517
 3036SOL     OW26249   0.164   3.750   2.636
 3036SOL    HW126250   0.095   3.690   2.608
 3036SOL    HW226251   0.127   3.837   2.623
 3037SOL     OW26252   5.677   1.394   2.444
 3037SOL    HW126253   5.745   1.426   2.385
 3037SOL    HW226254   5.686   1.299   2.441
 3038SOL     OW26255   5.348   2.495   6.955
 3038SOL    HW126256   5.300   2.492   6.873
 3038SOL    HW226257   5.413   2.425   6.947
 3039SOL     OW26258   5.471   3.103   0.754
 3039SOL    HW126259   5.562   3.089   0.780
 3039SOL    HW226260   5.428   3.019   0.771
 3040SOL     OW26261   4.050   4.349   6.411
 3040SOL    HW126262   4.103   4.428   6.403
 3040SOL    HW226263   4.096   4.283   6.358
 3041SOL     OW26264   4.886   0.288   0.057
 3041SOL    HW126265   4.912   0.220  -0.005
 3041SOL    HW226266   4.793   0.271   0.074
 3042SOL     OW26267   5.660   4.571   6.556
 3042SOL    HW126268   5.689   4.574   6.647
 3042SOL    HW226269   5.644   4.479   6.539
 3043SOL     OW26270   0.274   4.150   7.018
 3043SOL    HW126271   0.315   4.125   6.935
 3043SOL    HW226272   0.308   4.237   7.037
 3044SOL     OW26273   0.333   3.539   6.305
 3044SOL    HW126274   0.418   3.503   6.280
 3044SOL    HW226275   0.290   3.558   6.222
 3045SOL     OW26276   1.193   2.932   7.043
 3045SOL    HW126277   1.110   2.924   6.997
 3045SOL    HW226278   1.168   2.949   7.134
 3046SOL     OW26279   2.897   0.400   6.237
 3046SOL    HW126280   2.802   0.395   6.231
 3046SOL    HW226281   2.928   0.386   6.148
 3047SOL     OW26282   5.672   4.487   1.922
 3047SOL    HW126283   5.674   4.402   1.967
 3047SOL    HW226284   5.612   4.540   1.973
 3048SOL     OW26285   4.913   2.309   6.837
 3048SOL    HW126286   4.901   2.355   6.920
 3048SOL    HW226287   4.868   2.364   6.773
 3049SOL     OW26288   0.479   0.125   7.046
 3049SOL    HW126289   0.449   0.105   7.135
 3049SOL    HW226290   0.398   0.140   6.997
 3050SOL     OW26291   0.432   4.208   0.864
 3050SOL    HW126292   0.433   4.142   0.796
 3050SOL    HW226293   0.499   4.180   0.926
 3051SOL     OW26294   4.501   4.084   0.704
 3051SOL    HW126295   4.571   4.057   0.764
 3051SOL    HW226296   4.547   4.125   0.631
 3052SOL     OW26297   0.737   6.111   0.219
 3052SOL    HW126298   0.692   6.112   0.303
 3052SOL    HW226299   0.669   6.135   0.155
 3053SOL     OW26300   5.449   1.282   6.886
 3053SOL    HW126301   5.487   1.348   6.828
 3053SOL    HW226302   5.465   1.199   6.840
 3054SOL     OW26303   3.394   3.196   6.999
 3054SOL    HW126304   3.432   3.189   7.086
 3054SOL    HW226305   3.342   3.277   7.002
 3055SOL     OW26306   1.942   1.581   7.723
 3055SOL    HW126307   1.935   1.571   7.818
 3055SOL    HW226308   1.968   1.494   7.691
 3056SOL     OW26309   0.070   4.007   0.552
 3056SOL    HW126310  -0.021   4.033   0.538
 3056SOL    HW226311   0.064   3.928   0.606
 3057SOL     OW26312   4.202   4.474   7.108
 3057SOL    HW126313   4.119   4.427   7.117
 3057SOL    HW226314   4.269   4.405   7.102
 3058SOL     OW26315   3.203   2.036   6.534
 3058SOL    HW126316   3.245   2.076   6.610
 3058SOL    HW226317   3.178   1.949   6.563
 3059SOL     OW26318   0.884   0.487   1.739
 3059SOL    HW126319   0.943   0.517   1.808
 3059SOL    HW226320   0.925   0.408   1.704
 3060SOL     OW26321   5.170   1.111   6.546
 3060SOL    HW126322   5.259   1.112   6.512
 3060SOL    HW226323   5.115   1.137   6.472
 3061SOL     OW26324   6.303   4.358   7.256
 3061SOL    HW126325   6.313   4.346   7.351
 3061SOL    HW226326   6.273   4.448   7.246
 3062SOL     OW26327   2.108   1.615   0.223
 3062SOL    HW126328   2.162   1.540   0.194
 3062SOL    HW226329   2.148   1.690   0.180
 3063SOL     OW26330   0.838   3.650   1.241
 3063SOL    HW126331   0.782   3.702   1.184
 3063SOL    HW226332   0.790   3.569   1.255
 3064SOL     OW26333   0.229   5.280   6.711
 3064SOL    HW126334   0.143   5.308   6.744
 3064SOL    HW226335   0.213   5.195   6.670
 3065SOL     OW26336   0.264   4.954   2.108
 3065SOL    HW126337   0.315   4.972   2.029
 3065SOL    HW226338   0.328   4.950   2.179
 3066SOL     OW26339   4.781   0.479   0.390
 3066SOL    HW126340   4.744   0.391   0.403
 3066SOL    HW226341   4.828   0.497   0.472
 3067SOL     OW26342   1.300   2.877   5.664
 3067SOL    HW126343   1.320   2.789   5.633
 3067SOL    HW226344   1.261   2.864   5.751
 3068SOL     OW26345   4.465   4.218   0.158
 3068SOL    HW126346   4.446   4.137   0.207
 3068SOL    HW226347   4.382   4.266   0.158
 3069SOL     OW26348   4.468   1.093   1.034
 3069SOL    HW126349   4.524   1.018   1.015
 3069SOL    HW226350   4.428   1.116   0.950
 3070SOL     OW26351   1.876   3.077   0.766
 3070SOL    HW126352   1.945   3.024   0.806
 3070SOL    HW226353   1.875   3.049   0.675
 3071SOL     OW26354   0.531   3.549   1.635
 3071SOL    HW126355   0.500   3.602   1.562
 3071SOL    HW226356   0.453   3.536   1.690
 3072SOL     OW26357   5.608   1.857   7.010
 3072SOL    HW126358   5.546   1.814   6.952
 3072SOL    HW226359   5.666   1.786   7.040
 3073SOL     OW26360   1.926   2.097   1.389
 3073SOL    HW126361   1.968   2.012   1.402
 3073SOL    HW226362   1.987   2.160   1.428
 3074SOL     OW26363   3.515   2.317   7.368
 3074SOL    HW126364   3.523   2.398   7.419
 3074SOL    HW226365   3.437   2.332   7.313
 3075SOL     OW26366   2.085   0.722   1.255
 3075SOL    HW126367   2.072   0.635   1.218
 3075SOL    HW226368   2.021   0.777   1.209
 3076SOL     OW26369   3.582   3.374   7.536
 3076SOL    HW126370   3.611   3.283   7.549
 3076SOL    HW226371   3.654   3.427   7.570
 3077SOL     OW26372   3.050   1.644   7.065
 3077SOL    HW126373   2.991   1.712   7.098
 3077SOL    HW226374   3.137   1.670   7.097
 3078SOL     OW26375   5.132   4.843   3.074
 3078SOL    HW126376   5.085   4.777   3.023
 3078SOL    HW226377   5.132   4.921   3.018
 3079SOL     OW26378   0.730   0.094   7.265
 3079SOL    HW126379   0.742   0.019   7.322
 3079SOL    HW226380   0.714   0.056   7.179
 3080SOL     OW26381   2.414   4.047   7.321
 3080SOL    HW126382   2.507   4.032   7.308
 3080SOL    HW226383   2.408   4.133   7.363
 3081SOL     OW26384   4.086   4.226   0.797
 3081SOL    HW126385   4.025   4.205   0.868
 3081SOL    HW226386   4.077   4.320   0.785
 3082SOL     OW26387   6.012   5.177   2.446
 3082SOL    HW126388   6.065   5.254   2.428
 3082SOL    HW226389   6.075   5.109   2.470
 3083SOL     OW26390   3.043   5.049   0.314
 3083SOL    HW126391   3.043   4.968   0.365
 3083SOL    HW226392   2.952   5.079   0.317
 3084SOL     OW26393   4.756   2.392   0.903
 3084SOL    HW126394   4.781   2.304   0.873
 3084SOL    HW226395   4.839   2.438   0.914
 3085SOL     OW26396   2.092   5.217   2.527
 3085SOL    HW126397   2.035   5.167   2.584
 3085SOL    HW226398   2.032   5.264   2.468
 3086SOL     OW26399   1.987   4.999   1.766
 3086SOL    HW126400   2.056   5.002   1.700
 3086SOL    HW226401   1.950   4.911   1.758
 3087SOL     OW26402   2.670   1.182   5.387
 3087SOL    HW126403   2.722   1.157   5.311
 3087SOL    HW226404   2.715   1.141   5.462
 3088SOL     OW26405   2.656   0.190   7.399
 3088SOL    HW126406   2.656   0.238   7.316
 3088SOL    HW226407   2.715   0.240   7.455
 3089SOL     OW26408   4.273   1.915   6.824
 3089SOL    HW126409   4.195   1.968   6.803
 3089SOL    HW226410   4.249   1.867   6.903
 3090SOL     OW26411   2.880   5.976   0.860
 3090SOL    HW126412   2.817   6.029   0.910
 3090SOL    HW226413   2.916   5.915   0.925
 3091SOL     OW26414   0.610   1.168   0.835
 3091SOL    HW126415   0.606   1.101   0.767
 3091SOL    HW226416   0.518   1.192   0.850
 3092SOL     OW26417   1.206   5.343   1.942
 3092SOL    HW126418   1.196   5.368   1.850
 3092SOL    HW226419   1.149   5.403   1.990
 3093SOL     OW26420   2.135   0.653   5.472
 3093SOL    HW126421   2.209   0.639   5.532
 3093SOL    HW226422   2.057   0.636   5.525
 3094SOL     OW26423   0.113   4.744   0.089
 3094SOL    HW126424   0.062   4.676   0.046
 3094SOL    HW226425   0.080   4.826   0.052
 3095SOL     OW26426   3.845   3.450   7.295
 3095SOL    HW126427   3.802   3.535   7.303
 3095SOL    HW226428   3.773   3.388   7.284
 3096SOL     OW26429   5.105   1.067   6.843
 3096SOL    HW126430   5.173   1.084   6.777
 3096SOL    HW226431   5.135   1.113   6.921
 3097SOL     OW26432   6.365   6.149   7.025
 3097SOL    HW126433   6.364   6.125   6.933
 3097SOL    HW226434   6.442   6.205   7.035
 3098SOL     OW26435   2.301   2.713   0.993
 3098SOL    HW126436   2.355   2.793   0.997
 3098SOL    HW226437   2.305   2.687   0.901
 3099SOL     OW26438   1.731   4.869   0.757
 3099SOL    HW126439   1.739   4.923   0.836
 3099SOL    HW226440   1.821   4.850   0.732
 3100SOL     OW26441   2.309   0.627   0.291
 3100SOL    HW126442   2.276   0.682   0.363
 3100SOL    HW226443   2.347   0.690   0.230
 3101SOL     OW26444   2.411   2.461   1.717
 3101SOL    HW126445   2.389   2.554   1.710
 3101SOL    HW226446   2.446   2.451   1.805
 3102SOL     OW26447   0.226   5.569   7.714
 3102SOL    HW126448   0.253   5.626   7.642
 3102SOL    HW226449   0.234   5.480   7.679
 3103SOL     OW26450   4.356   1.213   0.804
 3103SOL    HW126451   4.332   1.218   0.712
 3103SOL    HW226452   4.345   1.302   0.838
 3104SOL     OW26453   4.296   1.133   7.265
 3104SOL    HW126454   4.214   1.084   7.278
 3104SOL    HW226455   4.267   1.223   7.251
 3105SOL     OW26456   0.443   2.928   7.539
 3105SOL    HW126457   0.512   2.960   7.598
 3105SOL    HW226458   0.408   2.850   7.583
 3106SOL     OW26459   1.878   3.755   5.955
 3106SOL    HW126460   1.814   3.791   6.016
 3106SOL    HW226461   1.848   3.665   5.940
 3107SOL     OW26462   2.413   3.934   0.963
 3107SOL    HW126463   2.500   3.973   0.963
 3107SOL    HW226464   2.421   3.857   1.020
 3108SOL     OW26465   1.308   4.041   6.790
 3108SOL    HW126466   1.285   4.013   6.878
 3108SOL    HW226467   1.284   4.134   6.788
 3109SOL     OW26468   3.805   4.514   0.476
 3109SOL    HW126469   3.840   4.439   0.525
 3109SOL    HW226470   3.779   4.576   0.544
 3110SOL     OW26471   5.764   5.767   6.198
 3110SOL    HW126472   5.835   5.713   6.162
 3110SOL    HW226473   5.745   5.830   6.129
 3111SOL     OW26474   4.334   6.125   7.133
 3111SOL    HW126475   4.292   6.039   7.139
 3111SOL    HW226476   4.280   6.173   7.070
 3112SOL     OW26477   5.421   5.656   1.317
 3112SOL    HW126478   5.508   5.694   1.325
 3112SOL    HW226479   5.362   5.731   1.310
 3113SOL     OW26480   0.606   5.509   6.361
 3113SOL    HW126481   0.534   5.504   6.425
 3113SOL    HW226482   0.591   5.435   6.303
 3114SOL     OW26483   1.778   5.034   0.093
 3114SOL    HW126484   1.870   5.063   0.089
 3114SOL    HW226485   1.768   5.000   0.182
 3115SOL     OW26486   4.217   3.625   7.169
 3115SOL    HW126487   4.199   3.677   7.090
 3115SOL    HW226488   4.303   3.656   7.198
 3116SOL     OW26489   4.067   0.289   0.630
 3116SOL    HW126490   4.001   0.358   0.631
 3116SOL    HW226491   4.127   0.314   0.559
 3117SOL     OW26492   4.727   4.007   0.826
 3117SOL    HW126493   4.804   3.952   0.842
 3117SOL    HW226494   4.735   4.079   0.888
 3118SOL     OW26495   3.116   2.649   6.977
 3118SOL    HW126496   3.205   2.683   6.981
 3118SOL    HW226497   3.093   2.653   6.884
 3119SOL     OW26498   1.371   3.866   0.111
 3119SOL    HW126499   1.336   3.777   0.104
 3119SOL    HW226500   1.293   3.922   0.107
 3120SOL     OW26501   0.671   3.725   0.815
 3120SOL    HW126502   0.576   3.736   0.812
 3120SOL    HW226503   0.696   3.744   0.905
 3121SOL     OW26504   0.092   5.039   6.750
 3121SOL    HW126505   0.082   5.030   6.845
 3121SOL    HW226506   0.013   5.087   6.723
 3122SOL     OW26507   5.674   2.761   1.152
 3122SOL    HW126508   5.767   2.784   1.149
 3122SOL    HW226509   5.629   2.843   1.173
 3123SOL     OW26510   0.843   4.052   7.742
 3123SOL    HW126511   0.825   4.145   7.759
 3123SOL    HW226512   0.844   4.012   7.829
 3124SOL     OW26513   0.589   3.247   0.757
 3124SOL    HW126514   0.495   3.236   0.744
 3124SOL    HW226515   0.605   3.341   0.745
 3125SOL     OW26516   4.991   0.900   1.141
 3125SOL    HW126517   4.927   0.847   1.093
 3125SOL    HW226518   5.075   0.877   1.102
 3126SOL     OW26519   5.346   0.540   1.541
 3126SOL    HW126520   5.441   0.547   1.549
 3126SOL    HW226521   5.331   0.447   1.525
 3127SOL     OW26522   5.993   4.394   5.802
 3127SOL    HW126523   5.942   4.349   5.735
 3127SOL    HW226524   6.032   4.324   5.854
 3128SOL     OW26525   0.498   2.679   6.450
 3128SOL    HW126526   0.417   2.726   6.430
 3128SOL    HW226527   0.564   2.721   6.395
 3129SOL     OW26528   3.068   0.440   6.482
 3129SOL    HW126529   2.995   0.489   6.443
 3129SOL    HW226530   3.094   0.378   6.413
 3130SOL     OW26531   0.853   0.645   6.167
 3130SOL    HW126532   0.826   0.576   6.107
 3130SOL    HW226533   0.799   0.632   6.245
 3131SOL     OW26534   6.027   0.201   5.685
 3131SOL    HW126535   5.987   0.273   5.734
 3131SOL    HW226536   5.962   0.131   5.690
 3132SOL     OW26537   2.922   6.443   7.640
 3132SOL    HW126538   2.854   6.382   7.669
 3132SOL    HW226539   2.886   6.530   7.658
 3133SOL     OW26540   5.081   1.583   1.925
 3133SOL    HW126541   5.067   1.488   1.924
 3133SOL    HW226542   5.110   1.602   2.015
 3134SOL     OW26543   4.187   6.332   5.182
 3134SOL    HW126544   4.195   6.424   5.206
 3134SOL    HW226545   4.100   6.324   5.143
 3135SOL     OW26546   2.921   2.885   2.006
 3135SOL    HW126547   3.001   2.936   1.996
 3135SOL    HW226548   2.932   2.840   2.090
 3136SOL     OW26549   4.981   1.114   1.314
 3136SOL    HW126550   5.008   1.028   1.280
 3136SOL    HW226551   4.887   1.117   1.298
 3137SOL     OW26552   0.520   1.253   6.511
 3137SOL    HW126553   0.564   1.223   6.431
 3137SOL    HW226554   0.569   1.331   6.537
 3138SOL     OW26555   4.609   2.464   0.219
 3138SOL    HW126556   4.588   2.383   0.266
 3138SOL    HW226557   4.615   2.438   0.127
 3139SOL     OW26558   3.296   2.407   6.708
 3139SOL    HW126559   3.213   2.418   6.661
 3139SOL    HW226560   3.279   2.337   6.771
 3140SOL     OW26561   3.490   4.641   1.890
 3140SOL    HW126562   3.520   4.725   1.925
 3140SOL    HW226563   3.485   4.655   1.795
 3141SOL     OW26564   1.252   5.782   1.285
 3141SOL    HW126565   1.311   5.712   1.314
 3141SOL    HW226566   1.167   5.738   1.275
 3142SOL     OW26567   5.080   3.991   5.783
 3142SOL    HW126568   5.162   4.040   5.779
 3142SOL    HW226569   5.014   4.051   5.747
 3143SOL     OW26570   3.254   5.295   6.896
 3143SOL    HW126571   3.258   5.376   6.845
 3143SOL    HW226572   3.202   5.236   6.842
 3144SOL     OW26573   1.189   2.825   7.519
 3144SOL    HW126574   1.214   2.733   7.531
 3144SOL    HW226575   1.185   2.836   7.424
 3145SOL     OW26576   1.958   4.284   6.291
 3145SOL    HW126577   1.918   4.312   6.209
 3145SOL    HW226578   2.013   4.208   6.267
 3146SOL     OW26579   3.206   0.124   6.592
 3146SOL    HW126580   3.231   0.119   6.684
 3146SOL    HW226581   3.124   0.173   6.591
 3147SOL     OW26582   4.726   3.278   6.323
 3147SOL    HW126583   4.634   3.302   6.320
 3147SOL    HW226584   4.733   3.217   6.397
 3148SOL     OW26585   0.678   3.838   7.641
 3148SOL    HW126586   0.620   3.836   7.717
 3148SOL    HW226587   0.724   3.921   7.648
 3149SOL     OW26588   2.477   6.360   6.971
 3149SOL    HW126589   2.534   6.436   6.968
 3149SOL    HW226590   2.522   6.294   6.918
 3150SOL     OW26591   3.182   0.692   1.013
 3150SOL    HW126592   3.235   0.656   1.083
 3150SOL    HW226593   3.149   0.775   1.047
 3151SOL     OW26594   1.124   0.222   5.874
 3151SOL    HW126595   1.157   0.284   5.809
 3151SOL    HW226596   1.193   0.218   5.940
 3152SOL     OW26597   0.822   0.157   6.857
 3152SOL    HW126598   0.832   0.160   6.952
 3152SOL    HW226599   0.848   0.245   6.827
 3153SOL     OW26600   4.482   4.076   6.261
 3153SOL    HW126601   4.576   4.090   6.275
 3153SOL    HW226602   4.439   4.140   6.318
 3154SOL     OW26603   2.768   2.116   6.974
 3154SOL    HW126604   2.754   2.180   7.043
 3154SOL    HW226605   2.685   2.069   6.968
 3155SOL     OW26606   0.708   2.822   6.280
 3155SOL    HW126607   0.656   2.898   6.255
 3155SOL    HW226608   0.777   2.817   6.214
 3156SOL     OW26609   4.332   4.887   6.978
 3156SOL    HW126610   4.248   4.858   6.941
 3156SOL    HW226611   4.363   4.813   7.030
 3157SOL     OW26612   3.105   4.349   0.920
 3157SOL    HW126613   3.074   4.266   0.885
 3157SOL    HW226614   3.038   4.412   0.894
 3158SOL     OW26615   4.130   3.774   0.506
 3158SOL    HW126616   4.160   3.848   0.559
 3158SOL    HW226617   4.092   3.814   0.428
 3159SOL     OW26618   2.103   2.835   0.165
 3159SOL    HW126619   2.054   2.916   0.162
 3159SOL    HW226620   2.121   2.814   0.073
 3160SOL     OW26621   0.765   1.908   1.722
 3160SOL    HW126622   0.780   1.816   1.698
 3160SOL    HW226623   0.827   1.926   1.792
 3161SOL     OW26624   3.062   5.321   0.271
 3161SOL    HW126625   3.042   5.335   0.178
 3161SOL    HW226626   3.090   5.229   0.276
 3162SOL     OW26627   3.745   1.371   7.100
 3162SOL    HW126628   3.763   1.361   7.006
 3162SOL    HW226629   3.829   1.393   7.139
 3163SOL     OW26630   4.601   0.566   1.102
 3163SOL    HW126631   4.547   0.489   1.087
 3163SOL    HW226632   4.647   0.580   1.019
 3164SOL     OW26633   0.927   5.962   1.279
 3164SOL    HW126634   0.942   6.012   1.198
 3164SOL    HW226635   0.886   5.881   1.250
 3165SOL     OW26636   1.440   2.297   1.109
 3165SOL    HW126637   1.426   2.391   1.120
 3165SOL    HW226638   1.520   2.279   1.157
 3166SOL     OW26639   2.870   3.019   1.138
 3166SOL    HW126640   2.781   3.053   1.137
 3166SOL    HW226641   2.866   2.942   1.195
 3167SOL     OW26642   3.296   1.152   5.634
 3167SOL    HW126643   3.257   1.172   5.549
 3167SOL    HW226644   3.263   1.221   5.692
 3168SOL     OW26645   5.959   0.854   5.786
 3168SOL    HW126646   5.941   0.881   5.877
 3168SOL    HW226647   5.967   0.759   5.790
 3169SOL     OW26648   4.477   5.793   0.804
 3169SOL    HW126649   4.402   5.736   0.822
 3169SOL    HW226650   4.536   5.740   0.750
 3170SOL     OW26651   2.480   1.733   1.209
 3170SOL    HW126652   2.425   1.667   1.167
 3170SOL    HW226653   2.510   1.692   1.290
 3171SOL     OW26654   0.633   4.648   1.885
 3171SOL    HW126655   0.701   4.586   1.912
 3171SOL    HW226656   0.676   4.733   1.885
 3172SOL     OW26657   6.226   0.537   1.484
 3172SOL    HW126658   6.177   0.467   1.442
 3172SOL    HW226659   6.259   0.590   1.411
 3173SOL     OW26660   4.043   3.679   0.196
 3173SOL    HW126661   3.966   3.626   0.172
 3173SOL    HW226662   4.044   3.750   0.132
 3174SOL     OW26663   2.989   2.317   6.738
 3174SOL    HW126664   2.899   2.312   6.705
 3174SOL    HW226665   3.025   2.396   6.698
 3175SOL     OW26666   4.399   4.560   1.373
 3175SOL    HW126667   4.320   4.609   1.354
 3175SOL    HW226668   4.410   4.502   1.297
 3176SOL     OW26669   1.551   1.212   0.791
 3176SOL    HW126670   1.455   1.215   0.791
 3176SOL    HW226671   1.578   1.296   0.753
 3177SOL     OW26672   0.779   0.966   0.635
 3177SOL    HW126673   0.786   0.947   0.541
 3177SOL    HW226674   0.861   1.012   0.656
 3178SOL     OW26675   1.198   4.376   0.490
 3178SOL    HW126676   1.269   4.363   0.427
 3178SOL    HW226677   1.147   4.295   0.486
 3179SOL     OW26678   5.630   2.324   0.747
 3179SOL    HW126679   5.701   2.331   0.812
 3179SOL    HW226680   5.637   2.234   0.714
 3180SOL     OW26681   2.831   0.123   2.269
 3180SOL    HW126682   2.897   0.122   2.199
 3180SOL    HW226683   2.841   0.209   2.310
 3181SOL     OW26684   1.333   3.072   2.554
 3181SOL    HW126685   1.304   3.162   2.569
 3181SOL    HW226686   1.424   3.081   2.525
 3182SOL     OW26687   4.215   0.228   7.685
 3182SOL    HW126688   4.139   0.224   7.626
 3182SOL    HW226689   4.186   0.286   7.755
 3183SOL     OW26690   5.238   0.358   0.503
 3183SOL    HW126691   5.148   0.387   0.518
 3183SOL    HW226692   5.232   0.263   0.497
 3184SOL     OW26693   3.959   2.699   0.147
 3184SOL    HW126694   3.877   2.652   0.128
 3184SOL    HW226695   3.969   2.692   0.242
 3185SOL     OW26696   5.189   4.006   6.398
 3185SOL    HW126697   5.157   3.917   6.415
 3185SOL    HW226698   5.238   3.999   6.316
 3186SOL     OW26699   1.173   4.279   6.253
 3186SOL    HW126700   1.113   4.205   6.248
 3186SOL    HW226701   1.231   4.268   6.177
 3187SOL     OW26702   5.552   3.961   7.434
 3187SOL    HW126703   5.575   3.931   7.346
 3187SOL    HW226704   5.474   4.014   7.421
 3188SOL     OW26705   3.377   3.694   0.414
 3188SOL    HW126706   3.394   3.788   0.414
 3188SOL    HW226707   3.463   3.654   0.424
 3189SOL     OW26708   5.431   0.188   0.188
 3189SOL    HW126709   5.345   0.177   0.229
 3189SOL    HW226710   5.429   0.130   0.112
 3190SOL     OW26711   5.185   2.768   1.626
 3190SOL    HW126712   5.270   2.791   1.663
 3190SOL    HW226713   5.173   2.676   1.649
 3191SOL     OW26714   1.160   2.060   7.063
 3191SOL    HW126715   1.123   1.987   7.112
 3191SOL    HW226716   1.136   2.138   7.114
 3192SOL     OW26717   3.852   6.232   1.077
 3192SOL    HW126718   3.939   6.194   1.092
 3192SOL    HW226719   3.856   6.264   0.987
 3193SOL     OW26720   3.557   1.114   0.942
 3193SOL    HW126721   3.510   1.105   1.025
 3193SOL    HW226722   3.498   1.165   0.887
 3194SOL     OW26723   0.193   0.126   7.686
 3194SOL    HW126724   0.121   0.082   7.642
 3194SOL    HW226725   0.206   0.076   7.768
 3195SOL     OW26726   4.235   2.492   6.537
 3195SOL    HW126727   4.145   2.462   6.539
 3195SOL    HW226728   4.276   2.440   6.467
 3196SOL     OW26729   4.899   5.783   1.927
 3196SOL    HW126730   4.808   5.798   1.902
 3196SOL    HW226731   4.941   5.868   1.918
 3197SOL     OW26732   2.465   2.680   6.150
 3197SOL    HW126733   2.385   2.731   6.141
 3197SOL    HW226734   2.531   2.729   6.102
 3198SOL     OW26735   5.190   1.536   7.735
 3198SOL    HW126736   5.184   1.550   7.829
 3198SOL    HW226737   5.246   1.608   7.704
 3199SOL     OW26738   6.243   4.790   1.345
 3199SOL    HW126739   6.313   4.762   1.404
 3199SOL    HW226740   6.270   4.876   1.314
 3200SOL     OW26741   2.512   2.732   1.268
 3200SOL    HW126742   2.559   2.768   1.193
 3200SOL    HW226743   2.426   2.774   1.265
 3201SOL     OW26744   2.852   1.019   6.448
 3201SOL    HW126745   2.813   1.107   6.442
 3201SOL    HW226746   2.783   0.966   6.487
 3202SOL     OW26747   5.498   6.180   7.490
 3202SOL    HW126748   5.507   6.159   7.397
 3202SOL    HW226749   5.524   6.100   7.535
 3203SOL     OW26750   1.062   6.063   1.037
 3203SOL    HW126751   1.112   5.992   0.997
 3203SOL    HW226752   0.988   6.077   0.979
 3204SOL     OW26753   3.379   6.050   0.927
 3204SOL    HW126754   3.367   6.109   0.853
 3204SOL    HW226755   3.448   6.091   0.979
 3205SOL     OW26756   2.426   3.583   0.618
 3205SOL    HW126757   2.475   3.510   0.657
 3205SOL    HW226758   2.345   3.543   0.587
 3206SOL     OW26759   0.745   2.904   7.148
 3206SOL    HW126760   0.731   2.922   7.055
 3206SOL    HW226761   0.832   2.941   7.167
 3207SOL     OW26762   5.860   1.975   6.926
 3207SOL    HW126763   5.835   2.051   6.873
 3207SOL    HW226764   5.777   1.933   6.948
 3208SOL     OW26765   4.460   2.832   6.026
 3208SOL    HW126766   4.528   2.768   6.008
 3208SOL    HW226767   4.507   2.913   6.045
 3209SOL     OW26768   4.084   6.179   6.376
 3209SOL    HW126769   4.127   6.187   6.461
 3209SOL    HW226770   3.995   6.209   6.391
 3210SOL     OW26771   4.573   5.644   7.645
 3210SOL    HW126772   4.486   5.615   7.674
 3210SOL    HW226773   4.562   5.660   7.551
 3211SOL     OW26774   3.519   1.697   6.915
 3211SOL    HW126775   3.615   1.702   6.921
 3211SOL    HW226776   3.489   1.704   7.006
 3212SOL     OW26777   3.001   1.985   2.039
 3212SOL    HW126778   2.982   1.972   2.132
 3212SOL    HW226779   2.917   2.009   2.000
 3213SOL     OW26780   2.205   1.509   1.408
 3213SOL    HW126781   2.184   1.447   1.338
 3213SOL    HW226782   2.120   1.542   1.437
 3214SOL     OW26783   2.517   5.191   6.907
 3214SOL    HW126784   2.453   5.256   6.877
 3214SOL    HW226785   2.530   5.212   7.000
 3215SOL     OW26786   1.997   1.149   6.698
 3215SOL    HW126787   2.037   1.100   6.625
 3215SOL    HW226788   1.907   1.164   6.669
 3216SOL     OW26789   6.167   6.140   7.479
 3216SOL    HW126790   6.186   6.230   7.455
 3216SOL    HW226791   6.215   6.087   7.415
 3217SOL     OW26792   4.769   1.680   0.197
 3217SOL    HW126793   4.725   1.753   0.155
 3217SOL    HW226794   4.843   1.720   0.243
 3218SOL     OW26795   4.022   0.030   0.936
 3218SOL    HW126796   3.947  -0.013   0.894
 3218SOL    HW226797   3.983   0.102   0.986
 3219SOL     OW26798   4.711   2.517   1.609
 3219SOL    HW126799   4.690   2.605   1.642
 3219SOL    HW226800   4.630   2.486   1.570
 3220SOL     OW26801   4.703   2.366   7.709
 3220SOL    HW126802   4.608   2.373   7.716
 3220SOL    HW226803   4.718   2.278   7.674
 3221SOL     OW26804   5.321   0.511   7.051
 3221SOL    HW126805   5.229   0.532   7.036
 3221SOL    HW226806   5.321   0.419   7.078
 3222SOL     OW26807   5.730   1.578   6.912
 3222SOL    HW126808   5.654   1.521   6.917
 3222SOL    HW226809   5.798   1.533   6.962
 3223SOL     OW26810   0.682   4.316   6.310
 3223SOL    HW126811   0.658   4.409   6.307
 3223SOL    HW226812   0.774   4.316   6.335
 3224SOL     OW26813   5.830   1.188   7.748
 3224SOL    HW126814   5.906   1.143   7.713
 3224SOL    HW226815   5.863   1.273   7.776
 3225SOL     OW26816   4.382   3.379   1.082
 3225SOL    HW126817   4.303   3.370   1.135
 3225SOL    HW226818   4.404   3.472   1.088
 3226SOL     OW26819   2.461   0.956   1.761
 3226SOL    HW126820   2.514   0.901   1.703
 3226SOL    HW226821   2.499   0.944   1.848
 3227SOL     OW26822   6.335   4.360   6.482
 3227SOL    HW126823   6.263   4.317   6.529
 3227SOL    HW226824   6.356   4.436   6.536
 3228SOL     OW26825   2.601   1.248   1.644
 3228SOL    HW126826   2.665   1.180   1.622
 3228SOL    HW226827   2.651   1.312   1.696
 3229SOL     OW26828   3.999   0.050   6.504
 3229SOL    HW126829   4.064   0.033   6.573
 3229SOL    HW226830   4.045   0.030   6.422
 3230SOL     OW26831   3.923   3.158   6.716
 3230SOL    HW126832   3.873   3.171   6.636
 3230SOL    HW226833   3.872   3.201   6.785
 3231SOL     OW26834   4.837   0.823   1.383
 3231SOL    HW126835   4.889   0.841   1.305
 3231SOL    HW226836   4.746   0.834   1.355
 3232SOL     OW26837   5.573   6.194   5.675
 3232SOL    HW126838   5.583   6.288   5.660
 3232SOL    HW226839   5.535   6.187   5.763
 3233SOL     OW26840   1.103   2.741   7.255
 3233SOL    HW126841   1.088   2.663   7.202
 3233SOL    HW226842   1.016   2.767   7.285
 3234SOL     OW26843   0.584   5.222   1.635
 3234SOL    HW126844   0.550   5.280   1.567
 3234SOL    HW226845   0.523   5.149   1.636
 3235SOL     OW26846   6.060   1.712   7.425
 3235SOL    HW126847   6.097   1.785   7.375
 3235SOL    HW226848   6.113   1.636   7.398
 3236SOL     OW26849   1.208   6.007   0.318
 3236SOL    HW126850   1.236   6.093   0.287
 3236SOL    HW226851   1.165   6.024   0.402
 3237SOL     OW26852   1.375   1.063   5.882
 3237SOL    HW126853   1.412   1.149   5.864
 3237SOL    HW226854   1.342   1.033   5.797
 3238SOL     OW26855   5.985   3.379   7.604
 3238SOL    HW126856   6.065   3.387   7.657
 3238SOL    HW226857   5.976   3.284   7.590
 3239SOL     OW26858   4.648   5.323   5.873
 3239SOL    HW126859   4.556   5.327   5.897
 3239SOL    HW226860   4.694   5.307   5.956
 3240SOL     OW26861   4.348   4.875   0.950
 3240SOL    HW126862   4.412   4.848   1.015
 3240SOL    HW226863   4.379   4.960   0.919
 3241SOL     OW26864   4.733   3.516   0.986
 3241SOL    HW126865   4.751   3.549   0.897
 3241SOL    HW226866   4.816   3.525   1.032
 3242SOL     OW26867   0.580   1.139   6.790
 3242SOL    HW126868   0.611   1.104   6.707
 3242SOL    HW226869   0.507   1.197   6.766
 3243SOL     OW26870   0.872   1.185   7.730
 3243SOL    HW126871   0.833   1.186   7.642
 3243SOL    HW226872   0.817   1.124   7.780
 3244SOL     OW26873   4.559   3.573   1.745
 3244SOL    HW126874   4.495   3.535   1.806
 3244SOL    HW226875   4.561   3.512   1.671
 3245SOL     OW26876   4.991   5.134   5.632
 3245SOL    HW126877   5.071   5.132   5.684
 3245SOL    HW226878   4.975   5.227   5.616
 3246SOL     OW26879   1.160   6.320   0.376
 3246SOL    HW126880   1.090   6.296   0.316
 3246SOL    HW226881   1.120   6.382   0.437
 3247SOL     OW26882   3.861   0.268   6.576
 3247SOL    HW126883   3.914   0.189   6.561
 3247SOL    HW226884   3.922   0.341   6.564
 3248SOL     OW26885   5.505   2.734   1.620
 3248SOL    HW126886   5.601   2.731   1.624
 3248SOL    HW226887   5.477   2.656   1.667
 3249SOL     OW26888   1.992   5.199   0.030
 3249SOL    HW126889   1.929   5.263   0.063
 3249SOL    HW226890   2.040   5.246  -0.038
 3250SOL     OW26891   5.897   0.514   6.770
 3250SOL    HW126892   5.817   0.485   6.725
 3250SOL    HW226893   5.885   0.485   6.860
 3251SOL     OW26894   3.243   4.303   7.247
 3251SOL    HW126895   3.174   4.365   7.224
 3251SOL    HW226896   3.250   4.309   7.342
 3252SOL     OW26897   3.971   4.006   2.319
 3252SOL    HW126898   4.026   3.932   2.344
 3252SOL    HW226899   3.926   4.031   2.399
 3253SOL     OW26900   4.504   2.337   6.286
 3253SOL    HW126901   4.522   2.312   6.377
 3253SOL    HW226902   4.546   2.422   6.275
 3254SOL     OW26903   0.975   4.466   0.590
 3254SOL    HW126904   0.970   4.414   0.670
 3254SOL    HW226905   1.068   4.463   0.565
 3255SOL     OW26906   6.359   2.712   1.327
 3255SOL    HW126907   6.277   2.753   1.355
 3255SOL    HW226908   6.415   2.715   1.405
 3256SOL     OW26909   5.060   1.895   2.000
 3256SOL    HW126910   4.978   1.846   2.012
 3256SOL    HW226911   5.093   1.908   2.089
 3257SOL     OW26912   3.176   3.355   6.112
 3257SOL    HW126913   3.197   3.348   6.205
 3257SOL    HW226914   3.156   3.265   6.084
 3258SOL     OW26915   2.691   0.907   6.634
 3258SOL    HW126916   2.741   0.957   6.699
 3258SOL    HW226917   2.685   0.819   6.671
 3259SOL     OW26918   6.062   5.479   0.292
 3259SOL    HW126919   6.073   5.532   0.371
 3259SOL    HW226920   6.043   5.542   0.222
 3260SOL     OW26921   4.926   2.742   0.583
 3260SOL    HW126922   4.901   2.753   0.491
 3260SOL    HW226923   4.897   2.823   0.625
 3261SOL     OW26924   1.759   5.021   0.357
 3261SOL    HW126925   1.673   4.991   0.386
 3261SOL    HW226926   1.819   4.990   0.424
 3262SOL     OW26927   2.954   4.257   1.366
 3262SOL    HW126928   2.907   4.322   1.313
 3262SOL    HW226929   3.047   4.275   1.348
 3263SOL     OW26930   5.294   6.235   0.864
 3263SOL    HW126931   5.279   6.277   0.779
 3263SOL    HW226932   5.207   6.203   0.890
 3264SOL     OW26933   1.987   5.786   1.761
 3264SOL    HW126934   2.078   5.782   1.791
 3264SOL    HW226935   1.936   5.782   1.842
 3265SOL     OW26936   1.190   0.889   0.986
 3265SOL    HW126937   1.176   0.812   0.931
 3265SOL    HW226938   1.264   0.934   0.945
 3266SOL     OW26939   2.440   6.230   7.218
 3266SOL    HW126940   2.458   6.279   7.138
 3266SOL    HW226941   2.458   6.139   7.194
 3267SOL     OW26942   4.500   3.906   1.499
 3267SOL    HW126943   4.449   3.987   1.505
 3267SOL    HW226944   4.469   3.853   1.572
 3268SOL     OW26945   1.353   0.887   6.616
 3268SOL    HW126946   1.406   0.829   6.561
 3268SOL    HW226947   1.267   0.887   6.573
 3269SOL     OW26948   0.680   1.204   6.284
 3269SOL    HW126949   0.734   1.252   6.221
 3269SOL    HW226950   0.594   1.197   6.242
 3270SOL     OW26951   6.220   1.451   0.976
 3270SOL    HW126952   6.303   1.460   1.021
 3270SOL    HW226953   6.218   1.525   0.915
 3271SOL     OW26954   2.981   1.736   0.448
 3271SOL    HW126955   3.021   1.765   0.530
 3271SOL    HW226956   2.887   1.746   0.462
 3272SOL     OW26957   0.676   4.839   6.377
 3272SOL    HW126958   0.720   4.819   6.459
 3272SOL    HW226959   0.741   4.816   6.310
 3273SOL     OW26960   4.906   6.468   6.787
 3273SOL    HW126961   4.923   6.374   6.785
 3273SOL    HW226962   4.867   6.484   6.873
 3274SOL     OW26963   4.680   1.923   0.494
 3274SOL    HW126964   4.693   1.832   0.521
 3274SOL    HW226965   4.764   1.948   0.454
 3275SOL     OW26966   4.937   5.228   0.283
 3275SOL    HW126967   4.908   5.319   0.279
 3275SOL    HW226968   5.032   5.234   0.297
 3276SOL     OW26969   2.258   2.381   2.564
 3276SOL    HW126970   2.302   2.361   2.482
 3276SOL    HW226971   2.321   2.436   2.612
 3277SOL     OW26972   2.885   3.979   6.458
 3277SOL    HW126973   2.851   3.957   6.371
 3277SOL    HW226974   2.806   3.994   6.510
 3278SOL     OW26975   4.997   2.544   1.706
 3278SOL    HW126976   4.920   2.509   1.660
 3278SOL    HW226977   4.975   2.536   1.798
 3279SOL     OW26978   4.844   2.198   6.434
 3279SOL    HW126979   4.780   2.268   6.444
 3279SOL    HW226980   4.817   2.152   6.354
 3280SOL     OW26981   1.837   2.552   6.923
 3280SOL    HW126982   1.825   2.467   6.882
 3280SOL    HW226983   1.914   2.589   6.880
 3281SOL     OW26984   5.221   1.503   0.484
 3281SOL    HW126985   5.288   1.547   0.536
 3281SOL    HW226986   5.207   1.419   0.528
 3282SOL     OW26987   4.371   2.889   6.381
 3282SOL    HW126988   4.379   2.985   6.383
 3282SOL    HW226989   4.450   2.858   6.425
 3283SOL     OW26990   3.601   1.803   0.839
 3283SOL    HW126991   3.633   1.890   0.815
 3283SOL    HW226992   3.530   1.786   0.777
 3284SOL     OW26993   4.192   5.215   1.017
 3284SOL    HW126994   4.100   5.204   0.994
 3284SOL    HW226995   4.240   5.177   0.944
 3285SOL     OW26996   6.140   3.173   6.319
 3285SOL    HW126997   6.090   3.095   6.342
 3285SOL    HW226998   6.113   3.194   6.230
 3286SOL     OW26999   2.438   0.464   6.713
 3286SOL    HW127000   2.468   0.548   6.748
 3286SOL    HW227001   2.372   0.488   6.648
 3287SOL     OW27002   1.653   1.577   6.683
 3287SOL    HW127003   1.643   1.522   6.761
 3287SOL    HW227004   1.650   1.516   6.610
 3288SOL     OW27005   2.305   0.968   2.056
 3288SOL    HW127006   2.286   0.875   2.064
 3288SOL    HW227007   2.390   0.972   2.011
 3289SOL     OW27008   3.554   4.210   7.486
 3289SOL    HW127009   3.490   4.170   7.427
 3289SOL    HW227010   3.501   4.250   7.555
 3290SOL     OW27011   6.027   1.830   0.075
 3290SOL    HW127012   5.983   1.842  -0.010
 3290SOL    HW227013   6.104   1.776   0.054
 3291SOL     OW27014   2.252   0.398   2.394
 3291SOL    HW127015   2.179   0.453   2.368
 3291SOL    HW227016   2.330   0.452   2.378
 3292SOL     OW27017   4.949   5.512   0.731
 3292SOL    HW127018   4.897   5.471   0.800
 3292SOL    HW227019   4.984   5.591   0.771
 3293SOL     OW27020   4.767   1.564   1.041
 3293SOL    HW127021   4.701   1.569   0.972
 3293SOL    HW227022   4.801   1.475   1.037
 3294SOL     OW27023   5.705   5.712   1.727
 3294SOL    HW127024   5.673   5.796   1.758
 3294SOL    HW227025   5.737   5.667   1.806
 3295SOL     OW27026   3.904   0.680   0.074
 3295SOL    HW127027   3.832   0.731   0.109
 3295SOL    HW227028   3.862   0.610   0.024
 3296SOL     OW27029   0.115   4.740   5.640
 3296SOL    HW127030   0.120   4.655   5.683
 3296SOL    HW227031   0.205   4.756   5.608
 3297SOL     OW27032   0.959   6.342   1.510
 3297SOL    HW127033   0.933   6.404   1.578
 3297SOL    HW227034   0.936   6.384   1.428
 3298SOL     OW27035   0.897   5.181   7.481
 3298SOL    HW127036   0.941   5.173   7.565
 3298SOL    HW227037   0.967   5.170   7.416
 3299SOL     OW27038   5.358   3.980   6.766
 3299SOL    HW127039   5.292   3.930   6.815
 3299SOL    HW227040   5.369   4.061   6.816
 3300SOL     OW27041   4.478   5.952   5.965
 3300SOL    HW127042   4.399   5.981   5.920
 3300SOL    HW227043   4.513   5.882   5.911
 3301SOL     OW27044   6.274   5.316   1.437
 3301SOL    HW127045   6.189   5.272   1.429
 3301SOL    HW227046   6.261   5.380   1.506
 3302SOL     OW27047   6.019   4.277   0.892
 3302SOL    HW127048   6.090   4.339   0.910
 3302SOL    HW227049   5.988   4.301   0.805
 3303SOL     OW27050   2.009   6.174   6.410
 3303SOL    HW127051   2.061   6.204   6.484
 3303SOL    HW227052   1.918   6.191   6.435
 3304SOL     OW27053   0.865   3.140   6.806
 3304SOL    HW127054   0.950   3.152   6.848
 3304SOL    HW227055   0.880   3.071   6.742
 3305SOL     OW27056   2.897   1.832   7.159
 3305SOL    HW127057   2.811   1.858   7.192
 3305SOL    HW227058   2.953   1.908   7.176
 3306SOL     OW27059   2.326   5.350   1.433
 3306SOL    HW127060   2.237   5.380   1.413
 3306SOL    HW227061   2.349   5.293   1.359
 3307SOL     OW27062   5.676   4.508   5.373
 3307SOL    HW127063   5.764   4.534   5.347
 3307SOL    HW227064   5.688   4.425   5.419
 3308SOL     OW27065   0.930   4.658   1.300
 3308SOL    HW127066   0.972   4.656   1.215
 3308SOL    HW227067   0.976   4.591   1.351
 3309SOL     OW27068   6.118   1.180   0.734
 3309SOL    HW127069   6.130   1.274   0.721
 3309SOL    HW227070   6.023   1.167   0.728
 3310SOL     OW27071   2.124   6.111   5.923
 3310SOL    HW127072   2.217   6.122   5.939
 3310SOL    HW227073   2.114   6.018   5.901
 3311SOL     OW27074   2.903   2.246   7.501
 3311SOL    HW127075   2.823   2.271   7.549
 3311SOL    HW227076   2.872   2.187   7.433
 3312SOL     OW27077   3.526   5.288   1.225
 3312SOL    HW127078   3.455   5.263   1.284
 3312SOL    HW227079   3.536   5.212   1.167
 3313SOL     OW27080   4.967   1.845   2.452
 3313SOL    HW127081   5.012   1.877   2.374
 3313SOL    HW227082   5.035   1.837   2.518
 3314SOL     OW27083   4.574   0.611   1.482
 3314SOL    HW127084   4.506   0.580   1.542
 3314SOL    HW227085   4.655   0.571   1.515
 3315SOL     OW27086   2.689   2.445   0.101
 3315SOL    HW127087   2.665   2.536   0.120
 3315SOL    HW227088   2.784   2.447   0.090
 3316SOL     OW27089   5.242   4.091   2.075
 3316SOL    HW127090   5.208   4.105   2.164
 3316SOL    HW227091   5.215   4.002   2.053
 3317SOL     OW27092   3.598   3.343   7.214
 3317SOL    HW127093   3.557   3.261   7.245
 3317SOL    HW227094   3.548   3.412   7.256
 3318SOL     OW27095   5.904   3.263   0.167
 3318SOL    HW127096   5.908   3.282   0.073
 3318SOL    HW227097   5.834   3.198   0.175
 3319SOL     OW27098   1.816   5.483   0.725
 3319SOL    HW127099   1.744   5.496   0.663
 3319SOL    HW227100   1.895   5.497   0.672
 3320SOL     OW27101   2.751   4.774   6.227
 3320SOL    HW127102   2.807   4.699   6.205
 3320SOL    HW227103   2.811   4.848   6.231
 3321SOL     OW27104   4.010   2.165   0.427
 3321SOL    HW127105   4.047   2.247   0.457
 3321SOL    HW227106   4.011   2.108   0.504
 3322SOL     OW27107   5.285   5.010   0.060
 3322SOL    HW127108   5.299   4.915   0.070
 3322SOL    HW227109   5.190   5.019   0.055
 3323SOL     OW27110   5.800   5.191   0.962
 3323SOL    HW127111   5.883   5.225   0.995
 3323SOL    HW227112   5.744   5.186   1.039
 3324SOL     OW27113   0.075   4.414   0.384
 3324SOL    HW127114   0.124   4.496   0.383
 3324SOL    HW227115   0.006   4.427   0.318
 3325SOL     OW27116   1.788   2.158   7.769
 3325SOL    HW127117   1.705   2.199   7.794
 3325SOL    HW227118   1.852   2.229   7.776
 3326SOL     OW27119   2.186   4.542   7.717
 3326SOL    HW127120   2.184   4.488   7.638
 3326SOL    HW227121   2.116   4.606   7.704
 3327SOL     OW27122   5.026   2.927   2.013
 3327SOL    HW127123   4.959   2.969   1.959
 3327SOL    HW227124   4.985   2.918   2.100
 3328SOL     OW27125   1.036   5.616   1.300
 3328SOL    HW127126   1.059   5.621   1.393
 3328SOL    HW227127   0.949   5.656   1.295
 3329SOL     OW27128   4.065   3.344   0.063
 3329SOL    HW127129   4.018   3.261   0.052
 3329SOL    HW227130   4.045   3.393  -0.017
 3330SOL     OW27131   1.643   1.700   7.335
 3330SOL    HW127132   1.723   1.683   7.384
 3330SOL    HW227133   1.575   1.711   7.403
 3331SOL     OW27134   3.494   1.098   1.626
 3331SOL    HW127135   3.507   1.053   1.710
 3331SOL    HW227136   3.512   1.190   1.645
 3332SOL     OW27137   5.413   5.953   0.807
 3332SOL    HW127138   5.381   5.975   0.720
 3332SOL    HW227139   5.503   5.985   0.809
 3333SOL     OW27140   4.205   2.044   2.014
 3333SOL    HW127141   4.144   2.026   2.086
 3333SOL    HW227142   4.189   1.974   1.951
 3334SOL     OW27143   0.417   3.713   5.987
 3334SOL    HW127144   0.365   3.787   6.017
 3334SOL    HW227145   0.365   3.636   6.012
 3335SOL     OW27146   0.046   1.744   2.036
 3335SOL    HW127147  -0.030   1.799   2.056
 3335SOL    HW227148   0.115   1.805   2.011
 3336SOL     OW27149   5.424   4.963   6.118
 3336SOL    HW127150   5.520   4.958   6.117
 3336SOL    HW227151   5.399   4.966   6.025
 3337SOL     OW27152   1.890   5.626   6.663
 3337SOL    HW127153   1.822   5.598   6.601
 3337SOL    HW227154   1.934   5.699   6.619
 3338SOL     OW27155   6.175   2.642   2.468
 3338SOL    HW127156   6.206   2.675   2.552
 3338SOL    HW227157   6.210   2.554   2.461
 3339SOL     OW27158   5.286   4.975   7.504
 3339SOL    HW127159   5.269   4.986   7.598
 3339SOL    HW227160   5.249   4.890   7.483
 3340SOL     OW27161   1.849   4.757   6.356
 3340SOL    HW127162   1.838   4.700   6.280
 3340SOL    HW227163   1.941   4.750   6.379
 3341SOL     OW27164   5.981   5.563   1.799
 3341SOL    HW127165   5.941   5.627   1.856
 3341SOL    HW227166   6.039   5.512   1.856
 3342SOL     OW27167   4.510   1.114   7.086
 3342SOL    HW127168   4.470   1.094   7.002
 3342SOL    HW227169   4.437   1.124   7.146
 3343SOL     OW27170   1.376   6.007   7.400
 3343SOL    HW127171   1.471   6.005   7.407
 3343SOL    HW227172   1.357   6.083   7.345
 3344SOL     OW27173   0.368   4.068   5.904
 3344SOL    HW127174   0.338   3.997   5.960
 3344SOL    HW227175   0.433   4.114   5.957
 3345SOL     OW27176   1.398   4.788   6.350
 3345SOL    HW127177   1.474   4.787   6.408
 3345SOL    HW227178   1.435   4.794   6.262
 3346SOL     OW27179   6.410   1.185   6.509
 3346SOL    HW127180   6.497   1.218   6.531
 3346SOL    HW227181   6.408   1.183   6.414
 3347SOL     OW27182   3.871   0.560   7.054
 3347SOL    HW127183   3.818   0.617   6.999
 3347SOL    HW227184   3.808   0.512   7.107
 3348SOL     OW27185   1.669   0.187   7.006
 3348SOL    HW127186   1.633   0.266   6.965
 3348SOL    HW227187   1.764   0.199   7.001
 3349SOL     OW27188   3.195   4.768   6.137
 3349SOL    HW127189   3.130   4.734   6.199
 3349SOL    HW227190   3.266   4.703   6.139
 3350SOL     OW27191   6.156   5.789   0.922
 3350SOL    HW127192   6.096   5.757   0.989
 3350SOL    HW227193   6.205   5.860   0.966
 3351SOL     OW27194   2.592   3.232   1.384
 3351SOL    HW127195   2.608   3.161   1.323
 3351SOL    HW227196   2.674   3.240   1.434
 3352SOL     OW27197   0.456   2.773   5.866
 3352SOL    HW127198   0.373   2.755   5.912
 3352SOL    HW227199   0.514   2.701   5.892
 3353SOL     OW27200   5.650   0.494   7.438
 3353SOL    HW127201   5.577   0.494   7.500
 3353SOL    HW227202   5.690   0.408   7.448
 3354SOL     OW27203   1.089   0.770   7.779
 3354SOL    HW127204   1.136   0.703   7.729
 3354SOL    HW227205   1.056   0.831   7.712
 3355SOL     OW27206   3.041   4.526   2.343
 3355SOL    HW127207   3.091   4.457   2.387
 3355SOL    HW227208   3.020   4.490   2.257
 3356SOL     OW27209   6.163   4.634   1.554
 3356SOL    HW127210   6.192   4.689   1.626
 3356SOL    HW227211   6.161   4.693   1.478
 3357SOL     OW27212   0.321   5.713   7.107
 3357SOL    HW127213   0.304   5.805   7.088
 3357SOL    HW227214   0.365   5.713   7.192
 3358SOL     OW27215   5.939   0.648   1.902
 3358SOL    HW127216   5.949   0.566   1.854
 3358SOL    HW227217   6.012   0.702   1.872
 3359SOL     OW27218   4.758   3.464   2.024
 3359SOL    HW127219   4.830   3.404   2.008
 3359SOL    HW227220   4.683   3.407   2.042
 3360SOL     OW27221   6.407   3.558   1.990
 3360SOL    HW127222   6.384   3.583   2.080
 3360SOL    HW227223   6.487   3.607   1.971
 3361SOL     OW27224   0.159   0.296   6.228
 3361SOL    HW127225   0.135   0.356   6.157
 3361SOL    HW227226   0.152   0.209   6.189
 3362SOL     OW27227   0.643   2.720   0.961
 3362SOL    HW127228   0.675   2.789   1.019
 3362SOL    HW227229   0.585   2.765   0.900
 3363SOL     OW27230   0.297   3.571   7.626
 3363SOL    HW127231   0.353   3.614   7.561
 3363SOL    HW227232   0.313   3.617   7.708
 3364SOL     OW27233   1.492   3.344   5.794
 3364SOL    HW127234   1.417   3.369   5.847
 3364SOL    HW227235   1.458   3.279   5.732
 3365SOL     OW27236   2.360   4.436   1.603
 3365SOL    HW127237   2.428   4.397   1.657
 3365SOL    HW227238   2.321   4.362   1.556
 3366SOL     OW27239   5.324   2.461   1.500
 3366SOL    HW127240   5.308   2.371   1.470
 3366SOL    HW227241   5.238   2.502   1.500
 3367SOL     OW27242   1.134   0.924   6.481
 3367SOL    HW127243   1.071   0.990   6.512
 3367SOL    HW227244   1.111   0.910   6.389
 3368SOL     OW27245   6.089   6.377   7.690
 3368SOL    HW127246   6.016   6.378   7.752
 3368SOL    HW227247   6.058   6.322   7.618
 3369SOL     OW27248   5.568   3.273   1.457
 3369SOL    HW127249   5.628   3.344   1.435
 3369SOL    HW227250   5.613   3.194   1.429
 3370SOL     OW27251   3.958   2.713   0.699
 3370SOL    HW127252   4.048   2.740   0.716
 3370SOL    HW227253   3.905   2.769   0.756
 3371SOL     OW27254   3.013   3.897   0.333
 3371SOL    HW127255   2.955   3.947   0.277
 3371SOL    HW227256   3.088   3.876   0.277
 3372SOL     OW27257   3.042   3.006   0.175
 3372SOL    HW127258   2.948   3.026   0.180
 3372SOL    HW227259   3.078   3.072   0.116
 3373SOL     OW27260   4.264   5.932   6.780
 3373SOL    HW127261   4.306   5.903   6.861
 3373SOL    HW227262   4.309   5.884   6.711
 3374SOL     OW27263   2.665   4.193   0.584
 3374SOL    HW127264   2.730   4.257   0.613
 3374SOL    HW227265   2.685   4.114   0.634
 3375SOL     OW27266   2.249   0.696   2.139
 3375SOL    HW127267   2.181   0.651   2.190
 3375SOL    HW227268   2.331   0.657   2.169
 3376SOL     OW27269   1.617   0.947   5.903
 3376SOL    HW127270   1.676   1.015   5.872
 3376SOL    HW227271   1.529   0.983   5.889
 3377SOL     OW27272   5.354   1.063   1.378
 3377SOL    HW127273   5.338   1.066   1.284
 3377SOL    HW227274   5.449   1.070   1.387
 3378SOL     OW27275   6.063   4.040   7.331
 3378SOL    HW127276   6.069   3.961   7.385
 3378SOL    HW227277   6.046   4.111   7.393
 3379SOL     OW27278   1.907   5.659   0.944
 3379SOL    HW127279   1.861   5.615   0.873
 3379SOL    HW227280   1.972   5.714   0.901
 3380SOL     OW27281   1.907   3.938   0.792
 3380SOL    HW127282   1.886   3.874   0.860
 3380SOL    HW227283   1.995   3.914   0.763
 3381SOL     OW27284   3.731   3.103   1.814
 3381SOL    HW127285   3.723   3.061   1.900
 3381SOL    HW227286   3.753   3.032   1.754
 3382SOL     OW27287   5.164   0.887   0.685
 3382SOL    HW127288   5.137   0.806   0.642
 3382SOL    HW227289   5.257   0.896   0.664
 3383SOL     OW27290   0.468   2.374   5.858
 3383SOL    HW127291   0.545   2.431   5.861
 3383SOL    HW227292   0.447   2.365   5.765
 3384SOL     OW27293   1.994   5.823   6.530
 3384SOL    HW127294   1.966   5.877   6.457
 3384SOL    HW227295   2.038   5.748   6.490
 3385SOL     OW27296   3.743   0.877   5.983
 3385SOL    HW127297   3.756   0.881   6.077
 3385SOL    HW227298   3.819   0.921   5.945
 3386SOL     OW27299   4.352   6.051   1.040
 3386SOL    HW127300   4.412   6.108   1.089
 3386SOL    HW227301   4.311   5.997   1.107
 3387SOL     OW27302   0.837   4.709   1.589
 3387SOL    HW127303   0.895   4.637   1.563
 3387SOL    HW227304   0.896   4.778   1.618
 3388SOL     OW27305   2.852   6.372   1.494
 3388SOL    HW127306   2.785   6.342   1.554
 3388SOL    HW227307   2.913   6.298   1.486
 3389SOL     OW27308   3.305   5.107   2.553
 3389SOL    HW127309   3.265   5.029   2.589
 3389SOL    HW227310   3.282   5.177   2.614
 3390SOL     OW27311   2.286   5.136   7.189
 3390SOL    HW127312   2.286   5.228   7.216
 3390SOL    HW227313   2.216   5.130   7.124
 3391SOL     OW27314   4.391   5.246   2.251
 3391SOL    HW127315   4.341   5.314   2.206
 3391SOL    HW227316   4.429   5.290   2.327
 3392SOL     OW27317   5.845   3.124   1.705
 3392SOL    HW127318   5.763   3.084   1.677
 3392SOL    HW227319   5.827   3.218   1.707
 3393SOL     OW27320   2.099   0.491   7.440
 3393SOL    HW127321   2.144   0.502   7.356
 3393SOL    HW227322   2.166   0.512   7.505
 3394SOL     OW27323   1.640   1.224   1.842
 3394SOL    HW127324   1.647   1.281   1.766
 3394SOL    HW227325   1.546   1.211   1.854
 3395SOL     OW27326   0.068   5.794   1.070
 3395SOL    HW127327   0.125   5.720   1.047
 3395SOL    HW227328   0.115   5.840   1.139
 3396SOL     OW27329   1.425   3.092   7.339
 3396SOL    HW127330   1.342   3.133   7.313
 3396SOL    HW227331   1.489   3.163   7.336
 3397SOL     OW27332   4.870   2.971   5.400
 3397SOL    HW127333   4.920   3.034   5.347
 3397SOL    HW227334   4.916   2.888   5.386
 3398SOL     OW27335   1.498   1.606   1.676
 3398SOL    HW127336   1.445   1.527   1.689
 3398SOL    HW227337   1.517   1.607   1.583
 3399SOL     OW27338   2.369   2.704   1.640
 3399SOL    HW127339   2.460   2.717   1.611
 3399SOL    HW227340   2.343   2.789   1.676
 3400SOL     OW27341   0.897   4.930   1.327
 3400SOL    HW127342   0.879   4.837   1.338
 3400SOL    HW227343   0.815   4.974   1.352
 3401SOL     OW27344   4.404   6.273   6.882
 3401SOL    HW127345   4.443   6.212   6.945
 3401SOL    HW227346   4.449   6.254   6.800
 3402SOL     OW27347   2.200   6.460   6.961
 3402SOL    HW127348   2.214   6.502   6.876
 3402SOL    HW227349   2.275   6.401   6.972
 3403SOL     OW27350   3.247   4.251   1.848
 3403SOL    HW127351   3.178   4.311   1.820
 3403SOL    HW227352   3.317   4.264   1.784
 3404SOL     OW27353   5.374   2.732   0.886
 3404SOL    HW127354   5.405   2.680   0.960
 3404SOL    HW227355   5.305   2.679   0.846
 3405SOL     OW27356   2.959   3.259   0.458
 3405SOL    HW127357   3.041   3.279   0.413
 3405SOL    HW227358   2.956   3.321   0.531
 3406SOL     OW27359   5.451   5.282   0.865
 3406SOL    HW127360   5.466   5.318   0.952
 3406SOL    HW227361   5.496   5.342   0.805
 3407SOL     OW27362   5.491   0.373   6.893
 3407SOL    HW127363   5.508   0.427   6.816
 3407SOL    HW227364   5.474   0.437   6.963
 3408SOL     OW27365   1.394   3.451   2.384
 3408SOL    HW127366   1.404   3.545   2.369
 3408SOL    HW227367   1.482   3.421   2.406
 3409SOL     OW27368   4.547   6.197   6.654
 3409SOL    HW127369   4.580   6.156   6.574
 3409SOL    HW227370   4.564   6.132   6.722
 3410SOL     OW27371   3.193   4.886   1.613
 3410SOL    HW127372   3.106   4.924   1.611
 3410SOL    HW227373   3.178   4.793   1.631
 3411SOL     OW27374   0.334   6.215   1.468
 3411SOL    HW127375   0.295   6.268   1.399
 3411SOL    HW227376   0.429   6.220   1.453
 3412SOL     OW27377   5.239   6.462   6.529
 3412SOL    HW127378   5.230   6.397   6.598
 3412SOL    HW227379   5.197   6.423   6.452
 3413SOL     OW27380   4.689   0.634   7.673
 3413SOL    HW127381   4.724   0.564   7.618
 3413SOL    HW227382   4.612   0.666   7.625
 3414SOL     OW27383   0.063   5.093   7.022
 3414SOL    HW127384   0.123   5.038   7.072
 3414SOL    HW227385   0.002   5.128   7.087
 3415SOL     OW27386   5.978   4.904   1.837
 3415SOL    HW127387   5.938   4.967   1.778
 3415SOL    HW227388   5.954   4.819   1.802
 3416SOL     OW27389   2.561   4.948   7.575
 3416SOL    HW127390   2.503   5.023   7.563
 3416SOL    HW227391   2.596   4.930   7.488
 3417SOL     OW27392   5.135   3.173   2.269
 3417SOL    HW127393   5.074   3.099   2.260
 3417SOL    HW227394   5.189   3.149   2.345
 3418SOL     OW27395   3.179   0.873   7.689
 3418SOL    HW127396   3.226   0.876   7.606
 3418SOL    HW227397   3.248   0.860   7.755
 3419SOL     OW27398   4.240   1.062   7.666
 3419SOL    HW127399   4.310   1.124   7.647
 3419SOL    HW227400   4.283   0.988   7.708
 3420SOL     OW27401   3.552   2.452   6.657
 3420SOL    HW127402   3.457   2.455   6.668
 3420SOL    HW227403   3.575   2.539   6.624
 3421SOL     OW27404   0.461   1.640   6.087
 3421SOL    HW127405   0.514   1.575   6.039
 3421SOL    HW227406   0.393   1.665   6.025
 3422SOL     OW27407   4.831   5.036   1.254
 3422SOL    HW127408   4.739   5.061   1.240
 3422SOL    HW227409   4.873   5.053   1.170
 3423SOL     OW27410   5.896   5.096   6.275
 3423SOL    HW127411   5.957   5.164   6.300
 3423SOL    HW227412   5.855   5.068   6.357
 3424SOL     OW27413   4.132   1.034   0.348
 3424SOL    HW127414   4.104   1.058   0.260
 3424SOL    HW227415   4.087   0.952   0.366
 3425SOL     OW27416   4.535   4.293   1.283
 3425SOL    HW127417   4.469   4.235   1.244
 3425SOL    HW227418   4.607   4.234   1.307
 3426SOL     OW27419   3.313   1.199   7.321
 3426SOL    HW127420   3.291   1.256   7.247
 3426SOL    HW227421   3.405   1.176   7.308
 3427SOL     OW27422   2.777   4.077   1.162
 3427SOL    HW127423   2.766   4.019   1.237
 3427SOL    HW227424   2.795   4.163   1.200
 3428SOL     OW27425   5.135   2.014   5.565
 3428SOL    HW127426   5.082   2.004   5.485
 3428SOL    HW227427   5.225   2.022   5.533
 3429SOL     OW27428   2.099   5.605   6.382
 3429SOL    HW127429   2.068   5.590   6.293
 3429SOL    HW227430   2.126   5.519   6.413
 3430SOL     OW27431   5.370   2.073   6.910
 3430SOL    HW127432   5.280   2.068   6.877
 3430SOL    HW227433   5.393   1.982   6.930
 3431SOL     OW27434   5.688   4.686   0.683
 3431SOL    HW127435   5.707   4.777   0.661
 3431SOL    HW227436   5.607   4.690   0.734
 3432SOL     OW27437   2.388   5.221   1.142
 3432SOL    HW127438   2.351   5.136   1.166
 3432SOL    HW227439   2.479   5.202   1.119
 3433SOL     OW27440   4.689   4.742   1.484
 3433SOL    HW127441   4.745   4.777   1.554
 3433SOL    HW227442   4.743   4.747   1.406
 3434SOL     OW27443   4.682   4.181   0.501
 3434SOL    HW127444   4.664   4.265   0.457
 3434SOL    HW227445   4.694   4.119   0.430
 3435SOL     OW27446   3.429   4.769   7.430
 3435SOL    HW127447   3.455   4.686   7.471
 3435SOL    HW227448   3.335   4.774   7.443
 3436SOL     OW27449   6.079   4.271   6.543
 3436SOL    HW127450   6.051   4.313   6.462
 3436SOL    HW227451   6.023   4.193   6.550
 3437SOL     OW27452   4.372   0.875   0.677
 3437SOL    HW127453   4.381   0.919   0.593
 3437SOL    HW227454   4.293   0.913   0.716
 3438SOL     OW27455   6.265   4.613   2.023
 3438SOL    HW127456   6.359   4.601   2.033
 3438SOL    HW227457   6.226   4.538   2.069
 3439SOL     OW27458   1.551   0.160   0.505
 3439SOL    HW127459   1.506   0.243   0.517
 3439SOL    HW227460   1.607   0.152   0.582
 3440SOL     OW27461   1.597   6.000   6.199
 3440SOL    HW127462   1.515   6.046   6.181
 3440SOL    HW227463   1.620   5.959   6.116
 3441SOL     OW27464   2.623   2.577   1.450
 3441SOL    HW127465   2.557   2.620   1.396
 3441SOL    HW227466   2.644   2.641   1.518
 3442SOL     OW27467   4.486   3.179   1.226
 3442SOL    HW127468   4.572   3.194   1.185
 3442SOL    HW227469   4.429   3.245   1.186
 3443SOL     OW27470   3.865   1.103   0.669
 3443SOL    HW127471   3.824   1.103   0.582
 3443SOL    HW227472   3.871   1.010   0.692
 3444SOL     OW27473   0.845   1.478   6.681
 3444SOL    HW127474   0.877   1.406   6.735
 3444SOL    HW227475   0.920   1.500   6.625
 3445SOL     OW27476   4.956   5.197   7.041
 3445SOL    HW127477   4.912   5.169   6.961
 3445SOL    HW227478   5.048   5.205   7.017
 3446SOL     OW27479   3.585   1.015   2.388
 3446SOL    HW127480   3.495   0.981   2.379
 3446SOL    HW227481   3.595   1.031   2.482
 3447SOL     OW27482   5.387   0.468   6.305
 3447SOL    HW127483   5.329   0.493   6.232
 3447SOL    HW227484   5.429   0.388   6.275
 3448SOL     OW27485   3.427   3.509   7.325
 3448SOL    HW127486   3.480   3.516   7.404
 3448SOL    HW227487   3.340   3.537   7.352
 3449SOL     OW27488   5.460   1.369   6.474
 3449SOL    HW127489   5.507   1.431   6.419
 3449SOL    HW227490   5.392   1.421   6.516
 3450SOL     OW27491   2.098   5.853   5.849
 3450SOL    HW127492   2.083   5.767   5.808
 3450SOL    HW227493   2.050   5.848   5.932
 3451SOL     OW27494   3.210   0.385   7.686
 3451SOL    HW127495   3.182   0.454   7.746
 3451SOL    HW227496   3.278   0.337   7.733
 3452SOL     OW27497   1.680   2.093   6.351
 3452SOL    HW127498   1.720   2.043   6.280
 3452SOL    HW227499   1.648   2.173   6.310
 3453SOL     OW27500   1.032   2.557   7.635
 3453SOL    HW127501   1.116   2.563   7.591
 3453SOL    HW227502   1.004   2.466   7.621
 3454SOL     OW27503   2.592   4.057   6.285
 3454SOL    HW127504   2.515   4.024   6.237
 3454SOL    HW227505   2.663   4.000   6.256
 3455SOL     OW27506   4.543   0.845   6.938
 3455SOL    HW127507   4.458   0.864   6.979
 3455SOL    HW227508   4.528   0.859   6.844
 3456SOL     OW27509   1.050   3.473   5.975
 3456SOL    HW127510   1.043   3.451   5.882
 3456SOL    HW227511   1.133   3.433   6.002
 3457SOL     OW27512   1.601   2.328   0.135
 3457SOL    HW127513   1.622   2.255   0.194
 3457SOL    HW227514   1.624   2.406   0.185
 3458SOL     OW27515   5.000   3.971   6.709
 3458SOL    HW127516   5.037   3.883   6.719
 3458SOL    HW227517   5.065   4.019   6.657
 3459SOL     OW27518   0.695   1.764   6.965
 3459SOL    HW127519   0.734   1.680   6.987
 3459SOL    HW227520   0.607   1.743   6.935
 3460SOL     OW27521   1.324   3.613   7.269
 3460SOL    HW127522   1.262   3.678   7.302
 3460SOL    HW227523   1.323   3.626   7.174
 3461SOL     OW27524   1.903   4.153   0.981
 3461SOL    HW127525   1.984   4.106   0.995
 3461SOL    HW227526   1.855   4.101   0.916
 3462SOL     OW27527   3.031   2.868   7.739
 3462SOL    HW127528   3.095   2.890   7.671
 3462SOL    HW227529   3.060   2.916   7.816
 3463SOL     OW27530   4.018   1.544  -0.001
 3463SOL    HW127531   3.978   1.629   0.017
 3463SOL    HW227532   3.993   1.489   0.074
 3464SOL     OW27533   6.408   5.340   0.736
 3464SOL    HW127534   6.491   5.376   0.767
 3464SOL    HW227535   6.392   5.264   0.793
 3465SOL     OW27536   5.261   4.497   2.039
 3465SOL    HW127537   5.220   4.487   2.125
 3465SOL    HW227538   5.285   4.408   2.013
 3466SOL     OW27539   4.987   4.631   2.951
 3466SOL    HW127540   4.940   4.560   2.906
 3466SOL    HW227541   5.019   4.590   3.031
 3467SOL     OW27542   3.148   0.139   6.888
 3467SOL    HW127543   3.067   0.102   6.924
 3467SOL    HW227544   3.174   0.206   6.951
 3468SOL     OW27545   5.338   2.616   5.921
 3468SOL    HW127546   5.397   2.672   5.869
 3468SOL    HW227547   5.386   2.535   5.933
 3469SOL     OW27548   1.467   2.189   6.861
 3469SOL    HW127549   1.407   2.208   6.788
 3469SOL    HW227550   1.550   2.226   6.832
 3470SOL     OW27551   1.836   2.183   6.558
 3470SOL    HW127552   1.900   2.112   6.555
 3470SOL    HW227553   1.774   2.162   6.488
 3471SOL     OW27554   6.426   0.244   7.177
 3471SOL    HW127555   6.381   0.258   7.094
 3471SOL    HW227556   6.377   0.173   7.219
 3472SOL     OW27557   2.461   0.411   0.282
 3472SOL    HW127558   2.545   0.443   0.314
 3472SOL    HW227559   2.411   0.491   0.264
 3473SOL     OW27560   3.745   3.865   7.574
 3473SOL    HW127561   3.743   3.945   7.626
 3473SOL    HW227562   3.811   3.881   7.507
 3474SOL     OW27563   3.000   0.604   1.818
 3474SOL    HW127564   3.063   0.607   1.890
 3474SOL    HW227565   2.965   0.515   1.820
 3475SOL     OW27566   1.985   2.898   1.748
 3475SOL    HW127567   1.989   2.912   1.653
 3475SOL    HW227568   1.915   2.835   1.759
 3476SOL     OW27569   0.460   3.268   6.081
 3476SOL    HW127570   0.435   3.329   6.012
 3476SOL    HW227571   0.478   3.323   6.157
 3477SOL     OW27572   5.405   3.332   6.086
 3477SOL    HW127573   5.478   3.393   6.086
 3477SOL    HW227574   5.331   3.382   6.122
 3478SOL     OW27575   5.314   3.094   6.173
 3478SOL    HW127576   5.357   3.177   6.151
 3478SOL    HW227577   5.317   3.044   6.092
 3479SOL     OW27578   6.024   3.625   0.655
 3479SOL    HW127579   6.025   3.651   0.748
 3479SOL    HW227580   5.980   3.540   0.655
 3480SOL     OW27581   6.135   3.886   2.279
 3480SOL    HW127582   6.216   3.908   2.324
 3480SOL    HW227583   6.120   3.794   2.299
 3481SOL     OW27584   1.695   0.529   6.976
 3481SOL    HW127585   1.705   0.609   6.924
 3481SOL    HW227586   1.759   0.539   7.047
 3482SOL     OW27587   6.315   5.518   5.794
 3482SOL    HW127588   6.358   5.440   5.831
 3482SOL    HW227589   6.386   5.570   5.757
 3483SOL     OW27590   0.927   4.024   7.275
 3483SOL    HW127591   0.998   4.023   7.340
 3483SOL    HW227592   0.886   4.110   7.286
 3484SOL     OW27593   2.316   3.612   6.229
 3484SOL    HW127594   2.383   3.625   6.296
 3484SOL    HW227595   2.349   3.658   6.152
 3485SOL     OW27596   2.840   2.516   1.284
 3485SOL    HW127597   2.753   2.535   1.320
 3485SOL    HW227598   2.826   2.444   1.222
 3486SOL     OW27599   5.057   5.766   0.358
 3486SOL    HW127600   4.977   5.754   0.410
 3486SOL    HW227601   5.026   5.771   0.268
 3487SOL     OW27602   3.961   5.004   7.106
 3487SOL    HW127603   3.987   5.094   7.090
 3487SOL    HW227604   4.004   4.981   7.189
 3488SOL     OW27605   2.802   4.376   1.203
 3488SOL    HW127606   2.849   4.457   1.180
 3488SOL    HW227607   2.709   4.399   1.192
 3489SOL     OW27608   3.960   0.399   5.454
 3489SOL    HW127609   3.866   0.418   5.447
 3489SOL    HW227610   3.998   0.480   5.489
 3490SOL     OW27611   2.478   3.555   6.666
 3490SOL    HW127612   2.550   3.590   6.613
 3490SOL    HW227613   2.498   3.462   6.675
 3491SOL     OW27614   2.296   4.705   7.501
 3491SOL    HW127615   2.276   4.663   7.417
 3491SOL    HW227616   2.373   4.659   7.534
 3492SOL     OW27617   4.542   2.285   7.055
 3492SOL    HW127618   4.448   2.305   7.056
 3492SOL    HW227619   4.546   2.194   7.025
 3493SOL     OW27620   0.734   3.394   7.032
 3493SOL    HW127621   0.714   3.373   6.940
 3493SOL    HW227622   0.699   3.482   7.045
 3494SOL     OW27623   4.349   4.513   6.321
 3494SOL    HW127624   4.351   4.546   6.231
 3494SOL    HW227625   4.286   4.568   6.366
 3495SOL     OW27626   3.766   2.403   6.017
 3495SOL    HW127627   3.691   2.457   6.045
 3495SOL    HW227628   3.811   2.380   6.099
 3496SOL     OW27629   3.517   0.668   0.668
 3496SOL    HW127630   3.422   0.671   0.655
 3496SOL    HW227631   3.535   0.736   0.733
 3497SOL     OW27632   5.124   4.966   6.024
 3497SOL    HW127633   5.092   5.055   6.034
 3497SOL    HW227634   5.184   4.970   5.949
 3498SOL     OW27635   3.940   0.522   0.421
 3498SOL    HW127636   3.911   0.505   0.511
 3498SOL    HW227637   4.034   0.503   0.422
 3499SOL     OW27638   3.327   3.763   0.922
 3499SOL    HW127639   3.286   3.840   0.883
 3499SOL    HW227640   3.383   3.728   0.853
 3500SOL     OW27641   4.503   3.150   1.910
 3500SOL    HW127642   4.522   3.244   1.911
 3500SOL    HW227643   4.446   3.137   1.986
 3501SOL     OW27644   3.538   5.671   7.028
 3501SOL    HW127645   3.588   5.597   6.993
 3501SOL    HW227646   3.486   5.633   7.099
 3502SOL     OW27647   4.676   5.653   7.136
 3502SOL    HW127648   4.640   5.664   7.224
 3502SOL    HW227649   4.615   5.595   7.092
 3503SOL     OW27650   0.232   3.519   2.239
 3503SOL    HW127651   0.192   3.471   2.312
 3503SOL    HW227652   0.277   3.452   2.188
 3504SOL     OW27653   3.756   3.611   7.695
 3504SOL    HW127654   3.729   3.600   7.786
 3504SOL    HW227655   3.756   3.706   7.682
 3505SOL     OW27656   6.402   1.604   6.986
 3505SOL    HW127657   6.437   1.529   6.938
 3505SOL    HW227658   6.308   1.587   6.992
 3506SOL     OW27659   4.571   1.666   6.873
 3506SOL    HW127660   4.526   1.677   6.789
 3506SOL    HW227661   4.641   1.603   6.856
 3507SOL     OW27662   3.493   0.877   1.463
 3507SOL    HW127663   3.464   0.943   1.526
 3507SOL    HW227664   3.417   0.862   1.407
 3508SOL     OW27665   0.018   4.736   7.224
 3508SOL    HW127666   0.087   4.671   7.229
 3508SOL    HW227667   0.058   4.811   7.180
 3509SOL     OW27668   1.887   1.922   2.303
 3509SOL    HW127669   1.897   1.928   2.398
 3509SOL    HW227670   1.976   1.932   2.268
 3510SOL     OW27671   4.686   0.941   7.440
 3510SOL    HW127672   4.643   0.905   7.363
 3510SOL    HW227673   4.622   0.931   7.510
 3511SOL     OW27674   3.122   4.517   2.005
 3511SOL    HW127675   3.080   4.483   1.926
 3511SOL    HW227676   3.110   4.447   2.069
 3512SOL     OW27677   0.618   6.174   1.024
 3512SOL    HW127678   0.534   6.147   0.985
 3512SOL    HW227679   0.614   6.141   1.113
 3513SOL     OW27680   2.069   1.940   1.171
 3513SOL    HW127681   2.076   1.867   1.110
 3513SOL    HW227682   2.043   1.899   1.254
 3514SOL     OW27683   2.290   5.033   2.331
 3514SOL    HW127684   2.269   4.990   2.414
 3514SOL    HW227685   2.250   5.120   2.338
 3515SOL     OW27686   3.753   5.431   1.275
 3515SOL    HW127687   3.779   5.481   1.197
 3515SOL    HW227688   3.676   5.382   1.247
 3516SOL     OW27689   1.509   2.762   0.132
 3516SOL    HW127690   1.599   2.791   0.118
 3516SOL    HW227691   1.515   2.695   0.200
 3517SOL     OW27692   2.106   5.374   7.626
 3517SOL    HW127693   2.111   5.380   7.531
 3517SOL    HW227694   2.030   5.427   7.649
 3518SOL     OW27695   5.240   1.304   7.379
 3518SOL    HW127696   5.167   1.318   7.319
 3518SOL    HW227697   5.312   1.275   7.322
 3519SOL     OW27698   4.934   4.725   1.010
 3519SOL    HW127699   4.998   4.679   1.064
 3519SOL    HW227700   4.986   4.774   0.947
 3520SOL     OW27701   1.382   5.873   2.002
 3520SOL    HW127702   1.300   5.828   2.020
 3520SOL    HW227703   1.374   5.957   2.047
 3521SOL     OW27704   1.149   0.524   1.897
 3521SOL    HW127705   1.186   0.604   1.933
 3521SOL    HW227706   1.225   0.472   1.872
 3522SOL     OW27707   5.524   4.994   6.609
 3522SOL    HW127708   5.591   5.059   6.587
 3522SOL    HW227709   5.537   4.924   6.545
 3523SOL     OW27710   5.906   1.865   7.602
 3523SOL    HW127711   5.900   1.953   7.564
 3523SOL    HW227712   5.970   1.820   7.547
 3524SOL     OW27713   3.868   2.737   1.258
 3524SOL    HW127714   3.898   2.663   1.311
 3524SOL    HW227715   3.777   2.715   1.235
 3525SOL     OW27716   3.723   2.618   0.908
 3525SOL    HW127717   3.669   2.691   0.879
 3525SOL    HW227718   3.698   2.545   0.851
 3526SOL     OW27719   1.574   3.215   1.777
 3526SOL    HW127720   1.644   3.189   1.837
 3526SOL    HW227721   1.507   3.146   1.786
 3527SOL     OW27722   2.362   3.360   0.368
 3527SOL    HW127723   2.328   3.401   0.448
 3527SOL    HW227724   2.381   3.433   0.309
 3528SOL     OW27725   2.760   3.271   0.925
 3528SOL    HW127726   2.761   3.212   1.001
 3528SOL    HW227727   2.731   3.355   0.959
 3529SOL     OW27728   3.614   3.570   0.492
 3529SOL    HW127729   3.676   3.627   0.447
 3529SOL    HW227730   3.668   3.512   0.545
 3530SOL     OW27731   3.483   1.279   7.029
 3530SOL    HW127732   3.397   1.295   7.067
 3530SOL    HW227733   3.538   1.351   7.062
 3531SOL     OW27734   4.793   2.693   1.902
 3531SOL    HW127735   4.866   2.639   1.930
 3531SOL    HW227736   4.716   2.655   1.945
 3532SOL     OW27737   0.747   2.140   0.865
 3532SOL    HW127738   0.678   2.074   0.854
 3532SOL    HW227739   0.767   2.169   0.776
 3533SOL     OW27740   5.040   0.565   1.459
 3533SOL    HW127741   5.097   0.637   1.430
 3533SOL    HW227742   4.978   0.554   1.387
 3534SOL     OW27743   1.782   0.519   1.036
 3534SOL    HW127744   1.842   0.467   0.983
 3534SOL    HW227745   1.741   0.580   0.974
 3535SOL     OW27746   4.760   3.746   0.160
 3535SOL    HW127747   4.760   3.655   0.130
 3535SOL    HW227748   4.677   3.782   0.128
 3536SOL     OW27749   4.764   4.237   0.973
 3536SOL    HW127750   4.785   4.261   1.063
 3536SOL    HW227751   4.703   4.305   0.944
 3537SOL     OW27752   5.547   0.562   2.050
 3537SOL    HW127753   5.567   0.653   2.029
 3537SOL    HW227754   5.633   0.521   2.060
 3538SOL     OW27755   3.848   1.447   6.832
 3538SOL    HW127756   3.818   1.522   6.883
 3538SOL    HW227757   3.898   1.486   6.760
 3539SOL     OW27758   3.028   2.706   0.238
 3539SOL    HW127759   3.039   2.723   0.145
 3539SOL    HW227760   2.964   2.772   0.266
 3540SOL     OW27761   6.456   2.225   2.366
 3540SOL    HW127762   6.471   2.150   2.308
 3540SOL    HW227763   6.489   2.197   2.451
 3541SOL     OW27764   5.498   1.795   1.603
 3541SOL    HW127765   5.517   1.870   1.546
 3541SOL    HW227766   5.408   1.809   1.632
 3542SOL     OW27767   3.778   0.161   6.234
 3542SOL    HW127768   3.851   0.126   6.286
 3542SOL    HW227769   3.792   0.256   6.233
 3543SOL     OW27770   0.792   4.682   6.568
 3543SOL    HW127771   0.725   4.614   6.574
 3543SOL    HW227772   0.871   4.641   6.602
 3544SOL     OW27773   0.857   0.289   5.812
 3544SOL    HW127774   0.839   0.227   5.741
 3544SOL    HW227775   0.944   0.266   5.843
 3545SOL     OW27776   3.437   5.319   7.166
 3545SOL    HW127777   3.405   5.299   7.077
 3545SOL    HW227778   3.514   5.264   7.176
 3546SOL     OW27779   3.247   1.694   7.284
 3546SOL    HW127780   3.209   1.769   7.330
 3546SOL    HW227781   3.334   1.724   7.258
 3547SOL     OW27782   6.203   0.740   6.690
 3547SOL    HW127783   6.124   0.701   6.726
 3547SOL    HW227784   6.200   0.720   6.596
 3548SOL     OW27785   3.008   5.799   1.025
 3548SOL    HW127786   3.056   5.720   1.048
 3548SOL    HW227787   2.977   5.833   1.109
 3549SOL     OW27788   2.868   0.776   0.386
 3549SOL    HW127789   2.939   0.838   0.370
 3549SOL    HW227790   2.806   0.790   0.315
 3550SOL     OW27791   1.181   0.863   7.319
 3550SOL    HW127792   1.097   0.908   7.306
 3550SOL    HW227793   1.228   0.917   7.383
 3551SOL     OW27794   0.423   2.965   7.041
 3551SOL    HW127795   0.469   2.903   7.098
 3551SOL    HW227796   0.491   3.026   7.013
 3552SOL     OW27797   3.913   6.353   1.811
 3552SOL    HW127798   3.931   6.344   1.717
 3552SOL    HW227799   3.882   6.266   1.838
 3553SOL     OW27800   1.044   6.091   1.497
 3553SOL    HW127801   1.015   6.182   1.504
 3553SOL    HW227802   1.019   6.064   1.408
 3554SOL     OW27803   3.505   5.271   1.913
 3554SOL    HW127804   3.560   5.200   1.879
 3554SOL    HW227805   3.538   5.285   2.002
 3555SOL     OW27806   6.468   3.168   7.030
 3555SOL    HW127807   6.375   3.153   7.047
 3555SOL    HW227808   6.493   3.238   7.090
 3556SOL     OW27809   5.020   4.261   2.590
 3556SOL    HW127810   4.971   4.180   2.602
 3556SOL    HW227811   4.956   4.323   2.555
 3557SOL     OW27812   5.602   3.720   7.572
 3557SOL    HW127813   5.519   3.705   7.617
 3557SOL    HW227814   5.590   3.802   7.526
 3558SOL     OW27815   2.090   5.820   0.142
 3558SOL    HW127816   2.149   5.862   0.205
 3558SOL    HW227817   2.142   5.749   0.105
 3559SOL     OW27818   5.652   4.298   6.804
 3559SOL    HW127819   5.713   4.225   6.816
 3559SOL    HW227820   5.567   4.263   6.832
 3560SOL     OW27821   6.360   0.305   6.433
 3560SOL    HW127822   6.408   0.229   6.402
 3560SOL    HW227823   6.379   0.374   6.369
 3561SOL     OW27824   5.306   3.241   1.358
 3561SOL    HW127825   5.389   3.246   1.405
 3561SOL    HW227826   5.248   3.300   1.406
 3562SOL     OW27827   4.181   4.491   2.115
 3562SOL    HW127828   4.200   4.584   2.103
 3562SOL    HW227829   4.126   4.488   2.193
 3563SOL     OW27830   3.865   2.029   6.800
 3563SOL    HW127831   3.820   2.113   6.802
 3563SOL    HW227832   3.809   1.974   6.744
 3564SOL     OW27833   4.974   3.145   7.630
 3564SOL    HW127834   4.988   3.170   7.721
 3564SOL    HW227835   5.060   3.154   7.589
 3565SOL     OW27836   5.443   3.247   0.211
 3565SOL    HW127837   5.395   3.286   0.284
 3565SOL    HW227838   5.393   3.274   0.133
 3566SOL     OW27839   2.580   6.113   6.367
 3566SOL    HW127840   2.620   6.199   6.359
 3566SOL    HW227841   2.541   6.096   6.281
 3567SOL     OW27842   3.003   2.062   6.848
 3567SOL    HW127843   2.987   2.144   6.800
 3567SOL    HW227844   2.926   2.051   6.903
 3568SOL     OW27845   4.239   3.947   6.607
 3568SOL    HW127846   4.175   3.938   6.537
 3568SOL    HW227847   4.311   3.889   6.582
 3569SOL     OW27848   2.517   1.698   7.257
 3569SOL    HW127849   2.508   1.652   7.174
 3569SOL    HW227850   2.578   1.644   7.308
 3570SOL     OW27851   0.762   4.415   0.915
 3570SOL    HW127852   0.699   4.419   0.986
 3570SOL    HW227853   0.712   4.438   0.836
 3571SOL     OW27854   5.881   0.278   0.852
 3571SOL    HW127855   5.891   0.258   0.945
 3571SOL    HW227856   5.964   0.250   0.812
 3572SOL     OW27857   1.709   5.810   0.619
 3572SOL    HW127858   1.678   5.873   0.554
 3572SOL    HW227859   1.677   5.725   0.589
 3573SOL     OW27860   5.509   6.104   0.112
 3573SOL    HW127861   5.494   6.028   0.169
 3573SOL    HW227862   5.426   6.118   0.068
 3574SOL     OW27863   2.148   0.742   1.884
 3574SOL    HW127864   2.198   0.694   1.819
 3574SOL    HW227865   2.185   0.715   1.968
 3575SOL     OW27866   0.111   2.388   0.754
 3575SOL    HW127867   0.136   2.296   0.758
 3575SOL    HW227868   0.071   2.406   0.839
 3576SOL     OW27869   2.859   6.379   5.960
 3576SOL    HW127870   2.785   6.318   5.958
 3576SOL    HW227871   2.936   6.323   5.967
 3577SOL     OW27872   5.396   0.443   0.712
 3577SOL    HW127873   5.339   0.473   0.783
 3577SOL    HW227874   5.339   0.435   0.636
 3578SOL     OW27875   3.138   2.685   7.256
 3578SOL    HW127876   3.121   2.664   7.164
 3578SOL    HW227877   3.143   2.599   7.299
 3579SOL     OW27878   2.109   4.284   0.185
 3579SOL    HW127879   2.193   4.319   0.154
 3579SOL    HW227880   2.070   4.244   0.108
 3580SOL     OW27881   3.068   4.363   6.063
 3580SOL    HW127882   3.014   4.287   6.083
 3580SOL    HW227883   3.046   4.384   5.972
 3581SOL     OW27884   0.044   5.869   0.396
 3581SOL    HW127885   0.011   5.852   0.308
 3581SOL    HW227886   0.124   5.817   0.402
 3582SOL     OW27887   6.035   4.889   0.745
 3582SOL    HW127888   6.067   4.918   0.830
 3582SOL    HW227889   5.995   4.804   0.762
 3583SOL     OW27890   2.738   5.783   0.507
 3583SOL    HW127891   2.737   5.798   0.413
 3583SOL    HW227892   2.828   5.802   0.534
 3584SOL     OW27893   0.494   5.561   1.276
 3584SOL    HW127894   0.536   5.557   1.190
 3584SOL    HW227895   0.400   5.556   1.257
 3585SOL     OW27896   0.714   4.545   1.405
 3585SOL    HW127897   0.701   4.589   1.489
 3585SOL    HW227898   0.783   4.595   1.362
 3586SOL     OW27899   4.095   2.164   0.155
 3586SOL    HW127900   4.161   2.095   0.163
 3586SOL    HW227901   4.067   2.181   0.245
 3587SOL     OW27902   6.429   4.591   6.610
 3587SOL    HW127903   6.378   4.636   6.677
 3587SOL    HW227904   6.428   4.650   6.535
 3588SOL     OW27905   5.884   0.808   0.533
 3588SOL    HW127906   5.976   0.785   0.547
 3588SOL    HW227907   5.861   0.763   0.451
 3589SOL     OW27908   3.579   0.031   0.205
 3589SOL    HW127909   3.593   0.124   0.222
 3589SOL    HW227910   3.553   0.026   0.113
 3590SOL     OW27911   1.353   0.257   7.419
 3590SOL    HW127912   1.386   0.337   7.460
 3590SOL    HW227913   1.417   0.190   7.444
 3591SOL     OW27914   3.204   1.151   0.573
 3591SOL    HW127915   3.230   1.210   0.503
 3591SOL    HW227916   3.108   1.156   0.574
 3592SOL     OW27917   2.214   3.274   7.363
 3592SOL    HW127918   2.269   3.226   7.425
 3592SOL    HW227919   2.134   3.292   7.412
 3593SOL     OW27920   5.758   6.093   0.527
 3593SOL    HW127921   5.816   6.161   0.561
 3593SOL    HW227922   5.684   6.141   0.491
 3594SOL     OW27923   4.687   0.352   2.108
 3594SOL    HW127924   4.603   0.389   2.082
 3594SOL    HW227925   4.748   0.381   2.040
 3595SOL     OW27926   3.094   3.179   1.510
 3595SOL    HW127927   3.108   3.217   1.423
 3595SOL    HW227928   3.173   3.128   1.526
 3596SOL     OW27929   4.524   1.281   1.370
 3596SOL    HW127930   4.522   1.377   1.363
 3596SOL    HW227931   4.436   1.253   1.348
 3597SOL     OW27932   0.988   2.885   0.820
 3597SOL    HW127933   0.983   2.978   0.797
 3597SOL    HW227934   0.974   2.839   0.738
 3598SOL     OW27935   0.831   0.426   7.121
 3598SOL    HW127936   0.874   0.506   7.091
 3598SOL    HW227937   0.903   0.367   7.145
 3599SOL     OW27938   3.005   1.710   1.893
 3599SOL    HW127939   3.027   1.800   1.868
 3599SOL    HW227940   2.915   1.698   1.862
 3600SOL     OW27941   5.388   0.417   5.706
 3600SOL    HW127942   5.365   0.411   5.799
 3600SOL    HW227943   5.323   0.363   5.661
 3601SOL     OW27944   4.408   2.457   1.555
 3601SOL    HW127945   4.446   2.476   1.469
 3601SOL    HW227946   4.350   2.532   1.572
 3602SOL     OW27947   3.843   1.151   7.623
 3602SOL    HW127948   3.856   1.056   7.617
 3602SOL    HW227949   3.883   1.175   7.707
 3603SOL     OW27950   2.373   1.201   1.471
 3603SOL    HW127951   2.457   1.177   1.510
 3603SOL    HW227952   2.321   1.120   1.474
 3604SOL     OW27953   3.057   2.940   7.251
 3604SOL    HW127954   3.091   2.852   7.265
 3604SOL    HW227955   3.009   2.935   7.168
 3605SOL     OW27956   4.766   0.741   0.575
 3605SOL    HW127957   4.752   0.647   0.563
 3605SOL    HW227958   4.690   0.783   0.537
 3606SOL     OW27959   4.648   6.014   1.264
 3606SOL    HW127960   4.681   5.955   1.196
 3606SOL    HW227961   4.593   6.077   1.217
 3607SOL     OW27962   1.812   1.977   0.176
 3607SOL    HW127963   1.897   1.960   0.217
 3607SOL    HW227964   1.831   2.041   0.107
 3608SOL     OW27965   6.043   5.187   1.600
 3608SOL    HW127966   5.961   5.149   1.631
 3608SOL    HW227967   6.037   5.279   1.625
 3609SOL     OW27968   5.025   4.571   5.232
 3609SOL    HW127969   5.029   4.513   5.156
 3609SOL    HW227970   5.042   4.658   5.196
 3610SOL     OW27971   5.659   0.482   6.639
 3610SOL    HW127972   5.610   0.557   6.673
 3610SOL    HW227973   5.591   0.417   6.620
 3611SOL     OW27974   4.328   0.782   7.089
 3611SOL    HW127975   4.235   0.803   7.078
 3611SOL    HW227976   4.341   0.703   7.036
 3612SOL     OW27977   4.257   3.496   1.479
 3612SOL    HW127978   4.344   3.463   1.502
 3612SOL    HW227979   4.214   3.511   1.563
 3613SOL     OW27980   2.072   3.328   1.753
 3613SOL    HW127981   2.078   3.235   1.777
 3613SOL    HW227982   2.050   3.372   1.835
 3614SOL     OW27983   1.936   0.908   1.146
 3614SOL    HW127984   1.939   1.001   1.169
 3614SOL    HW227985   1.924   0.907   1.051
 3615SOL     OW27986   3.349   0.638   6.520
 3615SOL    HW127987   3.294   0.611   6.446
 3615SOL    HW227988   3.436   0.603   6.500
 3616SOL     OW27989   2.040   1.823   1.400
 3616SOL    HW127990   2.005   1.742   1.437
 3616SOL    HW227991   2.125   1.834   1.442
 3617SOL     OW27992   2.700   0.919   0.651
 3617SOL    HW127993   2.735   1.007   0.667
 3617SOL    HW227994   2.762   0.880   0.589
 3618SOL     OW27995   2.045   0.519   2.220
 3618SOL    HW127996   2.022   0.459   2.149
 3618SOL    HW227997   1.961   0.546   2.257
 3619SOL     OW27998   1.782   1.397   2.045
 3619SOL    HW127999   1.790   1.371   2.137
 3619SOL    HW228000   1.726   1.329   2.007
 3620SOL     OW28001   2.570   5.589   1.373
 3620SOL    HW128002   2.555   5.495   1.383
 3620SOL    HW228003   2.526   5.612   1.291
 3621SOL     OW28004   1.725   2.451   0.499
 3621SOL    HW128005   1.641   2.471   0.540
 3621SOL    HW228006   1.789   2.458   0.570
 3622SOL     OW28007   1.114   2.139   5.710
 3622SOL    HW128008   1.102   2.229   5.742
 3622SOL    HW228009   1.028   2.098   5.723
 3623SOL     OW28010   0.040   6.215   6.489
 3623SOL    HW128011   0.123   6.167   6.499
 3623SOL    HW228012   0.007   6.187   6.404
 3624SOL     OW28013   2.646   4.811   0.922
 3624SOL    HW128014   2.676   4.795   0.833
 3624SOL    HW228015   2.556   4.777   0.924
 3625SOL     OW28016   6.032   4.956   6.048
 3625SOL    HW128017   5.999   4.922   5.964
 3625SOL    HW228018   6.094   5.025   6.022
 3626SOL     OW28019   1.120   5.676   7.677
 3626SOL    HW128020   1.102   5.748   7.617
 3626SOL    HW228021   1.150   5.719   7.757
 3627SOL     OW28022   5.944   3.925   1.241
 3627SOL    HW128023   5.981   3.958   1.159
 3627SOL    HW228024   5.929   4.003   1.294
 3628SOL     OW28025   5.312   4.807   5.240
 3628SOL    HW128026   5.312   4.720   5.279
 3628SOL    HW228027   5.403   4.837   5.249
 3629SOL     OW28028   3.713   1.017   1.299
 3629SOL    HW128029   3.646   1.007   1.366
 3629SOL    HW228030   3.744   1.107   1.309
 3630SOL     OW28031   4.538   5.394   2.466
 3630SOL    HW128032   4.582   5.478   2.477
 3630SOL    HW228033   4.606   5.335   2.436
 3631SOL     OW28034   5.755   3.086   1.362
 3631SOL    HW128035   5.788   3.157   1.308
 3631SOL    HW228036   5.791   3.007   1.322
 3632SOL     OW28037   0.446   0.056   1.609
 3632SOL    HW128038   0.390   0.048   1.686
 3632SOL    HW228039   0.530   0.019   1.637
 3633SOL     OW28040   1.381   0.465   0.590
 3633SOL    HW128041   1.303   0.458   0.535
 3633SOL    HW228042   1.440   0.522   0.541
 3634SOL     OW28043   3.983   5.199   0.207
 3634SOL    HW128044   3.907   5.224   0.153
 3634SOL    HW228045   4.057   5.240   0.163
 3635SOL     OW28046   3.395   4.803   0.335
 3635SOL    HW128047   3.363   4.834   0.420
 3635SOL    HW228048   3.483   4.841   0.328
 3636SOL     OW28049   5.881   2.427   5.819
 3636SOL    HW128050   5.857   2.502   5.875
 3636SOL    HW228051   5.824   2.356   5.848
 3637SOL     OW28052   1.275   0.097   6.699
 3637SOL    HW128053   1.206   0.056   6.751
 3637SOL    HW228054   1.352   0.044   6.716
 3638SOL     OW28055   3.557   4.964   0.967
 3638SOL    HW128056   3.573   4.897   1.034
 3638SOL    HW228057   3.473   5.002   0.991
 3639SOL     OW28058   3.786   3.824   1.660
 3639SOL    HW128059   3.748   3.876   1.730
 3639SOL    HW228060   3.879   3.847   1.660
 3640SOL     OW28061   2.603   6.285   1.219
 3640SOL    HW128062   2.697   6.269   1.222
 3640SOL    HW228063   2.594   6.380   1.229
 3641SOL     OW28064   5.318   5.594   6.125
 3641SOL    HW128065   5.406   5.582   6.159
 3641SOL    HW228066   5.326   5.665   6.061
 3642SOL     OW28067   0.648   3.148   7.301
 3642SOL    HW128068   0.738   3.149   7.332
 3642SOL    HW228069   0.645   3.076   7.238
 3643SOL     OW28070   2.589   1.782   7.650
 3643SOL    HW128071   2.651   1.783   7.724
 3643SOL    HW228072   2.618   1.853   7.593
 3644SOL     OW28073   3.815   0.805   0.669
 3644SOL    HW128074   3.765   0.832   0.747
 3644SOL    HW228075   3.759   0.740   0.627
 3645SOL     OW28076   0.545   1.523   0.914
 3645SOL    HW128077   0.612   1.457   0.933
 3645SOL    HW228078   0.540   1.576   0.994
 3646SOL     OW28079   6.456   5.242   7.279
 3646SOL    HW128080   6.548   5.243   7.302
 3646SOL    HW228081   6.435   5.333   7.259
 3647SOL     OW28082   1.739   0.758   6.773
 3647SOL    HW128083   1.797   0.728   6.703
 3647SOL    HW228084   1.766   0.848   6.790
 3648SOL     OW28085   3.704   0.840   0.160
 3648SOL    HW128086   3.664   0.895   0.228
 3648SOL    HW228087   3.747   0.902   0.102
 3649SOL     OW28088   0.371   5.466   5.738
 3649SOL    HW128089   0.284   5.507   5.739
 3649SOL    HW228090   0.429   5.534   5.704
 3650SOL     OW28091   5.431   1.932   1.279
 3650SOL    HW128092   5.456   1.871   1.210
 3650SOL    HW228093   5.511   1.979   1.300
 3651SOL     OW28094   1.121   4.112   0.474
 3651SOL    HW128095   1.153   4.041   0.419
 3651SOL    HW228096   1.034   4.084   0.502
 3652SOL     OW28097   1.420   5.668   7.705
 3652SOL    HW128098   1.373   5.661   7.788
 3652SOL    HW228099   1.351   5.666   7.639
 3653SOL     OW28100   4.662   4.043   7.682
 3653SOL    HW128101   4.651   4.095   7.762
 3653SOL    HW228102   4.754   4.016   7.683
 3654SOL     OW28103   3.235   0.891   7.128
 3654SOL    HW128104   3.196   0.962   7.078
 3654SOL    HW228105   3.175   0.879   7.202
 3655SOL     OW28106   0.732   4.916   5.997
 3655SOL    HW128107   0.694   4.863   5.927
 3655SOL    HW228108   0.824   4.888   6.001
 3656SOL     OW28109   5.670   4.671   7.463
 3656SOL    HW128110   5.640   4.739   7.403
 3656SOL    HW228111   5.764   4.667   7.451
 3657SOL     OW28112   0.470   2.532   7.089
 3657SOL    HW128113   0.385   2.576   7.088
 3657SOL    HW228114   0.526   2.589   7.142
 3658SOL     OW28115   1.210   0.117   1.529
 3658SOL    HW128116   1.201   0.043   1.590
 3658SOL    HW228117   1.136   0.175   1.551
 3659SOL     OW28118   5.910   4.420   7.694
 3659SOL    HW128119   5.915   4.514   7.713
 3659SOL    HW228120   5.861   4.383   7.767
 3660SOL     OW28121   2.676   3.052   2.086
 3660SOL    HW128122   2.752   3.003   2.056
 3660SOL    HW228123   2.602   2.993   2.075
 3661SOL     OW28124   2.432   0.234   6.404
 3661SOL    HW128125   2.337   0.242   6.416
 3661SOL    HW228126   2.443   0.221   6.310
 3662SOL     OW28127   1.157   5.149   7.426
 3662SOL    HW128128   1.159   5.149   7.522
 3662SOL    HW228129   1.234   5.098   7.401
 3663SOL     OW28130   0.842   4.335   7.031
 3663SOL    HW128131   0.881   4.300   7.111
 3663SOL    HW228132   0.911   4.326   6.965
 3664SOL     OW28133   3.052   3.161   6.461
 3664SOL    HW128134   3.118   3.158   6.531
 3664SOL    HW228135   2.981   3.107   6.495
 3665SOL     OW28136   4.757   5.058   7.310
 3665SOL    HW128137   4.716   5.138   7.341
 3665SOL    HW228138   4.730   5.051   7.218
 3666SOL     OW28139   3.925   1.866   1.478
 3666SOL    HW128140   3.923   1.778   1.442
 3666SOL    HW228141   3.856   1.913   1.431
 3667SOL     OW28142   1.431   0.002   1.678
 3667SOL    HW128143   1.477   0.085   1.684
 3667SOL    HW228144   1.345   0.019   1.716
 3668SOL     OW28145   2.240   4.872   1.277
 3668SOL    HW128146   2.269   4.902   1.190
 3668SOL    HW228147   2.190   4.792   1.259
 3669SOL     OW28148   4.574   3.840   0.532
 3669SOL    HW128149   4.648   3.807   0.482
 3669SOL    HW228150   4.548   3.920   0.485
 3670SOL     OW28151   3.479   2.211   1.649
 3670SOL    HW128152   3.537   2.279   1.684
 3670SOL    HW228153   3.469   2.233   1.557
 3671SOL     OW28154   3.586   4.831   6.770
 3671SOL    HW128155   3.516   4.840   6.705
 3671SOL    HW228156   3.574   4.905   6.828
 3672SOL     OW28157   0.086   4.605   1.396
 3672SOL    HW128158   0.088   4.516   1.430
 3672SOL    HW228159   0.084   4.661   1.473
 3673SOL     OW28160   0.440   2.172   1.649
 3673SOL    HW128161   0.432   2.267   1.651
 3673SOL    HW228162   0.401   2.143   1.731
 3674SOL     OW28163   3.449   2.341   5.838
 3674SOL    HW128164   3.429   2.415   5.896
 3674SOL    HW228165   3.455   2.266   5.896
 3675SOL     OW28166   4.266   2.552   0.701
 3675SOL    HW128167   4.251   2.476   0.757
 3675SOL    HW228168   4.354   2.583   0.726
 3676SOL     OW28169   5.417   3.029   6.532
 3676SOL    HW128170   5.482   3.026   6.601
 3676SOL    HW228171   5.457   2.981   6.459
 3677SOL     OW28172   0.741   1.749   5.961
 3677SOL    HW128173   0.708   1.795   5.883
 3677SOL    HW228174   0.731   1.656   5.940
 3678SOL     OW28175   4.637   0.219   0.454
 3678SOL    HW128176   4.713   0.174   0.417
 3678SOL    HW228177   4.613   0.167   0.531
 3679SOL     OW28178   1.159   0.985   1.225
 3679SOL    HW128179   1.187   0.923   1.293
 3679SOL    HW228180   1.152   0.932   1.146
 3680SOL     OW28181   3.751   5.157   7.323
 3680SOL    HW128182   3.703   5.074   7.326
 3680SOL    HW228183   3.740   5.187   7.233
 3681SOL     OW28184   5.364   3.287   7.561
 3681SOL    HW128185   5.437   3.342   7.592
 3681SOL    HW228186   5.368   3.294   7.466
 3682SOL     OW28187   5.404   0.696   1.043
 3682SOL    HW128188   5.452   0.613   1.035
 3682SOL    HW228189   5.464   0.753   1.091
 3683SOL     OW28190   2.938   3.062   2.286
 3683SOL    HW128191   2.855   3.109   2.295
 3683SOL    HW228192   2.996   3.124   2.242
 3684SOL     OW28193   1.397   1.683   7.136
 3684SOL    HW128194   1.420   1.591   7.150
 3684SOL    HW228195   1.436   1.728   7.211
 3685SOL     OW28196   5.916   6.416   0.626
 3685SOL    HW128197   5.833   6.463   0.622
 3685SOL    HW228198   5.953   6.427   0.538
 3686SOL     OW28199   1.022   2.394   7.065
 3686SOL    HW128200   1.095   2.379   7.005
 3686SOL    HW228201   0.958   2.326   7.041
 3687SOL     OW28202   0.588   3.435   6.281
 3687SOL    HW128203   0.655   3.497   6.253
 3687SOL    HW228204   0.584   3.446   6.376
 3688SOL     OW28205   2.379   1.471   0.415
 3688SOL    HW128206   2.435   1.407   0.458
 3688SOL    HW228207   2.439   1.537   0.381
 3689SOL     OW28208   6.392   0.410   1.121
 3689SOL    HW128209   6.329   0.355   1.168
 3689SOL    HW228210   6.350   0.428   1.037
 3690SOL     OW28211   4.411   4.268   5.261
 3690SOL    HW128212   4.416   4.345   5.319
 3690SOL    HW228213   4.387   4.196   5.319
 3691SOL     OW28214   3.568   2.774   1.594
 3691SOL    HW128215   3.535   2.814   1.675
 3691SOL    HW228216   3.579   2.848   1.534
 3692SOL     OW28217   5.676   4.164   5.810
 3692SOL    HW128218   5.614   4.218   5.760
 3692SOL    HW228219   5.759   4.175   5.764
 3693SOL     OW28220   1.555   2.234   7.460
 3693SOL    HW128221   1.571   2.298   7.530
 3693SOL    HW228222   1.495   2.279   7.401
 3694SOL     OW28223   4.998   6.272   7.588
 3694SOL    HW128224   4.985   6.210   7.516
 3694SOL    HW228225   4.909   6.291   7.620
 3695SOL     OW28226   0.720   4.830   6.946
 3695SOL    HW128227   0.741   4.874   7.029
 3695SOL    HW228228   0.785   4.760   6.940
 3696SOL     OW28229   2.991   3.525   7.101
 3696SOL    HW128230   2.993   3.612   7.060
 3696SOL    HW228231   2.999   3.542   7.195
 3697SOL     OW28232   4.128   0.896   7.488
 3697SOL    HW128233   4.175   0.815   7.508
 3697SOL    HW228234   4.160   0.959   7.552
 3698SOL     OW28235   4.906   0.295   6.376
 3698SOL    HW128236   4.852   0.223   6.344
 3698SOL    HW228237   4.885   0.302   6.469
 3699SOL     OW28238   2.029   2.027   0.372
 3699SOL    HW128239   1.996   1.979   0.448
 3699SOL    HW228240   1.976   2.107   0.370
 3700SOL     OW28241   0.717   1.155   2.059
 3700SOL    HW128242   0.785   1.176   2.124
 3700SOL    HW228243   0.662   1.089   2.102
 3701SOL     OW28244   1.514   0.724   6.442
 3701SOL    HW128245   1.499   0.698   6.351
 3701SOL    HW228246   1.588   0.670   6.471
 3702SOL     OW28247   3.050   6.308   2.129
 3702SOL    HW128248   3.053   6.403   2.117
 3702SOL    HW228249   2.957   6.288   2.141
 3703SOL     OW28250   5.827   6.307   7.557
 3703SOL    HW128251   5.743   6.351   7.575
 3703SOL    HW228252   5.803   6.217   7.536
 3704SOL     OW28253   6.398   5.845   6.968
 3704SOL    HW128254   6.360   5.899   6.899
 3704SOL    HW228255   6.492   5.842   6.948
 3705SOL     OW28256   2.405   0.811   0.469
 3705SOL    HW128257   2.374   0.819   0.559
 3705SOL    HW228258   2.488   0.765   0.477
 3706SOL     OW28259   0.875   5.545   7.105
 3706SOL    HW128260   0.803   5.525   7.045
 3706SOL    HW228261   0.853   5.497   7.186
 3707SOL     OW28262   0.620   5.172   7.088
 3707SOL    HW128263   0.579   5.203   7.007
 3707SOL    HW228264   0.552   5.183   7.155
 3708SOL     OW28265   0.033   1.720   1.307
 3708SOL    HW128266   0.123   1.726   1.274
 3708SOL    HW228267   0.040   1.746   1.399
 3709SOL     OW28268   4.508   6.243   0.612
 3709SOL    HW128269   4.448   6.168   0.618
 3709SOL    HW228270   4.575   6.215   0.550
 3710SOL     OW28271   3.476   4.599   6.539
 3710SOL    HW128272   3.571   4.601   6.534
 3710SOL    HW228273   3.451   4.692   6.546
 3711SOL     OW28274   2.959   2.927   6.800
 3711SOL    HW128275   3.034   2.985   6.783
 3711SOL    HW228276   2.956   2.920   6.896
 3712SOL     OW28277   6.437   3.391   6.692
 3712SOL    HW128278   6.512   3.424   6.642
 3712SOL    HW228279   6.401   3.469   6.735
 3713SOL     OW28280   0.093   6.423   7.004
 3713SOL    HW128281   0.140   6.505   7.015
 3713SOL    HW228282   0.116   6.393   6.916
 3714SOL     OW28283   0.225   0.370   7.191
 3714SOL    HW128284   0.282   0.338   7.261
 3714SOL    HW228285   0.137   0.353   7.223
 3715SOL     OW28286   4.609   3.240   6.618
 3715SOL    HW128287   4.696   3.215   6.586
 3715SOL    HW228288   4.624   3.266   6.709
 3716SOL     OW28289   4.287   1.461   1.825
 3716SOL    HW128290   4.340   1.473   1.903
 3716SOL    HW228291   4.208   1.514   1.841
 3717SOL     OW28292   0.850   5.854   7.404
 3717SOL    HW128293   0.765   5.833   7.364
 3717SOL    HW228294   0.832   5.856   7.498
 3718SOL     OW28295   1.245   0.807   0.316
 3718SOL    HW128296   1.311   0.857   0.364
 3718SOL    HW228297   1.188   0.874   0.277
 3719SOL     OW28298   1.726   1.230   7.101
 3719SOL    HW128299   1.791   1.167   7.134
 3719SOL    HW228300   1.738   1.307   7.157
 3720SOL     OW28301   5.181   1.750   2.605
 3720SOL    HW128302   5.202   1.686   2.672
 3720SOL    HW228303   5.261   1.756   2.552
 3721SOL     OW28304   2.561   4.532   1.126
 3721SOL    HW128305   2.543   4.605   1.067
 3721SOL    HW228306   2.477   4.512   1.166
 3722SOL     OW28307   5.681   6.340   7.181
 3722SOL    HW128308   5.677   6.246   7.201
 3722SOL    HW228309   5.589   6.367   7.174
 3723SOL     OW28310   4.356   0.572   6.930
 3723SOL    HW128311   4.431   0.596   6.875
 3723SOL    HW228312   4.347   0.478   6.919
 3724SOL     OW28313   6.185   1.435   5.904
 3724SOL    HW128314   6.248   1.369   5.875
 3724SOL    HW228315   6.215   1.517   5.864
 3725SOL     OW28316   3.755   4.372   7.758
 3725SOL    HW128317   3.781   4.360   7.850
 3725SOL    HW228318   3.821   4.325   7.708
 3726SOL     OW28319   0.255   5.644   0.483
 3726SOL    HW128320   0.341   5.683   0.466
 3726SOL    HW228321   0.246   5.576   0.416
 3727SOL     OW28322   0.270   3.383   1.972
 3727SOL    HW128323   0.204   3.314   1.967
 3727SOL    HW228324   0.348   3.339   2.004
 3728SOL     OW28325   4.850   0.340   0.903
 3728SOL    HW128326   4.927   0.340   0.961
 3728SOL    HW228327   4.844   0.250   0.871
 3729SOL     OW28328   0.517   1.807   6.496
 3729SOL    HW128329   0.532   1.714   6.480
 3729SOL    HW228330   0.597   1.850   6.465
 3730SOL     OW28331   4.947   0.020   7.063
 3730SOL    HW128332   4.993   0.099   7.092
 3730SOL    HW228333   5.014  -0.031   7.017
 3731SOL     OW28334   4.918   3.547   6.255
 3731SOL    HW128335   4.884   3.617   6.311
 3731SOL    HW228336   4.966   3.490   6.315
 3732SOL     OW28337   6.061   0.590   1.181
 3732SOL    HW128338   6.036   0.500   1.160
 3732SOL    HW228339   6.153   0.596   1.154
 3733SOL     OW28340   3.588   0.475   0.474
 3733SOL    HW128341   3.571   0.533   0.548
 3733SOL    HW228342   3.683   0.463   0.473
 3734SOL     OW28343   0.159   1.849   7.325
 3734SOL    HW128344   0.189   1.810   7.407
 3734SOL    HW228345   0.208   1.931   7.318
 3735SOL     OW28346   3.046   4.338   0.517
 3735SOL    HW128347   3.038   4.248   0.549
 3735SOL    HW228348   3.013   4.335   0.427
 3736SOL     OW28349   3.845   3.474   0.198
 3736SOL    HW128350   3.927   3.442   0.160
 3736SOL    HW228351   3.823   3.410   0.267
 3737SOL     OW28352   6.152   0.198   0.613
 3737SOL    HW128353   6.199   0.253   0.551
 3737SOL    HW228354   6.080   0.160   0.563
 3738SOL     OW28355   3.957   2.479   0.973
 3738SOL    HW128356   3.890   2.547   0.970
 3738SOL    HW228357   3.983   2.475   1.065
 3739SOL     OW28358   2.367   5.246   7.717
 3739SOL    HW128359   2.417   5.235   7.636
 3739SOL    HW228360   2.293   5.300   7.692
 3740SOL     OW28361   2.740   3.918   0.665
 3740SOL    HW128362   2.701   3.851   0.609
 3740SOL    HW228363   2.817   3.877   0.703
 3741SOL     OW28364   4.476   0.101   0.659
 3741SOL    HW128365   4.404   0.048   0.693
 3741SOL    HW228366   4.470   0.183   0.709
 3742SOL     OW28367   5.712   3.455   5.666
 3742SOL    HW128368   5.802   3.428   5.686
 3742SOL    HW228369   5.696   3.421   5.578
 3743SOL     OW28370   4.522   5.803   1.706
 3743SOL    HW128371   4.537   5.788   1.800
 3743SOL    HW228372   4.599   5.851   1.677
 3744SOL     OW28373   4.911   6.163   6.336
 3744SOL    HW128374   4.891   6.227   6.403
 3744SOL    HW228375   4.958   6.212   6.269
 3745SOL     OW28376   1.640   3.795   0.300
 3745SOL    HW128377   1.575   3.790   0.369
 3745SOL    HW228378   1.607   3.737   0.231
 3746SOL     OW28379   0.176   2.270   1.135
 3746SOL    HW128380   0.231   2.283   1.212
 3746SOL    HW228381   0.130   2.353   1.125
 3747SOL     OW28382   6.389   2.650   6.512
 3747SOL    HW128383   6.405   2.563   6.546
 3747SOL    HW228384   6.371   2.703   6.590
 3748SOL     OW28385   4.609   2.748   2.358
 3748SOL    HW128386   4.565   2.813   2.303
 3748SOL    HW228387   4.685   2.721   2.307
 3749SOL     OW28388   4.426   0.900   7.307
 3749SOL    HW128389   4.389   0.989   7.308
 3749SOL    HW228390   4.395   0.863   7.224
 3750SOL     OW28391   1.967   3.038   2.223
 3750SOL    HW128392   1.876   3.068   2.220
 3750SOL    HW228393   1.991   3.023   2.132
 3751SOL     OW28394   0.302   2.023   6.484
 3751SOL    HW128395   0.361   1.948   6.487
 3751SOL    HW228396   0.336   2.084   6.550
 3752SOL     OW28397   4.183   4.199   7.281
 3752SOL    HW128398   4.266   4.241   7.306
 3752SOL    HW228399   4.173   4.128   7.344
 3753SOL     OW28400   3.081   6.425   0.563
 3753SOL    HW128401   3.106   6.515   0.543
 3753SOL    HW228402   3.064   6.425   0.657
 3754SOL     OW28403   2.378   5.886   2.774
 3754SOL    HW128404   2.335   5.917   2.854
 3754SOL    HW228405   2.307   5.861   2.716
 3755SOL     OW28406   4.130   4.230   0.128
 3755SOL    HW128407   4.140   4.199   0.038
 3755SOL    HW228408   4.137   4.325   0.121
 3756SOL     OW28409   6.225   3.579   6.105
 3756SOL    HW128410   6.321   3.580   6.114
 3756SOL    HW228411   6.205   3.661   6.060
 3757SOL     OW28412   6.444   0.750   6.771
 3757SOL    HW128413   6.355   0.736   6.739
 3757SOL    HW228414   6.497   0.758   6.691
 3758SOL     OW28415   0.219   1.946   0.408
 3758SOL    HW128416   0.215   1.973   0.316
 3758SOL    HW228417   0.266   1.862   0.406
 3759SOL     OW28418   0.896   0.923   1.294
 3759SOL    HW128419   0.882   0.838   1.253
 3759SOL    HW228420   0.979   0.953   1.258
 3760SOL     OW28421   4.608   5.828   0.537
 3760SOL    HW128422   4.613   5.921   0.518
 3760SOL    HW228423   4.520   5.803   0.509
 3761SOL     OW28424   5.929   4.074   6.632
 3761SOL    HW128425   5.905   3.990   6.672
 3761SOL    HW228426   5.952   4.130   6.706
 3762SOL     OW28427   1.805   1.614   1.236
 3762SOL    HW128428   1.730   1.672   1.250
 3762SOL    HW228429   1.821   1.575   1.322
 3763SOL     OW28430   0.464   6.139   6.977
 3763SOL    HW128431   0.450   6.206   6.909
 3763SOL    HW228432   0.390   6.150   7.036
 3764SOL     OW28433   4.193   1.643   6.267
 3764SOL    HW128434   4.133   1.710   6.235
 3764SOL    HW228435   4.260   1.635   6.199
 3765SOL     OW28436   0.931   1.200   6.765
 3765SOL    HW128437   1.013   1.230   6.726
 3765SOL    HW228438   0.943   1.212   6.859
 3766SOL     OW28439   2.546   1.794   0.313
 3766SOL    HW128440   2.467   1.843   0.294
 3766SOL    HW228441   2.591   1.847   0.380
 3767SOL     OW28442   4.455   4.946   2.582
 3767SOL    HW128443   4.450   5.041   2.594
 3767SOL    HW228444   4.419   4.910   2.663
 3768SOL     OW28445   0.700   6.448   7.774
 3768SOL    HW128446   0.721   6.539   7.798
 3768SOL    HW228447   0.744   6.434   7.690
 3769SOL     OW28448   2.682   4.730   1.365
 3769SOL    HW128449   2.739   4.663   1.403
 3769SOL    HW228450   2.594   4.693   1.371
 3770SOL     OW28451   3.211   5.448   1.017
 3770SOL    HW128452   3.233   5.523   1.073
 3770SOL    HW228453   3.243   5.472   0.930
 3771SOL     OW28454   6.065   5.390   6.073
 3771SOL    HW128455   6.061   5.351   6.161
 3771SOL    HW228456   6.051   5.483   6.087
 3772SOL     OW28457   2.081   0.514   0.128
 3772SOL    HW128458   2.100   0.423   0.107
 3772SOL    HW228459   2.163   0.548   0.163
 3773SOL     OW28460   4.196   3.334   1.245
 3773SOL    HW128461   4.205   3.409   1.304
 3773SOL    HW228462   4.141   3.272   1.294
 3774SOL     OW28463   5.174   4.623   7.536
 3774SOL    HW128464   5.156   4.703   7.585
 3774SOL    HW228465   5.151   4.552   7.596
 3775SOL     OW28466   4.332   1.539   0.539
 3775SOL    HW128467   4.361   1.580   0.621
 3775SOL    HW228468   4.318   1.447   0.561
 3776SOL     OW28469   4.814   3.193   6.868
 3776SOL    HW128470   4.893   3.247   6.859
 3776SOL    HW228471   4.779   3.216   6.954
 3777SOL     OW28472   2.574   5.650   7.349
 3777SOL    HW128473   2.630   5.718   7.311
 3777SOL    HW228474   2.485   5.681   7.337
 3778SOL     OW28475   3.254   3.204   6.658
 3778SOL    HW128476   3.304   3.131   6.694
 3778SOL    HW228477   3.283   3.280   6.708
 3779SOL     OW28478   0.901   3.102   7.451
 3779SOL    HW128479   0.917   3.037   7.520
 3779SOL    HW228480   0.931   3.184   7.489
 3780SOL     OW28481   0.697   0.887   1.478
 3780SOL    HW128482   0.720   0.794   1.477
 3780SOL    HW228483   0.753   0.926   1.411
 3781SOL     OW28484   3.538   1.679   2.058
 3781SOL    HW128485   3.538   1.734   2.136
 3781SOL    HW228486   3.588   1.602   2.084
 3782SOL     OW28487   3.534   0.093   2.232
 3782SOL    HW128488   3.448   0.068   2.266
 3782SOL    HW228489   3.528   0.188   2.221
 3783SOL     OW28490   6.427   2.514   6.824
 3783SOL    HW128491   6.511   2.473   6.842
 3783SOL    HW228492   6.369   2.441   6.802
 3784SOL     OW28493   5.065   0.516   7.533
 3784SOL    HW128494   5.121   0.594   7.541
 3784SOL    HW228495   5.062   0.481   7.622
 3785SOL     OW28496   5.150   0.813   6.537
 3785SOL    HW128497   5.233   0.800   6.490
 3785SOL    HW228498   5.143   0.908   6.548
 3786SOL     OW28499   2.901   1.050   7.269
 3786SOL    HW128500   2.856   1.107   7.208
 3786SOL    HW228501   2.975   1.102   7.300
 3787SOL     OW28502   4.574   1.701   2.092
 3787SOL    HW128503   4.536   1.719   2.006
 3787SOL    HW228504   4.535   1.619   2.120
 3788SOL     OW28505   5.709   1.646   1.644
 3788SOL    HW128506   5.708   1.583   1.572
 3788SOL    HW228507   5.628   1.696   1.634
 3789SOL     OW28508   0.371   0.365   0.210
 3789SOL    HW128509   0.288   0.389   0.251
 3789SOL    HW228510   0.411   0.301   0.269
 3790SOL     OW28511   4.536   2.622   1.340
 3790SOL    HW128512   4.600   2.671   1.288
 3790SOL    HW228513   4.452   2.660   1.315
 3791SOL     OW28514   1.881   4.085   5.753
 3791SOL    HW128515   1.958   4.037   5.721
 3791SOL    HW228516   1.814   4.018   5.766
 3792SOL     OW28517   5.830   5.936   2.098
 3792SOL    HW128518   5.788   6.010   2.054
 3792SOL    HW228519   5.785   5.859   2.065
 3793SOL     OW28520   0.959   4.750   5.741
 3793SOL    HW128521   0.897   4.806   5.695
 3793SOL    HW228522   0.962   4.784   5.830
 3794SOL     OW28523   3.457   5.241   7.459
 3794SOL    HW128524   3.401   5.204   7.528
 3794SOL    HW228525   3.447   5.180   7.386
 3795SOL     OW28526   1.303   0.311   1.819
 3795SOL    HW128527   1.383   0.272   1.854
 3795SOL    HW228528   1.325   0.336   1.729
 3796SOL     OW28529   5.410   0.371   6.567
 3796SOL    HW128530   5.390   0.429   6.493
 3796SOL    HW228531   5.339   0.307   6.568
 3797SOL     OW28532   1.111   5.582   0.874
 3797SOL    HW128533   1.153   5.649   0.819
 3797SOL    HW228534   1.179   5.556   0.936
 3798SOL     OW28535   0.655   6.074   1.283
 3798SOL    HW128536   0.647   6.151   1.339
 3798SOL    HW228537   0.740   6.036   1.307
 3799SOL     OW28538   1.041   1.296   1.277
 3799SOL    HW128539   1.061   1.204   1.262
 3799SOL    HW228540   1.084   1.317   1.360
 3800SOL     OW28541   1.813   0.405   6.739
 3800SOL    HW128542   1.783   0.319   6.710
 3800SOL    HW228543   1.792   0.407   6.833
 3801SOL     OW28544   0.858   2.226   0.638
 3801SOL    HW128545   0.817   2.252   0.555
 3801SOL    HW228546   0.939   2.183   0.612
 3802SOL     OW28547   4.604   5.874   2.465
 3802SOL    HW128548   4.597   5.951   2.410
 3802SOL    HW228549   4.681   5.891   2.520
 3803SOL     OW28550   1.356   5.743   0.422
 3803SOL    HW128551   1.442   5.734   0.381
 3803SOL    HW228552   1.340   5.837   0.424
 3804SOL     OW28553   0.931   4.065   6.483
 3804SOL    HW128554   0.946   4.153   6.516
 3804SOL    HW228555   0.930   4.076   6.388
 3805SOL     OW28556   4.314   0.130   1.114
 3805SOL    HW128557   4.322   0.057   1.052
 3805SOL    HW228558   4.259   0.095   1.184
 3806SOL     OW28559   1.193   2.114   7.353
 3806SOL    HW128560   1.243   2.047   7.400
 3806SOL    HW228561   1.103   2.103   7.382
 3807SOL     OW28562   3.658   5.195   7.055
 3807SOL    HW128563   3.739   5.196   7.004
 3807SOL    HW228564   3.619   5.110   7.037
 3808SOL     OW28565   5.002   5.001   0.611
 3808SOL    HW128566   5.022   4.937   0.542
 3808SOL    HW228567   4.964   4.950   0.682
 3809SOL     OW28568   2.061   5.583   2.048
 3809SOL    HW128569   1.977   5.627   2.059
 3809SOL    HW228570   2.077   5.540   2.133
 3810SOL     OW28571   6.450   0.578   7.666
 3810SOL    HW128572   6.397   0.641   7.715
 3810SOL    HW228573   6.493   0.526   7.734
 3811SOL     OW28574   4.563   1.583   7.173
 3811SOL    HW128575   4.584   1.491   7.188
 3811SOL    HW228576   4.504   1.583   7.099
 3812SOL     OW28577   4.133   6.359   5.744
 3812SOL    HW128578   4.074   6.284   5.743
 3812SOL    HW228579   4.148   6.378   5.651
 3813SOL     OW28580   6.295   5.790   1.500
 3813SOL    HW128581   6.322   5.702   1.525
 3813SOL    HW228582   6.345   5.848   1.557
 3814SOL     OW28583   1.653   3.610   0.967
 3814SOL    HW128584   1.655   3.522   1.004
 3814SOL    HW228585   1.594   3.659   1.025
 3815SOL     OW28586   4.755   5.921   6.698
 3815SOL    HW128587   4.789   5.897   6.612
 3815SOL    HW228588   4.817   5.882   6.761
 3816SOL     OW28589   1.310   0.716   7.103
 3816SOL    HW128590   1.258   0.746   7.178
 3816SOL    HW228591   1.363   0.644   7.138
 3817SOL     OW28592   5.692   2.048   0.670
 3817SOL    HW128593   5.783   2.027   0.691
 3817SOL    HW228594   5.654   1.964   0.644
 3818SOL     OW28595   6.015   0.324   1.471
 3818SOL    HW128596   5.970   0.345   1.388
 3818SOL    HW228597   6.002   0.229   1.481
 3819SOL     OW28598   3.284   4.622   2.644
 3819SOL    HW128599   3.372   4.618   2.681
 3819SOL    HW228600   3.260   4.531   2.629
 3820SOL     OW28601   4.372   2.684   6.812
 3820SOL    HW128602   4.378   2.588   6.816
 3820SOL    HW228603   4.440   2.715   6.871
 3821SOL     OW28604   0.599   0.467   5.781
 3821SOL    HW128605   0.578   0.489   5.690
 3821SOL    HW228606   0.687   0.429   5.777
 3822SOL     OW28607   3.357   0.875   1.231
 3822SOL    HW128608   3.400   0.960   1.236
 3822SOL    HW228609   3.264   0.896   1.224
 3823SOL     OW28610   2.222   4.984   6.269
 3823SOL    HW128611   2.293   5.014   6.213
 3823SOL    HW228612   2.229   5.036   6.348
 3824SOL     OW28613   2.175   4.428   6.114
 3824SOL    HW128614   2.186   4.519   6.086
 3824SOL    HW228615   2.086   4.406   6.085
 3825SOL     OW28616   3.188   2.357   0.619
 3825SOL    HW128617   3.240   2.336   0.542
 3825SOL    HW228618   3.135   2.433   0.593
 3826SOL     OW28619   4.864   3.143   6.533
 3826SOL    HW128620   4.906   3.124   6.617
 3826SOL    HW228621   4.869   3.060   6.486
 3827SOL     OW28622   0.926   6.050   7.151
 3827SOL    HW128623   0.921   6.067   7.057
 3827SOL    HW228624   1.014   6.016   7.166
 3828SOL     OW28625   4.631   1.958   2.186
 3828SOL    HW128626   4.627   1.871   2.145
 3828SOL    HW228627   4.557   2.006   2.148
 3829SOL     OW28628   3.480   4.986   6.997
 3829SOL    HW128629   3.528   4.920   7.048
 3829SOL    HW228630   3.402   5.005   7.050
 3830SOL     OW28631   3.743   1.185   6.148
 3830SOL    HW128632   3.775   1.226   6.068
 3830SOL    HW228633   3.649   1.201   6.148
 3831SOL     OW28634   5.625   4.734   7.734
 3831SOL    HW128635   5.619   4.731   7.639
 3831SOL    HW228636   5.666   4.651   7.759
 3832SOL     OW28637   2.298   2.119   6.823
 3832SOL    HW128638   2.360   2.139   6.753
 3832SOL    HW228639   2.221   2.084   6.778
 3833SOL     OW28640   5.150   4.438   2.276
 3833SOL    HW128641   5.070   4.402   2.314
 3833SOL    HW228642   5.161   4.523   2.317
 3834SOL     OW28643   0.872   4.629   5.143
 3834SOL    HW128644   0.924   4.649   5.221
 3834SOL    HW228645   0.786   4.666   5.161
 3835SOL     OW28646   1.169   3.922   1.102
 3835SOL    HW128647   1.257   3.935   1.065
 3835SOL    HW228648   1.181   3.852   1.166
 3836SOL     OW28649   4.689   6.074   0.446
 3836SOL    HW128650   4.770   6.119   0.423
 3836SOL    HW228651   4.634   6.084   0.369
 3837SOL     OW28652   0.576   6.284   7.209
 3837SOL    HW128653   0.508   6.243   7.264
 3837SOL    HW228654   0.586   6.224   7.135
 3838SOL     OW28655   5.363   3.737   2.497
 3838SOL    HW128656   5.415   3.768   2.571
 3838SOL    HW228657   5.301   3.674   2.535
 3839SOL     OW28658   0.042   2.034   1.193
 3839SOL    HW128659   0.088   2.021   1.277
 3839SOL    HW228660   0.073   2.119   1.162
 3840SOL     OW28661   4.188   6.455   6.698
 3840SOL    HW128662   4.272   6.501   6.702
 3840SOL    HW228663   4.211   6.362   6.695
 3841SOL     OW28664   6.282   1.658   6.691
 3841SOL    HW128665   6.349   1.655   6.760
 3841SOL    HW228666   6.268   1.567   6.666
 3842SOL     OW28667   0.192   4.322   1.682
 3842SOL    HW128668   0.274   4.357   1.648
 3842SOL    HW228669   0.153   4.276   1.608
 3843SOL     OW28670   0.447   2.091   7.173
 3843SOL    HW128671   0.381   2.102   7.241
 3843SOL    HW228672   0.400   2.110   7.091
 3844SOL     OW28673   4.510   5.617   1.079
 3844SOL    HW128674   4.478   5.537   1.039
 3844SOL    HW228675   4.582   5.589   1.135
 3845SOL     OW28676   4.842   6.470   0.438
 3845SOL    HW128677   4.896   6.432   0.507
 3845SOL    HW228678   4.848   6.408   0.366
 3846SOL     OW28679   3.422   3.147   7.292
 3846SOL    HW128680   3.444   3.068   7.343
 3846SOL    HW228681   3.327   3.152   7.295
 3847SOL     OW28682   4.713   1.327   7.141
 3847SOL    HW128683   4.630   1.287   7.116
 3847SOL    HW228684   4.754   1.262   7.199
 3848SOL     OW28685   5.586   0.750   6.493
 3848SOL    HW128686   5.679   0.729   6.479
 3848SOL    HW228687   5.587   0.822   6.556
 3849SOL     OW28688   0.172   6.179   7.097
 3849SOL    HW128689   0.179   6.179   7.193
 3849SOL    HW228690   0.157   6.271   7.075
 3850SOL     OW28691   2.065   1.637   6.549
 3850SOL    HW128692   2.038   1.619   6.639
 3850SOL    HW228693   2.148   1.591   6.539
 3851SOL     OW28694   4.053   0.382   7.452
 3851SOL    HW128695   4.002   0.353   7.527
 3851SOL    HW228696   4.015   0.335   7.378
 3852SOL     OW28697   5.349   2.115   5.417
 3852SOL    HW128698   5.321   2.205   5.432
 3852SOL    HW228699   5.443   2.116   5.436
 3853SOL     OW28700   1.679   3.999   0.046
 3853SOL    HW128701   1.728   3.966   0.120
 3853SOL    HW228702   1.614   3.931   0.027
 3854SOL     OW28703   4.280   1.646   0.081
 3854SOL    HW128704   4.242   1.559   0.096
 3854SOL    HW228705   4.341   1.632   0.008
 3855SOL     OW28706   0.240   2.797   1.354
 3855SOL    HW128707   0.304   2.766   1.291
 3855SOL    HW228708   0.292   2.833   1.426
 3856SOL     OW28709   1.852   1.638   7.483
 3856SOL    HW128710   1.913   1.626   7.411
 3856SOL    HW228711   1.897   1.600   7.559
 3857SOL     OW28712   3.868   1.925   0.339
 3857SOL    HW128713   3.897   1.899   0.251
 3857SOL    HW228714   3.907   2.012   0.352
 3858SOL     OW28715   5.224   4.679   2.382
 3858SOL    HW128716   5.309   4.724   2.379
 3858SOL    HW228717   5.220   4.643   2.471
 3859SOL     OW28718   3.830   4.175   2.175
 3859SOL    HW128719   3.880   4.119   2.235
 3859SOL    HW228720   3.830   4.261   2.216
 3860SOL     OW28721   3.616   0.198   1.155
 3860SOL    HW128722   3.692   0.234   1.110
 3860SOL    HW228723   3.547   0.263   1.141
 3861SOL     OW28724   5.212   1.807   1.694
 3861SOL    HW128725   5.221   1.762   1.778
 3861SOL    HW228726   5.176   1.741   1.635
 3862SOL     OW28727   3.467   3.142   6.302
 3862SOL    HW128728   3.388   3.095   6.329
 3862SOL    HW228729   3.500   3.093   6.228
 3863SOL     OW28730   0.865   4.838   2.166
 3863SOL    HW128731   0.961   4.835   2.174
 3863SOL    HW228732   0.838   4.746   2.170
 3864SOL     OW28733   2.206   2.522   5.686
 3864SOL    HW128734   2.135   2.480   5.734
 3864SOL    HW228735   2.173   2.610   5.666
 3865SOL     OW28736   5.821   5.323   0.532
 3865SOL    HW128737   5.804   5.246   0.586
 3865SOL    HW228738   5.892   5.369   0.576
 3866SOL     OW28739   3.009   1.910   1.240
 3866SOL    HW128740   3.091   1.877   1.279
 3866SOL    HW228741   3.014   2.005   1.251
 3867SOL     OW28742   2.759   1.266   2.165
 3867SOL    HW128743   2.704   1.320   2.108
 3867SOL    HW228744   2.708   1.186   2.178
 3868SOL     OW28745   2.011   5.276   1.464
 3868SOL    HW128746   2.050   5.331   1.396
 3868SOL    HW228747   2.083   5.221   1.494
 3869SOL     OW28748   1.155   4.059   7.022
 3869SOL    HW128749   1.214   4.060   7.098
 3869SOL    HW228750   1.072   4.027   7.058
 3870SOL     OW28751   2.718   0.051   1.037
 3870SOL    HW128752   2.634   0.052   0.992
 3870SOL    HW228753   2.730   0.140   1.068
 3871SOL     OW28754   4.142   3.420   1.730
 3871SOL    HW128755   4.180   3.416   1.818
 3871SOL    HW228756   4.089   3.341   1.723
 3872SOL     OW28757   1.294   2.544   7.545
 3872SOL    HW128758   1.313   2.526   7.453
 3872SOL    HW228759   1.380   2.566   7.583
 3873SOL     OW28760   0.892   3.746   0.643
 3873SOL    HW128761   0.888   3.655   0.615
 3873SOL    HW228762   0.808   3.763   0.684
 3874SOL     OW28763   6.227   4.625   7.268
 3874SOL    HW128764   6.310   4.671   7.279
 3874SOL    HW228765   6.199   4.647   7.180
 3875SOL     OW28766   2.789   6.141   1.836
 3875SOL    HW128767   2.881   6.135   1.807
 3875SOL    HW228768   2.791   6.109   1.926
 3876SOL     OW28769   2.532   4.716   6.349
 3876SOL    HW128770   2.520   4.627   6.314
 3876SOL    HW228771   2.621   4.740   6.323
 3877SOL     OW28772   6.130   3.173   2.434
 3877SOL    HW128773   6.131   3.137   2.345
 3877SOL    HW228774   6.056   3.233   2.434
 3878SOL     OW28775   4.146   5.427   6.064
 3878SOL    HW128776   4.139   5.361   5.995
 3878SOL    HW228777   4.209   5.491   6.030
 3879SOL     OW28778   3.017   0.992   1.454
 3879SOL    HW128779   3.109   0.998   1.481
 3879SOL    HW228780   3.009   1.055   1.382
 3880SOL     OW28781   6.056   2.445   6.668
 3880SOL    HW128782   5.982   2.451   6.728
 3880SOL    HW228783   6.116   2.383   6.710
 3881SOL     OW28784   4.073   1.367   1.353
 3881SOL    HW128785   4.125   1.304   1.303
 3881SOL    HW228786   4.131   1.395   1.424
 3882SOL     OW28787   1.723   0.150   0.724
 3882SOL    HW128788   1.679   0.170   0.807
 3882SOL    HW228789   1.795   0.213   0.719
 3883SOL     OW28790   5.771   3.166   6.742
 3883SOL    HW128791   5.847   3.118   6.776
 3883SOL    HW228792   5.696   3.116   6.773
 3884SOL     OW28793   6.157   2.147   5.868
 3884SOL    HW128794   6.208   2.217   5.827
 3884SOL    HW228795   6.082   2.134   5.810
 3885SOL     OW28796   5.741   5.771   0.990
 3885SOL    HW128797   5.769   5.811   0.908
 3885SOL    HW228798   5.743   5.677   0.973
 3886SOL     OW28799   4.077   3.781   1.050
 3886SOL    HW128800   4.084   3.874   1.032
 3886SOL    HW228801   4.160   3.757   1.091
 3887SOL     OW28802   4.826   2.519   6.433
 3887SOL    HW128803   4.911   2.482   6.408
 3887SOL    HW228804   4.791   2.556   6.352
 3888SOL     OW28805   6.174   0.380   7.216
 3888SOL    HW128806   6.208   0.326   7.145
 3888SOL    HW228807   6.252   0.420   7.255
 3889SOL     OW28808   3.507   0.860   6.305
 3889SOL    HW128809   3.487   0.800   6.378
 3889SOL    HW228810   3.424   0.901   6.284
 3890SOL     OW28811   1.472   0.349   6.867
 3890SOL    HW128812   1.384   0.355   6.904
 3890SOL    HW228813   1.482   0.431   6.818
 3891SOL     OW28814   3.124   2.200   1.282
 3891SOL    HW128815   3.141   2.190   1.189
 3891SOL    HW228816   3.136   2.293   1.299
 3892SOL     OW28817   0.879   1.378   6.156
 3892SOL    HW128818   0.897   1.374   6.062
 3892SOL    HW228819   0.965   1.369   6.197
 3893SOL     OW28820   1.000   3.014   7.210
 3893SOL    HW128821   1.010   3.022   7.305
 3893SOL    HW228822   0.989   3.104   7.180
 3894SOL     OW28823   5.789   3.756   0.483
 3894SOL    HW128824   5.702   3.747   0.522
 3894SOL    HW228825   5.837   3.678   0.512
 3895SOL     OW28826   4.697   2.403   1.348
 3895SOL    HW128827   4.636   2.476   1.352
 3895SOL    HW228828   4.782   2.441   1.368
 3896SOL     OW28829   0.983   4.951   1.607
 3896SOL    HW128830   0.994   4.934   1.514
 3896SOL    HW228831   1.065   4.993   1.634
 3897SOL     OW28832   1.694   4.815   1.286
 3897SOL    HW128833   1.599   4.826   1.293
 3897SOL    HW228834   1.720   4.881   1.221
 3898SOL     OW28835   2.531   1.039   6.056
 3898SOL    HW128836   2.596   0.976   6.084
 3898SOL    HW228837   2.459   0.986   6.020
 3899SOL     OW28838   2.403   1.100   2.266
 3899SOL    HW128839   2.488   1.079   2.227
 3899SOL    HW228840   2.341   1.042   2.222
 3900SOL     OW28841   5.265   4.293   2.684
 3900SOL    HW128842   5.188   4.258   2.639
 3900SOL    HW228843   5.241   4.290   2.777
 3901SOL     OW28844   0.198   5.128   7.754
 3901SOL    HW128845   0.277   5.181   7.761
 3901SOL    HW228846   0.127   5.192   7.743
 3902SOL     OW28847   4.385   4.323   2.315
 3902SOL    HW128848   4.302   4.289   2.346
 3902SOL    HW228849   4.363   4.407   2.274
 3903SOL     OW28850   1.941   2.523   1.516
 3903SOL    HW128851   1.960   2.460   1.446
 3903SOL    HW228852   1.996   2.599   1.495
 3904SOL     OW28853   4.386   2.484   1.822
 3904SOL    HW128854   4.315   2.428   1.854
 3904SOL    HW228855   4.399   2.457   1.731
 3905SOL     OW28856   6.354   0.410   6.146
 3905SOL    HW128857   6.302   0.394   6.067
 3905SOL    HW228858   6.441   0.434   6.113
 3906SOL     OW28859   4.892   2.557   6.701
 3906SOL    HW128860   4.859   2.644   6.724
 3906SOL    HW228861   4.877   2.550   6.607
 3907SOL     OW28862   4.785   1.728   7.305
 3907SOL    HW128863   4.856   1.666   7.291
 3907SOL    HW228864   4.721   1.708   7.236
 3908SOL     OW28865   6.203   4.737   6.753
 3908SOL    HW128866   6.198   4.742   6.657
 3908SOL    HW228867   6.114   4.756   6.782
 3909SOL     OW28868   5.273   4.577   1.505
 3909SOL    HW128869   5.360   4.559   1.541
 3909SOL    HW228870   5.232   4.633   1.571
 3910SOL     OW28871   6.252   4.793   0.368
 3910SOL    HW128872   6.335   4.838   0.355
 3910SOL    HW228873   6.189   4.843   0.315
 3911SOL     OW28874   0.227   2.170   7.305
 3911SOL    HW128875   0.184   2.230   7.244
 3911SOL    HW228876   0.212   2.209   7.391
 3912SOL     OW28877   0.404   3.068   6.542
 3912SOL    HW128878   0.483   3.018   6.521
 3912SOL    HW228879   0.379   3.038   6.630
 3913SOL     OW28880   5.362   2.585   0.293
 3913SOL    HW128881   5.407   2.641   0.356
 3913SOL    HW228882   5.432   2.553   0.235
 3914SOL     OW28883   1.984   4.685   0.741
 3914SOL    HW128884   2.075   4.657   0.732
 3914SOL    HW228885   1.942   4.658   0.659
 3915SOL     OW28886   3.777   0.547   6.057
 3915SOL    HW128887   3.843   0.555   6.125
 3915SOL    HW228888   3.696   0.528   6.105
 3916SOL     OW28889   5.146   3.128   0.672
 3916SOL    HW128890   5.193   3.176   0.740
 3916SOL    HW228891   5.100   3.195   0.622
 3917SOL     OW28892   0.764   2.908   2.284
 3917SOL    HW128893   0.769   2.830   2.339
 3917SOL    HW228894   0.740   2.978   2.345
 3918SOL     OW28895   0.413   2.876   1.551
 3918SOL    HW128896   0.507   2.888   1.538
 3918SOL    HW228897   0.407   2.815   1.625
 3919SOL     OW28898   5.143   3.706   6.414
 3919SOL    HW128899   5.199   3.660   6.478
 3919SOL    HW228900   5.170   3.670   6.330
 3920SOL     OW28901   4.909   6.264   5.348
 3920SOL    HW128902   4.953   6.220   5.420
 3920SOL    HW228903   4.854   6.196   5.309
 3921SOL     OW28904   0.248   5.324   7.127
 3921SOL    HW128905   0.289   5.284   7.050
 3921SOL    HW228906   0.196   5.396   7.092
 3922SOL     OW28907   1.012   5.984   2.010
 3922SOL    HW128908   1.057   5.908   2.046
 3922SOL    HW228909   0.958   6.017   2.082
 3923SOL     OW28910   4.506   2.891   5.474
 3923SOL    HW128911   4.460   2.936   5.545
 3923SOL    HW228912   4.558   2.960   5.432
 3924SOL     OW28913   4.451   3.960   6.025
 3924SOL    HW128914   4.496   4.001   6.100
 3924SOL    HW228915   4.364   3.940   6.058
 3925SOL     OW28916   3.912   0.387   1.565
 3925SOL    HW128917   3.898   0.307   1.516
 3925SOL    HW228918   3.972   0.438   1.510
 3926SOL     OW28919   3.271   4.355   2.553
 3926SOL    HW128920   3.281   4.345   2.458
 3926SOL    HW228921   3.256   4.266   2.585
 3927SOL     OW28922   6.456   0.499   0.280
 3927SOL    HW128923   6.516   0.460   0.215
 3927SOL    HW228924   6.446   0.589   0.252
 3928SOL     OW28925   2.287   6.012   0.660
 3928SOL    HW128926   2.344   6.062   0.601
 3928SOL    HW228927   2.206   6.063   0.662
 3929SOL     OW28928   6.030   0.625   7.151
 3929SOL    HW128929   6.094   0.559   7.176
 3929SOL    HW228930   5.977   0.584   7.083
 3930SOL     OW28931   4.391   4.745   6.597
 3930SOL    HW128932   4.304   4.781   6.585
 3930SOL    HW228933   4.405   4.744   6.691
 3931SOL     OW28934   5.405   1.777   2.446
 3931SOL    HW128935   5.476   1.714   2.458
 3931SOL    HW228936   5.414   1.805   2.354
 3932SOL     OW28937   1.410   5.351   1.492
 3932SOL    HW128938   1.491   5.300   1.497
 3932SOL    HW228939   1.431   5.423   1.431
 3933SOL     OW28940   1.606   0.988   6.247
 3933SOL    HW128941   1.603   1.035   6.164
 3933SOL    HW228942   1.560   0.906   6.229
 3934SOL     OW28943   0.500   5.918   1.122
 3934SOL    HW128944   0.548   5.936   1.203
 3934SOL    HW228945   0.565   5.881   1.063
 3935SOL     OW28946   0.289   3.358   0.463
 3935SOL    HW128947   0.376   3.398   0.457
 3935SOL    HW228948   0.294   3.302   0.541
 3936SOL     OW28949   2.108   4.007   1.072
 3936SOL    HW128950   2.114   3.958   1.154
 3936SOL    HW228951   2.157   3.954   1.009
 3937SOL     OW28952   3.004   5.090   5.326
 3937SOL    HW128953   3.020   5.138   5.244
 3937SOL    HW228954   2.953   5.150   5.379
 3938SOL     OW28955   3.634   4.374   1.140
 3938SOL    HW128956   3.599   4.305   1.084
 3938SOL    HW228957   3.631   4.338   1.228
 3939SOL     OW28958   6.059   1.638   7.064
 3939SOL    HW128959   5.981   1.583   7.050
 3939SOL    HW228960   6.125   1.577   7.097
 3940SOL     OW28961   5.350   3.692   7.640
 3940SOL    HW128962   5.286   3.650   7.582
 3940SOL    HW228963   5.305   3.700   7.724
 3941SOL     OW28964   3.620   1.868   6.714
 3941SOL    HW128965   3.655   1.792   6.668
 3941SOL    HW228966   3.571   1.831   6.787
 3942SOL     OW28967   1.475   6.113   6.462
 3942SOL    HW128968   1.521   6.030   6.454
 3942SOL    HW228969   1.415   6.115   6.388
 3943SOL     OW28970   5.838   3.736   7.697
 3943SOL    HW128971   5.823   3.731   7.791
 3943SOL    HW228972   5.750   3.737   7.659
 3944SOL     OW28973   4.668   4.972   7.041
 3944SOL    HW128974   4.615   4.954   6.964
 3944SOL    HW228975   4.707   4.887   7.064
 3945SOL     OW28976   1.619   2.396   7.655
 3945SOL    HW128977   1.598   2.377   7.746
 3945SOL    HW228978   1.576   2.479   7.638
 3946SOL     OW28979   3.414   2.312   1.395
 3946SOL    HW128980   3.346   2.378   1.408
 3946SOL    HW228981   3.439   2.321   1.303
 3947SOL     OW28982   4.524   0.716   0.441
 3947SOL    HW128983   4.473   0.796   0.450
 3947SOL    HW228984   4.558   0.720   0.351
 3948SOL     OW28985   4.577   6.034   6.878
 3948SOL    HW128986   4.650   5.982   6.846
 3948SOL    HW228987   4.516   5.971   6.916
 3949SOL     OW28988   1.738   0.142   0.141
 3949SOL    HW128989   1.673   0.074   0.155
 3949SOL    HW228990   1.774   0.124   0.054
 3950SOL     OW28991   0.943   4.303   6.583
 3950SOL    HW128992   0.982   4.365   6.645
 3950SOL    HW228993   0.850   4.303   6.604
 3951SOL     OW28994   5.783   2.183   6.152
 3951SOL    HW128995   5.730   2.245   6.203
 3951SOL    HW228996   5.742   2.098   6.167
 3952SOL     OW28997   4.610   1.902   6.492
 3952SOL    HW128998   4.639   1.922   6.403
 3952SOL    HW228999   4.614   1.985   6.539
 3953SOL     OW29000   6.319   5.534   1.072
 3953SOL    HW129001   6.227   5.510   1.070
 3953SOL    HW229002   6.319   5.629   1.085
 3954SOL     OW29003   6.078   0.672   7.413
 3954SOL    HW129004   6.144   0.608   7.438
 3954SOL    HW229005   6.077   0.669   7.317
 3955SOL     OW29006   0.495   3.082   1.969
 3955SOL    HW129007   0.414   3.063   2.016
 3955SOL    HW229008   0.467   3.101   1.880
 3956SOL     OW29009   3.758   2.906   7.316
 3956SOL    HW129010   3.680   2.926   7.368
 3956SOL    HW229011   3.810   2.986   7.320
 3957SOL     OW29012   4.307   3.878   1.220
 3957SOL    HW129013   4.299   3.973   1.235
 3957SOL    HW229014   4.261   3.838   1.293
 3958SOL     OW29015   5.374   4.927   1.424
 3958SOL    HW129016   5.289   4.896   1.456
 3958SOL    HW229017   5.355   4.966   1.339
 3959SOL     OW29018   3.289   2.989   1.510
 3959SOL    HW129019   3.265   2.901   1.482
 3959SOL    HW229020   3.328   2.977   1.597
 3960SOL     OW29021   4.374   3.222   6.861
 3960SOL    HW129022   4.293   3.187   6.825
 3960SOL    HW229023   4.406   3.152   6.919
 3961SOL     OW29024   4.792   0.270   1.490
 3961SOL    HW129025   4.858   0.252   1.423
 3961SOL    HW229026   4.821   0.352   1.531
 3962SOL     OW29027   6.012   4.456   6.733
 3962SOL    HW129028   5.977   4.533   6.689
 3962SOL    HW229029   6.065   4.412   6.667
 3963SOL     OW29030   5.437   1.332   1.280
 3963SOL    HW129031   5.400   1.302   1.197
 3963SOL    HW229032   5.491   1.259   1.310
 3964SOL     OW29033   0.535   2.264   1.054
 3964SOL    HW129034   0.477   2.256   0.978
 3964SOL    HW229035   0.613   2.213   1.031
 3965SOL     OW29036   3.271   6.382   1.561
 3965SOL    HW129037   3.284   6.311   1.497
 3965SOL    HW229038   3.235   6.338   1.638
 3966SOL     OW29039   3.280   4.723   1.101
 3966SOL    HW129040   3.309   4.751   1.188
 3966SOL    HW229041   3.238   4.638   1.117
 3967SOL     OW29042   4.267   3.716   0.014
 3967SOL    HW129043   4.206   3.754  -0.048
 3967SOL    HW229044   4.212   3.677   0.082
 3968SOL     OW29045   2.849   5.673   7.097
 3968SOL    HW129046   2.945   5.676   7.097
 3968SOL    HW229047   2.827   5.620   7.021
 3969SOL     OW29048   3.260   4.322   7.507
 3969SOL    HW129049   3.188   4.380   7.533
 3969SOL    HW229050   3.312   4.310   7.586
 3970SOL     OW29051   1.603   1.442   6.940
 3970SOL    HW129052   1.542   1.493   6.994
 3970SOL    HW229053   1.613   1.359   6.986
 3971SOL     OW29054   1.127   3.780   7.413
 3971SOL    HW129055   1.034   3.763   7.430
 3971SOL    HW229056   1.172   3.737   7.486
 3972SOL     OW29057   3.518   3.232   1.420
 3972SOL    HW129058   3.437   3.268   1.385
 3972SOL    HW229059   3.498   3.211   1.511
 3973SOL     OW29060   1.495   1.805   1.881
 3973SOL    HW129061   1.547   1.754   1.943
 3973SOL    HW229062   1.475   1.744   1.810
 3974SOL     OW29063   5.116   6.049   7.465
 3974SOL    HW129064   5.044   5.996   7.499
 3974SOL    HW229065   5.192   5.990   7.466
 3975SOL     OW29066   5.387   1.645   7.121
 3975SOL    HW129067   5.315   1.644   7.183
 3975SOL    HW229068   5.464   1.623   7.172
 3976SOL     OW29069   5.748   5.557   6.892
 3976SOL    HW129070   5.694   5.578   6.816
 3976SOL    HW229071   5.686   5.523   6.957
 3977SOL     OW29072   6.014   5.170   1.166
 3977SOL    HW129073   6.101   5.159   1.127
 3977SOL    HW229074   5.982   5.081   1.179
 3978SOL     OW29075   2.648   4.357   6.518
 3978SOL    HW129076   2.662   4.271   6.558
 3978SOL    HW229077   2.710   4.360   6.445
 3979SOL     OW29078   5.527   2.554   7.558
 3979SOL    HW129079   5.618   2.569   7.534
 3979SOL    HW229080   5.514   2.460   7.547
 3980SOL     OW29081   4.055   4.936   0.063
 3980SOL    HW129082   4.063   4.919  -0.031
 3980SOL    HW229083   4.027   5.027   0.070
 3981SOL     OW29084   5.343   0.161   7.649
 3981SOL    HW129085   5.281   0.092   7.625
 3981SOL    HW229086   5.414   0.154   7.585
 3982SOL     OW29087   4.024   3.761   7.311
 3982SOL    HW129088   4.086   3.700   7.272
 3982SOL    HW229089   3.939   3.719   7.301
 3983SOL     OW29090   0.344   6.116   0.351
 3983SOL    HW129091   0.376   6.028   0.369
 3983SOL    HW229092   0.348   6.124   0.256
 3984SOL     OW29093   2.794   4.760   1.715
 3984SOL    HW129094   2.764   4.741   1.803
 3984SOL    HW229095   2.737   4.707   1.658
 3985SOL     OW29096   2.047   4.803   2.022
 3985SOL    HW129097   2.046   4.858   2.101
 3985SOL    HW229098   2.130   4.756   2.028
 3986SOL     OW29099   2.054   1.912   6.204
 3986SOL    HW129100   1.962   1.900   6.179
 3986SOL    HW229101   2.104   1.874   6.131
 3987SOL     OW29102   5.456   6.107   6.758
 3987SOL    HW129103   5.516   6.182   6.752
 3987SOL    HW229104   5.487   6.046   6.690
 3988SOL     OW29105   0.985   4.626   1.045
 3988SOL    HW129106   0.949   4.660   0.963
 3988SOL    HW229107   0.962   4.533   1.045
 3989SOL     OW29108   1.266   0.157   0.642
 3989SOL    HW129109   1.308   0.072   0.656
 3989SOL    HW229110   1.271   0.200   0.727
 3990SOL     OW29111   2.323   5.621   2.049
 3990SOL    HW129112   2.230   5.614   2.027
 3990SOL    HW229113   2.341   5.542   2.101
 3991SOL     OW29114   2.164   4.849   1.580
 3991SOL    HW129115   2.229   4.918   1.593
 3991SOL    HW229116   2.138   4.858   1.488
 3992SOL     OW29117   5.339   4.802   1.075
 3992SOL    HW129118   5.292   4.748   1.138
 3992SOL    HW229119   5.333   4.891   1.111
 3993SOL     OW29120   2.687   1.308   0.323
 3993SOL    HW129121   2.616   1.286   0.383
 3993SOL    HW229122   2.643   1.335   0.243
 3994SOL     OW29123   4.555   1.535   0.265
 3994SOL    HW129124   4.507   1.595   0.324
 3994SOL    HW229125   4.639   1.578   0.251
 3995SOL     OW29126   4.303   1.207   1.209
 3995SOL    HW129127   4.378   1.178   1.156
 3995SOL    HW229128   4.282   1.130   1.263
 3996SOL     OW29129   5.911   1.447   0.079
 3996SOL    HW129130   5.992   1.492   0.105
 3996SOL    HW229131   5.909   1.455  -0.017
 3997SOL     OW29132   0.440   0.105   7.569
 3997SOL    HW129133   0.351   0.123   7.600
 3997SOL    HW229134   0.494   0.171   7.611
 3998SOL     OW29135   0.301   3.141   0.076
 3998SOL    HW129136   0.235   3.100   0.133
 3998SOL    HW229137   0.362   3.070   0.056
 3999SOL     OW29138   2.460   0.250   1.574
 3999SOL    HW129139   2.438   0.159   1.554
 3999SOL    HW229140   2.538   0.244   1.630
 4000SOL     OW29141   2.538   6.314   0.215
 4000SOL    HW129142   2.613   6.271   0.257
 4000SOL    HW229143   2.529   6.397   0.261
 4001SOL     OW29144   1.557   6.002   1.000
 4001SOL    HW129145   1.567   6.065   1.071
 4001SOL    HW229146   1.466   5.974   1.005
 4002SOL     OW29147   2.237   6.304   0.463
 4002SOL    HW129148   2.249   6.357   0.383
 4002SOL    HW229149   2.305   6.335   0.522
 4003SOL     OW29150   5.150   5.276   0.650
 4003SOL    HW129151   5.092   5.199   0.646
 4003SOL    HW229152   5.131   5.323   0.569
 4004SOL     OW29153   1.865   6.466   6.375
 4004SOL    HW129154   1.813   6.397   6.415
 4004SOL    HW229155   1.898   6.427   6.294
 4005SOL     OW29156   6.405   0.206   1.761
 4005SOL    HW129157   6.371   0.284   1.805
 4005SOL    HW229158   6.352   0.134   1.796
 4006SOL     OW29159   2.202   4.089   6.309
 4006SOL    HW129160   2.255   4.168   6.319
 4006SOL    HW229161   2.244   4.040   6.239
 4007SOL     OW29162   4.582   5.367   7.591
 4007SOL    HW129163   4.584   5.302   7.661
 4007SOL    HW229164   4.606   5.449   7.633
 4008SOL     OW29165   4.343   5.584   0.025
 4008SOL    HW129166   4.272   5.600   0.088
 4008SOL    HW229167   4.307   5.611  -0.059
 4009SOL     OW29168   0.609   4.036   0.505
 4009SOL    HW129169   0.539   4.005   0.562
 4009SOL    HW229170   0.570   4.038   0.418
 4010SOL     OW29171   1.572   4.180   1.148
 4010SOL    HW129172   1.500   4.239   1.127
 4010SOL    HW229173   1.647   4.238   1.162
 4011SOL     OW29174   3.878   0.740   1.305
 4011SOL    HW129175   3.945   0.685   1.346
 4011SOL    HW229176   3.807   0.743   1.369
 4012SOL     OW29177   1.021   2.562   1.309
 4012SOL    HW129178   1.050   2.635   1.253
 4012SOL    HW229179   1.094   2.501   1.308
 4013SOL     OW29180   4.124   3.743   5.629
 4013SOL    HW129181   4.152   3.655   5.601
 4013SOL    HW229182   4.136   3.742   5.724
 4014SOL     OW29183   4.576   2.307   2.026
 4014SOL    HW129184   4.664   2.342   2.043
 4014SOL    HW229185   4.533   2.374   1.973
 4015SOL     OW29186   3.235   2.695   0.761
 4015SOL    HW129187   3.140   2.683   0.760
 4015SOL    HW229188   3.261   2.695   0.669
 4016SOL     OW29189   4.887   4.786   6.246
 4016SOL    HW129190   4.982   4.779   6.239
 4016SOL    HW229191   4.853   4.712   6.195
 4017SOL     OW29192   0.450   4.953   5.789
 4017SOL    HW129193   0.460   5.025   5.851
 4017SOL    HW229194   0.516   4.889   5.816
 4018SOL     OW29195   1.771   2.294   6.805
 4018SOL    HW129196   1.801   2.216   6.853
 4018SOL    HW229197   1.779   2.270   6.713
 4019SOL     OW29198   5.192   5.130   6.778
 4019SOL    HW129199   5.191   5.174   6.693
 4019SOL    HW229200   5.129   5.059   6.768
 4020SOL     OW29201   6.190   5.834   7.126
 4020SOL    HW129202   6.149   5.749   7.109
 4020SOL    HW229203   6.259   5.842   7.060
 4021SOL     OW29204   2.604   2.788   1.920
 4021SOL    HW129205   2.557   2.832   1.991
 4021SOL    HW229206   2.647   2.714   1.963
 4022SOL     OW29207   2.890   3.385   1.264
 4022SOL    HW129208   2.948   3.309   1.263
 4022SOL    HW229209   2.862   3.393   1.355
 4023SOL     OW29210   4.158   4.459   6.811
 4023SOL    HW129211   4.101   4.497   6.878
 4023SOL    HW229212   4.241   4.444   6.856
 4024SOL     OW29213   4.808   4.380   7.289
 4024SOL    HW129214   4.847   4.348   7.370
 4024SOL    HW229215   4.856   4.461   7.269
 4025SOL     OW29216   5.123   5.476   5.730
 4025SOL    HW129217   5.050   5.461   5.671
 4025SOL    HW229218   5.200   5.478   5.673
 4026SOL     OW29219   0.150   2.881   1.795
 4026SOL    HW129220   0.134   2.878   1.889
 4026SOL    HW229221   0.227   2.826   1.781
 4027SOL     OW29222   5.156   0.310   5.593
 4027SOL    HW129223   5.095   0.254   5.641
 4027SOL    HW229224   5.136   0.295   5.501
 4028SOL     OW29225   4.202   1.288   6.591
 4028SOL    HW129226   4.208   1.377   6.556
 4028SOL    HW229227   4.195   1.232   6.514
 4029SOL     OW29228   5.239   1.869   5.305
 4029SOL    HW129229   5.285   1.943   5.344
 4029SOL    HW229230   5.289   1.792   5.334
 4030SOL     OW29231   1.638   3.317   0.989
 4030SOL    HW129232   1.731   3.318   1.009
 4030SOL    HW229233   1.625   3.235   0.941
 4031SOL     OW29234   4.630   1.764   1.616
 4031SOL    HW129235   4.572   1.817   1.561
 4031SOL    HW229236   4.697   1.731   1.556
 4032SOL     OW29237   3.316   4.729   0.817
 4032SOL    HW129238   3.300   4.728   0.911
 4032SOL    HW229239   3.360   4.645   0.799
 4033SOL     OW29240   1.672   6.390   5.950
 4033SOL    HW129241   1.743   6.348   5.902
 4033SOL    HW229242   1.661   6.337   6.029
 4034SOL     OW29243   2.081   3.632   1.026
 4034SOL    HW129244   2.070   3.725   1.004
 4034SOL    HW229245   2.033   3.621   1.107
 4035SOL     OW29246   6.008   3.881   6.852
 4035SOL    HW129247   6.033   3.838   6.934
 4035SOL    HW229248   6.005   3.974   6.874
 4036SOL     OW29249   1.023   0.398   2.101
 4036SOL    HW129250   1.058   0.432   2.183
 4036SOL    HW229251   1.071   0.444   2.033
 4037SOL     OW29252   2.667   3.412   7.227
 4037SOL    HW129253   2.597   3.352   7.253
 4037SOL    HW229254   2.630   3.461   7.153
 4038SOL     OW29255   1.811   5.918   6.342
 4038SOL    HW129256   1.772   5.875   6.418
 4038SOL    HW229257   1.737   5.950   6.291
 4039SOL     OW29258   2.818   0.626   0.730
 4039SOL    HW129259   2.874   0.703   0.743
 4039SOL    HW229260   2.864   0.574   0.664
 4040SOL     OW29261   1.344   5.266   6.737
 4040SOL    HW129262   1.309   5.346   6.699
 4040SOL    HW229263   1.357   5.207   6.663
 4041SOL     OW29264   4.670   5.381   6.146
 4041SOL    HW129265   4.673   5.466   6.189
 4041SOL    HW229266   4.742   5.331   6.186
 4042SOL     OW29267   6.260   0.792   0.666
 4042SOL    HW129268   6.245   0.707   0.625
 4042SOL    HW229269   6.290   0.849   0.595
 4043SOL     OW29270   2.854   5.716   5.729
 4043SOL    HW129271   2.808   5.784   5.680
 4043SOL    HW229272   2.918   5.763   5.783
 4044SOL     OW29273   0.174   0.330   0.709
 4044SOL    HW129274   0.149   0.330   0.801
 4044SOL    HW229275   0.169   0.238   0.683
 4045SOL     OW29276   1.743   3.218   0.130
 4045SOL    HW129277   1.746   3.305   0.171
 4045SOL    HW229278   1.656   3.214   0.090
 4046SOL     OW29279   6.461   5.440   6.707
 4046SOL    HW129280   6.412   5.501   6.651
 4046SOL    HW229281   6.440   5.468   6.797
 4047SOL     OW29282   1.330   1.494   1.304
 4047SOL    HW129283   1.269   1.465   1.371
 4047SOL    HW229284   1.360   1.414   1.262
 4048SOL     OW29285   2.835   2.175   6.026
 4048SOL    HW129286   2.905   2.144   6.085
 4048SOL    HW229287   2.864   2.149   5.939
 4049SOL     OW29288   1.447   3.229   6.575
 4049SOL    HW129289   1.421   3.309   6.529
 4049SOL    HW229290   1.496   3.260   6.651
 4050SOL     OW29291   1.336   4.617   1.741
 4050SOL    HW129292   1.426   4.605   1.710
 4050SOL    HW229293   1.304   4.529   1.757
 4051SOL     OW29294   2.859   4.927   7.648
 4051SOL    HW129295   2.769   4.958   7.655
 4051SOL    HW229296   2.855   4.836   7.677
 4052SOL     OW29297   4.782   4.408   1.657
 4052SOL    HW129298   4.792   4.503   1.647
 4052SOL    HW229299   4.861   4.371   1.616
 4053SOL     OW29300   0.613   0.967   7.357
 4053SOL    HW129301   0.618   0.872   7.353
 4053SOL    HW229302   0.571   0.992   7.275
 4054SOL     OW29303   4.917   0.787   7.730
 4054SOL    HW129304   4.836   0.740   7.710
 4054SOL    HW229305   4.963   0.731   7.793
 4055SOL     OW29306   1.114   1.256   6.246
 4055SOL    HW129307   1.161   1.180   6.212
 4055SOL    HW229308   1.124   1.249   6.341
 4056SOL     OW29309   3.536   6.212   1.096
 4056SOL    HW129310   3.627   6.230   1.073
 4056SOL    HW229311   3.505   6.294   1.134
 4057SOL     OW29312   3.049   5.196   5.683
 4057SOL    HW129313   3.041   5.246   5.764
 4057SOL    HW229314   3.118   5.132   5.700
 4058SOL     OW29315   2.935   2.539   7.735
 4058SOL    HW129316   3.027   2.516   7.733
 4058SOL    HW229317   2.918   2.583   7.652
 4059SOL     OW29318   5.653   3.429   6.195
 4059SOL    HW129319   5.652   3.484   6.273
 4059SOL    HW229320   5.738   3.448   6.154
 4060SOL     OW29321   1.579   4.026   2.011
 4060SOL    HW129322   1.668   4.005   2.040
 4060SOL    HW229323   1.562   4.112   2.049
 4061SOL     OW29324   5.395   0.971   6.767
 4061SOL    HW129325   5.488   0.959   6.788
 4061SOL    HW229326   5.349   0.925   6.838
 4062SOL     OW29327   5.995   5.856   2.312
 4062SOL    HW129328   5.944   5.898   2.243
 4062SOL    HW229329   5.946   5.776   2.333
 4063SOL     OW29330   4.454   1.863   6.177
 4063SOL    HW129331   4.489   1.781   6.211
 4063SOL    HW229332   4.436   1.845   6.085
 4064SOL     OW29333   2.649   0.329   1.090
 4064SOL    HW129334   2.625   0.402   1.034
 4064SOL    HW229335   2.580   0.326   1.157
 4065SOL     OW29336   1.696   5.989   5.905
 4065SOL    HW129337   1.648   6.030   5.833
 4065SOL    HW229338   1.767   5.941   5.862
 4066SOL     OW29339   4.591   4.402   0.831
 4066SOL    HW129340   4.522   4.381   0.768
 4066SOL    HW229341   4.605   4.496   0.821
 4067SOL     OW29342   6.015   4.803   6.284
 4067SOL    HW129343   5.970   4.746   6.222
 4067SOL    HW229344   6.020   4.888   6.238
 4068SOL     OW29345   1.014   0.845   6.253
 4068SOL    HW129346   0.967   0.768   6.220
 4068SOL    HW229347   1.102   0.837   6.216
 4069SOL     OW29348   4.969   2.931   7.300
 4069SOL    HW129349   4.926   2.904   7.219
 4069SOL    HW229350   5.024   2.857   7.325
 4070SOL     OW29351   3.050   1.353   0.213
 4070SOL    HW129352   2.983   1.368   0.146
 4070SOL    HW229353   3.133   1.360   0.165
 4071SOL     OW29354   4.544   2.156   0.336
 4071SOL    HW129355   4.639   2.159   0.324
 4071SOL    HW229356   4.531   2.088   0.402
 4072SOL     OW29357   0.401   1.030   0.706
 4072SOL    HW129358   0.406   0.948   0.755
 4072SOL    HW229359   0.312   1.060   0.720
 4073SOL     OW29360   6.252   2.207   7.288
 4073SOL    HW129361   6.305   2.236   7.214
 4073SOL    HW229362   6.162   2.218   7.258
 4074SOL     OW29363   4.070   1.677   7.488
 4074SOL    HW129364   4.054   1.602   7.545
 4074SOL    HW229365   4.119   1.738   7.542
 4075SOL     OW29366   1.952   4.745   7.735
 4075SOL    HW129367   1.963   4.827   7.686
 4075SOL    HW229368   1.893   4.693   7.681
 4076SOL     OW29369   0.529   4.484   2.631
 4076SOL    HW129370   0.585   4.561   2.624
 4076SOL    HW229371   0.443   4.519   2.653
 4077SOL     OW29372   1.279   0.316   0.375
 4077SOL    HW129373   1.275   0.292   0.467
 4077SOL    HW229374   1.250   0.237   0.329
 4078SOL     OW29375   0.805   5.571   5.446
 4078SOL    HW129376   0.821   5.477   5.452
 4078SOL    HW229377   0.841   5.606   5.528
 4079SOL     OW29378   5.139   5.341   1.876
 4079SOL    HW129379   5.062   5.340   1.932
 4079SOL    HW229380   5.198   5.276   1.914
 4080SOL     OW29381   1.645   2.001   7.006
 4080SOL    HW129382   1.596   2.048   6.939
 4080SOL    HW229383   1.590   2.004   7.083
 4081SOL     OW29384   3.310   2.325   7.175
 4081SOL    HW129385   3.256   2.282   7.109
 4081SOL    HW229386   3.249   2.376   7.228
 4082SOL     OW29387   5.493   2.297   6.840
 4082SOL    HW129388   5.455   2.219   6.881
 4082SOL    HW229389   5.583   2.272   6.820
 4083SOL     OW29390   0.036   3.379   7.208
 4083SOL    HW129391  -0.025   3.444   7.241
 4083SOL    HW229392   0.085   3.349   7.284
 4084SOL     OW29393   3.068   5.800   0.012
 4084SOL    HW129394   3.010   5.851  -0.043
 4084SOL    HW229395   3.097   5.860   0.081
 4085SOL     OW29396   3.791   0.095   7.058
 4085SOL    HW129397   3.836   0.034   7.000
 4085SOL    HW229398   3.792   0.179   7.011
 4086SOL     OW29399   6.440   5.311   0.052
 4086SOL    HW129400   6.442   5.390   0.106
 4086SOL    HW229401   6.356   5.269   0.073
 4087SOL     OW29402   1.084   6.319   1.156
 4087SOL    HW129403   1.100   6.234   1.115
 4087SOL    HW229404   1.154   6.376   1.122
 4088SOL     OW29405   4.206   3.804   6.951
 4088SOL    HW129406   4.249   3.763   6.877
 4088SOL    HW229407   4.277   3.844   7.001
 4089SOL     OW29408   5.395   1.818   1.016
 4089SOL    HW129409   5.376   1.890   0.955
 4089SOL    HW229410   5.312   1.770   1.022
 4090SOL     OW29411   2.524   1.296   7.155
 4090SOL    HW129412   2.525   1.378   7.106
 4090SOL    HW229413   2.504   1.229   7.090
 4091SOL     OW29414   2.319   1.403   6.130
 4091SOL    HW129415   2.375   1.446   6.066
 4091SOL    HW229416   2.327   1.309   6.109
 4092SOL     OW29417   4.596   1.881   7.057
 4092SOL    HW129418   4.585   1.939   6.982
 4092SOL    HW229419   4.594   1.793   7.020
 4093SOL     OW29420   0.432   5.217   5.823
 4093SOL    HW129421   0.433   5.307   5.789
 4093SOL    HW229422   0.339   5.199   5.838
 4094SOL     OW29423   2.858   4.390   1.988
 4094SOL    HW129424   2.907   4.352   2.061
 4094SOL    HW229425   2.769   4.354   1.997
 4095SOL     OW29426   5.394   3.348   0.474
 4095SOL    HW129427   5.308   3.313   0.500
 4095SOL    HW229428   5.436   3.371   0.557
 4096SOL     OW29429   1.311   1.548   0.886
 4096SOL    HW129430   1.295   1.512   0.973
 4096SOL    HW229431   1.271   1.635   0.889
 4097SOL     OW29432   5.372   2.773   7.644
 4097SOL    HW129433   5.411   2.690   7.616
 4097SOL    HW229434   5.336   2.754   7.731
 4098SOL     OW29435   1.310   5.644   6.973
 4098SOL    HW129436   1.379   5.583   6.945
 4098SOL    HW229437   1.249   5.590   7.023
 4099SOL     OW29438   2.400   5.697   6.478
 4099SOL    HW129439   2.367   5.787   6.486
 4099SOL    HW229440   2.335   5.644   6.524
 4100SOL     OW29441   0.030   3.438   2.730
 4100SOL    HW129442   0.123   3.437   2.752
 4100SOL    HW229443   0.007   3.345   2.723
 4101SOL     OW29444   0.564   1.984   0.781
 4101SOL    HW129445   0.510   2.020   0.711
 4101SOL    HW229446   0.579   1.893   0.756
 4102SOL     OW29447   6.463   0.768   0.225
 4102SOL    HW129448   6.551   0.800   0.208
 4102SOL    HW229449   6.405   0.830   0.181
 4103SOL     OW29450   3.306   1.326   0.091
 4103SOL    HW129451   3.322   1.419   0.079
 4103SOL    HW229452   3.349   1.284   0.017
 4104SOL     OW29453   0.580   3.435   6.543
 4104SOL    HW129454   0.662   3.421   6.592
 4104SOL    HW229455   0.512   3.400   6.600
 4105SOL     OW29456   0.577   3.988   1.235
 4105SOL    HW129457   0.584   3.956   1.325
 4105SOL    HW229458   0.524   4.067   1.242
 4106SOL     OW29459   4.531   6.452   5.620
 4106SOL    HW129460   4.501   6.398   5.547
 4106SOL    HW229461   4.595   6.397   5.665
 4107SOL     OW29462   0.547   0.765   0.819
 4107SOL    HW129463   0.497   0.720   0.888
 4107SOL    HW229464   0.548   0.703   0.746
 4108SOL     OW29465   5.165   3.790   2.320
 4108SOL    HW129466   5.124   3.853   2.378
 4108SOL    HW229467   5.257   3.790   2.344
 4109SOL     OW29468   5.990   3.468   5.725
 4109SOL    HW129469   6.045   3.407   5.774
 4109SOL    HW229470   6.048   3.542   5.705
 4110SOL     OW29471   6.265   3.616   7.498
 4110SOL    HW129472   6.297   3.656   7.578
 4110SOL    HW229473   6.281   3.522   7.510
 4111SOL     OW29474   0.942   1.600   7.523
 4111SOL    HW129475   0.981   1.535   7.583
 4111SOL    HW229476   0.982   1.581   7.438
 4112SOL     OW29477   3.282   4.046   2.022
 4112SOL    HW129478   3.290   4.121   1.963
 4112SOL    HW229479   3.234   4.081   2.098
 4113SOL     OW29480   4.715   6.058   5.659
 4113SOL    HW129481   4.641   6.023   5.609
 4113SOL    HW229482   4.789   6.055   5.598
 4114SOL     OW29483   4.683   6.343   7.073
 4114SOL    HW129484   4.743   6.297   7.131
 4114SOL    HW229485   4.724   6.428   7.058
 4115SOL     OW29486   2.745   1.818   0.897
 4115SOL    HW129487   2.662   1.842   0.937
 4115SOL    HW229488   2.790   1.901   0.884
 4116SOL     OW29489   0.995   0.329   0.742
 4116SOL    HW129490   1.008   0.372   0.658
 4116SOL    HW229491   0.922   0.376   0.782
 4117SOL     OW29492   2.635   6.059   6.664
 4117SOL    HW129493   2.716   6.008   6.675
 4117SOL    HW229494   2.630   6.077   6.571
 4118SOL     OW29495   4.652   5.323   1.420
 4118SOL    HW129496   4.606   5.388   1.472
 4118SOL    HW229497   4.744   5.331   1.447
 4119SOL     OW29498   6.254   1.885   1.547
 4119SOL    HW129499   6.218   1.910   1.632
 4119SOL    HW229500   6.236   1.960   1.490
 4120SOL     OW29501   0.563   4.312   0.442
 4120SOL    HW129502   0.508   4.235   0.458
 4120SOL    HW229503   0.647   4.276   0.414
 4121SOL     OW29504   2.854   1.726   5.859
 4121SOL    HW129505   2.916   1.686   5.799
 4121SOL    HW229506   2.780   1.666   5.861
 4122SOL     OW29507   5.141   3.103   7.414
 4122SOL    HW129508   5.189   3.108   7.331
 4122SOL    HW229509   5.058   3.061   7.391
 4123SOL     OW29510   4.499   2.164   0.936
 4123SOL    HW129511   4.519   2.232   1.000
 4123SOL    HW229512   4.551   2.186   0.859
 4124SOL     OW29513   1.858   1.696   2.611
 4124SOL    HW129514   1.909   1.644   2.549
 4124SOL    HW229515   1.881   1.787   2.591
 4125SOL     OW29516   6.300   0.357   0.448
 4125SOL    HW129517   6.341   0.417   0.385
 4125SOL    HW229518   6.358   0.281   0.450
 4126SOL     OW29519   5.166   1.879   1.257
 4126SOL    HW129520   5.246   1.930   1.244
 4126SOL    HW229521   5.180   1.835   1.341
 4127SOL     OW29522   5.044   2.383   5.961
 4127SOL    HW129523   5.105   2.424   6.022
 4127SOL    HW229524   4.963   2.435   5.970
 4128SOL     OW29525   6.209   4.820   2.582
 4128SOL    HW129526   6.258   4.835   2.501
 4128SOL    HW229527   6.185   4.727   2.579
 4129SOL     OW29528   5.537   5.327   2.599
 4129SOL    HW129529   5.491   5.290   2.523
 4129SOL    HW229530   5.622   5.284   2.598
 4130SOL     OW29531   0.512   4.639   2.121
 4130SOL    HW129532   0.424   4.608   2.097
 4130SOL    HW229533   0.556   4.651   2.037
 4131SOL     OW29534   0.947   3.379   1.803
 4131SOL    HW129535   0.885   3.324   1.850
 4131SOL    HW229536   0.997   3.422   1.872
 4132SOL     OW29537   2.774   2.058   6.415
 4132SOL    HW129538   2.826   1.978   6.421
 4132SOL    HW229539   2.683   2.027   6.414
 4133SOL     OW29540   5.588   6.221   0.366
 4133SOL    HW129541   5.599   6.172   0.284
 4133SOL    HW229542   5.588   6.313   0.339
 4134SOL     OW29543   4.986   4.895   6.798
 4134SOL    HW129544   5.061   4.838   6.778
 4134SOL    HW229545   4.909   4.841   6.777
 4135SOL     OW29546   3.308   5.151   7.687
 4135SOL    HW129547   3.220   5.147   7.724
 4135SOL    HW229548   3.367   5.136   7.761
 4136SOL     OW29549   5.769   3.585   5.916
 4136SOL    HW129550   5.797   3.674   5.896
 4136SOL    HW229551   5.771   3.540   5.832
 4137SOL     OW29552   1.064   1.342   6.520
 4137SOL    HW129553   1.005   1.398   6.468
 4137SOL    HW229554   1.143   1.395   6.531
 4138SOL     OW29555   5.654   4.777   1.952
 4138SOL    HW129556   5.695   4.720   1.887
 4138SOL    HW229557   5.571   4.733   1.973
 4139SOL     OW29558   5.474   3.438   5.379
 4139SOL    HW129559   5.569   3.444   5.382
 4139SOL    HW229560   5.451   3.375   5.447
 4140SOL     OW29561   3.063   6.044   1.849
 4140SOL    HW129562   3.148   6.003   1.833
 4140SOL    HW229563   3.049   6.034   1.943
 4141SOL     OW29564   0.833   1.640   1.433
 4141SOL    HW129565   0.808   1.549   1.417
 4141SOL    HW229566   0.830   1.649   1.528
 4142SOL     OW29567   5.939   0.408   1.714
 4142SOL    HW129568   5.968   0.323   1.748
 4142SOL    HW229569   5.961   0.406   1.621
 4143SOL     OW29570   3.425   4.689   6.973
 4143SOL    HW129571   3.489   4.749   6.934
 4143SOL    HW229572   3.341   4.716   6.937
 4144SOL     OW29573   0.619   4.723   0.852
 4144SOL    HW129574   0.583   4.646   0.810
 4144SOL    HW229575   0.672   4.765   0.784
 4145SOL     OW29576   3.113   2.410   0.237
 4145SOL    HW129577   3.076   2.491   0.203
 4145SOL    HW229578   3.036   2.357   0.260
 4146SOL     OW29579   2.452   4.937   7.105
 4146SOL    HW129580   2.400   4.978   7.174
 4146SOL    HW229581   2.388   4.912   7.038
 4147SOL     OW29582   5.599   4.677   0.407
 4147SOL    HW129583   5.616   4.663   0.500
 4147SOL    HW229584   5.607   4.771   0.395
 4148SOL     OW29585   1.404   5.046   1.031
 4148SOL    HW129586   1.333   5.107   1.012
 4148SOL    HW229587   1.398   5.030   1.125
 4149SOL     OW29588   3.566   4.480   0.335
 4149SOL    HW129589   3.616   4.505   0.413
 4149SOL    HW229590   3.617   4.513   0.262
 4150SOL     OW29591   6.124   0.694   6.418
 4150SOL    HW129592   6.029   0.691   6.432
 4150SOL    HW229593   6.142   0.622   6.358
 4151SOL     OW29594   1.874   4.454   7.131
 4151SOL    HW129595   1.924   4.375   7.150
 4151SOL    HW229596   1.797   4.423   7.083
 4152SOL     OW29597   6.119   0.851   5.522
 4152SOL    HW129598   6.080   0.924   5.569
 4152SOL    HW229599   6.198   0.887   5.483
 4153SOL     OW29600   1.692   2.581   0.259
 4153SOL    HW129601   1.774   2.628   0.248
 4153SOL    HW229602   1.696   2.545   0.348
 4154SOL     OW29603   4.715   2.035   6.241
 4154SOL    HW129604   4.621   2.052   6.236
 4154SOL    HW229605   4.728   1.956   6.188
 4155SOL     OW29606   3.242   4.327   6.258
 4155SOL    HW129607   3.183   4.299   6.328
 4155SOL    HW229608   3.185   4.345   6.184
 4156SOL     OW29609   4.998   4.741   5.949
 4156SOL    HW129610   5.001   4.826   5.993
 4156SOL    HW229611   5.089   4.715   5.939
 4157SOL     OW29612   1.945   6.366   6.806
 4157SOL    HW129613   1.928   6.447   6.758
 4157SOL    HW229614   1.970   6.394   6.894
 4158SOL     OW29615   1.175   4.047   0.060
 4158SOL    HW129616   1.200   4.136   0.084
 4158SOL    HW229617   1.083   4.040   0.084
 4159SOL     OW29618   5.658   1.126   2.422
 4159SOL    HW129619   5.726   1.062   2.401
 4159SOL    HW229620   5.595   1.118   2.350
 4160SOL     OW29621   2.224   2.418   1.189
 4160SOL    HW129622   2.245   2.326   1.201
 4160SOL    HW229623   2.191   2.424   1.100
 4161SOL     OW29624   1.401   1.010   2.024
 4161SOL    HW129625   1.454   0.949   1.972
 4161SOL    HW229626   1.393   1.088   1.968
 4162SOL     OW29627   2.536   2.965   6.970
 4162SOL    HW129628   2.465   2.900   6.973
 4162SOL    HW229629   2.498   3.044   7.009
 4163SOL     OW29630   4.273   1.400   7.228
 4163SOL    HW129631   4.247   1.488   7.257
 4163SOL    HW229632   4.309   1.413   7.141
 4164SOL     OW29633   3.766   4.295   6.768
 4164SOL    HW129634   3.817   4.373   6.744
 4164SOL    HW229635   3.687   4.330   6.810
 4165SOL     OW29636   5.589   3.568   1.767
 4165SOL    HW129637   5.662   3.510   1.745
 4165SOL    HW229638   5.630   3.645   1.806
 4166SOL     OW29639   4.536   5.080   0.586
 4166SOL    HW129640   4.625   5.112   0.572
 4166SOL    HW229641   4.508   5.046   0.501
 4167SOL     OW29642   6.147   5.287   6.822
 4167SOL    HW129643   6.190   5.364   6.859
 4167SOL    HW229644   6.070   5.274   6.877
 4168SOL     OW29645   0.246   6.057   6.618
 4168SOL    HW129646   0.336   6.081   6.597
 4168SOL    HW229647   0.229   5.979   6.566
 4169SOL     OW29648   1.409   2.037   1.188
 4169SOL    HW129649   1.433   2.125   1.161
 4169SOL    HW229650   1.314   2.041   1.201
 4170SOL     OW29651   0.127   1.493   7.227
 4170SOL    HW129652   0.095   1.527   7.310
 4170SOL    HW229653   0.051   1.447   7.189
 4171SOL     OW29654   6.424   1.996   0.541
 4171SOL    HW129655   6.402   2.089   0.537
 4171SOL    HW229656   6.499   1.986   0.483
 4172SOL     OW29657   2.202   6.076   6.229
 4172SOL    HW129658   2.144   6.128   6.287
 4172SOL    HW229659   2.142   6.023   6.177
 4173SOL     OW29660   5.904   4.010   2.216
 4173SOL    HW129661   5.986   3.976   2.252
 4173SOL    HW229662   5.925   4.099   2.189
 4174SOL     OW29663   6.250   2.292   6.816
 4174SOL    HW129664   6.211   2.288   6.903
 4174SOL    HW229665   6.287   2.205   6.802
 4175SOL     OW29666   4.786   5.144   0.497
 4175SOL    HW129667   4.809   5.156   0.405
 4175SOL    HW229668   4.852   5.084   0.531
 4176SOL     OW29669   4.075   0.735   1.668
 4176SOL    HW129670   3.988   0.710   1.638
 4176SOL    HW229671   4.105   0.659   1.718
 4177SOL     OW29672   2.551   3.928   7.020
 4177SOL    HW129673   2.496   3.880   7.082
 4177SOL    HW229674   2.641   3.906   7.046
 4178SOL     OW29675   1.972   6.232   7.149
 4178SOL    HW129676   1.909   6.258   7.082
 4178SOL    HW229677   2.045   6.192   7.101
 4179SOL     OW29678   3.882   5.479   6.512
 4179SOL    HW129679   3.949   5.443   6.454
 4179SOL    HW229680   3.813   5.414   6.513
 4180SOL     OW29681   3.631   4.195   0.266
 4180SOL    HW129682   3.581   4.277   0.258
 4180SOL    HW229683   3.720   4.224   0.287
 4181SOL     OW29684   0.528   5.306   6.224
 4181SOL    HW129685   0.563   5.232   6.274
 4181SOL    HW229686   0.433   5.293   6.225
 4182SOL     OW29687   0.715   0.323   0.505
 4182SOL    HW129688   0.734   0.337   0.598
 4182SOL    HW229689   0.714   0.227   0.496
 4183SOL     OW29690   5.312   3.854   1.717
 4183SOL    HW129691   5.255   3.822   1.786
 4183SOL    HW229692   5.311   3.784   1.651
 4184SOL     OW29693   0.871   1.870   0.018
 4184SOL    HW129694   0.826   1.856  -0.065
 4184SOL    HW229695   0.883   1.782   0.054
 4185SOL     OW29696   2.340   0.464   6.171
 4185SOL    HW129697   2.270   0.528   6.175
 4185SOL    HW229698   2.306   0.393   6.116
 4186SOL     OW29699   2.099   0.983   5.235
 4186SOL    HW129700   2.027   0.964   5.295
 4186SOL    HW229701   2.152   0.902   5.234
 4187SOL     OW29702   5.800   2.172   1.999
 4187SOL    HW129703   5.793   2.242   2.065
 4187SOL    HW229704   5.738   2.106   2.028
 4188SOL     OW29705   3.098   3.303   2.191
 4188SOL    HW129706   3.174   3.247   2.176
 4188SOL    HW229707   3.134   3.388   2.214
 4189SOL     OW29708   5.508   4.737   2.316
 4189SOL    HW129709   5.569   4.714   2.386
 4189SOL    HW229710   5.491   4.830   2.327
 4190SOL     OW29711   3.155   4.542   0.083
 4190SOL    HW129712   3.214   4.493   0.140
 4190SOL    HW229713   3.082   4.567   0.139
 4191SOL     OW29714   2.305   4.605   1.194
 4191SOL    HW129715   2.210   4.595   1.195
 4191SOL    HW229716   2.327   4.608   1.101
 4192SOL     OW29717   4.599   4.844   7.429
 4192SOL    HW129718   4.607   4.874   7.519
 4192SOL    HW229719   4.616   4.921   7.375
 4193SOL     OW29720   1.683   5.283   7.071
 4193SOL    HW129721   1.726   5.199   7.083
 4193SOL    HW229722   1.723   5.321   6.993
 4194SOL     OW29723   2.420   4.507   0.359
 4194SOL    HW129724   2.447   4.472   0.274
 4194SOL    HW229725   2.336   4.465   0.376
 4195SOL     OW29726   4.571   0.922   0.206
 4195SOL    HW129727   4.568   0.829   0.184
 4195SOL    HW229728   4.648   0.955   0.159
 4196SOL     OW29729   4.151   4.377   1.271
 4196SOL    HW129730   4.116   4.465   1.274
 4196SOL    HW229731   4.232   4.385   1.220
 4197SOL     OW29732   3.220   3.369   6.402
 4197SOL    HW129733   3.288   3.372   6.469
 4197SOL    HW229734   3.161   3.300   6.431
 4198SOL     OW29735   2.846   2.813   6.060
 4198SOL    HW129736   2.759   2.828   6.023
 4198SOL    HW229737   2.904   2.868   6.008
 4199SOL     OW29738   2.744   5.758   1.727
 4199SOL    HW129739   2.836   5.785   1.729
 4199SOL    HW229740   2.738   5.689   1.794
 4200SOL     OW29741   0.093   3.325   1.561
 4200SOL    HW129742   0.074   3.244   1.609
 4200SOL    HW229743   0.042   3.392   1.606
 4201SOL     OW29744   2.914   6.192   0.135
 4201SOL    HW129745   2.992   6.246   0.148
 4201SOL    HW229746   2.864   6.202   0.215
 4202SOL     OW29747   2.559   3.541   7.007
 4202SOL    HW129748   2.587   3.629   6.980
 4202SOL    HW229749   2.465   3.539   6.989
 4203SOL     OW29750   0.916   0.054   0.808
 4203SOL    HW129751   0.972   0.127   0.781
 4203SOL    HW229752   0.975  -0.020   0.818
 4204SOL     OW29753   0.096   0.341   6.724
 4204SOL    HW129754   0.141   0.373   6.645
 4204SOL    HW229755   0.011   0.310   6.693
 4205SOL     OW29756   3.382   4.477   2.068
 4205SOL    HW129757   3.292   4.486   2.035
 4205SOL    HW229758   3.434   4.534   2.011
 4206SOL     OW29759   0.555   6.210   0.019
 4206SOL    HW129760   0.475   6.249  -0.017
 4206SOL    HW229761   0.617   6.283   0.024
 4207SOL     OW29762   4.960   0.077   7.697
 4207SOL    HW129763   5.015   0.038   7.629
 4207SOL    HW229764   4.889   0.014   7.709
 4208SOL     OW29765   2.906   5.811   1.263
 4208SOL    HW129766   2.815   5.838   1.269
 4208SOL    HW229767   2.922   5.763   1.345
 4209SOL     OW29768   6.190   4.082   7.651
 4209SOL    HW129769   6.238   4.068   7.569
 4209SOL    HW229770   6.171   3.994   7.683
 4210SOL     OW29771   0.448   5.306   2.402
 4210SOL    HW129772   0.387   5.302   2.329
 4210SOL    HW229773   0.434   5.393   2.440
 4211SOL     OW29774   2.418   4.971   2.742
 4211SOL    HW129775   2.331   4.932   2.743
 4211SOL    HW229776   2.405   5.059   2.707
 4212SOL     OW29777   5.743   3.107   0.690
 4212SOL    HW129778   5.704   3.137   0.608
 4212SOL    HW229779   5.807   3.041   0.663
 4213SOL     OW29780   0.154   1.030   7.503
 4213SOL    HW129781   0.186   0.987   7.583
 4213SOL    HW229782   0.170   1.123   7.519
 4214SOL     OW29783   1.161   1.392   1.508
 4214SOL    HW129784   1.222   1.374   1.580
 4214SOL    HW229785   1.078   1.412   1.551
 4215SOL     OW29786   3.150   6.339   0.245
 4215SOL    HW129787   3.137   6.354   0.339
 4215SOL    HW229788   3.208   6.262   0.241
 4216SOL     OW29789   1.067   5.526   6.804
 4216SOL    HW129790   0.980   5.489   6.796
 4216SOL    HW229791   1.081   5.535   6.898
 4217SOL     OW29792   6.117   3.801   0.292
 4217SOL    HW129793   6.102   3.824   0.200
 4217SOL    HW229794   6.165   3.876   0.328
 4218SOL     OW29795   4.344   3.521   0.789
 4218SOL    HW129796   4.380   3.521   0.878
 4218SOL    HW229797   4.262   3.570   0.797
 4219SOL     OW29798   4.940   3.542   1.161
 4219SOL    HW129799   4.877   3.488   1.208
 4219SOL    HW229800   5.005   3.566   1.227
 4220SOL     OW29801   3.705   2.644   6.283
 4220SOL    HW129802   3.676   2.670   6.370
 4220SOL    HW229803   3.631   2.665   6.225
 4221SOL     OW29804   5.395   5.285   6.579
 4221SOL    HW129805   5.416   5.193   6.594
 4221SOL    HW229806   5.471   5.333   6.611
 4222SOL     OW29807   1.914   3.009   1.502
 4222SOL    HW129808   1.900   2.955   1.425
 4222SOL    HW229809   1.828   3.047   1.521
 4223SOL     OW29810   5.418   5.000   6.849
 4223SOL    HW129811   5.339   5.044   6.819
 4223SOL    HW229812   5.479   5.006   6.776
 4224SOL     OW29813   0.619   4.125   6.951
 4224SOL    HW129814   0.691   4.098   6.893
 4224SOL    HW229815   0.611   4.220   6.936
 4225SOL     OW29816   5.097   0.085   0.264
 4225SOL    HW129817   5.079   0.031   0.187
 4225SOL    HW229818   5.033   0.156   0.260
 4226SOL     OW29819   4.633   6.131   2.396
 4226SOL    HW129820   4.571   6.203   2.410
 4226SOL    HW229821   4.717   6.174   2.377
 4227SOL     OW29822   2.604   3.187   7.384
 4227SOL    HW129823   2.550   3.109   7.389
 4227SOL    HW229824   2.689   3.160   7.420
 4228SOL     OW29825   5.805   1.181   1.061
 4228SOL    HW129826   5.848   1.233   1.129
 4228SOL    HW229827   5.728   1.232   1.036
 4229SOL     OW29828   0.861   3.051   1.756
 4229SOL    HW129829   0.823   3.059   1.844
 4229SOL    HW229830   0.791   3.015   1.702
 4230SOL     OW29831   5.631   0.436   1.744
 4230SOL    HW129832   5.713   0.394   1.771
 4230SOL    HW229833   5.611   0.497   1.816
 4231SOL     OW29834   5.048   3.807   1.473
 4231SOL    HW129835   5.073   3.887   1.517
 4231SOL    HW229836   5.021   3.748   1.544
 4232SOL     OW29837   4.217   5.455   6.860
 4232SOL    HW129838   4.278   5.495   6.798
 4232SOL    HW229839   4.171   5.530   6.900
 4233SOL     OW29840   0.556   4.765   1.587
 4233SOL    HW129841   0.500   4.742   1.661
 4233SOL    HW229842   0.645   4.745   1.617
 4234SOL     OW29843   3.561   4.442   6.952
 4234SOL    HW129844   3.546   4.400   7.037
 4234SOL    HW229845   3.497   4.513   6.949
 4235SOL     OW29846   1.383   2.330   6.340
 4235SOL    HW129847   1.470   2.311   6.305
 4235SOL    HW229848   1.331   2.252   6.318
 4236SOL     OW29849   4.182   4.881   6.497
 4236SOL    HW129850   4.219   4.935   6.566
 4236SOL    HW229851   4.092   4.912   6.487
 4237SOL     OW29852   5.776   0.532   1.110
 4237SOL    HW129853   5.866   0.547   1.081
 4237SOL    HW229854   5.774   0.563   1.200
 4238SOL     OW29855   3.379   5.634   6.467
 4238SOL    HW129856   3.436   5.656   6.541
 4238SOL    HW229857   3.299   5.683   6.483
 4239SOL     OW29858   6.110   2.740   1.967
 4239SOL    HW129859   6.029   2.784   1.995
 4239SOL    HW229860   6.179   2.804   1.985
 4240SOL     OW29861   5.776   4.023   0.115
 4240SOL    HW129862   5.808   4.112   0.128
 4240SOL    HW229863   5.739   4.023   0.027
 4241SOL     OW29864   5.054   4.372   0.505
 4241SOL    HW129865   4.976   4.424   0.486
 4241SOL    HW229866   5.020   4.292   0.547
 4242SOL     OW29867   1.511   1.842   5.378
 4242SOL    HW129868   1.586   1.896   5.355
 4242SOL    HW229869   1.523   1.823   5.471
 4243SOL     OW29870   0.596   1.728   0.727
 4243SOL    HW129871   0.653   1.690   0.794
 4243SOL    HW229872   0.584   1.658   0.663
 4244SOL     OW29873   4.655   5.345   6.904
 4244SOL    HW129874   4.738   5.297   6.909
 4244SOL    HW229875   4.675   5.423   6.853
 4245SOL     OW29876   0.260   1.002   1.172
 4245SOL    HW129877   0.306   1.067   1.119
 4245SOL    HW229878   0.307   0.999   1.255
 4246SOL     OW29879   3.828   1.701   0.537
 4246SOL    HW129880   3.880   1.722   0.614
 4246SOL    HW229881   3.845   1.773   0.475
 4247SOL     OW29882   0.309   2.946   2.195
 4247SOL    HW129883   0.237   2.921   2.137
 4247SOL    HW229884   0.374   2.877   2.184
 4248SOL     OW29885   4.229   5.748   1.050
 4248SOL    HW129886   4.323   5.746   1.032
 4248SOL    HW229887   4.213   5.668   1.101
 4249SOL     OW29888   4.976   1.699   7.661
 4249SOL    HW129889   5.033   1.624   7.645
 4249SOL    HW229890   5.005   1.734   7.746
 4250SOL     OW29891   4.329   2.166   1.495
 4250SOL    HW129892   4.392   2.235   1.516
 4250SOL    HW229893   4.296   2.189   1.409
 4251SOL     OW29894   2.557   2.495   6.871
 4251SOL    HW129895   2.505   2.544   6.807
 4251SOL    HW229896   2.593   2.562   6.929
 4252SOL     OW29897   1.987   5.865   0.560
 4252SOL    HW129898   1.990   5.954   0.525
 4252SOL    HW229899   1.896   5.851   0.584
 4253SOL     OW29900   1.672   3.046   0.947
 4253SOL    HW129901   1.739   3.061   0.881
 4253SOL    HW229902   1.668   2.950   0.955
 4254SOL     OW29903   3.323   5.441   1.859
 4254SOL    HW129904   3.393   5.379   1.880
 4254SOL    HW229905   3.281   5.405   1.781
 4255SOL     OW29906   4.057   2.421   0.467
 4255SOL    HW129907   4.120   2.462   0.526
 4255SOL    HW229908   4.012   2.495   0.426
 4256SOL     OW29909   2.674   1.156   7.633
 4256SOL    HW129910   2.644   1.209   7.559
 4256SOL    HW229911   2.761   1.189   7.653
 4257SOL     OW29912   6.442   5.877   0.128
 4257SOL    HW129913   6.370   5.853   0.069
 4257SOL    HW229914   6.502   5.926   0.073
 4258SOL     OW29915   3.556   5.012   1.374
 4258SOL    HW129916   3.533   5.018   1.467
 4258SOL    HW229917   3.648   5.037   1.371
 4259SOL     OW29918   5.414   1.567   1.949
 4259SOL    HW129919   5.420   1.579   1.854
 4259SOL    HW229920   5.320   1.569   1.967
 4260SOL     OW29921   2.280   0.770   5.255
 4260SOL    HW129922   2.226   0.717   5.313
 4260SOL    HW229923   2.370   0.741   5.273
 4261SOL     OW29924   0.940   1.472   1.043
 4261SOL    HW129925   0.859   1.422   1.031
 4261SOL    HW229926   1.000   1.411   1.086
 4262SOL     OW29927   5.547   2.861   7.062
 4262SOL    HW129928   5.476   2.829   7.117
 4262SOL    HW229929   5.594   2.783   7.035
 4263SOL     OW29930   3.578   1.610   0.473
 4263SOL    HW129931   3.550   1.558   0.548
 4263SOL    HW229932   3.666   1.640   0.495
 4264SOL     OW29933   0.460   0.122   5.989
 4264SOL    HW129934   0.513   0.198   6.014
 4264SOL    HW229935   0.482   0.108   5.896
 4265SOL     OW29936   4.458   6.225   1.229
 4265SOL    HW129937   4.393   6.218   1.298
 4265SOL    HW229938   4.474   6.319   1.221
 4266SOL     OW29939   2.177   3.841   1.705
 4266SOL    HW129940   2.104   3.824   1.765
 4266SOL    HW229941   2.150   3.919   1.657
 4267SOL     OW29942   3.415   1.894   1.506
 4267SOL    HW129943   3.511   1.890   1.501
 4267SOL    HW229944   3.392   1.833   1.576
 4268SOL     OW29945   4.006   5.043   1.303
 4268SOL    HW129946   3.959   5.115   1.344
 4268SOL    HW229947   3.956   5.023   1.224
 4269SOL     OW29948   0.516   5.709   5.903
 4269SOL    HW129949   0.529   5.720   5.809
 4269SOL    HW229950   0.571   5.634   5.926
 4270SOL     OW29951   4.060   0.559   0.904
 4270SOL    HW129952   4.097   0.487   0.957
 4270SOL    HW229953   4.128   0.579   0.841
 4271SOL     OW29954   4.754   3.554   6.834
 4271SOL    HW129955   4.670   3.519   6.865
 4271SOL    HW229956   4.781   3.616   6.901
 4272SOL     OW29957   0.226   4.913   7.144
 4272SOL    HW129958   0.282   4.936   7.218
 4272SOL    HW229959   0.286   4.875   7.079
 4273SOL     OW29960   6.457   1.076   6.768
 4273SOL    HW129961   6.459   0.983   6.746
 4273SOL    HW229962   6.451   1.120   6.684
 4274SOL     OW29963   0.604   2.640   1.260
 4274SOL    HW129964   0.648   2.592   1.190
 4274SOL    HW229965   0.649   2.724   1.263
 4275SOL     OW29966   0.320   2.921   6.788
 4275SOL    HW129967   0.284   2.847   6.837
 4275SOL    HW229968   0.355   2.979   6.855
 4276SOL     OW29969   1.080   2.420   6.540
 4276SOL    HW129970   1.076   2.460   6.453
 4276SOL    HW229971   0.989   2.415   6.569
 4277SOL     OW29972   1.742   6.223   6.501
 4277SOL    HW129973   1.718   6.212   6.593
 4277SOL    HW229974   1.663   6.199   6.453
 4278SOL     OW29975   5.303   0.811   6.963
 4278SOL    HW129976   5.349   0.746   7.017
 4278SOL    HW229977   5.244   0.759   6.908
 4279SOL     OW29978   5.194   2.018   6.556
 4279SOL    HW129979   5.240   2.100   6.537
 4279SOL    HW229980   5.136   2.040   6.629
 4280SOL     OW29981   6.308   3.637   7.218
 4280SOL    HW129982   6.222   3.629   7.259
 4280SOL    HW229983   6.369   3.642   7.291
 4281SOL     OW29984   0.702   2.017   0.186
 4281SOL    HW129985   0.634   2.046   0.126
 4281SOL    HW229986   0.753   1.953   0.137
 4282SOL     OW29987   3.617   2.430   1.771
 4282SOL    HW129988   3.642   2.444   1.862
 4282SOL    HW229989   3.686   2.473   1.720
 4283SOL     OW29990   1.044   1.035   5.379
 4283SOL    HW129991   1.043   1.123   5.416
 4283SOL    HW229992   0.968   1.033   5.321
 4284SOL     OW29993   4.753   5.169   2.308
 4284SOL    HW129994   4.700   5.130   2.239
 4284SOL    HW229995   4.809   5.232   2.262
 4285SOL     OW29996   3.735   0.544   2.787
 4285SOL    HW129997   3.707   0.464   2.743
 4285SOL    HW229998   3.687   0.544   2.869
 4286SOL     OW29999   3.094   1.298   1.682
 4286SOL    HW130000   3.006   1.320   1.650
 4286SOL    HW230001   3.146   1.376   1.662
 4287SOL     OW30002   4.485   0.537   7.256
 4287SOL    HW130003   4.562   0.511   7.206
 4287SOL    HW230004   4.428   0.580   7.192
 4288SOL     OW30005   1.595   1.724   0.667
 4288SOL    HW130006   1.582   1.630   0.678
 4288SOL    HW230007   1.561   1.763   0.748
 4289SOL     OW30008   3.914   3.062   6.409
 4289SOL    HW130009   3.829   3.106   6.410
 4289SOL    HW230010   3.931   3.046   6.316
 4290SOL     OW30011   5.890   2.378   0.299
 4290SOL    HW130012   5.942   2.317   0.352
 4290SOL    HW230013   5.806   2.385   0.345
 4291SOL     OW30014   3.068   2.249   5.495
 4291SOL    HW130015   3.035   2.237   5.584
 4291SOL    HW230016   3.128   2.176   5.482
 4292SOL     OW30017   4.717   2.157   2.695
 4292SOL    HW130018   4.714   2.101   2.618
 4292SOL    HW230019   4.761   2.237   2.665
 4293SOL     OW30020   0.652   5.051   1.373
 4293SOL    HW130021   0.587   5.083   1.311
 4293SOL    HW230022   0.621   5.081   1.458
 4294SOL     OW30023   1.913   3.314   1.080
 4294SOL    HW130024   1.979   3.297   1.013
 4294SOL    HW230025   1.893   3.228   1.118
 4295SOL     OW30026   5.254   2.644   5.463
 4295SOL    HW130027   5.168   2.657   5.424
 4295SOL    HW230028   5.273   2.726   5.508
 4296SOL     OW30029   4.171   0.368   1.093
 4296SOL    HW130030   4.225   0.414   1.157
 4296SOL    HW230031   4.215   0.284   1.081
 4297SOL     OW30032   3.306   4.238   1.056
 4297SOL    HW130033   3.249   4.298   1.008
 4297SOL    HW230034   3.299   4.155   1.009
 4298SOL     OW30035   5.089   2.654   1.139
 4298SOL    HW130036   5.089   2.567   1.179
 4298SOL    HW230037   5.118   2.712   1.210
 4299SOL     OW30038   0.014   3.929   0.061
 4299SOL    HW130039   0.032   4.023   0.055
 4299SOL    HW230040   0.068   3.899   0.134
 4300SOL     OW30041   2.519   5.499   5.996
 4300SOL    HW130042   2.454   5.562   6.026
 4300SOL    HW230043   2.475   5.414   6.003
 4301SOL     OW30044   0.550   4.836   0.433
 4301SOL    HW130045   0.526   4.743   0.429
 4301SOL    HW230046   0.496   4.877   0.365
 4302SOL     OW30047   1.864   4.319   7.509
 4302SOL    HW130048   1.779   4.292   7.475
 4302SOL    HW230049   1.871   4.275   7.594
 4303SOL     OW30050   5.399   5.655   0.718
 4303SOL    HW130051   5.462   5.585   0.706
 4303SOL    HW230052   5.425   5.697   0.800
 4304SOL     OW30053   1.974   1.127   7.445
 4304SOL    HW130054   1.927   1.108   7.364
 4304SOL    HW230055   2.064   1.144   7.418
 4305SOL     OW30056   0.771   3.589   6.177
 4305SOL    HW130057   0.858   3.605   6.213
 4305SOL    HW230058   0.783   3.592   6.082
 4306SOL     OW30059   1.905   4.816   5.994
 4306SOL    HW130060   1.848   4.745   5.964
 4306SOL    HW230061   1.947   4.781   6.072
 4307SOL     OW30062   4.308   5.619   6.306
 4307SOL    HW130063   4.326   5.682   6.236
 4307SOL    HW230064   4.307   5.534   6.262
 4308SOL     OW30065   4.323   4.983   0.038
 4308SOL    HW130066   4.231   4.970   0.057
 4308SOL    HW230067   4.359   4.895   0.028
 4309SOL     OW30068   4.193   0.781   5.888
 4309SOL    HW130069   4.114   0.834   5.877
 4309SOL    HW230070   4.198   0.765   5.982
 4310SOL     OW30071   4.510   4.971   6.803
 4310SOL    HW130072   4.439   4.954   6.864
 4310SOL    HW230073   4.467   5.000   6.723
 4311SOL     OW30074   5.317   5.360   7.458
 4311SOL    HW130075   5.291   5.440   7.412
 4311SOL    HW230076   5.235   5.323   7.489
 4312SOL     OW30077   5.986   2.112   7.209
 4312SOL    HW130078   5.934   2.033   7.198
 4312SOL    HW230079   5.954   2.171   7.140
 4313SOL     OW30080   2.904   0.140   5.800
 4313SOL    HW130081   2.981   0.110   5.847
 4313SOL    HW230082   2.845   0.065   5.800
 4314SOL     OW30083   0.706   1.122   1.260
 4314SOL    HW130084   0.770   1.053   1.245
 4314SOL    HW230085   0.623   1.086   1.228
 4315SOL     OW30086   4.635   2.416   6.567
 4315SOL    HW130087   4.678   2.467   6.499
 4315SOL    HW230088   4.643   2.470   6.646
 4316SOL     OW30089   1.427   3.492   0.289
 4316SOL    HW130090   1.348   3.441   0.306
 4316SOL    HW230091   1.406   3.580   0.322
 4317SOL     OW30092   0.794   0.370   7.621
 4317SOL    HW130093   0.764   0.281   7.637
 4317SOL    HW230094   0.785   0.382   7.526
 4318SOL     OW30095   4.643   3.098   5.373
 4318SOL    HW130096   4.658   3.182   5.416
 4318SOL    HW230097   4.722   3.047   5.390
 4319SOL     OW30098   4.637   3.363   0.505
 4319SOL    HW130099   4.646   3.445   0.554
 4319SOL    HW230100   4.618   3.390   0.416
 4320SOL     OW30101   5.872   4.094   7.109
 4320SOL    HW130102   5.935   4.057   7.171
 4320SOL    HW230103   5.926   4.136   7.042
 4321SOL     OW30104   3.377   2.188   7.704
 4321SOL    HW130105   3.432   2.264   7.722
 4321SOL    HW230106   3.438   2.118   7.681
 4322SOL     OW30107   0.858   1.312   1.656
 4322SOL    HW130108   0.912   1.388   1.679
 4322SOL    HW230109   0.779   1.322   1.709
 4323SOL     OW30110   4.039   4.199   6.782
 4323SOL    HW130111   4.049   4.283   6.826
 4323SOL    HW230112   4.128   4.169   6.767
 4324SOL     OW30113   6.445   2.258   0.096
 4324SOL    HW130114   6.353   2.252   0.071
 4324SOL    HW230115   6.479   2.332   0.045
 4325SOL     OW30116   4.352   6.225   2.388
 4325SOL    HW130117   4.330   6.132   2.382
 4325SOL    HW230118   4.377   6.250   2.299
 4326SOL     OW30119   2.184   2.806   7.672
 4326SOL    HW130120   2.165   2.789   7.580
 4326SOL    HW230121   2.231   2.889   7.671
 4327SOL     OW30122   6.356   6.451   7.193
 4327SOL    HW130123   6.422   6.442   7.124
 4327SOL    HW230124   6.272   6.442   7.148
 4328SOL     OW30125   6.007   2.772   0.228
 4328SOL    HW130126   6.057   2.718   0.289
 4328SOL    HW230127   5.986   2.851   0.277
 4329SOL     OW30128   4.069   5.275   6.996
 4329SOL    HW130129   4.033   5.324   7.070
 4329SOL    HW230130   4.119   5.340   6.946
 4330SOL     OW30131   4.437   1.986   0.618
 4330SOL    HW130132   4.529   2.011   0.615
 4330SOL    HW230133   4.390   2.070   0.623
 4331SOL     OW30134   5.738   3.679   1.173
 4331SOL    HW130135   5.643   3.671   1.165
 4331SOL    HW230136   5.753   3.698   1.265
 4332SOL     OW30137   5.240   4.610   6.451
 4332SOL    HW130138   5.150   4.634   6.474
 4332SOL    HW230139   5.246   4.627   6.357
 4333SOL     OW30140   3.048   1.236   1.332
 4333SOL    HW130141   2.982   1.268   1.394
 4333SOL    HW230142   3.124   1.291   1.347
 4334SOL     OW30143   1.349   1.646   6.125
 4334SOL    HW130144   1.321   1.733   6.151
 4334SOL    HW230145   1.269   1.602   6.096
 4335SOL     OW30146   2.492   1.240   0.503
 4335SOL    HW130147   2.460   1.204   0.586
 4335SOL    HW230148   2.467   1.175   0.437
 4336SOL     OW30149   3.582   4.185   0.807
 4336SOL    HW130150   3.583   4.089   0.804
 4336SOL    HW230151   3.528   4.210   0.732
 4337SOL     OW30152   4.517   1.687   7.404
 4337SOL    HW130153   4.597   1.739   7.413
 4337SOL    HW230154   4.512   1.667   7.311
 4338SOL     OW30155   4.769   4.194   2.815
 4338SOL    HW130156   4.715   4.130   2.862
 4338SOL    HW230157   4.815   4.141   2.749
 4339SOL     OW30158   5.041   3.337   0.219
 4339SOL    HW130159   5.095   3.376   0.151
 4339SOL    HW230160   4.984   3.275   0.173
 4340SOL     OW30161   0.355   1.244   1.011
 4340SOL    HW130162   0.352   1.265   0.917
 4340SOL    HW230163   0.345   1.329   1.054
 4341SOL     OW30164   5.372   4.340   7.126
 4341SOL    HW130165   5.363   4.390   7.207
 4341SOL    HW230166   5.460   4.303   7.130
 4342SOL     OW30167   4.921   1.114   0.246
 4342SOL    HW130168   4.886   1.050   0.184
 4342SOL    HW230169   4.898   1.199   0.208
 4343SOL     OW30170   5.524   1.008   0.944
 4343SOL    HW130171   5.568   0.923   0.938
 4343SOL    HW230172   5.472   1.014   0.864
 4344SOL     OW30173   5.007   3.357   6.889
 4344SOL    HW130174   5.012   3.437   6.941
 4344SOL    HW230175   5.098   3.328   6.880
 4345SOL     OW30176   5.611   4.288   6.543
 4345SOL    HW130177   5.634   4.288   6.636
 4345SOL    HW230178   5.557   4.210   6.532
 4346SOL     OW30179   3.391   6.258   5.985
 4346SOL    HW130180   3.461   6.304   5.939
 4346SOL    HW230181   3.427   6.240   6.072
 4347SOL     OW30182   2.829   5.865   6.755
 4347SOL    HW130183   2.924   5.869   6.762
 4347SOL    HW230184   2.813   5.831   6.667
 4348SOL     OW30185   3.200   3.547   1.060
 4348SOL    HW130186   3.186   3.601   1.137
 4348SOL    HW230187   3.262   3.597   1.006
 4349SOL     OW30188   5.173   4.861   1.641
 4349SOL    HW130189   5.114   4.867   1.567
 4349SOL    HW230190   5.168   4.947   1.684
 4350SOL     OW30191   3.632   0.683   7.291
 4350SOL    HW130192   3.585   0.722   7.216
 4350SOL    HW230193   3.564   0.670   7.357
 4351SOL     OW30194   5.408   6.367   7.123
 4351SOL    HW130195   5.340   6.434   7.114
 4351SOL    HW230196   5.377   6.293   7.071
 4352SOL     OW30197   0.331   4.239   6.261
 4352SOL    HW130198   0.352   4.291   6.184
 4352SOL    HW230199   0.238   4.218   6.251
 4353SOL     OW30200   3.568   4.154   1.926
 4353SOL    HW130201   3.615   4.226   1.967
 4353SOL    HW230202   3.528   4.192   1.847
 4354SOL     OW30203   5.549   0.490   0.159
 4354SOL    HW130204   5.520   0.428   0.226
 4354SOL    HW230205   5.515   0.574   0.188
 4355SOL     OW30206   1.208   5.236   1.028
 4355SOL    HW130207   1.157   5.291   1.087
 4355SOL    HW230208   1.176   5.258   0.940
 4356SOL     OW30209   2.918   2.294   6.395
 4356SOL    HW130210   2.849   2.230   6.414
 4356SOL    HW230211   2.873   2.379   6.398
 4357SOL     OW30212   3.853   0.746   6.703
 4357SOL    HW130213   3.930   0.709   6.748
 4357SOL    HW230214   3.779   0.718   6.756
 4358SOL     OW30215   2.703   0.301   6.631
 4358SOL    HW130216   2.632   0.338   6.682
 4358SOL    HW230217   2.706   0.354   6.551
 4359SOL     OW30218   1.733   2.721   1.940
 4359SOL    HW130219   1.697   2.765   2.017
 4359SOL    HW230220   1.664   2.728   1.874
 4360SOL     OW30221   5.814   0.846   7.257
 4360SOL    HW130222   5.857   0.781   7.202
 4360SOL    HW230223   5.727   0.856   7.220
 4361SOL     OW30224   1.027   0.370   1.433
 4361SOL    HW130225   1.055   0.365   1.524
 4361SOL    HW230226   0.939   0.333   1.432
 4362SOL     OW30227   6.313   0.276   6.934
 4362SOL    HW130228   6.389   0.227   6.905
 4362SOL    HW230229   6.256   0.282   6.858
 4363SOL     OW30230   1.477   2.534   0.627
 4363SOL    HW130231   1.475   2.626   0.650
 4363SOL    HW230232   1.402   2.521   0.570
 4364SOL     OW30233   0.723   5.948   6.770
 4364SOL    HW130234   0.716   6.042   6.755
 4364SOL    HW230235   0.653   5.911   6.716
 4365SOL     OW30236   1.678   2.495   1.267
 4365SOL    HW130237   1.767   2.460   1.254
 4365SOL    HW230238   1.638   2.436   1.330
 4366SOL     OW30239   4.708   1.657   7.660
 4366SOL    HW130240   4.671   1.733   7.705
 4366SOL    HW230241   4.802   1.674   7.657
 4367SOL     OW30242   5.772   3.741   1.887
 4367SOL    HW130243   5.808   3.823   1.921
 4367SOL    HW230244   5.849   3.689   1.863
 4368SOL     OW30245   5.799   5.130   1.722
 4368SOL    HW130246   5.775   5.222   1.729
 4368SOL    HW230247   5.775   5.092   1.807
 4369SOL     OW30248   3.418   5.096   0.228
 4369SOL    HW130249   3.409   5.160   0.299
 4369SOL    HW230250   3.423   5.012   0.273
 4370SOL     OW30251   3.411   2.995   6.741
 4370SOL    HW130252   3.431   2.973   6.650
 4370SOL    HW230253   3.387   2.911   6.781
 4371SOL     OW30254   3.227   2.875   0.991
 4371SOL    HW130255   3.209   2.812   0.922
 4371SOL    HW230256   3.187   2.836   1.070
 4372SOL     OW30257   1.345   2.716   6.996
 4372SOL    HW130258   1.279   2.653   6.967
 4372SOL    HW230259   1.295   2.792   7.026
 4373SOL     OW30260   2.784   0.441   0.050
 4373SOL    HW130261   2.758   0.495   0.125
 4373SOL    HW230262   2.716   0.457  -0.015
 4374SOL     OW30263   2.794   5.673   2.290
 4374SOL    HW130264   2.872   5.644   2.338
 4374SOL    HW230265   2.828   5.707   2.207
 4375SOL     OW30266   2.400   4.696   0.952
 4375SOL    HW130267   2.358   4.777   0.981
 4375SOL    HW230268   2.367   4.683   0.863
 4376SOL     OW30269   0.836   0.704   1.117
 4376SOL    HW130270   0.841   0.775   1.053
 4376SOL    HW230271   0.752   0.662   1.100
 4377SOL     OW30272   4.798   1.469   6.583
 4377SOL    HW130273   4.801   1.564   6.599
 4377SOL    HW230274   4.876   1.434   6.625
 4378SOL     OW30275   4.910   5.660   6.585
 4378SOL    HW130276   5.000   5.687   6.566
 4378SOL    HW230277   4.916   5.564   6.591
 4379SOL     OW30278   4.798   0.751   6.668
 4379SOL    HW130279   4.834   0.737   6.755
 4379SOL    HW230280   4.790   0.847   6.660
 4380SOL     OW30281   2.927   0.855   5.519
 4380SOL    HW130282   3.013   0.865   5.478
 4380SOL    HW230283   2.939   0.782   5.581
 4381SOL     OW30284   4.692   1.968   1.011
 4381SOL    HW130285   4.611   2.013   0.988
 4381SOL    HW230286   4.684   1.949   1.104
 4382SOL     OW30287   2.425   5.321   0.567
 4382SOL    HW130288   2.446   5.406   0.605
 4382SOL    HW230289   2.430   5.335   0.473
 4383SOL     OW30290   2.229   2.696   0.384
 4383SOL    HW130291   2.188   2.738   0.461
 4383SOL    HW230292   2.174   2.723   0.310
 4384SOL     OW30293   4.844   2.453   7.060
 4384SOL    HW130294   4.783   2.495   7.121
 4384SOL    HW230295   4.925   2.445   7.110
 4385SOL     OW30296   1.568   5.391   0.358
 4385SOL    HW130297   1.578   5.324   0.426
 4385SOL    HW230298   1.657   5.411   0.330
 4386SOL     OW30299   5.677   3.308   0.989
 4386SOL    HW130300   5.626   3.253   1.048
 4386SOL    HW230301   5.621   3.382   0.968
 4387SOL     OW30302   0.151   5.600   5.724
 4387SOL    HW130303   0.204   5.664   5.676
 4387SOL    HW230304   0.118   5.540   5.656
 4388SOL     OW30305   5.801   1.435   0.751
 4388SOL    HW130306   5.841   1.384   0.680
 4388SOL    HW230307   5.850   1.517   0.753
 4389SOL     OW30308   1.946   5.721   1.417
 4389SOL    HW130309   2.028   5.730   1.369
 4389SOL    HW230310   1.935   5.804   1.463
 4390SOL     OW30311   2.042   4.232   7.149
 4390SOL    HW130312   2.075   4.148   7.182
 4390SOL    HW230313   2.094   4.249   7.071
 4391SOL     OW30314   6.093   0.623   0.495
 4391SOL    HW130315   6.103   0.593   0.404
 4391SOL    HW230316   6.059   0.548   0.542
 4392SOL     OW30317   1.874   6.216   5.865
 4392SOL    HW130318   1.960   6.189   5.899
 4392SOL    HW230319   1.825   6.134   5.857
 4393SOL     OW30320   0.433   5.278   6.927
 4393SOL    HW130321   0.421   5.372   6.909
 4393SOL    HW230322   0.370   5.235   6.870
 4394SOL     OW30323   5.155   1.379   6.952
 4394SOL    HW130324   5.244   1.360   6.982
 4394SOL    HW230325   5.102   1.375   7.031
 4395SOL     OW30326   3.003   3.201   7.012
 4395SOL    HW130327   2.953   3.264   6.961
 4395SOL    HW230328   2.939   3.133   7.037
 4396SOL     OW30329   3.577   4.013   6.759
 4396SOL    HW130330   3.553   4.053   6.842
 4396SOL    HW230331   3.646   4.070   6.724
 4397SOL     OW30332   3.273   1.123   1.491
 4397SOL    HW130333   3.269   1.215   1.464
 4397SOL    HW230334   3.357   1.114   1.536
 4398SOL     OW30335   2.999   0.304   6.019
 4398SOL    HW130336   2.993   0.368   5.949
 4398SOL    HW230337   3.051   0.232   5.981
 4399SOL     OW30338   0.391   1.346   0.767
 4399SOL    HW130339   0.467   1.400   0.786
 4399SOL    HW230340   0.316   1.403   0.784
 4400SOL     OW30341   0.347   6.200   5.984
 4400SOL    HW130342   0.409   6.193   5.910
 4400SOL    HW230343   0.285   6.267   5.956
 4401SOL     OW30344   4.239   0.137   6.088
 4401SOL    HW130345   4.320   0.093   6.062
 4401SOL    HW230346   4.266   0.224   6.117
 4402SOL     OW30347   6.353   2.050   6.983
 4402SOL    HW130348   6.264   2.014   6.978
 4402SOL    HW230349   6.400   1.989   7.040
 4403SOL     OW30350   6.040   0.025   0.401
 4403SOL    HW130351   6.111  -0.016   0.352
 4403SOL    HW230352   5.995   0.079   0.336
 4404SOL     OW30353   3.081   5.941   6.035
 4404SOL    HW130354   3.059   5.983   5.952
 4404SOL    HW230355   3.167   5.977   6.058
 4405SOL     OW30356   4.646   4.646   7.013
 4405SOL    HW130357   4.641   4.553   7.033
 4405SOL    HW230358   4.568   4.684   7.054
 4406SOL     OW30359   2.725   5.413   6.511
 4406SOL    HW130360   2.820   5.413   6.528
 4406SOL    HW230361   2.718   5.417   6.416
 4407SOL     OW30362   6.328   0.492   7.410
 4407SOL    HW130363   6.371   0.512   7.493
 4407SOL    HW230364   6.380   0.538   7.344
 4408SOL     OW30365   3.664   3.807   0.167
 4408SOL    HW130366   3.577   3.780   0.195
 4408SOL    HW230367   3.720   3.792   0.243
 4409SOL     OW30368   2.936   5.023   1.663
 4409SOL    HW130369   2.881   4.948   1.685
 4409SOL    HW230370   2.965   5.057   1.747
 4410SOL     OW30371   5.746   4.061   7.612
 4410SOL    HW130372   5.837   4.071   7.582
 4410SOL    HW230373   5.705   4.004   7.547
 4411SOL     OW30374   6.087   2.680   1.687
 4411SOL    HW130375   6.089   2.660   1.781
 4411SOL    HW230376   6.178   2.697   1.664
 4412SOL     OW30377   3.956   4.338   7.080
 4412SOL    HW130378   3.963   4.243   7.077
 4412SOL    HW230379   3.903   4.356   7.158
 4413SOL     OW30380   2.701   6.147   6.914
 4413SOL    HW130381   2.677   6.121   6.826
 4413SOL    HW230382   2.796   6.135   6.918
 4414SOL     OW30383   4.285   2.489   0.156
 4414SOL    HW130384   4.303   2.432   0.231
 4414SOL    HW230385   4.275   2.576   0.196
 4415SOL     OW30386   1.616   1.837   1.231
 4415SOL    HW130387   1.588   1.925   1.257
 4415SOL    HW230388   1.567   1.819   1.151
 4416SOL     OW30389   2.554   2.563   0.509
 4416SOL    HW130390   2.473   2.576   0.459
 4416SOL    HW230391   2.604   2.500   0.457
 4417SOL     OW30392   2.508   1.820   5.885
 4417SOL    HW130393   2.548   1.740   5.851
 4417SOL    HW230394   2.444   1.845   5.819
 4418SOL     OW30395   1.048   5.609   1.572
 4418SOL    HW130396   1.100   5.542   1.617
 4418SOL    HW230397   1.035   5.677   1.638
 4419SOL     OW30398   5.587   5.466   0.686
 4419SOL    HW130399   5.667   5.501   0.647
 4419SOL    HW230400   5.541   5.425   0.613
 4420SOL     OW30401   1.153   3.525   2.214
 4420SOL    HW130402   1.076   3.504   2.268
 4420SOL    HW230403   1.227   3.516   2.274
 4421SOL     OW30404   2.283   5.644   0.088
 4421SOL    HW130405   2.372   5.617   0.110
 4421SOL    HW230406   2.260   5.593   0.011
 4422SOL     OW30407   4.802   0.001   1.489
 4422SOL    HW130408   4.821   0.089   1.520
 4422SOL    HW230409   4.881  -0.049   1.509
 4423SOL     OW30410   3.067   4.722   1.349
 4423SOL    HW130411   3.012   4.703   1.425
 4423SOL    HW230412   3.156   4.708   1.379
 4424SOL     OW30413   3.993   0.042   6.882
 4424SOL    HW130414   4.061   0.027   6.817
 4424SOL    HW230415   3.970   0.135   6.873
 4425SOL     OW30416   2.926   2.294   2.523
 4425SOL    HW130417   2.882   2.314   2.605
 4425SOL    HW230418   2.879   2.345   2.457
 4426SOL     OW30419   1.477   5.194   6.251
 4426SOL    HW130420   1.473   5.132   6.179
 4426SOL    HW230421   1.444   5.276   6.215
 4427SOL     OW30422   5.960   5.956   0.413
 4427SOL    HW130423   6.030   5.993   0.467
 4427SOL    HW230424   5.879   5.993   0.449
 4428SOL     OW30425   3.625   5.896   0.826
 4428SOL    HW130426   3.545   5.943   0.852
 4428SOL    HW230427   3.680   5.897   0.904
 4429SOL     OW30428   5.149   2.669   2.389
 4429SOL    HW130429   5.188   2.639   2.307
 4429SOL    HW230430   5.119   2.589   2.431
 4430SOL     OW30431   5.757   3.107   7.132
 4430SOL    HW130432   5.736   3.146   7.217
 4430SOL    HW230433   5.731   3.015   7.140
 4431SOL     OW30434   5.644   6.402   1.211
 4431SOL    HW130435   5.695   6.340   1.263
 4431SOL    HW230436   5.596   6.454   1.275
 4432SOL     OW30437   2.789   2.284   1.109
 4432SOL    HW130438   2.861   2.222   1.106
 4432SOL    HW230439   2.751   2.282   1.021
 4433SOL     OW30440   6.161   5.112   2.117
 4433SOL    HW130441   6.086   5.154   2.075
 4433SOL    HW230442   6.210   5.185   2.156
 4434SOL     OW30443   0.078   1.442   1.655
 4434SOL    HW130444   0.094   1.465   1.747
 4434SOL    HW230445   0.123   1.359   1.643
 4435SOL     OW30446   0.495   4.725   7.218
 4435SOL    HW130447   0.449   4.743   7.136
 4435SOL    HW230448   0.559   4.657   7.196
 4436SOL     OW30449   0.449   1.906   6.727
 4436SOL    HW130450   0.450   1.825   6.777
 4436SOL    HW230451   0.495   1.884   6.646
 4437SOL     OW30452   3.931   4.977   0.686
 4437SOL    HW130453   3.959   4.891   0.716
 4437SOL    HW230454   3.884   4.960   0.604
 4438SOL     OW30455   0.271   6.280   0.050
 4438SOL    HW130456   0.193   6.232   0.079
 4438SOL    HW230457   0.272   6.359   0.104
 4439SOL     OW30458   5.851   0.103   7.162
 4439SOL    HW130459   5.806   0.099   7.078
 4439SOL    HW230460   5.831   0.020   7.204
 4440SOL     OW30461   6.077   5.016   7.203
 4440SOL    HW130462   5.991   4.976   7.215
 4440SOL    HW230463   6.126   4.953   7.151
 4441SOL     OW30464   5.949   1.020   0.339
 4441SOL    HW130465   5.880   1.054   0.397
 4441SOL    HW230466   5.917   1.038   0.251
 4442SOL     OW30467   3.184   5.071   2.147
 4442SOL    HW130468   3.089   5.079   2.132
 4442SOL    HW230469   3.214   5.013   2.077
 4443SOL     OW30470   4.131   2.745   7.686
 4443SOL    HW130471   4.151   2.655   7.659
 4443SOL    HW230472   4.069   2.734   7.758
 4444SOL     OW30473   3.696   4.797   7.547
 4444SOL    HW130474   3.647   4.722   7.581
 4444SOL    HW230475   3.660   4.873   7.593
 4445SOL     OW30476   2.710   5.324   1.366
 4445SOL    HW130477   2.689   5.283   1.283
 4445SOL    HW230478   2.733   5.251   1.424
 4446SOL     OW30479   1.334   2.980   1.104
 4446SOL    HW130480   1.333   2.956   1.011
 4446SOL    HW230481   1.330   3.075   1.105
 4447SOL     OW30482   3.520   4.096   1.188
 4447SOL    HW130483   3.433   4.137   1.195
 4447SOL    HW230484   3.504   4.003   1.203
 4448SOL     OW30485   2.434   0.412   0.613
 4448SOL    HW130486   2.471   0.327   0.637
 4448SOL    HW230487   2.373   0.392   0.542
 4449SOL     OW30488   0.009   0.208   1.501
 4449SOL    HW130489  -0.020   0.218   1.592
 4449SOL    HW230490   0.083   0.147   1.506
 4450SOL     OW30491   5.687   3.884   2.124
 4450SOL    HW130492   5.770   3.922   2.154
 4450SOL    HW230493   5.667   3.817   2.190
 4451SOL     OW30494   2.023   5.891   7.669
 4451SOL    HW130495   2.025   5.859   7.759
 4451SOL    HW230496   2.064   5.978   7.674
 4452SOL     OW30497   6.457   2.719   0.173
 4452SOL    HW130498   6.484   2.810   0.159
 4452SOL    HW230499   6.409   2.722   0.256
 4453SOL     OW30500   2.734   2.440   6.661
 4453SOL    HW130501   2.802   2.490   6.707
 4453SOL    HW230502   2.664   2.430   6.725
 4454SOL     OW30503   4.004   1.926   6.452
 4454SOL    HW130504   3.951   1.862   6.500
 4454SOL    HW230505   4.010   1.891   6.363
 4455SOL     OW30506   2.201   4.923   0.619
 4455SOL    HW130507   2.198   4.901   0.526
 4455SOL    HW230508   2.198   4.838   0.663
 4456SOL     OW30509   1.119   4.654   7.641
 4456SOL    HW130510   1.135   4.639   7.734
 4456SOL    HW230511   1.029   4.623   7.627
 4457SOL     OW30512   4.191   0.374   0.419
 4457SOL    HW130513   4.274   0.418   0.404
 4457SOL    HW230514   4.193   0.296   0.364
 4458SOL     OW30515   1.136   4.165   7.572
 4458SOL    HW130516   1.163   4.246   7.615
 4458SOL    HW230517   1.139   4.099   7.642
 4459SOL     OW30518   1.325   4.228   6.027
 4459SOL    HW130519   1.338   4.285   5.951
 4459SOL    HW230520   1.305   4.142   5.989
 4460SOL     OW30521   5.082   5.010   2.000
 4460SOL    HW130522   5.122   4.935   2.046
 4460SOL    HW230523   5.066   5.074   2.069
 4461SOL     OW30524   2.224   1.271   1.242
 4461SOL    HW130525   2.281   1.238   1.312
 4461SOL    HW230526   2.193   1.192   1.197
 4462SOL     OW30527   3.753   2.384   0.340
 4462SOL    HW130528   3.811   2.365   0.414
 4462SOL    HW230529   3.727   2.298   0.306
 4463SOL     OW30530   2.291   2.201   2.066
 4463SOL    HW130531   2.214   2.257   2.082
 4463SOL    HW230532   2.289   2.138   2.137
 4464SOL     OW30533   6.259   5.004   1.645
 4464SOL    HW130534   6.227   4.930   1.697
 4464SOL    HW230535   6.193   5.072   1.656
 4465SOL     OW30536   1.884   1.674   2.110
 4465SOL    HW130537   1.833   1.691   2.189
 4465SOL    HW230538   1.881   1.579   2.100
 4466SOL     OW30539   4.937   6.243   1.867
 4466SOL    HW130540   4.964   6.252   1.958
 4466SOL    HW230541   4.888   6.160   1.865
 4467SOL     OW30542   3.961   4.626   7.730
 4467SOL    HW130543   4.034   4.589   7.780
 4467SOL    HW230544   3.968   4.586   7.644
 4468SOL     OW30545   3.902   0.256   7.654
 4468SOL    HW130546   3.891   0.167   7.689
 4468SOL    HW230547   3.861   0.312   7.720
 4469SOL     OW30548   0.690   2.179   1.882
 4469SOL    HW130549   0.773   2.166   1.928
 4469SOL    HW230550   0.678   2.100   1.830
 4470SOL     OW30551   0.993   1.408   7.285
 4470SOL    HW130552   1.063   1.354   7.249
 4470SOL    HW230553   0.914   1.374   7.242
 4471SOL     OW30554   4.361   3.056   0.218
 4471SOL    HW130555   4.422   2.986   0.199
 4471SOL    HW230556   4.274   3.016   0.206
 4472SOL     OW30557   3.552   2.988   6.103
 4472SOL    HW130558   3.544   2.893   6.094
 4472SOL    HW230559   3.646   3.005   6.111
 4473SOL     OW30560   0.953   3.364   7.568
 4473SOL    HW130561   0.886   3.430   7.551
 4473SOL    HW230562   0.950   3.349   7.662
 4474SOL     OW30563   3.887   3.292   5.952
 4474SOL    HW130564   3.915   3.215   5.902
 4474SOL    HW230565   3.955   3.358   5.936
 4475SOL     OW30566   0.866   6.185   0.900
 4475SOL    HW130567   0.930   6.249   0.931
 4475SOL    HW230568   0.792   6.194   0.960
 4476SOL     OW30569   0.297   0.914   7.713
 4476SOL    HW130570   0.280   0.835   7.663
 4476SOL    HW230571   0.279   0.890   7.804
 4477SOL     OW30572   1.231   3.510   6.568
 4477SOL    HW130573   1.157   3.531   6.512
 4477SOL    HW230574   1.300   3.483   6.508
 4478SOL     OW30575   2.042   4.344   2.509
 4478SOL    HW130576   2.066   4.261   2.467
 4478SOL    HW230577   1.949   4.333   2.531
 4479SOL     OW30578   3.641   0.663   6.913
 4479SOL    HW130579   3.588   0.586   6.895
 4479SOL    HW230580   3.579   0.729   6.943
 4480SOL     OW30581   3.655   5.301   6.444
 4480SOL    HW130582   3.714   5.311   6.370
 4480SOL    HW230583   3.625   5.210   6.439
 4481SOL     OW30584   5.061   1.187   6.295
 4481SOL    HW130585   5.072   1.190   6.200
 4481SOL    HW230586   5.085   1.275   6.325
 4482SOL     OW30587   3.267   3.453   0.797
 4482SOL    HW130588   3.355   3.488   0.797
 4482SOL    HW230589   3.240   3.453   0.889
 4483SOL     OW30590   2.264   3.319   7.651
 4483SOL    HW130591   2.342   3.372   7.662
 4483SOL    HW230592   2.193   3.383   7.641
 4484SOL     OW30593   3.333   4.820   1.376
 4484SOL    HW130594   3.296   4.864   1.453
 4484SOL    HW230595   3.393   4.884   1.339
 4485SOL     OW30596   3.568   0.528   6.207
 4485SOL    HW130597   3.477   0.536   6.236
 4485SOL    HW230598   3.620   0.557   6.283
 4486SOL     OW30599   2.459   2.093   1.881
 4486SOL    HW130600   2.392   2.136   1.935
 4486SOL    HW230601   2.464   2.004   1.915
 4487SOL     OW30602   5.191   0.259   6.508
 4487SOL    HW130603   5.211   0.165   6.514
 4487SOL    HW230604   5.159   0.271   6.418
 4488SOL     OW30605   5.424   3.506   1.998
 4488SOL    HW130606   5.444   3.527   1.906
 4488SOL    HW230607   5.503   3.532   2.046
 4489SOL     OW30608   2.709   5.442   7.213
 4489SOL    HW130609   2.648   5.487   7.271
 4489SOL    HW230610   2.778   5.506   7.195
 4490SOL     OW30611   2.039   4.695   1.198
 4490SOL    HW130612   1.982   4.709   1.122
 4490SOL    HW230613   1.981   4.707   1.274
 4491SOL     OW30614   3.057   5.231   1.534
 4491SOL    HW130615   3.013   5.162   1.583
 4491SOL    HW230616   3.085   5.190   1.452
 4492SOL     OW30617   2.969   2.028   2.594
 4492SOL    HW130618   2.940   2.118   2.579
 4492SOL    HW230619   2.976   1.990   2.506
 4493SOL     OW30620   2.403   5.514   1.143
 4493SOL    HW130621   2.386   5.420   1.151
 4493SOL    HW230622   2.435   5.525   1.053
 4494SOL     OW30623   4.219   3.956   2.659
 4494SOL    HW130624   4.152   4.024   2.666
 4494SOL    HW230625   4.300   4.004   2.640
 4495SOL     OW30626   4.869   3.329   7.441
 4495SOL    HW130627   4.796   3.269   7.428
 4495SOL    HW230628   4.915   3.294   7.517
 4496SOL     OW30629   3.910   2.177   7.217
 4496SOL    HW130630   3.935   2.164   7.309
 4496SOL    HW230631   3.819   2.147   7.212
 4497SOL     OW30632   0.896   3.373   0.055
 4497SOL    HW130633   0.917   3.464   0.076
 4497SOL    HW230634   0.829   3.349   0.118
 4498SOL     OW30635   5.027   3.773   1.046
 4498SOL    HW130636   5.003   3.681   1.059
 4498SOL    HW230637   5.002   3.816   1.128
 4499SOL     OW30638   5.106   6.206   7.222
 4499SOL    HW130639   5.167   6.164   7.161
 4499SOL    HW230640   5.104   6.147   7.298
 4500SOL     OW30641   2.779   1.886   0.545
 4500SOL    HW130642   2.731   1.950   0.492
 4500SOL    HW230643   2.728   1.878   0.625
 4501SOL     OW30644   1.104   3.832   0.797
 4501SOL    HW130645   1.036   3.814   0.732
 4501SOL    HW230646   1.059   3.883   0.865
 4502SOL     OW30647   3.073   0.317   1.711
 4502SOL    HW130648   3.056   0.233   1.669
 4502SOL    HW230649   3.029   0.312   1.796
 4503SOL     OW30650   1.882   1.028   0.234
 4503SOL    HW130651   1.845   0.941   0.220
 4503SOL    HW230652   1.931   1.046   0.154
 4504SOL     OW30653   0.182   0.718   7.548
 4504SOL    HW130654   0.141   0.706   7.462
 4504SOL    HW230655   0.121   0.677   7.610
 4505SOL     OW30656   4.754   3.115   1.115
 4505SOL    HW130657   4.792   3.062   1.185
 4505SOL    HW230658   4.824   3.127   1.051
 4506SOL     OW30659   1.431   4.458   7.413
 4506SOL    HW130660   1.521   4.490   7.416
 4506SOL    HW230661   1.398   4.488   7.328
 4507SOL     OW30662   1.911   4.238   0.366
 4507SOL    HW130663   1.977   4.248   0.297
 4507SOL    HW230664   1.893   4.144   0.368
 4508SOL     OW30665   0.460   5.570   7.340
 4508SOL    HW130666   0.424   5.572   7.429
 4508SOL    HW230667   0.468   5.477   7.319
 4509SOL     OW30668   1.701   4.441   0.404
 4509SOL    HW130669   1.773   4.380   0.412
 4509SOL    HW230670   1.622   4.387   0.404
 4510SOL     OW30671   3.801   3.767   0.414
 4510SOL    HW130672   3.872   3.711   0.445
 4510SOL    HW230673   3.822   3.854   0.449
 4511SOL     OW30674   3.130   3.034   1.951
 4511SOL    HW130675   3.196   3.051   2.018
 4511SOL    HW230676   3.125   3.116   1.902
 4512SOL     OW30677   5.145   2.063   1.580
 4512SOL    HW130678   5.206   2.086   1.510
 4512SOL    HW230679   5.163   1.971   1.598
 4513SOL     OW30680   5.592   2.928   0.953
 4513SOL    HW130681   5.507   2.972   0.961
 4513SOL    HW230682   5.572   2.835   0.963
 4514SOL     OW30683   5.461   6.233   5.925
 4514SOL    HW130684   5.394   6.166   5.941
 4514SOL    HW230685   5.476   6.272   6.011
 4515SOL     OW30686   0.479   1.095   7.645
 4515SOL    HW130687   0.516   1.034   7.582
 4515SOL    HW230688   0.408   1.046   7.688
 4516SOL     OW30689   6.100   0.829   7.646
 4516SOL    HW130690   6.058   0.789   7.570
 4516SOL    HW230691   6.055   0.792   7.722
 4517SOL     OW30692   0.505   5.000   6.079
 4517SOL    HW130693   0.483   4.908   6.098
 4517SOL    HW230694   0.599   4.999   6.061
 4518SOL     OW30695   2.729   5.051   6.475
 4518SOL    HW130696   2.766   5.068   6.388
 4518SOL    HW230697   2.716   5.138   6.513
 4519SOL     OW30698   5.123   4.783   7.109
 4519SOL    HW130699   5.206   4.815   7.145
 4519SOL    HW230700   5.121   4.816   7.020
 4520SOL     OW30701   4.281   0.614   0.676
 4520SOL    HW130702   4.335   0.692   0.683
 4520SOL    HW230703   4.313   0.569   0.598
 4521SOL     OW30704   1.281   1.359   5.627
 4521SOL    HW130705   1.346   1.385   5.561
 4521SOL    HW230706   1.333   1.340   5.705
 4522SOL     OW30707   2.144   2.674   1.206
 4522SOL    HW130708   2.158   2.580   1.215
 4522SOL    HW230709   2.189   2.697   1.124
 4523SOL     OW30710   5.765   0.619   1.392
 4523SOL    HW130711   5.848   0.621   1.438
 4523SOL    HW230712   5.705   0.669   1.447
 4524SOL     OW30713   1.111   2.922   2.499
 4524SOL    HW130714   1.053   2.998   2.507
 4524SOL    HW230715   1.198   2.957   2.520
 4525SOL     OW30716   2.267   0.946   1.548
 4525SOL    HW130717   2.192   0.911   1.595
 4525SOL    HW230718   2.343   0.916   1.598
 4526SOL     OW30719   5.643   5.391   6.592
 4526SOL    HW130720   5.667   5.484   6.589
 4526SOL    HW230721   5.703   5.353   6.656
 4527SOL     OW30722   3.620   0.852   0.853
 4527SOL    HW130723   3.610   0.946   0.869
 4527SOL    HW230724   3.621   0.813   0.940
 4528SOL     OW30725   3.773   3.214   6.194
 4528SOL    HW130726   3.688   3.257   6.192
 4528SOL    HW230727   3.814   3.238   6.111
 4529SOL     OW30728   4.392   3.749   6.496
 4529SOL    HW130729   4.329   3.685   6.530
 4529SOL    HW230730   4.472   3.699   6.483
 4530SOL     OW30731   6.300   6.390   7.448
 4530SOL    HW130732   6.278   6.482   7.462
 4530SOL    HW230733   6.339   6.388   7.361
 4531SOL     OW30734   1.015   4.724   7.021
 4531SOL    HW130735   1.099   4.680   7.008
 4531SOL    HW230736   1.037   4.814   7.045
 4532SOL     OW30737   0.127   3.906   0.295
 4532SOL    HW130738   0.136   4.001   0.284
 4532SOL    HW230739   0.080   3.896   0.378
 4533SOL     OW30740   5.379   0.206   1.055
 4533SOL    HW130741   5.441   0.278   1.059
 4533SOL    HW230742   5.419   0.143   0.994
 4534SOL     OW30743   6.180   3.373   0.015
 4534SOL    HW130744   6.160   3.280   0.025
 4534SOL    HW230745   6.125   3.417   0.080
 4535SOL     OW30746   1.013   5.553   0.305
 4535SOL    HW130747   0.971   5.638   0.311
 4535SOL    HW230748   1.053   5.540   0.391
 4536SOL     OW30749   2.272   6.313   7.461
 4536SOL    HW130750   2.293   6.403   7.434
 4536SOL    HW230751   2.314   6.259   7.395
 4537SOL     OW30752   1.606   5.709   0.890
 4537SOL    HW130753   1.604   5.792   0.939
 4537SOL    HW230754   1.642   5.732   0.805
 4538SOL     OW30755   2.908   4.223   6.886
 4538SOL    HW130756   2.823   4.182   6.876
 4538SOL    HW230757   2.953   4.170   6.952
 4539SOL     OW30758   3.411   5.156   6.674
 4539SOL    HW130759   3.379   5.231   6.624
 4539SOL    HW230760   3.398   5.182   6.766
 4540SOL     OW30761   5.309   2.268   6.027
 4540SOL    HW130762   5.398   2.301   6.013
 4540SOL    HW230763   5.286   2.226   5.944
 4541SOL     OW30764   1.098   4.535   0.208
 4541SOL    HW130765   1.055   4.525   0.293
 4541SOL    HW230766   1.137   4.623   0.212
 4542SOL     OW30767   0.468   6.362   0.670
 4542SOL    HW130768   0.508   6.276   0.654
 4542SOL    HW230769   0.534   6.424   0.640
 4543SOL     OW30770   1.609   4.764   6.516
 4543SOL    HW130771   1.686   4.795   6.469
 4543SOL    HW230772   1.637   4.683   6.558
 4544SOL     OW30773   4.737   3.061   7.116
 4544SOL    HW130774   4.778   2.975   7.111
 4544SOL    HW230775   4.719   3.074   7.209
 4545SOL     OW30776   1.492   5.904   1.757
 4545SOL    HW130777   1.442   5.914   1.838
 4545SOL    HW230778   1.466   5.978   1.703
 4546SOL     OW30779   4.812   2.730   0.895
 4546SOL    HW130780   4.837   2.801   0.954
 4546SOL    HW230781   4.888   2.673   0.892
 4547SOL     OW30782   6.147   6.044   1.248
 4547SOL    HW130783   6.064   6.019   1.208
 4547SOL    HW230784   6.214   6.004   1.192
 4548SOL     OW30785   3.234   5.014   1.013
 4548SOL    HW130786   3.224   4.944   1.077
 4548SOL    HW230787   3.145   5.029   0.980
 4549SOL     OW30788   5.875   5.851   0.183
 4549SOL    HW130789   5.899   5.891   0.268
 4549SOL    HW230790   5.858   5.926   0.126
 4550SOL     OW30791   0.517   6.453   1.229
 4550SOL    HW130792   0.590   6.474   1.170
 4550SOL    HW230793   0.503   6.534   1.279
 4551SOL     OW30794   1.256   4.655   2.050
 4551SOL    HW130795   1.348   4.679   2.039
 4551SOL    HW230796   1.218   4.726   2.102
 4552SOL     OW30797   1.630   1.630   2.042
 4552SOL    HW130798   1.688   1.556   2.026
 4552SOL    HW230799   1.681   1.690   2.095
 4553SOL     OW30800   3.319   6.239   1.339
 4553SOL    HW130801   3.263   6.271   1.268
 4553SOL    HW230802   3.391   6.196   1.294
 4554SOL     OW30803   2.136   3.850   1.310
 4554SOL    HW130804   2.135   3.761   1.346
 4554SOL    HW230805   2.221   3.885   1.337
 4555SOL     OW30806   5.163   2.209   0.097
 4555SOL    HW130807   5.233   2.272   0.078
 4555SOL    HW230808   5.082   2.260   0.088
 4556SOL     OW30809   3.048   3.512   1.502
 4556SOL    HW130810   3.122   3.491   1.560
 4556SOL    HW230811   3.088   3.559   1.429
 4557SOL     OW30812   6.190   1.693   0.797
 4557SOL    HW130813   6.168   1.759   0.862
 4557SOL    HW230814   6.236   1.742   0.728
 4558SOL     OW30815   1.328   3.927   0.689
 4558SOL    HW130816   1.250   3.894   0.734
 4558SOL    HW230817   1.293   3.978   0.616
 4559SOL     OW30818   0.934   0.680   0.186
 4559SOL    HW130819   0.981   0.744   0.131
 4559SOL    HW230820   0.911   0.610   0.125
 4560SOL     OW30821   0.967   4.360   5.442
 4560SOL    HW130822   0.931   4.309   5.515
 4560SOL    HW230823   0.925   4.322   5.364
 4561SOL     OW30824   3.001   0.875   0.723
 4561SOL    HW130825   3.092   0.860   0.697
 4561SOL    HW230826   3.007   0.934   0.799
 4562SOL     OW30827   3.561   6.206   0.203
 4562SOL    HW130828   3.635   6.182   0.147
 4562SOL    HW230829   3.547   6.299   0.185
 4563SOL     OW30830   1.710   1.730   0.140
 4563SOL    HW130831   1.768   1.802   0.163
 4563SOL    HW230832   1.735   1.659   0.200
 4564SOL     OW30833   0.199   2.358   6.889
 4564SOL    HW130834   0.262   2.417   6.847
 4564SOL    HW230835   0.229   2.270   6.866
 4565SOL     OW30836   3.581   1.304   1.383
 4565SOL    HW130837   3.660   1.284   1.332
 4565SOL    HW230838   3.603   1.382   1.433
 4566SOL     OW30839   3.168   0.911   5.402
 4566SOL    HW130840   3.153   1.005   5.410
 4566SOL    HW230841   3.225   0.889   5.476
 4567SOL     OW30842   2.551   1.210   6.878
 4567SOL    HW130843   2.576   1.271   6.808
 4567SOL    HW230844   2.612   1.137   6.869
 4568SOL     OW30845   0.602   6.462   6.828
 4568SOL    HW130846   0.557   6.500   6.904
 4568SOL    HW230847   0.693   6.491   6.837
 4569SOL     OW30848   3.487   1.320   2.015
 4569SOL    HW130849   3.567   1.367   2.039
 4569SOL    HW230850   3.437   1.313   2.096
 4570SOL     OW30851   5.355   3.028   1.048
 4570SOL    HW130852   5.278   2.978   1.074
 4570SOL    HW230853   5.323   3.118   1.041
 4571SOL     OW30854   2.775   0.692   6.777
 4571SOL    HW130855   2.769   0.667   6.869
 4571SOL    HW230856   2.851   0.750   6.772
 4572SOL     OW30857   1.421   1.162   6.439
 4572SOL    HW130858   1.406   1.076   6.400
 4572SOL    HW230859   1.376   1.159   6.523
 4573SOL     OW30860   6.229   1.232   6.913
 4573SOL    HW130861   6.201   1.153   6.867
 4573SOL    HW230862   6.264   1.289   6.844
 4574SOL     OW30863   6.060   3.788   7.469
 4574SOL    HW130864   6.123   3.716   7.468
 4574SOL    HW230865   5.993   3.761   7.531
 4575SOL     OW30866   3.029   5.705   7.385
 4575SOL    HW130867   3.020   5.636   7.319
 4575SOL    HW230868   3.095   5.672   7.445
 4576SOL     OW30869   1.608   3.286   1.265
 4576SOL    HW130870   1.582   3.313   1.177
 4576SOL    HW230871   1.668   3.212   1.251
 4577SOL     OW30872   2.563   2.805   0.666
 4577SOL    HW130873   2.506   2.744   0.618
 4577SOL    HW230874   2.652   2.771   0.651
 4578SOL     OW30875   6.181   0.583   5.568
 4578SOL    HW130876   6.141   0.578   5.655
 4578SOL    HW230877   6.167   0.674   5.541
 4579SOL     OW30878   2.460   1.506   1.466
 4579SOL    HW130879   2.368   1.496   1.441
 4579SOL    HW230880   2.485   1.420   1.501
 4580SOL     OW30881   5.973   5.653   6.077
 4580SOL    HW130882   6.046   5.691   6.127
 4580SOL    HW230883   6.000   5.661   5.986
 4581SOL     OW30884   1.788   4.399   0.110
 4581SOL    HW130885   1.748   4.368   0.191
 4581SOL    HW230886   1.847   4.328   0.083
 4582SOL     OW30887   0.867   2.606   6.990
 4582SOL    HW130888   0.922   2.534   7.022
 4582SOL    HW230889   0.815   2.567   6.920
 4583SOL     OW30890   5.840   5.899   0.758
 4583SOL    HW130891   5.929   5.933   0.744
 4583SOL    HW230892   5.790   5.973   0.791
 4584SOL     OW30893   0.597   5.560   0.526
 4584SOL    HW130894   0.684   5.527   0.548
 4584SOL    HW230895   0.610   5.654   0.512
 4585SOL     OW30896   2.618   4.351   1.747
 4585SOL    HW130897   2.700   4.333   1.701
 4585SOL    HW230898   2.612   4.281   1.812
 4586SOL     OW30899   3.339   6.323   7.629
 4586SOL    HW130900   3.277   6.385   7.668
 4586SOL    HW230901   3.297   6.297   7.546
 4587SOL     OW30902   2.615   0.039   0.388
 4587SOL    HW130903   2.685   0.097   0.419
 4587SOL    HW230904   2.590  -0.012   0.465
 4588SOL     OW30905   0.865   4.514   7.572
 4588SOL    HW130906   0.834   4.440   7.521
 4588SOL    HW230907   0.785   4.556   7.606
 4589SOL     OW30908   0.592   2.486   0.346
 4589SOL    HW130909   0.572   2.488   0.440
 4589SOL    HW230910   0.670   2.542   0.337
 4590SOL     OW30911   4.154   4.765   0.749
 4590SOL    HW130912   4.227   4.779   0.809
 4590SOL    HW230913   4.170   4.827   0.678
 4591SOL     OW30914   2.410   1.669   6.812
 4591SOL    HW130915   2.324   1.708   6.827
 4591SOL    HW230916   2.408   1.642   6.720
 4592SOL     OW30917   0.446   2.717   0.375
 4592SOL    HW130918   0.470   2.671   0.294
 4592SOL    HW230919   0.488   2.667   0.445
 4593SOL     OW30920   1.617   6.256   1.111
 4593SOL    HW130921   1.673   6.270   1.035
 4593SOL    HW230922   1.676   6.264   1.187
 4594SOL     OW30923   1.424   0.725   0.911
 4594SOL    HW130924   1.394   0.723   1.002
 4594SOL    HW230925   1.436   0.818   0.892
 4595SOL     OW30926   2.178   3.599   1.422
 4595SOL    HW130927   2.222   3.564   1.500
 4595SOL    HW230928   2.175   3.525   1.361
 4596SOL     OW30929   5.345   4.298   1.654
 4596SOL    HW130930   5.377   4.284   1.743
 4596SOL    HW230931   5.370   4.388   1.633
 4597SOL     OW30932   1.733   3.136   6.593
 4597SOL    HW130933   1.770   3.214   6.632
 4597SOL    HW230934   1.638   3.146   6.605
 4598SOL     OW30935   4.359   6.061   1.612
 4598SOL    HW130936   4.383   6.095   1.698
 4598SOL    HW230937   4.308   5.982   1.631
 4599SOL     OW30938   3.305   4.503   6.728
 4599SOL    HW130939   3.364   4.528   6.657
 4599SOL    HW230940   3.307   4.577   6.788
 4600SOL     OW30941   2.411   6.417   0.636
 4600SOL    HW130942   2.466   6.370   0.698
 4600SOL    HW230943   2.385   6.497   0.682
 4601SOL     OW30944   0.869   0.288   6.305
 4601SOL    HW130945   0.911   0.209   6.271
 4601SOL    HW230946   0.863   0.346   6.229
 4602SOL     OW30947   4.807   6.297   2.249
 4602SOL    HW130948   4.891   6.280   2.206
 4602SOL    HW230949   4.751   6.332   2.179
 4603SOL     OW30950   6.441   3.860   7.110
 4603SOL    HW130951   6.362   3.806   7.112
 4603SOL    HW230952   6.411   3.946   7.081
 4604SOL     OW30953   5.052   0.180   1.642
 4604SOL    HW130954   5.056   0.193   1.547
 4604SOL    HW230955   5.087   0.261   1.679
 4605SOL     OW30956   6.255   2.365   2.483
 4605SOL    HW130957   6.338   2.331   2.450
 4605SOL    HW230958   6.213   2.289   2.524
 4606SOL     OW30959   4.196   5.087   2.035
 4606SOL    HW130960   4.274   5.125   2.074
 4606SOL    HW230961   4.139   5.162   2.018
 4607SOL     OW30962   5.519   2.756   6.134
 4607SOL    HW130963   5.553   2.693   6.071
 4607SOL    HW230964   5.429   2.773   6.104
 4608SOL     OW30965   4.576   3.273   2.200
 4608SOL    HW130966   4.556   3.365   2.215
 4608SOL    HW230967   4.496   3.237   2.163
 4609SOL     OW30968   6.135   0.314   5.466
 4609SOL    HW130969   6.146   0.393   5.519
 4609SOL    HW230970   6.110   0.246   5.528
 4610SOL     OW30971   2.031   6.399   7.362
 4610SOL    HW130972   2.118   6.375   7.395
 4610SOL    HW230973   2.015   6.336   7.292
 4611SOL     OW30974   3.918   5.447   6.782
 4611SOL    HW130975   3.978   5.507   6.828
 4611SOL    HW230976   3.932   5.466   6.689
 4612SOL     OW30977   4.199   2.750   6.060
 4612SOL    HW130978   4.290   2.778   6.073
 4612SOL    HW230979   4.184   2.686   6.129
 4613SOL     OW30980   5.972   0.824   1.283
 4613SOL    HW130981   5.970   0.796   1.374
 4613SOL    HW230982   5.971   0.743   1.233
 4614SOL     OW30983   2.993   1.151   0.857
 4614SOL    HW130984   3.075   1.101   0.863
 4614SOL    HW230985   3.020   1.241   0.874
 4615SOL     OW30986   4.178   4.488   0.109
 4615SOL    HW130987   4.227   4.506   0.189
 4615SOL    HW230988   4.244   4.484   0.040
 4616SOL     OW30989   5.002   3.322   2.099
 4616SOL    HW130990   5.055   3.277   2.164
 4616SOL    HW230991   5.037   3.294   2.015
 4617SOL     OW30992   3.337   0.893   5.591
 4617SOL    HW130993   3.358   0.986   5.601
 4617SOL    HW230994   3.320   0.862   5.680
 4618SOL     OW30995   2.372   3.420   7.195
 4618SOL    HW130996   2.287   3.400   7.234
 4618SOL    HW230997   2.389   3.511   7.220
 4619SOL     OW30998   1.829   0.911   5.701
 4619SOL    HW130999   1.792   0.995   5.730
 4619SOL    HW231000   1.755   0.862   5.666
 4620SOL     OW31001   5.207   0.164   6.232
 4620SOL    HW131002   5.170   0.218   6.162
 4620SOL    HW231003   5.298   0.149   6.205
 4621SOL     OW31004   4.288   1.898   7.115
 4621SOL    HW131005   4.375   1.925   7.085
 4621SOL    HW231006   4.257   1.972   7.168
 4622SOL     OW31007   0.224   0.041   0.175
 4622SOL    HW131008   0.169   0.028   0.252
 4622SOL    HW231009   0.304   0.082   0.210
 4623SOL     OW31010   1.135   1.064   0.210
 4623SOL    HW131011   1.074   1.023   0.148
 4623SOL    HW231012   1.202   1.104   0.154
 4624SOL     OW31013   5.190   5.986   0.126
 4624SOL    HW131014   5.251   5.929   0.173
 4624SOL    HW231015   5.122   5.927   0.094
 4625SOL     OW31016   2.960   1.867   7.613
 4625SOL    HW131017   2.883   1.897   7.565
 4625SOL    HW231018   3.030   1.864   7.548
 4626SOL     OW31019   1.028   5.746   7.219
 4626SOL    HW131020   0.975   5.782   7.290
 4626SOL    HW231021   0.967   5.693   7.168
 4627SOL     OW31022   0.032   5.563   0.135
 4627SOL    HW131023   0.086   5.579   0.057
 4627SOL    HW231024  -0.003   5.648   0.159
 4628SOL     OW31025   5.459   4.077   6.536
 4628SOL    HW131026   5.378   4.070   6.486
 4628SOL    HW231027   5.436   4.051   6.625
 4629SOL     OW31028   5.445   4.917   7.092
 4629SOL    HW131029   5.383   4.969   7.143
 4629SOL    HW231030   5.430   4.944   7.002
 4630SOL     OW31031   4.656   4.132   2.485
 4630SOL    HW131032   4.725   4.087   2.533
 4630SOL    HW231033   4.696   4.213   2.454
 4631SOL     OW31034   1.923   6.112   0.488
 4631SOL    HW131035   1.985   6.165   0.439
 4631SOL    HW231036   1.874   6.174   0.542
 4632SOL     OW31037   4.520   1.347   7.396
 4632SOL    HW131038   4.459   1.419   7.411
 4632SOL    HW231039   4.472   1.287   7.338
 4633SOL     OW31040   2.551   6.026   7.688
 4633SOL    HW131041   2.478   6.075   7.725
 4633SOL    HW231042   2.604   6.092   7.643
 4634SOL     OW31043   3.467   3.135   5.491
 4634SOL    HW131044   3.504   3.061   5.539
 4634SOL    HW231045   3.543   3.178   5.452
 4635SOL     OW31046   2.644   1.716   2.688
 4635SOL    HW131047   2.602   1.713   2.774
 4635SOL    HW231048   2.656   1.810   2.671
 4636SOL     OW31049   2.126   1.119   6.433
 4636SOL    HW131050   2.178   1.041   6.452
 4636SOL    HW231051   2.137   1.133   6.339
 4637SOL     OW31052   5.162   0.327   7.754
 4637SOL    HW131053   5.091   0.275   7.791
 4637SOL    HW231054   5.223   0.263   7.718
 4638SOL     OW31055   4.056   4.187   2.674
 4638SOL    HW131056   4.096   4.244   2.741
 4638SOL    HW231057   3.975   4.157   2.714
 4639SOL     OW31058   4.933   2.859   1.566
 4639SOL    HW131059   5.020   2.836   1.598
 4639SOL    HW231060   4.875   2.794   1.607
 4640SOL     OW31061   6.466   5.425   1.266
 4640SOL    HW131062   6.401   5.460   1.204
 4640SOL    HW231063   6.416   5.366   1.322
 4641SOL     OW31064   4.974   2.659   5.430
 4641SOL    HW131065   4.881   2.677   5.444
 4641SOL    HW231066   4.984   2.566   5.449
 4642SOL     OW31067   5.639   1.479   0.173
 4642SOL    HW131068   5.721   1.497   0.129
 4642SOL    HW231069   5.572   1.515   0.115
 4643SOL     OW31070   4.899   4.371   6.592
 4643SOL    HW131071   4.987   4.351   6.626
 4643SOL    HW231072   4.870   4.446   6.643
 4644SOL     OW31073   2.137   1.082   1.050
 4644SOL    HW131074   2.212   1.037   1.012
 4644SOL    HW231075   2.108   1.142   0.982
 4645SOL     OW31076   3.406   4.595   6.126
 4645SOL    HW131077   3.405   4.548   6.043
 4645SOL    HW231078   3.424   4.527   6.192
 4646SOL     OW31079   4.703   5.861   1.002
 4646SOL    HW131080   4.691   5.932   0.938
 4646SOL    HW231081   4.625   5.806   0.992
 4647SOL     OW31082   0.034   1.207   7.737
 4647SOL    HW131083   0.079   1.269   7.680
 4647SOL    HW231084   0.097   1.136   7.751
 4648SOL     OW31085   1.260   5.055   0.468
 4648SOL    HW131086   1.190   5.100   0.422
 4648SOL    HW231087   1.229   5.048   0.558
 4649SOL     OW31088   0.993   3.637   7.192
 4649SOL    HW131089   1.027   3.684   7.269
 4649SOL    HW231090   0.970   3.551   7.226
 4650SOL     OW31091   4.619   2.973   6.788
 4650SOL    HW131092   4.557   2.991   6.859
 4650SOL    HW231093   4.684   3.043   6.796
 4651SOL     OW31094   0.091   4.808   1.922
 4651SOL    HW131095   0.136   4.863   1.986
 4651SOL    HW231096   0.079   4.724   1.966
 4652SOL     OW31097   4.007   4.846   7.591
 4652SOL    HW131098   3.932   4.882   7.543
 4652SOL    HW231099   3.968   4.776   7.645
 4653SOL     OW31100   2.013   5.971   2.105
 4653SOL    HW131101   2.002   6.051   2.156
 4653SOL    HW231102   2.070   5.995   2.033
 4654SOL     OW31103   2.354   5.907   0.918
 4654SOL    HW131104   2.383   5.991   0.953
 4654SOL    HW231105   2.381   5.908   0.827
 4655SOL     OW31106   3.928   1.502   6.358
 4655SOL    HW131107   3.898   1.581   6.313
 4655SOL    HW231108   3.971   1.451   6.290
 4656SOL     OW31109   4.716   3.199   0.702
 4656SOL    HW131110   4.667   3.237   0.629
 4656SOL    HW231111   4.659   3.212   0.778
 4657SOL     OW31112   3.728   4.877   7.034
 4657SOL    HW131113   3.809   4.927   7.042
 4657SOL    HW231114   3.754   4.794   6.994
 4658SOL     OW31115   2.542   3.313   6.758
 4658SOL    HW131116   2.570   3.239   6.704
 4658SOL    HW231117   2.614   3.327   6.819
 4659SOL     OW31118   5.396   1.208   7.171
 4659SOL    HW131119   5.356   1.121   7.179
 4659SOL    HW231120   5.394   1.225   7.077
 4660SOL     OW31121   6.301   3.738   7.754
 4660SOL    HW131122   6.368   3.803   7.774
 4660SOL    HW231123   6.341   3.655   7.780
 4661SOL     OW31124   1.864   5.645   0.244
 4661SOL    HW131125   1.897   5.734   0.232
 4661SOL    HW231126   1.894   5.619   0.331
 4662SOL     OW31127   2.277   2.221   0.459
 4662SOL    HW131128   2.333   2.155   0.500
 4662SOL    HW231129   2.263   2.188   0.370
 4663SOL     OW31130   4.091   4.761   1.022
 4663SOL    HW131131   4.173   4.798   0.989
 4663SOL    HW231132   4.064   4.699   0.954
 4664SOL     OW31133   1.364   4.565   1.135
 4664SOL    HW131134   1.350   4.645   1.085
 4664SOL    HW231135   1.459   4.564   1.152
 4665SOL     OW31136   3.077   0.026   7.389
 4665SOL    HW131137   3.020   0.020   7.465
 4665SOL    HW231138   3.115   0.113   7.393
 4666SOL     OW31139   2.142   4.729   6.459
 4666SOL    HW131140   2.233   4.751   6.437
 4666SOL    HW231141   2.139   4.732   6.554
 4667SOL     OW31142   0.292   1.293   5.818
 4667SOL    HW131143   0.227   1.259   5.757
 4667SOL    HW231144   0.354   1.220   5.829
 4668SOL     OW31145   1.293   6.256   7.294
 4668SOL    HW131146   1.360   6.282   7.357
 4668SOL    HW231147   1.330   6.281   7.209
 4669SOL     OW31148   0.935   2.334   7.533
 4669SOL    HW131149   0.898   2.322   7.446
 4669SOL    HW231150   0.964   2.247   7.559
 4670SOL     OW31151   1.499   4.985   0.387
 4670SOL    HW131152   1.410   4.986   0.422
 4670SOL    HW231153   1.503   4.908   0.331
 4671SOL     OW31154   3.158   2.153   6.310
 4671SOL    HW131155   3.093   2.221   6.324
 4671SOL    HW231156   3.161   2.106   6.393
 4672SOL     OW31157   4.123   0.915   6.729
 4672SOL    HW131158   4.029   0.897   6.736
 4672SOL    HW231159   4.142   0.973   6.803
 4673SOL     OW31160   6.095   4.736   5.464
 4673SOL    HW131161   6.102   4.820   5.418
 4673SOL    HW231162   6.035   4.754   5.537
 4674SOL     OW31163   4.399   5.132   0.818
 4674SOL    HW131164   4.464   5.117   0.749
 4674SOL    HW231165   4.316   5.135   0.772
 4675SOL     OW31166   1.949   3.265   7.479
 4675SOL    HW131167   1.925   3.173   7.465
 4675SOL    HW231168   1.902   3.312   7.410
 4676SOL     OW31169   6.405   0.042   6.396
 4676SOL    HW131170   6.325  -0.009   6.377
 4676SOL    HW231171   6.423   0.023   6.488
 4677SOL     OW31172   3.892   4.759   5.891
 4677SOL    HW131173   3.975   4.751   5.939
 4677SOL    HW231174   3.853   4.672   5.896
 4678SOL     OW31175   4.135   2.143   1.663
 4678SOL    HW131176   4.097   2.069   1.615
 4678SOL    HW231177   4.218   2.160   1.618
 4679SOL     OW31178   2.798   3.160   0.238
 4679SOL    HW131179   2.845   3.197   0.313
 4679SOL    HW231180   2.707   3.155   0.266
 4680SOL     OW31181   3.052   1.444   6.379
 4680SOL    HW131182   3.069   1.350   6.383
 4680SOL    HW231183   2.986   1.453   6.310
 4681SOL     OW31184   5.000   5.097   1.021
 4681SOL    HW131185   5.055   5.175   1.023
 4681SOL    HW231186   5.062   5.024   1.014
 4682SOL     OW31187   0.417   0.236   0.588
 4682SOL    HW131188   0.408   0.192   0.673
 4682SOL    HW231189   0.345   0.299   0.586
 4683SOL     OW31190   3.953   2.549   6.536
 4683SOL    HW131191   3.976   2.642   6.539
 4683SOL    HW231192   3.857   2.548   6.541
 4684SOL     OW31193   4.632   6.116   2.094
 4684SOL    HW131194   4.590   6.201   2.108
 4684SOL    HW231195   4.690   6.105   2.169
 4685SOL     OW31196   4.187   2.677   1.523
 4685SOL    HW131197   4.099   2.660   1.489
 4685SOL    HW231198   4.234   2.719   1.451
 4686SOL     OW31199   2.303   5.602   7.474
 4686SOL    HW131200   2.340   5.677   7.520
 4686SOL    HW231201   2.212   5.627   7.455
 4687SOL     OW31202   1.234   5.199   0.189
 4687SOL    HW131203   1.318   5.153   0.189
 4687SOL    HW231204   1.256   5.290   0.208
 4688SOL     OW31205   3.436   5.963   2.277
 4688SOL    HW131206   3.370   6.030   2.292
 4688SOL    HW231207   3.439   5.914   2.359
 4689SOL     OW31208   3.279   4.211   6.738
 4689SOL    HW131209   3.308   4.284   6.684
 4689SOL    HW231210   3.322   4.226   6.823
 4690SOL     OW31211   1.851   5.769   2.031
 4690SOL    HW131212   1.906   5.836   2.072
 4690SOL    HW231213   1.766   5.779   2.073
 4691SOL     OW31214   5.658   2.223   7.311
 4691SOL    HW131215   5.595   2.178   7.253
 4691SOL    HW231216   5.606   2.252   7.386
 4692SOL     OW31217   3.354   3.948   2.324
 4692SOL    HW131218   3.444   3.972   2.303
 4692SOL    HW231219   3.301   4.015   2.283
 4693SOL     OW31220   3.471   3.829   1.892
 4693SOL    HW131221   3.566   3.823   1.909
 4693SOL    HW231222   3.448   3.918   1.919
 4694SOL     OW31223   5.096   5.502   1.089
 4694SOL    HW131224   5.163   5.447   1.048
 4694SOL    HW231225   5.027   5.509   1.023
 4695SOL     OW31226   0.705   3.046   0.576
 4695SOL    HW131227   0.655   3.121   0.608
 4695SOL    HW231228   0.797   3.073   0.583
 4696SOL     OW31229   2.875   5.855   7.564
 4696SOL    HW131230   2.922   5.799   7.502
 4696SOL    HW231231   2.855   5.934   7.513
 4697SOL     OW31232   0.550   0.923   1.114
 4697SOL    HW131233   0.514   0.844   1.073
 4697SOL    HW231234   0.634   0.937   1.069
 4698SOL     OW31235   2.847   2.539   7.252
 4698SOL    HW131236   2.933   2.561   7.289
 4698SOL    HW231237   2.789   2.537   7.328
 4699SOL     OW31238   6.016   0.292   1.111
 4699SOL    HW131239   6.103   0.255   1.128
 4699SOL    HW231240   5.955   0.221   1.129
 4700SOL     OW31241   1.664   1.360   1.165
 4700SOL    HW131242   1.725   1.290   1.145
 4700SOL    HW231243   1.715   1.424   1.215
 4701SOL     OW31244   3.906   2.994   1.377
 4701SOL    HW131245   3.845   3.059   1.341
 4701SOL    HW231246   3.898   2.919   1.319
 4702SOL     OW31247   3.179   0.613   7.115
 4702SOL    HW131248   3.215   0.701   7.104
 4702SOL    HW231249   3.121   0.621   7.191
 4703SOL     OW31250   3.439   6.453   0.669
 4703SOL    HW131251   3.487   6.453   0.586
 4703SOL    HW231252   3.476   6.525   0.719
 4704SOL     OW31253   1.487   0.427   1.277
 4704SOL    HW131254   1.475   0.333   1.283
 4704SOL    HW231255   1.431   0.454   1.204
 4705SOL     OW31256   2.432   4.634   6.832
 4705SOL    HW131257   2.460   4.601   6.747
 4705SOL    HW231258   2.457   4.727   6.831
 4706SOL     OW31259   0.395   1.558   6.360
 4706SOL    HW131260   0.482   1.519   6.366
 4706SOL    HW231261   0.386   1.583   6.268
 4707SOL     OW31262   3.021   0.073   1.655
 4707SOL    HW131263   2.955   0.019   1.612
 4707SOL    HW231264   3.097   0.016   1.665
 4708SOL     OW31265   4.747   6.360   7.691
 4708SOL    HW131266   4.735   6.287   7.752
 4708SOL    HW231267   4.663   6.366   7.645
 4709SOL     OW31268   5.504   0.209   7.429
 4709SOL    HW131269   5.558   0.166   7.363
 4709SOL    HW231270   5.490   0.298   7.396
 4710SOL     OW31271   0.350   0.882   6.453
 4710SOL    HW131272   0.445   0.873   6.457
 4710SOL    HW231273   0.336   0.975   6.434
 4711SOL     OW31274   5.311   5.197   2.027
 4711SOL    HW131275   5.406   5.204   2.034
 4711SOL    HW231276   5.281   5.197   2.118
 4712SOL     OW31277   2.481   2.868   6.506
 4712SOL    HW131278   2.400   2.875   6.456
 4712SOL    HW231279   2.546   2.839   6.441
 4713SOL     OW31280   2.458   2.040   0.654
 4713SOL    HW131281   2.400   2.073   0.722
 4713SOL    HW231282   2.449   1.945   0.659
 4714SOL     OW31283   0.665   1.354   6.949
 4714SOL    HW131284   0.573   1.378   6.964
 4714SOL    HW231285   0.660   1.274   6.896
 4715SOL     OW31286   0.997   1.000   7.152
 4715SOL    HW131287   0.929   1.061   7.177
 4715SOL    HW231288   0.951   0.921   7.124
 4716SOL     OW31289   0.950   1.994   1.921
 4716SOL    HW131290   1.022   1.948   1.964
 4716SOL    HW231291   0.984   2.081   1.902
 4717SOL     OW31292   0.176   3.321   2.443
 4717SOL    HW131293   0.195   3.323   2.537
 4717SOL    HW231294   0.082   3.303   2.439
 4718SOL     OW31295   2.405   3.875   1.898
 4718SOL    HW131296   2.404   3.801   1.958
 4718SOL    HW231297   2.342   3.852   1.830
 4719SOL     OW31298   6.121   0.860   7.034
 4719SOL    HW131299   6.117   0.770   7.067
 4719SOL    HW231300   6.118   0.915   7.113
 4720SOL     OW31301   4.508   0.321   1.068
 4720SOL    HW131302   4.436   0.258   1.065
 4720SOL    HW231303   4.548   0.306   1.153
 4721SOL     OW31304   0.553   4.220   6.067
 4721SOL    HW131305   0.489   4.286   6.041
 4721SOL    HW231306   0.578   4.246   6.156
 4722SOL     OW31307   3.364   5.536   2.205
 4722SOL    HW131308   3.415   5.462   2.238
 4722SOL    HW231309   3.289   5.496   2.162
 4723SOL     OW31310   0.586   1.149   1.572
 4723SOL    HW131311   0.495   1.122   1.562
 4723SOL    HW231312   0.635   1.089   1.517
 4724SOL     OW31313   0.189   1.322   7.543
 4724SOL    HW131314   0.167   1.401   7.591
 4724SOL    HW231315   0.281   1.333   7.518
 4725SOL     OW31316   0.166   3.785   6.626
 4725SOL    HW131317   0.084   3.772   6.674
 4725SOL    HW231318   0.225   3.826   6.690
 4726SOL     OW31319   5.460   5.316   2.330
 4726SOL    HW131320   5.514   5.297   2.254
 4726SOL    HW231321   5.380   5.266   2.317
 4727SOL     OW31322   4.251   1.548   6.515
 4727SOL    HW131323   4.226   1.569   6.425
 4727SOL    HW231324   4.307   1.621   6.541
 4728SOL     OW31325   5.141   6.113   1.625
 4728SOL    HW131326   5.100   6.197   1.644
 4728SOL    HW231327   5.085   6.074   1.558
 4729SOL     OW31328   1.374   3.730   2.305
 4729SOL    HW131329   1.332   3.797   2.359
 4729SOL    HW231330   1.355   3.756   2.215
 4730SOL     OW31331   3.795   3.336   1.520
 4730SOL    HW131332   3.715   3.305   1.476
 4730SOL    HW231333   3.782   3.430   1.529
 4731SOL     OW31334   5.280   1.848   0.677
 4731SOL    HW131335   5.316   1.877   0.593
 4731SOL    HW231336   5.290   1.753   0.676
 4732SOL     OW31337   5.550   5.970   2.320
 4732SOL    HW131338   5.495   5.896   2.344
 4732SOL    HW231339   5.565   5.960   2.226
 4733SOL     OW31340   4.834   4.725   1.735
 4733SOL    HW131341   4.902   4.672   1.777
 4733SOL    HW231342   4.846   4.813   1.772
 4734SOL     OW31343   2.771   0.144   1.397
 4734SOL    HW131344   2.824   0.217   1.428
 4734SOL    HW231345   2.809   0.067   1.440
 4735SOL     OW31346   5.056   1.792   7.152
 4735SOL    HW131347   5.054   1.751   7.066
 4735SOL    HW231348   5.009   1.874   7.141
 4736SOL     OW31349   3.034   1.426   6.703
 4736SOL    HW131350   3.113   1.456   6.747
 4736SOL    HW231351   3.053   1.435   6.610
 4737SOL     OW31352   0.931   4.310   7.325
 4737SOL    HW131353   0.926   4.405   7.314
 4737SOL    HW231354   1.024   4.290   7.321
 4738SOL     OW31355   0.911   2.942   6.638
 4738SOL    HW131356   0.921   2.891   6.718
 4738SOL    HW231357   0.983   2.913   6.582
 4739SOL     OW31358   3.316   5.545   6.807
 4739SOL    HW131359   3.339   5.607   6.877
 4739SOL    HW231360   3.234   5.580   6.771
 4740SOL     OW31361   3.834   5.395   5.915
 4740SOL    HW131362   3.801   5.337   5.846
 4740SOL    HW231363   3.923   5.364   5.933
 4741SOL     OW31364   4.251   2.014   0.910
 4741SOL    HW131365   4.325   2.073   0.902
 4741SOL    HW231366   4.227   1.992   0.820
 4742SOL     OW31367   3.542   1.936   0.094
 4742SOL    HW131368   3.573   1.875   0.027
 4742SOL    HW231369   3.512   1.880   0.166
 4743SOL     OW31370   3.656   1.691   7.728
 4743SOL    HW131371   3.666   1.690   7.823
 4743SOL    HW231372   3.594   1.620   7.710
 4744SOL     OW31373   3.711   6.027   6.514
 4744SOL    HW131374   3.713   6.009   6.607
 4744SOL    HW231375   3.765   6.105   6.503
 4745SOL     OW31376   2.687   5.995   1.237
 4745SOL    HW131377   2.677   5.915   1.185
 4745SOL    HW231378   2.644   6.063   1.184
 4746SOL     OW31379   4.586   5.591   6.303
 4746SOL    HW131380   4.597   5.683   6.326
 4746SOL    HW231381   4.493   5.574   6.320
 4747SOL     OW31382   4.768   5.073   0.818
 4747SOL    HW131383   4.732   5.079   0.907
 4747SOL    HW231384   4.756   5.161   0.782
 4748SOL     OW31385   1.478   1.863   0.892
 4748SOL    HW131386   1.480   1.930   0.960
 4748SOL    HW231387   1.390   1.868   0.856
 4749SOL     OW31388   4.569   2.908   1.213
 4749SOL    HW131389   4.534   2.998   1.212
 4749SOL    HW231390   4.661   2.919   1.238
 4750SOL     OW31391   2.263   0.278   0.423
 4750SOL    HW131392   2.259   0.183   0.414
 4750SOL    HW231393   2.326   0.306   0.357
 4751SOL     OW31394   1.087   3.209   0.136
 4751SOL    HW131395   1.018   3.269   0.107
 4751SOL    HW231396   1.040   3.133   0.170
 4752SOL     OW31397   5.669   2.153   0.058
 4752SOL    HW131398   5.642   2.089  -0.008
 4752SOL    HW231399   5.702   2.099   0.130
 4753SOL     OW31400   0.209   6.463   5.990
 4753SOL    HW131401   0.180   6.442   6.079
 4753SOL    HW231402   0.296   6.501   6.001
 4754SOL     OW31403   6.400   0.949   7.410
 4754SOL    HW131404   6.404   0.971   7.317
 4754SOL    HW231405   6.487   0.970   7.443
 4755SOL     OW31406   3.309   5.957   7.667
 4755SOL    HW131407   3.310   5.986   7.576
 4755SOL    HW231408   3.224   5.985   7.701
 4756SOL     OW31409   4.137   6.402   2.123
 4756SOL    HW131410   4.148   6.439   2.210
 4756SOL    HW231411   4.224   6.405   2.084
 4757SOL     OW31412   3.395   0.066   6.419
 4757SOL    HW131413   3.365   0.070   6.328
 4757SOL    HW231414   3.315   0.075   6.471
 4758SOL     OW31415   1.870   3.002   6.815
 4758SOL    HW131416   1.779   2.973   6.817
 4758SOL    HW231417   1.870   3.078   6.756
 4759SOL     OW31418   1.324   5.459   0.252
 4759SOL    HW131419   1.419   5.470   0.259
 4759SOL    HW231420   1.288   5.507   0.327
 4760SOL     OW31421   3.796   1.678   6.994
 4760SOL    HW131422   3.877   1.728   6.988
 4760SOL    HW231423   3.787   1.658   7.087
 4761SOL     OW31424   2.234   1.195   0.224
 4761SOL    HW131425   2.315   1.146   0.239
 4761SOL    HW231426   2.171   1.128   0.196
 4762SOL     OW31427   1.836   3.697   7.320
 4762SOL    HW131428   1.921   3.738   7.304
 4762SOL    HW231429   1.794   3.753   7.384
 4763SOL     OW31430   3.489   3.944   0.734
 4763SOL    HW131431   3.395   3.942   0.720
 4763SOL    HW231432   3.527   3.906   0.655
 4764SOL     OW31433   0.910   3.404   1.048
 4764SOL    HW131434   0.936   3.496   1.043
 4764SOL    HW231435   0.825   3.405   1.091
 4765SOL     OW31436   4.124   4.035   0.316
 4765SOL    HW131437   4.109   4.079   0.232
 4765SOL    HW231438   4.045   4.054   0.367
 4766SOL     OW31439   0.616   3.656   7.057
 4766SOL    HW131440   0.575   3.733   7.095
 4766SOL    HW231441   0.559   3.631   6.984
 4767SOL     OW31442   5.173   6.468   7.537
 4767SOL    HW131443   5.132   6.499   7.456
 4767SOL    HW231444   5.135   6.381   7.550
 4768SOL     OW31445   3.315   0.221   0.134
 4768SOL    HW131446   3.272   0.145   0.094
 4768SOL    HW231447   3.317   0.199   0.228
 4769SOL     OW31448   3.124   2.009   0.032
 4769SOL    HW131449   3.066   1.964  -0.029
 4769SOL    HW231450   3.091   2.099   0.036
 4770SOL     OW31451   4.989   6.365   1.645
 4770SOL    HW131452   4.962   6.330   1.730
 4770SOL    HW231453   5.041   6.442   1.666
 4771SOL     OW31454   1.638   4.378   7.005
 4771SOL    HW131455   1.566   4.395   7.067
 4771SOL    HW231456   1.597   4.331   6.933
 4772SOL     OW31457   5.946   2.133   1.387
 4772SOL    HW131458   6.035   2.155   1.359
 4772SOL    HW231459   5.955   2.107   1.479
 4773SOL     OW31460   4.129   5.522   1.160
 4773SOL    HW131461   4.180   5.510   1.240
 4773SOL    HW231462   4.125   5.434   1.121
 4774SOL     OW31463   5.538   2.190   0.461
 4774SOL    HW131464   5.490   2.119   0.420
 4774SOL    HW231465   5.605   2.147   0.514
 4775SOL     OW31466   6.106   5.013   6.538
 4775SOL    HW131467   6.140   4.926   6.518
 4775SOL    HW231468   6.012   5.006   6.523
 4776SOL     OW31469   6.401   1.248   0.316
 4776SOL    HW131470   6.317   1.227   0.356
 4776SOL    HW231471   6.408   1.190   0.240
 4777SOL     OW31472   3.137   6.262   6.254
 4777SOL    HW131473   3.052   6.221   6.269
 4777SOL    HW231474   3.153   6.250   6.160
 4778SOL     OW31475   1.571   4.709   0.632
 4778SOL    HW131476   1.633   4.768   0.674
 4778SOL    HW231477   1.486   4.733   0.668
 4779SOL     OW31478   4.067   5.423   7.453
 4779SOL    HW131479   4.053   5.397   7.544
 4779SOL    HW231480   4.159   5.403   7.436
 4780SOL     OW31481   3.919   6.217   5.273
 4780SOL    HW131482   3.846   6.268   5.308
 4780SOL    HW231483   3.988   6.226   5.338
 4781SOL     OW31484   2.996   4.654   6.619
 4781SOL    HW131485   3.077   4.657   6.568
 4781SOL    HW231486   2.989   4.563   6.647
 4782SOL     OW31487   2.505   2.543   6.381
 4782SOL    HW131488   2.482   2.610   6.317
 4782SOL    HW231489   2.600   2.550   6.389
 4783SOL     OW31490   1.069   3.460   6.786
 4783SOL    HW131491   1.130   3.495   6.722
 4783SOL    HW231492   1.112   3.474   6.871
 4784SOL     OW31493   6.323   5.194   1.024
 4784SOL    HW131494   6.249   5.247   0.993
 4784SOL    HW231495   6.305   5.106   0.990
 4785SOL     OW31496   3.892   0.859   7.629
 4785SOL    HW131497   3.905   0.790   7.694
 4785SOL    HW231498   3.976   0.865   7.583
 4786SOL     OW31499   1.078   1.920   0.934
 4786SOL    HW131500   1.002   1.865   0.953
 4786SOL    HW231501   1.046   2.010   0.946
 4787SOL     OW31502   2.649   4.531   0.532
 4787SOL    HW131503   2.612   4.485   0.608
 4787SOL    HW231504   2.577   4.533   0.468
 4788SOL     OW31505   5.411   6.023   1.617
 4788SOL    HW131506   5.318   6.030   1.640
 4788SOL    HW231507   5.412   6.014   1.521
 4789SOL     OW31508   4.187   1.110   6.404
 4789SOL    HW131509   4.115   1.086   6.346
 4789SOL    HW231510   4.228   1.027   6.427
 4790SOL     OW31511   0.671   4.348   6.671
 4790SOL    HW131512   0.585   4.323   6.638
 4790SOL    HW231513   0.656   4.368   6.763
 4791SOL     OW31514   0.849   5.199   6.802
 4791SOL    HW131515   0.812   5.116   6.772
 4791SOL    HW231516   0.896   5.177   6.883
 4792SOL     OW31517   0.420   5.864   1.959
 4792SOL    HW131518   0.441   5.773   1.983
 4792SOL    HW231519   0.324   5.867   1.960
 4793SOL     OW31520   6.248   3.698   0.508
 4793SOL    HW131521   6.222   3.718   0.418
 4793SOL    HW231522   6.166   3.686   0.555
 4794SOL     OW31523   2.341   1.584   7.451
 4794SOL    HW131524   2.398   1.623   7.384
 4794SOL    HW231525   2.302   1.508   7.407
 4795SOL     OW31526   0.812   3.277   2.003
 4795SOL    HW131527   0.803   3.182   2.004
 4795SOL    HW231528   0.778   3.306   2.087
 4796SOL     OW31529   0.517   0.271   7.758
 4796SOL    HW131530   0.453   0.332   7.796
 4796SOL    HW231531   0.557   0.229   7.835
 4797SOL     OW31532   3.816   5.339   6.221
 4797SOL    HW131533   3.838   5.320   6.130
 4797SOL    HW231534   3.894   5.381   6.257
 4798SOL     OW31535   3.466   2.737   2.363
 4798SOL    HW131536   3.527   2.705   2.297
 4798SOL    HW231537   3.445   2.827   2.336
 4799SOL     OW31538   1.941   0.789   6.482
 4799SOL    HW131539   1.865   0.847   6.472
 4799SOL    HW231540   1.983   0.791   6.396
 4800SOL     OW31541   1.917   2.778   6.670
 4800SOL    HW131542   1.931   2.859   6.720
 4800SOL    HW231543   1.834   2.743   6.703
 4801SOL     OW31544   4.411   3.458   1.969
 4801SOL    HW131545   4.455   3.483   2.050
 4801SOL    HW231546   4.333   3.411   1.998
 4802SOL     OW31547   3.523   3.409   6.325
 4802SOL    HW131548   3.537   3.411   6.420
 4802SOL    HW231549   3.481   3.325   6.309
 4803SOL     OW31550   4.047   0.935   1.253
 4803SOL    HW131551   4.010   0.987   1.182
 4803SOL    HW231552   3.974   0.885   1.288
 4804SOL     OW31553   1.473   0.637   6.790
 4804SOL    HW131554   1.422   0.715   6.812
 4804SOL    HW231555   1.556   0.671   6.758
 4805SOL     OW31556   2.381   2.093   7.185
 4805SOL    HW131557   2.368   2.019   7.244
 4805SOL    HW231558   2.368   2.057   7.097
 4806SOL     OW31559   2.774   0.219   7.667
 4806SOL    HW131560   2.778   0.277   7.743
 4806SOL    HW231561   2.685   0.183   7.670
 4807SOL     OW31562   2.128   4.378   1.357
 4807SOL    HW131563   2.058   4.407   1.416
 4807SOL    HW231564   2.103   4.411   1.271
 4808SOL     OW31565   4.630   4.489   0.322
 4808SOL    HW131566   4.674   4.563   0.364
 4808SOL    HW231567   4.700   4.446   0.273
 4809SOL     OW31568   4.531   3.010   1.671
 4809SOL    HW131569   4.488   3.043   1.592
 4809SOL    HW231570   4.499   3.068   1.741
 4810SOL     OW31571   5.406   4.250   6.846
 4810SOL    HW131572   5.362   4.315   6.793
 4810SOL    HW231573   5.380   4.270   6.936
 4811SOL     OW31574   2.267   4.551   7.295
 4811SOL    HW131575   2.192   4.504   7.333
 4811SOL    HW231576   2.236   4.580   7.209
 4812SOL     OW31577   1.599   1.088   0.354
 4812SOL    HW131578   1.557   1.134   0.281
 4812SOL    HW231579   1.684   1.062   0.319
 4813SOL     OW31580   5.356   5.662   1.657
 4813SOL    HW131581   5.404   5.664   1.574
 4813SOL    HW231582   5.390   5.736   1.706
 4814SOL     OW31583   2.685   0.921   0.185
 4814SOL    HW131584   2.772   0.959   0.200
 4814SOL    HW231585   2.691   0.883   0.097
 4815SOL     OW31586   0.248   0.909   6.113
 4815SOL    HW131587   0.342   0.917   6.099
 4815SOL    HW231588   0.228   0.819   6.090
 4816SOL     OW31589   5.210   2.425   5.756
 4816SOL    HW131590   5.135   2.407   5.812
 4816SOL    HW231591   5.256   2.497   5.799
 4817SOL     OW31592   2.650   4.960   7.289
 4817SOL    HW131593   2.596   4.962   7.209
 4817SOL    HW231594   2.690   5.047   7.292
 4818SOL     OW31595   3.672   4.880   0.246
 4818SOL    HW131596   3.685   4.959   0.194
 4818SOL    HW231597   3.685   4.808   0.184
 4819SOL     OW31598   2.782   5.456   0.314
 4819SOL    HW131599   2.861   5.403   0.301
 4819SOL    HW231600   2.776   5.466   0.409
 4820SOL     OW31601   6.319   3.071   0.680
 4820SOL    HW131602   6.269   3.018   0.618
 4820SOL    HW231603   6.372   3.007   0.728
 4821SOL     OW31604   5.494   6.291   6.454
 4821SOL    HW131605   5.423   6.227   6.452
 4821SOL    HW231606   5.462   6.363   6.400
 4822SOL     OW31607   4.413   1.286   7.697
 4822SOL    HW131608   4.462   1.363   7.669
 4822SOL    HW231609   4.459   1.256   7.776
 4823SOL     OW31610   3.393   1.772   1.844
 4823SOL    HW131611   3.347   1.844   1.888
 4823SOL    HW231612   3.439   1.727   1.915
 4824SOL     OW31613   5.775   3.751   6.967
 4824SOL    HW131614   5.854   3.700   6.983
 4824SOL    HW231615   5.798   3.810   6.896
 4825SOL     OW31616   5.590   0.617   0.737
 4825SOL    HW131617   5.646   0.602   0.661
 4825SOL    HW231618   5.512   0.563   0.721
 4826SOL     OW31619   2.494   0.345   1.326
 4826SOL    HW131620   2.504   0.440   1.314
 4826SOL    HW231621   2.507   0.332   1.420
 4827SOL     OW31622   3.055   4.785   7.191
 4827SOL    HW131623   3.139   4.740   7.199
 4827SOL    HW231624   3.060   4.830   7.106
 4828SOL     OW31625   4.187   4.152   1.690
 4828SOL    HW131626   4.129   4.076   1.687
 4828SOL    HW231627   4.183   4.182   1.781
 4829SOL     OW31628   5.524   2.417   5.940
 4829SOL    HW131629   5.572   2.500   5.931
 4829SOL    HW231630   5.589   2.350   5.921
 4830SOL     OW31631   4.189   1.795   1.860
 4830SOL    HW131632   4.155   1.727   1.918
 4830SOL    HW231633   4.283   1.777   1.855
 4831SOL     OW31634   1.329   1.446   7.473
 4831SOL    HW131635   1.239   1.421   7.494
 4831SOL    HW231636   1.338   1.536   7.507
 4832SOL     OW31637   2.597   0.474   7.636
 4832SOL    HW131638   2.576   0.506   7.549
 4832SOL    HW231639   2.519   0.425   7.663
 4833SOL     OW31640   1.851   3.952   0.274
 4833SOL    HW131641   1.793   3.878   0.287
 4833SOL    HW231642   1.923   3.938   0.335
 4834SOL     OW31643   3.663   2.225   7.681
 4834SOL    HW131644   3.705   2.268   7.606
 4834SOL    HW231645   3.701   2.138   7.683
 4835SOL     OW31646   3.944   5.943   5.241
 4835SOL    HW131647   4.025   5.929   5.290
 4835SOL    HW231648   3.928   6.037   5.248
 4836SOL     OW31649   0.918   0.633   6.920
 4836SOL    HW131650   0.979   0.705   6.933
 4836SOL    HW231651   0.863   0.661   6.846
 4837SOL     OW31652   4.630   5.115   1.032
 4837SOL    HW131653   4.581   5.077   1.105
 4837SOL    HW231654   4.606   5.208   1.034
 4838SOL     OW31655   3.263   1.405   1.358
 4838SOL    HW131656   3.347   1.409   1.314
 4838SOL    HW231657   3.264   1.479   1.418
 4839SOL     OW31658   6.010   4.257   1.873
 4839SOL    HW131659   6.011   4.264   1.969
 4839SOL    HW231660   6.017   4.348   1.843
 4840SOL     OW31661   2.972   2.243   0.010
 4840SOL    HW131662   2.931   2.216  -0.072
 4840SOL    HW231663   3.039   2.306  -0.016
 4841SOL     OW31664   3.818   4.262   0.908
 4841SOL    HW131665   3.736   4.254   0.859
 4841SOL    HW231666   3.808   4.201   0.981
 4842SOL     OW31667   4.799   1.295   1.072
 4842SOL    HW131668   4.783   1.237   1.146
 4842SOL    HW231669   4.807   1.236   0.997
 4843SOL     OW31670   0.174   3.026   7.177
 4843SOL    HW131671   0.113   3.081   7.128
 4843SOL    HW231672   0.219   2.975   7.111
 4844SOL     OW31673   2.660   0.426   1.952
 4844SOL    HW131674   2.619   0.506   1.920
 4844SOL    HW231675   2.614   0.355   1.908
 4845SOL     OW31676   1.613   3.299   7.326
 4845SOL    HW131677   1.686   3.255   7.282
 4845SOL    HW231678   1.594   3.374   7.270
 4846SOL     OW31679   2.366   5.951   1.398
 4846SOL    HW131680   2.455   5.918   1.412
 4846SOL    HW231681   2.309   5.877   1.419
 4847SOL     OW31682   5.965   5.609   0.067
 4847SOL    HW131683   5.918   5.593  -0.015
 4847SOL    HW231684   5.928   5.691   0.100
 4848SOL     OW31685   3.242   5.416   1.598
 4848SOL    HW131686   3.197   5.339   1.563
 4848SOL    HW231687   3.294   5.449   1.524
 4849SOL     OW31688   1.454   0.229   5.927
 4849SOL    HW131689   1.390   0.199   5.992
 4849SOL    HW231690   1.469   0.152   5.872
 4850SOL     OW31691   3.918   1.001   2.566
 4850SOL    HW131692   3.953   1.038   2.486
 4850SOL    HW231693   3.871   0.922   2.537
 4851SOL     OW31694   1.557   6.165   0.783
 4851SOL    HW131695   1.541   6.107   0.857
 4851SOL    HW231696   1.648   6.192   0.791
 4852SOL     OW31697   2.474   2.194   1.641
 4852SOL    HW131698   2.447   2.285   1.654
 4852SOL    HW231699   2.488   2.160   1.730
 4853SOL     OW31700   4.381   3.138   6.486
 4853SOL    HW131701   4.454   3.145   6.547
 4853SOL    HW231702   4.308   3.109   6.540
 4854SOL     OW31703   4.830   5.137   6.813
 4854SOL    HW131704   4.887   5.065   6.784
 4854SOL    HW231705   4.746   5.095   6.829
 4855SOL     OW31706   1.832   0.152   1.762
 4855SOL    HW131707   1.789   0.153   1.847
 4855SOL    HW231708   1.763   0.176   1.700
 4856SOL     OW31709   0.337   2.521   6.737
 4856SOL    HW131710   0.424   2.560   6.728
 4856SOL    HW231711   0.280   2.594   6.761
 4857SOL     OW31712   3.387   5.143   2.308
 4857SOL    HW131713   3.340   5.146   2.392
 4857SOL    HW231714   3.321   5.111   2.246
 4858SOL     OW31715   6.089   3.396   1.093
 4858SOL    HW131716   6.077   3.339   1.017
 4858SOL    HW231717   6.040   3.353   1.163
 4859SOL     OW31718   3.543   0.972   0.342
 4859SOL    HW131719   3.568   0.970   0.435
 4859SOL    HW231720   3.508   1.060   0.329
 4860SOL     OW31721   1.416   3.753   7.503
 4860SOL    HW131722   1.450   3.700   7.575
 4860SOL    HW231723   1.409   3.691   7.430
 4861SOL     OW31724   4.972   5.621   7.052
 4861SOL    HW131725   4.982   5.533   7.089
 4861SOL    HW231726   4.885   5.650   7.080
 4862SOL     OW31727   4.794   1.679   5.765
 4862SOL    HW131728   4.814   1.615   5.833
 4862SOL    HW231729   4.724   1.732   5.802
 4863SOL     OW31730   6.058   6.241   6.115
 4863SOL    HW131731   6.122   6.184   6.073
 4863SOL    HW231732   5.973   6.206   6.090
 4864SOL     OW31733   3.690   3.093   0.686
 4864SOL    HW131734   3.785   3.088   0.695
 4864SOL    HW231735   3.663   3.164   0.745
 4865SOL     OW31736   1.602   4.899   1.791
 4865SOL    HW131737   1.615   4.840   1.716
 4865SOL    HW231738   1.613   4.987   1.754
 4866SOL     OW31739   5.804   6.060   0.019
 4866SOL    HW131740   5.715   6.092   0.005
 4866SOL    HW231741   5.840   6.051  -0.069
 4867SOL     OW31742   5.670   5.981   6.323
 4867SOL    HW131743   5.700   5.907   6.270
 4867SOL    HW231744   5.577   5.991   6.299
 4868SOL     OW31745   5.648   5.197   7.120
 4868SOL    HW131746   5.710   5.194   7.192
 4868SOL    HW231747   5.572   5.149   7.152
 4869SOL     OW31748   0.567   0.892   1.726
 4869SOL    HW131749   0.476   0.905   1.700
 4869SOL    HW231750   0.618   0.915   1.648
 4870SOL     OW31751   1.927   2.354   6.143
 4870SOL    HW131752   1.932   2.272   6.094
 4870SOL    HW231753   1.843   2.393   6.118
 4871SOL     OW31754   1.279   2.521   0.434
 4871SOL    HW131755   1.189   2.490   0.418
 4871SOL    HW231756   1.292   2.590   0.370
 4872SOL     OW31757   4.584   5.776   7.370
 4872SOL    HW131758   4.508   5.821   7.406
 4872SOL    HW231759   4.634   5.844   7.327
 4873SOL     OW31760   1.459   5.577   1.371
 4873SOL    HW131761   1.489   5.639   1.437
 4873SOL    HW231762   1.513   5.595   1.294
 4874SOL     OW31763   1.542   5.931   7.696
 4874SOL    HW131764   1.531   5.839   7.718
 4874SOL    HW231765   1.555   5.932   7.601
 4875SOL     OW31766   1.728   5.576   1.460
 4875SOL    HW131767   1.671   5.635   1.510
 4875SOL    HW231768   1.812   5.622   1.456
 4876SOL     OW31769   3.738   0.559   5.501
 4876SOL    HW131770   3.652   0.601   5.494
 4876SOL    HW231771   3.718   0.466   5.510
 4877SOL     OW31772   1.770   0.024   7.624
 4877SOL    HW131773   1.807  -0.063   7.641
 4877SOL    HW231774   1.796   0.044   7.534
 4878SOL     OW31775   2.312   2.659   0.728
 4878SOL    HW131776   2.261   2.727   0.683
 4878SOL    HW231777   2.287   2.578   0.684
 4879SOL     OW31778   4.311   2.787   1.286
 4879SOL    HW131779   4.370   2.858   1.313
 4879SOL    HW231780   4.270   2.819   1.206
 4880SOL     OW31781   3.014   4.193   0.013
 4880SOL    HW131782   3.046   4.108  -0.019
 4880SOL    HW231783   2.985   4.239  -0.065
 4881SOL     OW31784   0.906   2.559   0.906
 4881SOL    HW131785   0.847   2.634   0.895
 4881SOL    HW231786   0.871   2.512   0.981
 4882SOL     OW31787   4.818   3.610   7.393
 4882SOL    HW131788   4.834   3.516   7.400
 4882SOL    HW231789   4.829   3.643   7.481
 4883SOL     OW31790   6.321   4.832   7.469
 4883SOL    HW131791   6.235   4.849   7.507
 4883SOL    HW231792   6.349   4.917   7.435
 4884SOL     OW31793   3.830   5.189   6.853
 4884SOL    HW131794   3.907   5.138   6.877
 4884SOL    HW231795   3.865   5.270   6.817
 4885SOL     OW31796   4.556   1.476   5.820
 4885SOL    HW131797   4.535   1.422   5.745
 4885SOL    HW231798   4.601   1.552   5.783
 4886SOL     OW31799   5.374   4.728   0.062
 4886SOL    HW131800   5.467   4.745   0.050
 4886SOL    HW231801   5.361   4.641   0.025
 4887SOL     OW31802   3.180   0.663   1.409
 4887SOL    HW131803   3.220   0.595   1.463
 4887SOL    HW231804   3.200   0.638   1.319
 4888SOL     OW31805   5.552   5.397   7.620
 4888SOL    HW131806   5.476   5.355   7.580
 4888SOL    HW231807   5.576   5.340   7.693
 4889SOL     OW31808   5.354   0.743   6.352
 4889SOL    HW131809   5.417   0.734   6.423
 4889SOL    HW231810   5.331   0.653   6.328
 4890SOL     OW31811   1.264   2.422   6.916
 4890SOL    HW131812   1.341   2.375   6.950
 4890SOL    HW231813   1.215   2.355   6.868
 4891SOL     OW31814   3.838   4.087   6.545
 4891SOL    HW131815   3.796   4.171   6.526
 4891SOL    HW231816   3.868   4.095   6.635
 4892SOL     OW31817   4.575   3.560   0.284
 4892SOL    HW131818   4.535   3.592   0.365
 4892SOL    HW231819   4.571   3.635   0.224
 4893SOL     OW31820   2.218   5.775   1.502
 4893SOL    HW131821   2.237   5.681   1.510
 4893SOL    HW231822   2.166   5.795   1.580
 4894SOL     OW31823   4.757   3.704   5.560
 4894SOL    HW131824   4.678   3.756   5.570
 4894SOL    HW231825   4.820   3.763   5.519
 4895SOL     OW31826   1.144   3.219   6.916
 4895SOL    HW131827   1.189   3.177   6.842
 4895SOL    HW231828   1.214   3.262   6.965
 4896SOL     OW31829   1.027   3.837   6.792
 4896SOL    HW131830   1.062   3.836   6.703
 4896SOL    HW231831   0.962   3.907   6.791
 4897SOL     OW31832   2.196   5.573   7.181
 4897SOL    HW131833   2.127   5.638   7.196
 4897SOL    HW231834   2.264   5.621   7.134
 4898SOL     OW31835   3.119   5.174   7.136
 4898SOL    HW131836   3.160   5.252   7.098
 4898SOL    HW231837   3.057   5.209   7.200
 4899SOL     OW31838   1.638   2.172   0.356
 4899SOL    HW131839   1.598   2.129   0.432
 4899SOL    HW231840   1.680   2.102   0.308
 4900SOL     OW31841   4.213   2.747   0.441
 4900SOL    HW131842   4.301   2.761   0.475
 4900SOL    HW231843   4.174   2.684   0.502
 4901SOL     OW31844   3.868   2.783   2.113
 4901SOL    HW131845   3.787   2.734   2.127
 4901SOL    HW231846   3.937   2.717   2.120
 4902SOL     OW31847   5.058   0.201   7.372
 4902SOL    HW131848   4.990   0.215   7.306
 4902SOL    HW231849   5.031   0.253   7.447
 4903SOL     OW31850   3.070   2.098   0.674
 4903SOL    HW131851   3.142   2.161   0.678
 4903SOL    HW231852   3.023   2.120   0.594
 4904SOL     OW31853   5.338   4.144   0.721
 4904SOL    HW131854   5.393   4.074   0.685
 4904SOL    HW231855   5.386   4.224   0.700
 4905SOL     OW31856   3.927   5.727   0.434
 4905SOL    HW131857   3.933   5.778   0.515
 4905SOL    HW231858   3.864   5.658   0.454
 4906SOL     OW31859   6.346   4.115   0.909
 4906SOL    HW131860   6.408   4.121   0.837
 4906SOL    HW231861   6.334   4.206   0.938
 4907SOL     OW31862   3.074   5.480   7.175
 4907SOL    HW131863   3.023   5.434   7.242
 4907SOL    HW231864   3.162   5.485   7.211
 4908SOL     OW31865   0.770   0.635   1.513
 4908SOL    HW131866   0.737   0.551   1.480
 4908SOL    HW231867   0.805   0.615   1.599
 4909SOL     OW31868   5.053   1.357   6.657
 4909SOL    HW131869   5.051   1.262   6.651
 4909SOL    HW231870   5.105   1.376   6.735
 4910SOL     OW31871   3.112   1.832   6.711
 4910SOL    HW131872   3.037   1.805   6.658
 4910SOL    HW231873   3.075   1.881   6.784
 4911SOL     OW31874   0.908   5.211   1.715
 4911SOL    HW131875   0.912   5.131   1.662
 4911SOL    HW231876   0.859   5.273   1.660
 4912SOL     OW31877   2.299   5.746   0.609
 4912SOL    HW131878   2.270   5.837   0.619
 4912SOL    HW231879   2.221   5.700   0.577
 4913SOL     OW31880   5.601   1.567   6.356
 4913SOL    HW131881   5.696   1.576   6.366
 4913SOL    HW231882   5.568   1.657   6.356
 4914SOL     OW31883   6.395   5.929   0.650
 4914SOL    HW131884   6.443   5.852   0.680
 4914SOL    HW231885   6.400   5.925   0.554
 4915SOL     OW31886   0.644   5.722   1.461
 4915SOL    HW131887   0.554   5.691   1.451
 4915SOL    HW231888   0.690   5.649   1.502
 4916SOL     OW31889   5.751   4.380   6.329
 4916SOL    HW131890   5.750   4.300   6.277
 4916SOL    HW231891   5.689   4.364   6.400
 4917SOL     OW31892   2.110   4.102   2.385
 4917SOL    HW131893   2.136   4.060   2.467
 4917SOL    HW231894   2.083   4.029   2.328
 4918SOL     OW31895   0.143   0.327   0.999
 4918SOL    HW131896   0.060   0.343   1.043
 4918SOL    HW231897   0.210   0.346   1.065
 4919SOL     OW31898   3.286   4.885   0.576
 4919SOL    HW131899   3.266   4.863   0.667
 4919SOL    HW231900   3.208   4.859   0.527
 4920SOL     OW31901   1.866   3.510   0.786
 4920SOL    HW131902   1.816   3.561   0.850
 4920SOL    HW231903   1.941   3.566   0.765
 4921SOL     OW31904   2.622   1.386   0.063
 4921SOL    HW131905   2.571   1.393  -0.017
 4921SOL    HW231906   2.713   1.394   0.035
 4922SOL     OW31907   3.505   1.377   1.720
 4922SOL    HW131908   3.553   1.461   1.720
 4922SOL    HW231909   3.510   1.347   1.810
 4923SOL     OW31910   4.896   6.003   7.129
 4923SOL    HW131911   4.908   6.097   7.144
 4923SOL    HW231912   4.844   5.974   7.204
 4924SOL     OW31913   1.892   2.238   7.229
 4924SOL    HW131914   1.807   2.257   7.188
 4924SOL    HW231915   1.881   2.264   7.320
 4925SOL     OW31916   3.392   0.865   0.061
 4925SOL    HW131917   3.456   0.801   0.091
 4925SOL    HW231918   3.435   0.950   0.072
 4926SOL     OW31919   1.758   2.685   7.400
 4926SOL    HW131920   1.798   2.772   7.405
 4926SOL    HW231921   1.784   2.652   7.314
 4927SOL     OW31922   5.948   5.218   7.000
 4927SOL    HW131923   5.977   5.180   7.082
 4927SOL    HW231924   5.854   5.230   7.011
 4928SOL     OW31925   1.228   5.766   0.700
 4928SOL    HW131926   1.218   5.854   0.665
 4928SOL    HW231927   1.320   5.744   0.686
 4929SOL     OW31928   6.233   5.146   7.395
 4929SOL    HW131929   6.321   5.178   7.373
 4929SOL    HW231930   6.190   5.131   7.311
 4930SOL     OW31931   1.282   1.198   0.037
 4930SOL    HW131932   1.363   1.213  -0.012
 4930SOL    HW231933   1.252   1.286   0.061
 4931SOL     OW31934   1.150   1.186   1.011
 4931SOL    HW131935   1.170   1.243   1.085
 4931SOL    HW231936   1.158   1.097   1.047
 4932SOL     OW31937   3.993   1.348   7.280
 4932SOL    HW131938   4.052   1.416   7.313
 4932SOL    HW231939   4.044   1.302   7.213
 4933SOL     OW31940   5.922   4.247   7.486
 4933SOL    HW131941   5.956   4.317   7.431
 4933SOL    HW231942   5.881   4.292   7.560
 4934SOL     OW31943   3.763   5.520   0.265
 4934SOL    HW131944   3.693   5.560   0.212
 4934SOL    HW231945   3.724   5.439   0.298
 4935SOL     OW31946   1.045   2.349   5.838
 4935SOL    HW131947   1.094   2.337   5.920
 4935SOL    HW231948   0.994   2.429   5.853
 4936SOL     OW31949   5.323   2.385   7.297
 4936SOL    HW131950   5.307   2.311   7.238
 4936SOL    HW231951   5.321   2.345   7.384
 4937SOL     OW31952   2.994   5.541   0.024
 4937SOL    HW131953   2.942   5.542   0.105
 4937SOL    HW231954   3.024   5.632   0.014
 4938SOL     OW31955   3.969   5.219   5.705
 4938SOL    HW131956   3.919   5.138   5.714
 4938SOL    HW231957   4.038   5.211   5.771
 4939SOL     OW31958   3.935   1.994   1.009
 4939SOL    HW131959   3.903   2.070   0.962
 4939SOL    HW231960   4.014   2.025   1.055
 4940SOL     OW31961   4.602   2.900   0.764
 4940SOL    HW131962   4.677   2.845   0.787
 4940SOL    HW231963   4.612   2.916   0.670
 4941SOL     OW31964   1.356   1.283   6.720
 4941SOL    HW131965   1.318   1.361   6.680
 4941SOL    HW231966   1.443   1.312   6.750
 4942SOL     OW31967   3.037   5.093   5.963
 4942SOL    HW131968   3.068   5.034   5.895
 4942SOL    HW231969   3.117   5.130   6.001
 4943SOL     OW31970   3.114   3.791   1.223
 4943SOL    HW131971   3.023   3.767   1.203
 4943SOL    HW231972   3.140   3.848   1.150
 4944SOL     OW31973   5.945   4.865   2.703
 4944SOL    HW131974   6.021   4.860   2.646
 4944SOL    HW231975   5.931   4.774   2.731
 4945SOL     OW31976   2.187   1.346   6.606
 4945SOL    HW131977   2.203   1.284   6.535
 4945SOL    HW231978   2.113   1.309   6.654
 4946SOL     OW31979   3.632   2.182   0.180
 4946SOL    HW131980   3.575   2.111   0.149
 4946SOL    HW231981   3.613   2.255   0.120
 4947SOL     OW31982   5.463   3.807   1.434
 4947SOL    HW131983   5.553   3.817   1.403
 4947SOL    HW231984   5.438   3.895   1.463
 4948SOL     OW31985   1.904   2.264   0.376
 4948SOL    HW131986   1.812   2.291   0.373
 4948SOL    HW231987   1.947   2.320   0.311
 4949SOL     OW31988   5.247   5.440   0.133
 4949SOL    HW131989   5.334   5.404   0.119
 4949SOL    HW231990   5.223   5.412   0.221
 4950SOL     OW31991   2.449   6.091   6.126
 4950SOL    HW131992   2.467   6.007   6.084
 4950SOL    HW231993   2.355   6.089   6.143
 4951SOL     OW31994   6.031   5.604   7.093
 4951SOL    HW131995   5.962   5.571   7.035
 4951SOL    HW231996   6.013   5.562   7.178
 4952SOL     OW31997   4.146   5.918   5.399
 4952SOL    HW131998   4.215   5.856   5.420
 4952SOL    HW231999   4.113   5.947   5.484
 4953SOL     OW32000   3.358   5.850   6.853
 4953SOL    HW132001   3.402   5.902   6.786
 4953SOL    HW232002   3.428   5.799   6.894
 4954SOL     OW32003   5.911   5.992   1.103
 4954SOL    HW132004   5.939   6.051   1.034
 4954SOL    HW232005   5.857   5.926   1.059
 4955SOL     OW32006   3.843   6.289   0.797
 4955SOL    HW132007   3.789   6.219   0.760
 4955SOL    HW232008   3.810   6.369   0.756
 4956SOL     OW32009   5.345   1.304   0.795
 4956SOL    HW132010   5.288   1.380   0.784
 4956SOL    HW232011   5.336   1.256   0.712
 4957SOL     OW32012   2.037   4.874   7.309
 4957SOL    HW132013   2.112   4.870   7.251
 4957SOL    HW232014   2.050   4.955   7.359
 4958SOL     OW32015   3.164   5.655   1.755
 4958SOL    HW132016   3.200   5.579   1.710
 4958SOL    HW232017   3.134   5.712   1.685
 4959SOL     OW32018   4.817   2.763   0.320
 4959SOL    HW132019   4.739   2.711   0.337
 4959SOL    HW232020   4.830   2.756   0.225
 4960SOL     OW32021   5.305   5.822   7.022
 4960SOL    HW132022   5.328   5.798   6.932
 4960SOL    HW232023   5.370   5.778   7.076
 4961SOL     OW32024   4.359   3.386   0.502
 4961SOL    HW132025   4.347   3.332   0.580
 4961SOL    HW232026   4.394   3.469   0.535
 4962SOL     OW32027   4.626   2.493   6.880
 4962SOL    HW132028   4.715   2.510   6.910
 4962SOL    HW232029   4.604   2.408   6.917
 4963SOL     OW32030   1.748   4.722   2.434
 4963SOL    HW132031   1.661   4.688   2.457
 4963SOL    HW232032   1.732   4.775   2.355
 4964SOL     OW32033   5.600   2.150   5.507
 4964SOL    HW132034   5.609   2.101   5.589
 4964SOL    HW232035   5.688   2.183   5.488
 4965SOL     OW32036   2.182   4.703   6.720
 4965SOL    HW132037   2.258   4.668   6.768
 4965SOL    HW232038   2.124   4.627   6.710
 4966SOL     OW32039   0.024   1.202   5.326
 4966SOL    HW132040   0.087   1.132   5.313
 4966SOL    HW232041   0.077   1.281   5.338
 4967SOL     OW32042   5.224   5.009   7.236
 4967SOL    HW132043   5.136   5.046   7.231
 4967SOL    HW232044   5.243   5.006   7.330
 4968SOL     OW32045   1.418   4.132   7.130
 4968SOL    HW132046   1.405   4.226   7.142
 4968SOL    HW232047   1.367   4.092   7.201
 4969SOL     OW32048   6.423   3.487   0.054
 4969SOL    HW132049   6.481   3.413   0.072
 4969SOL    HW232050   6.336   3.448   0.049
 4970SOL     OW32051   3.020   4.421   1.772
 4970SOL    HW132052   2.981   4.359   1.710
 4970SOL    HW232053   2.970   4.408   1.853
 4971SOL     OW32054   6.058   3.280   7.207
 4971SOL    HW132055   6.101   3.237   7.134
 4971SOL    HW232056   6.065   3.217   7.279
 4972SOL     OW32057   3.009   5.351   6.512
 4972SOL    HW132058   3.005   5.269   6.562
 4972SOL    HW232059   3.025   5.323   6.422
 4973SOL     OW32060   4.437   5.538   6.730
 4973SOL    HW132061   4.530   5.557   6.741
 4973SOL    HW232062   4.401   5.615   6.686
 4974SOL     OW32063   4.012   1.180   6.731
 4974SOL    HW132064   4.086   1.200   6.673
 4974SOL    HW232065   3.946   1.143   6.673
 4975SOL     OW32066   5.586   1.065   5.776
 4975SOL    HW132067   5.532   1.144   5.784
 4975SOL    HW232068   5.668   1.094   5.737
 4976SOL     OW32069   2.498   5.438   2.485
 4976SOL    HW132070   2.545   5.394   2.415
 4976SOL    HW232071   2.546   5.520   2.499
 4977SOL     OW32072   0.590   0.447   1.751
 4977SOL    HW132073   0.678   0.473   1.780
 4977SOL    HW232074   0.537   0.447   1.831
 4978SOL     OW32075   1.527   1.504   7.719
 4978SOL    HW132076   1.606   1.558   7.713
 4978SOL    HW232077   1.471   1.549   7.782
 4979SOL     OW32078   4.515   4.724   1.088
 4979SOL    HW132079   4.552   4.700   1.003
 4979SOL    HW232080   4.576   4.687   1.152
 4980SOL     OW32081   3.637   2.016   7.069
 4980SOL    HW132082   3.635   1.938   7.124
 4980SOL    HW232083   3.683   1.988   6.989
 4981SOL     OW32084   1.280   3.167   0.711
 4981SOL    HW132085   1.259   3.256   0.684
 4981SOL    HW232086   1.323   3.129   0.635
 4982SOL     OW32087   5.746   5.494   7.425
 4982SOL    HW132088   5.693   5.486   7.505
 4982SOL    HW232089   5.723   5.580   7.390
 4983SOL     OW32090   4.904   3.953   5.493
 4983SOL    HW132091   4.907   3.962   5.588
 4983SOL    HW232092   4.861   4.033   5.462
 4984SOL     OW32093   4.223   2.296   6.230
 4984SOL    HW132094   4.313   2.324   6.245
 4984SOL    HW232095   4.229   2.200   6.226
 4985SOL     OW32096   2.595   6.243   0.749
 4985SOL    HW132097   2.621   6.175   0.687
 4985SOL    HW232098   2.653   6.317   0.731
 4986SOL     OW32099   3.766   6.028   0.649
 4986SOL    HW132100   3.714   5.973   0.708
 4986SOL    HW232101   3.856   6.001   0.664
 4987SOL     OW32102   0.748   4.920   5.653
 4987SOL    HW132103   0.685   4.863   5.696
 4987SOL    HW232104   0.699   5.000   5.634
 4988SOL     OW32105   6.422   1.892   7.545
 4988SOL    HW132106   6.449   1.844   7.467
 4988SOL    HW232107   6.360   1.833   7.589
 4989SOL     OW32108   1.984   4.411   5.778
 4989SOL    HW132109   1.950   4.337   5.728
 4989SOL    HW232110   1.937   4.408   5.861
 4990SOL     OW32111   5.712   3.450   6.739
 4990SOL    HW132112   5.779   3.479   6.800
 4990SOL    HW232113   5.723   3.355   6.735
 4991SOL     OW32114   3.782   5.210   0.630
 4991SOL    HW132115   3.840   5.145   0.669
 4991SOL    HW232116   3.701   5.203   0.681
 4992SOL     OW32117   3.679   3.844   0.924
 4992SOL    HW132118   3.661   3.907   0.993
 4992SOL    HW232119   3.606   3.854   0.862
 4993SOL     OW32120   5.506   2.544   1.044
 4993SOL    HW132121   5.570   2.588   1.100
 4993SOL    HW232122   5.507   2.453   1.074
 4994SOL     OW32123   6.172   4.334   0.016
 4994SOL    HW132124   6.092   4.366  -0.025
 4994SOL    HW232125   6.168   4.239   0.005
 4995SOL     OW32126   3.380   2.726   6.812
 4995SOL    HW132127   3.369   2.694   6.723
 4995SOL    HW232128   3.416   2.651   6.860
 4996SOL     OW32129   5.635   5.824   0.539
 4996SOL    HW132130   5.674   5.904   0.576
 4996SOL    HW232131   5.546   5.823   0.575
 4997SOL     OW32132   6.326   3.048   7.517
 4997SOL    HW132133   6.417   3.025   7.540
 4997SOL    HW232134   6.320   3.029   7.424
 4998SOL     OW32135   3.197   2.760   1.790
 4998SOL    HW132136   3.198   2.855   1.788
 4998SOL    HW232137   3.158   2.738   1.875
 4999SOL     OW32138   3.260   5.937   1.386
 4999SOL    HW132139   3.335   5.887   1.417
 4999SOL    HW232140   3.261   5.926   1.291
 5000SOL     OW32141   2.063   3.094   1.233
 5000SOL    HW132142   2.062   3.168   1.293
 5000SOL    HW232143   1.998   3.034   1.269
 5001SOL     OW32144   4.278   5.359   0.355
 5001SOL    HW132145   4.217   5.432   0.343
 5001SOL    HW232146   4.234   5.302   0.419
 5002SOL     OW32147   4.120   4.434   7.528
 5002SOL    HW132148   4.032   4.413   7.496
 5002SOL    HW232149   4.174   4.361   7.499
 5003SOL     OW32150   4.919   5.359   1.508
 5003SOL    HW132151   4.985   5.292   1.525
 5003SOL    HW232152   4.957   5.440   1.541
 5004SOL     OW32153   4.746   4.312   6.386
 5004SOL    HW132154   4.809   4.324   6.456
 5004SOL    HW232155   4.743   4.217   6.372
 5005SOL     OW32156   1.227   0.788   0.629
 5005SOL    HW132157   1.287   0.845   0.580
 5005SOL    HW232158   1.277   0.709   0.646
 5006SOL     OW32159   6.342   1.164   0.901
 5006SOL    HW132160   6.365   1.242   0.952
 5006SOL    HW232161   6.254   1.182   0.868
 5007SOL     OW32162   4.189   5.298   0.033
 5007SOL    HW132163   4.184   5.234  -0.038
 5007SOL    HW232164   4.251   5.365   0.002
 5008SOL     OW32165   4.190   5.098   7.576
 5008SOL    HW132166   4.175   5.099   7.481
 5008SOL    HW232167   4.275   5.054   7.586
 5009SOL     OW32168   4.130   1.626   1.093
 5009SOL    HW132169   4.193   1.567   1.135
 5009SOL    HW232170   4.162   1.714   1.114
 5010SOL     OW32171   5.016   2.534   0.904
 5010SOL    HW132172   5.094   2.543   0.850
 5010SOL    HW232173   5.038   2.577   0.986
 5011SOL     OW32174   4.870   5.836   2.268
 5011SOL    HW132175   4.849   5.892   2.343
 5011SOL    HW232176   4.896   5.897   2.199
 5012SOL     OW32177   3.081   3.186   1.220
 5012SOL    HW132178   3.006   3.137   1.188
 5012SOL    HW232179   3.142   3.189   1.146
 5013SOL     OW32180   3.088   2.035   6.053
 5013SOL    HW132181   3.132   2.096   6.112
 5013SOL    HW232182   3.159   1.995   6.002
 5014SOL     OW32183   0.040   3.255   0.670
 5014SOL    HW132184  -0.004   3.170   0.678
 5014SOL    HW232185  -0.027   3.319   0.693
 5015SOL     OW32186   0.038   4.500   6.937
 5015SOL    HW132187   0.092   4.474   7.012
 5015SOL    HW232188   0.101   4.529   6.871
 5016SOL     OW32189   6.338   1.762   0.578
 5016SOL    HW132190   6.389   1.707   0.518
 5016SOL    HW232191   6.372   1.850   0.565
 5017SOL     OW32192   3.525   0.099   7.078
 5017SOL    HW132193   3.491   0.076   6.991
 5017SOL    HW232194   3.619   0.082   7.072
 5018SOL     OW32195   5.071   3.333   0.495
 5018SOL    HW132196   5.095   3.359   0.406
 5018SOL    HW232197   4.976   3.319   0.491
 5019SOL     OW32198   1.499   0.887   6.986
 5019SOL    HW132199   1.443   0.964   6.999
 5019SOL    HW232200   1.454   0.816   7.030
 5020SOL     OW32201   5.236   3.061   2.501
 5020SOL    HW132202   5.173   2.991   2.517
 5020SOL    HW232203   5.321   3.017   2.504
 5021SOL     OW32204   6.061   4.999   7.562
 5021SOL    HW132205   6.110   5.055   7.502
 5021SOL    HW232206   5.969   5.015   7.540
 5022SOL     OW32207   5.724   0.206   6.812
 5022SOL    HW132208   5.713   0.125   6.861
 5022SOL    HW232209   5.644   0.256   6.828
 5023SOL     OW32210   5.154   3.278   0.984
 5023SOL    HW132211   5.216   3.341   1.020
 5023SOL    HW232212   5.089   3.266   1.053
 5024SOL     OW32213  -0.005   2.504   7.532
 5024SOL    HW132214   0.028   2.480   7.446
 5024SOL    HW232215   0.068   2.488   7.591
 5025SOL     OW32216   1.675   4.587   1.921
 5025SOL    HW132217   1.612   4.652   1.890
 5025SOL    HW232218   1.626   4.535   1.984
 5026SOL     OW32219   1.731   5.503   6.483
 5026SOL    HW132220   1.705   5.543   6.401
 5026SOL    HW232221   1.652   5.458   6.514
 5027SOL     OW32222   3.545   3.276   1.701
 5027SOL    HW132223   3.620   3.237   1.747
 5027SOL    HW232224   3.480   3.289   1.770
 5028SOL     OW32225   1.112   4.990   1.193
 5028SOL    HW132226   1.142   5.045   1.266
 5028SOL    HW232227   1.025   4.960   1.220
 5029SOL     OW32228   1.359   5.811   6.310
 5029SOL    HW132229   1.433   5.751   6.311
 5029SOL    HW232230   1.391   5.888   6.263
 5030SOL     OW32231   6.062   1.117   5.566
 5030SOL    HW132232   6.139   1.092   5.517
 5030SOL    HW232233   6.017   1.181   5.510
 5031SOL     OW32234   3.086   1.397   0.922
 5031SOL    HW132235   3.158   1.454   0.896
 5031SOL    HW232236   3.012   1.456   0.936
 5032SOL     OW32237   4.728   5.443   0.511
 5032SOL    HW132238   4.662   5.444   0.581
 5032SOL    HW232239   4.777   5.362   0.526
 5033SOL     OW32240   3.594   4.944   7.303
 5033SOL    HW132241   3.649   4.885   7.253
 5033SOL    HW232242   3.541   4.887   7.358
 5034SOL     OW32243   3.032   3.768   6.945
 5034SOL    HW132244   3.007   3.775   6.853
 5034SOL    HW232245   3.114   3.816   6.951
 5035SOL     OW32246   5.736   3.909   2.563
 5035SOL    HW132247   5.818   3.954   2.585
 5035SOL    HW232248   5.758   3.856   2.486
 5036SOL     OW32249   1.933   2.766   2.626
 5036SOL    HW132250   1.928   2.781   2.720
 5036SOL    HW232251   1.964   2.849   2.590
 5037SOL     OW32252   4.347   0.298   6.911
 5037SOL    HW132253   4.440   0.281   6.926
 5037SOL    HW232254   4.302   0.232   6.964
 5038SOL     OW32255   2.609   5.593   7.606
 5038SOL    HW132256   2.610   5.585   7.511
 5038SOL    HW232257   2.542   5.659   7.624
 5039SOL     OW32258   3.082   2.549   6.607
 5039SOL    HW132259   3.007   2.608   6.614
 5039SOL    HW232260   3.151   2.602   6.568
 5040SOL     OW32261   1.682   4.509   0.781
 5040SOL    HW132262   1.649   4.565   0.711
 5040SOL    HW232263   1.604   4.477   0.825
 5041SOL     OW32264   1.248   4.994   1.662
 5041SOL    HW132265   1.328   4.947   1.681
 5041SOL    HW232266   1.221   5.031   1.747
 5042SOL     OW32267   6.208   3.593   1.191
 5042SOL    HW132268   6.298   3.560   1.198
 5042SOL    HW232269   6.162   3.526   1.141
 5043SOL     OW32270   5.150   4.777   6.221
 5043SOL    HW132271   5.146   4.858   6.169
 5043SOL    HW232272   5.243   4.757   6.225
 5044SOL     OW32273   5.486   1.526   6.723
 5044SOL    HW132274   5.521   1.611   6.697
 5044SOL    HW232275   5.397   1.525   6.690
 5045SOL     OW32276   2.290   5.424   2.246
 5045SOL    HW132277   2.199   5.450   2.264
 5045SOL    HW232278   2.331   5.418   2.332
 5046SOL     OW32279   0.297   1.402   0.511
 5046SOL    HW132280   0.343   1.377   0.591
 5046SOL    HW232281   0.350   1.367   0.440
 5047SOL     OW32282   5.295   3.269   6.579
 5047SOL    HW132283   5.300   3.251   6.673
 5047SOL    HW232284   5.345   3.199   6.539
 5048SOL     OW32285   4.733   2.020   2.464
 5048SOL    HW132286   4.689   2.014   2.379
 5048SOL    HW232287   4.812   1.967   2.454
 5049SOL     OW32288   1.039   4.228   6.843
 5049SOL    HW132289   1.110   4.266   6.791
 5049SOL    HW232290   1.084   4.182   6.915
 5050SOL     OW32291   0.393   1.239   0.304
 5050SOL    HW132292   0.413   1.163   0.359
 5050SOL    HW232293   0.473   1.255   0.255
 5051SOL     OW32294   6.448   5.706   6.537
 5051SOL    HW132295   6.359   5.698   6.571
 5051SOL    HW232296   6.438   5.751   6.454
 5052SOL     OW32297   4.645   1.869   0.048
 5052SOL    HW132298   4.666   1.943  -0.010
 5052SOL    HW232299   4.549   1.863   0.045
 5053SOL     OW32300   3.375   3.154   7.761
 5053SOL    HW132301   3.469   3.155   7.743
 5053SOL    HW232302   3.334   3.188   7.682
 5054SOL     OW32303   1.959   2.052   2.563
 5054SOL    HW132304   2.018   2.112   2.608
 5054SOL    HW232305   1.874   2.067   2.604
 5055SOL     OW32306   4.651   1.403   0.640
 5055SOL    HW132307   4.745   1.390   0.651
 5055SOL    HW232308   4.619   1.419   0.729
 5056SOL     OW32309   3.603   6.386   0.455
 5056SOL    HW132310   3.698   6.382   0.468
 5056SOL    HW232311   3.592   6.431   0.372
 5057SOL     OW32312   2.586   2.163   2.173
 5057SOL    HW132313   2.597   2.257   2.167
 5057SOL    HW232314   2.497   2.151   2.206
 5058SOL     OW32315   3.491   3.650   2.102
 5058SOL    HW132316   3.460   3.713   2.037
 5058SOL    HW232317   3.562   3.695   2.147
 5059SOL     OW32318   3.895   1.414   5.895
 5059SOL    HW132319   3.914   1.437   5.804
 5059SOL    HW232320   3.884   1.319   5.895
 5060SOL     OW32321   2.623   6.366   7.403
 5060SOL    HW132322   2.559   6.338   7.337
 5060SOL    HW232323   2.599   6.457   7.421
 5061SOL     OW32324   6.033   3.026   1.867
 5061SOL    HW132325   5.974   3.049   1.795
 5061SOL    HW232326   5.978   2.979   1.929
 5062SOL     OW32327   0.760   5.673   2.035
 5062SOL    HW132328   0.772   5.602   1.973
 5062SOL    HW232329   0.848   5.694   2.066
 5063SOL     OW32330   0.009   3.101   1.684
 5063SOL    HW132331   0.065   3.024   1.689
 5063SOL    HW232332  -0.068   3.078   1.735
 5064SOL     OW32333   2.072   3.328   7.030
 5064SOL    HW132334   2.072   3.365   7.118
 5064SOL    HW232335   2.054   3.403   6.973
 5065SOL     OW32336   2.552   3.333   6.434
 5065SOL    HW132337   2.481   3.300   6.489
 5065SOL    HW232338   2.531   3.425   6.420
 5066SOL     OW32339   0.824   6.247   7.324
 5066SOL    HW132340   0.842   6.166   7.277
 5066SOL    HW232341   0.741   6.278   7.287
 5067SOL     OW32342   0.459   0.764   0.460
 5067SOL    HW132343   0.548   0.731   0.467
 5067SOL    HW232344   0.417   0.738   0.542
 5068SOL     OW32345   5.524   3.938   0.786
 5068SOL    HW132346   5.598   3.928   0.845
 5068SOL    HW232347   5.450   3.902   0.834
 5069SOL     OW32348   4.770   2.922   2.502
 5069SOL    HW132349   4.716   2.984   2.454
 5069SOL    HW232350   4.713   2.846   2.517
 5070SOL     OW32351   3.946   6.322   1.553
 5070SOL    HW132352   3.967   6.235   1.518
 5070SOL    HW232353   3.883   6.358   1.490
 5071SOL     OW32354   3.706   4.539   5.897
 5071SOL    HW132355   3.623   4.529   5.851
 5071SOL    HW232356   3.711   4.464   5.956
 5072SOL     OW32357   4.250   2.027   6.253
 5072SOL    HW132358   4.187   1.961   6.223
 5072SOL    HW232359   4.335   1.985   6.241
 5073SOL     OW32360   0.460   6.340   2.164
 5073SOL    HW132361   0.417   6.274   2.109
 5073SOL    HW232362   0.388   6.383   2.210
 5074SOL     OW32363   5.214   0.573   0.098
 5074SOL    HW132364   5.224   0.492   0.046
 5074SOL    HW232365   5.278   0.633   0.060
 5075SOL     OW32366   0.236   1.993   0.725
 5075SOL    HW132367   0.273   1.907   0.744
 5075SOL    HW232368   0.208   1.987   0.634
 5076SOL     OW32369   6.357   2.784   1.707
 5076SOL    HW132370   6.315   2.860   1.747
 5076SOL    HW232371   6.448   2.789   1.735
 5077SOL     OW32372   0.028   3.080   1.199
 5077SOL    HW132373   0.023   2.998   1.151
 5077SOL    HW232374   0.087   3.062   1.272
 5078SOL     OW32375   2.961   3.532   0.010
 5078SOL    HW132376   3.041   3.548   0.060
 5078SOL    HW232377   2.897   3.505   0.075
 5079SOL     OW32378   2.138   3.265   6.681
 5079SOL    HW132379   2.205   3.245   6.746
 5079SOL    HW232380   2.056   3.270   6.731
 5080SOL     OW32381   4.188   2.916   0.715
 5080SOL    HW132382   4.262   2.928   0.656
 5080SOL    HW232383   4.227   2.903   0.801
 5081SOL     OW32384   4.549   6.195   6.101
 5081SOL    HW132385   4.504   6.251   6.038
 5081SOL    HW232386   4.540   6.107   6.065
 5082SOL     OW32387   0.328   1.742   0.709
 5082SOL    HW132388   0.421   1.730   0.728
 5082SOL    HW232389   0.323   1.735   0.613
 5083SOL     OW32390   3.121   5.954   6.789
 5083SOL    HW132391   3.198   5.902   6.812
 5083SOL    HW232392   3.143   5.996   6.705
 5084SOL     OW32393   5.599   1.787   0.617
 5084SOL    HW132394   5.602   1.746   0.704
 5084SOL    HW232395   5.658   1.734   0.564
 5085SOL     OW32396   1.905   0.135   0.375
 5085SOL    HW132397   1.823   0.146   0.328
 5085SOL    HW232398   1.901   0.198   0.447
 5086SOL     OW32399   1.870   4.016   7.300
 5086SOL    HW132400   1.780   4.012   7.267
 5086SOL    HW232401   1.882   4.108   7.325
 5087SOL     OW32402   0.361   4.872   5.557
 5087SOL    HW132403   0.438   4.849   5.506
 5087SOL    HW232404   0.395   4.898   5.642
 5088SOL     OW32405   4.857   2.828   6.600
 5088SOL    HW132406   4.769   2.789   6.601
 5088SOL    HW232407   4.883   2.825   6.508
 5089SOL     OW32408   2.511   5.167   6.315
 5089SOL    HW132409   2.483   5.126   6.234
 5089SOL    HW232410   2.525   5.258   6.292
 5090SOL     OW32411   3.398   4.705   0.073
 5090SOL    HW132412   3.389   4.733   0.164
 5090SOL    HW232413   3.322   4.649   0.057
 5091SOL     OW32414   1.641   6.268   0.065
 5091SOL    HW132415   1.576   6.234   0.126
 5091SOL    HW232416   1.654   6.197   0.002
 5092SOL     OW32417   3.883   1.504   0.823
 5092SOL    HW132418   3.886   1.409   0.811
 5092SOL    HW232419   3.839   1.537   0.745
 5093SOL     OW32420   2.462   5.457   7.076
 5093SOL    HW132421   2.458   5.553   7.077
 5093SOL    HW232422   2.550   5.437   7.107
 5094SOL     OW32423   0.530   3.494   0.386
 5094SOL    HW132424   0.606   3.493   0.443
 5094SOL    HW232425   0.564   3.520   0.301
 5095SOL     OW32426   6.392   0.356   5.606
 5095SOL    HW132427   6.335   0.424   5.569
 5095SOL    HW232428   6.470   0.358   5.551
 5096SOL     OW32429   0.171   3.341   7.453
 5096SOL    HW132430   0.225   3.405   7.500
 5096SOL    HW232431   0.230   3.268   7.435
 5097SOL     OW32432   4.870   5.721   0.530
 5097SOL    HW132433   4.780   5.753   0.536
 5097SOL    HW232434   4.869   5.639   0.580
 5098SOL     OW32435   6.337   2.227   1.694
 5098SOL    HW132436   6.404   2.166   1.725
 5098SOL    HW232437   6.341   2.221   1.599
 5099SOL     OW32438   3.828   4.503   0.994
 5099SOL    HW132439   3.833   4.427   0.937
 5099SOL    HW232440   3.832   4.467   1.083
 5100SOL     OW32441   2.929   0.356   1.169
 5100SOL    HW132442   2.836   0.357   1.148
 5100SOL    HW232443   2.932   0.342   1.264
 5101SOL     OW32444   6.468   2.480   0.982
 5101SOL    HW132445   6.500   2.557   1.030
 5101SOL    HW232446   6.373   2.484   0.990
 5102SOL     OW32447   6.092   5.515   1.571
 5102SOL    HW132448   6.034   5.544   1.642
 5102SOL    HW232449   6.081   5.581   1.503
 5103SOL     OW32450   0.079   5.892   1.643
 5103SOL    HW132451   0.138   5.830   1.600
 5103SOL    HW232452   0.136   5.962   1.675
 5104SOL     OW32453   4.329   0.819   7.728
 5104SOL    HW132454   4.402   0.793   7.671
 5104SOL    HW232455   4.302   0.737   7.771
 5105SOL     OW32456   5.592   2.328   6.273
 5105SOL    HW132457   5.547   2.383   6.209
 5105SOL    HW232458   5.529   2.260   6.296
 5106SOL     OW32459   3.061   5.176   6.755
 5106SOL    HW132460   3.063   5.086   6.723
 5106SOL    HW232461   2.969   5.194   6.772
 5107SOL     OW32462   2.250   2.174   0.874
 5107SOL    HW132463   2.201   2.253   0.850
 5107SOL    HW232464   2.265   2.183   0.968
 5108SOL     OW32465   3.111   3.966   7.669
 5108SOL    HW132466   3.054   3.895   7.639
 5108SOL    HW232467   3.192   3.954   7.618
 5109SOL     OW32468   4.286   2.360   6.796
 5109SOL    HW132469   4.283   2.282   6.741
 5109SOL    HW232470   4.262   2.432   6.738
 5110SOL     OW32471   3.916   4.305   0.580
 5110SOL    HW132472   4.010   4.307   0.564
 5110SOL    HW232473   3.908   4.274   0.670
 5111SOL     OW32474   4.617   6.449   1.283
 5111SOL    HW132475   4.678   6.428   1.213
 5111SOL    HW232476   4.668   6.437   1.363
 5112SOL     OW32477   5.256   0.611   6.103
 5112SOL    HW132478   5.244   0.549   6.031
 5112SOL    HW232479   5.310   0.681   6.066
 5113SOL     OW32480   2.837   1.272   7.064
 5113SOL    HW132481   2.861   1.245   6.975
 5113SOL    HW232482   2.742   1.260   7.068
 5114SOL     OW32483   6.199   5.767   7.725
 5114SOL    HW132484   6.202   5.863   7.723
 5114SOL    HW232485   6.144   5.746   7.801
 5115SOL     OW32486   2.611   2.061   0.427
 5115SOL    HW132487   2.535   2.070   0.485
 5115SOL    HW232488   2.590   2.115   0.351
 5116SOL     OW32489   3.143   4.790   1.983
 5116SOL    HW132490   3.065   4.808   2.037
 5116SOL    HW232491   3.149   4.695   1.980
 5117SOL     OW32492   4.818   0.524   1.603
 5117SOL    HW132493   4.883   0.555   1.540
 5117SOL    HW232494   4.819   0.590   1.673
 5118SOL     OW32495   3.506   4.292   6.193
 5118SOL    HW132496   3.420   4.322   6.222
 5118SOL    HW232497   3.493   4.200   6.169
 5119SOL     OW32498   1.293   0.049   1.024
 5119SOL    HW132499   1.372   0.026   1.072
 5119SOL    HW232500   1.313   0.134   0.984
 5120SOL     OW32501   3.568   3.282   6.779
 5120SOL    HW132502   3.593   3.334   6.856
 5120SOL    HW232503   3.538   3.199   6.814
 5121SOL     OW32504   4.653   0.882   6.155
 5121SOL    HW132505   4.719   0.945   6.126
 5121SOL    HW232506   4.647   0.819   6.084
 5122SOL     OW32507   1.663   0.098   5.739
 5122SOL    HW132508   1.649   0.035   5.810
 5122SOL    HW232509   1.576   0.106   5.698
 5123SOL     OW32510   4.095   4.774   6.893
 5123SOL    HW132511   4.032   4.751   6.824
 5123SOL    HW232512   4.043   4.781   6.972
 5124SOL     OW32513   1.285   2.828   6.612
 5124SOL    HW132514   1.265   2.743   6.652
 5124SOL    HW232515   1.297   2.808   6.519
 5125SOL     OW32516   3.002   5.009   1.317
 5125SOL    HW132517   2.996   4.915   1.302
 5125SOL    HW232518   2.912   5.037   1.332
 5126SOL     OW32519   6.147   3.067   1.148
 5126SOL    HW132520   6.152   3.125   1.072
 5126SOL    HW232521   6.223   3.009   1.139
 5127SOL     OW32522   5.859   0.412   7.043
 5127SOL    HW132523   5.884   0.376   7.128
 5127SOL    HW232524   5.771   0.445   7.055
 5128SOL     OW32525   6.415   5.521   7.262
 5128SOL    HW132526   6.416   5.615   7.247
 5128SOL    HW232527   6.399   5.512   7.355
 5129SOL     OW32528   0.103   1.507   7.713
 5129SOL    HW132529   0.135   1.464   7.792
 5129SOL    HW232530   0.072   1.593   7.743
 5130SOL     OW32531   0.231   5.565   1.245
 5130SOL    HW132532   0.179   5.644   1.259
 5130SOL    HW232533   0.166   5.496   1.233
 5131SOL     OW32534   1.456   6.433   6.208
 5131SOL    HW132535   1.543   6.395   6.198
 5131SOL    HW232536   1.396   6.360   6.191
 5132SOL     OW32537   0.831   1.858   7.523
 5132SOL    HW132538   0.842   1.765   7.545
 5132SOL    HW232539   0.753   1.861   7.468
 5133SOL     OW32540   5.708   1.644   0.420
 5133SOL    HW132541   5.655   1.643   0.341
 5133SOL    HW232542   5.792   1.680   0.393
 5134SOL     OW32543   3.677   5.422   7.440
 5134SOL    HW132544   3.746   5.359   7.422
 5134SOL    HW232545   3.596   5.370   7.441
 5135SOL     OW32546   5.396   1.568   1.404
 5135SOL    HW132547   5.488   1.593   1.399
 5135SOL    HW232548   5.392   1.481   1.365
 5136SOL     OW32549   4.680   1.478   1.867
 5136SOL    HW132550   4.600   1.460   1.916
 5136SOL    HW232551   4.750   1.450   1.926
 5137SOL     OW32552   3.325   2.318   0.388
 5137SOL    HW132553   3.263   2.350   0.323
 5137SOL    HW232554   3.366   2.241   0.348
 5138SOL     OW32555   4.433   5.012   1.769
 5138SOL    HW132556   4.466   5.051   1.850
 5138SOL    HW232557   4.492   5.045   1.701
 5139SOL     OW32558   5.893   4.480   0.716
 5139SOL    HW132559   5.975   4.517   0.682
 5139SOL    HW232560   5.829   4.550   0.705
 5140SOL     OW32561   6.205   1.550   7.701
 5140SOL    HW132562   6.274   1.608   7.733
 5140SOL    HW232563   6.252   1.476   7.662
 5141SOL     OW32564   4.173   0.040   2.395
 5141SOL    HW132565   4.225  -0.038   2.417
 5141SOL    HW232566   4.209   0.109   2.451
 5142SOL     OW32567   0.074   2.498   0.052
 5142SOL    HW132568   0.028   2.573   0.089
 5142SOL    HW232569   0.161   2.501   0.092
 5143SOL     OW32570   4.919   1.587   1.697
 5143SOL    HW132571   4.970   1.603   1.776
 5143SOL    HW232572   4.842   1.539   1.728
 5144SOL     OW32573   5.480   3.391   0.723
 5144SOL    HW132574   5.494   3.302   0.756
 5144SOL    HW232575   5.568   3.423   0.701
 5145SOL     OW32576   5.571   1.853   0.209
 5145SOL    HW132577   5.543   1.875   0.120
 5145SOL    HW232578   5.653   1.901   0.221
 5146SOL     OW32579   2.553   5.778   1.090
 5146SOL    HW132580   2.550   5.694   1.045
 5146SOL    HW232581   2.476   5.826   1.058
 5147SOL     OW32582   3.072   0.242   0.571
 5147SOL    HW132583   3.012   0.282   0.634
 5147SOL    HW232584   3.124   0.314   0.537
 5148SOL     OW32585   1.904   3.956   1.386
 5148SOL    HW132586   1.974   3.914   1.336
 5148SOL    HW232587   1.945   3.978   1.470
 5149SOL     OW32588   0.796   5.729   1.239
 5149SOL    HW132589   0.747   5.678   1.174
 5149SOL    HW232590   0.733   5.744   1.310
 5150SOL     OW32591   1.908   1.501   0.599
 5150SOL    HW132592   1.966   1.572   0.625
 5150SOL    HW232593   1.964   1.441   0.550
 5151SOL     OW32594   1.648   5.080   0.937
 5151SOL    HW132595   1.663   5.173   0.919
 5151SOL    HW232596   1.559   5.076   0.971
 5152SOL     OW32597   1.143   6.237   6.859
 5152SOL    HW132598   1.200   6.217   6.785
 5152SOL    HW232599   1.121   6.152   6.897
 5153SOL     OW32600   1.878   0.070   1.196
 5153SOL    HW132601   1.934   0.131   1.147
 5153SOL    HW232602   1.800   0.060   1.141
 5154SOL     OW32603   1.697   3.539   6.617
 5154SOL    HW132604   1.683   3.549   6.523
 5154SOL    HW232605   1.609   3.525   6.653
 5155SOL     OW32606   1.400   0.130   7.109
 5155SOL    HW132607   1.461   0.185   7.060
 5155SOL    HW232608   1.386   0.178   7.191
 5156SOL     OW32609   3.832   5.305   1.872
 5156SOL    HW132610   3.919   5.306   1.912
 5156SOL    HW232611   3.792   5.224   1.904
 5157SOL     OW32612   1.125   1.517   5.962
 5157SOL    HW132613   1.035   1.491   5.944
 5157SOL    HW232614   1.172   1.435   5.975
 5158SOL     OW32615   6.049   3.802   7.111
 5158SOL    HW132616   6.038   3.707   7.114
 5158SOL    HW232617   6.015   3.833   7.195
 5159SOL     OW32618   4.722   4.733   5.877
 5159SOL    HW132619   4.706   4.790   5.801
 5159SOL    HW232620   4.813   4.749   5.901
 5160SOL     OW32621   1.402   0.446   0.156
 5160SOL    HW132622   1.346   0.520   0.135
 5160SOL    HW232623   1.383   0.426   0.247
 5161SOL     OW32624   3.211   1.331   7.090
 5161SOL    HW132625   3.203   1.240   7.060
 5161SOL    HW232626   3.126   1.370   7.070
 5162SOL     OW32627   2.277   5.199   6.479
 5162SOL    HW132628   2.368   5.173   6.472
 5162SOL    HW232629   2.253   5.227   6.391
 5163SOL     OW32630   3.668   5.915   7.055
 5163SOL    HW132631   3.629   5.828   7.041
 5163SOL    HW232632   3.625   5.948   7.133
 5164SOL     OW32633   6.047   3.285   6.094
 5164SOL    HW132634   6.019   3.376   6.109
 5164SOL    HW232635   6.081   3.284   6.005
 5165SOL     OW32636   0.290   1.583   6.618
 5165SOL    HW132637   0.281   1.558   6.526
 5165SOL    HW232638   0.369   1.638   6.620
 5166SOL     OW32639   0.189   0.374   7.495
 5166SOL    HW132640   0.187   0.278   7.498
 5166SOL    HW232641   0.260   0.397   7.555
 5167SOL     OW32642   5.285   5.791   0.498
 5167SOL    HW132643   5.287   5.729   0.571
 5167SOL    HW232644   5.198   5.781   0.460
 5168SOL     OW32645   2.505   1.425   6.366
 5168SOL    HW132646   2.486   1.467   6.282
 5168SOL    HW232647   2.477   1.335   6.354
 5169SOL     OW32648   4.148   5.175   0.728
 5169SOL    HW132649   4.156   5.194   0.635
 5169SOL    HW232650   4.078   5.111   0.734
 5170SOL     OW32651   2.536   0.658   1.853
 5170SOL    HW132652   2.544   0.743   1.897
 5170SOL    HW232653   2.443   0.651   1.831
 5171SOL     OW32654   1.549   2.658   7.614
 5171SOL    HW132655   1.498   2.736   7.638
 5171SOL    HW232656   1.598   2.684   7.537
 5172SOL     OW32657   0.780   2.601   7.486
 5172SOL    HW132658   0.844   2.620   7.555
 5172SOL    HW232659   0.811   2.519   7.447
 5173SOL     OW32660   3.514   1.723   7.201
 5173SOL    HW132661   3.489   1.639   7.240
 5173SOL    HW232662   3.581   1.758   7.260
 5174SOL     OW32663   3.778   1.580   0.204
 5174SOL    HW132664   3.835   1.503   0.207
 5174SOL    HW232665   3.700   1.554   0.253
 5175SOL     OW32666   0.110   3.939   1.142
 5175SOL    HW132667   0.071   3.908   1.061
 5175SOL    HW232668   0.039   3.936   1.206
 5176SOL     OW32669   2.691   0.313   7.157
 5176SOL    HW132670   2.731   0.295   7.072
 5176SOL    HW232671   2.761   0.354   7.209
 5177SOL     OW32672   2.527   5.830   6.060
 5177SOL    HW132673   2.478   5.780   6.125
 5177SOL    HW232674   2.615   5.793   6.063
 5178SOL     OW32675   5.315   6.161   7.699
 5178SOL    HW132676   5.369   6.182   7.622
 5178SOL    HW232677   5.238   6.118   7.663
 5179SOL     OW32678   2.007   2.343   0.132
 5179SOL    HW132679   2.041   2.340   0.043
 5179SOL    HW232680   1.972   2.431   0.143
 5180SOL     OW32681   5.699   2.651   6.976
 5180SOL    HW132682   5.727   2.641   6.885
 5180SOL    HW232683   5.697   2.562   7.011
 5181SOL     OW32684   0.897   4.549   1.960
 5181SOL    HW132685   0.983   4.513   1.939
 5181SOL    HW232686   0.903   4.573   2.053
 5182SOL     OW32687   0.018   1.896   0.919
 5182SOL    HW132688   0.063   1.934   0.844
 5182SOL    HW232689   0.043   1.953   0.992
 5183SOL     OW32690   5.594   4.426   7.438
 5183SOL    HW132691   5.615   4.519   7.452
 5183SOL    HW232692   5.653   4.399   7.368
 5184SOL     OW32693   4.398   1.153   6.804
 5184SOL    HW132694   4.317   1.153   6.753
 5184SOL    HW232695   4.467   1.139   6.739
 5185SOL     OW32696   5.157   5.722   6.508
 5185SOL    HW132697   5.211   5.659   6.556
 5185SOL    HW232698   5.207   5.742   6.429
 5186SOL     OW32699   6.355   3.942   1.268
 5186SOL    HW132700   6.304   3.996   1.329
 5186SOL    HW232701   6.302   3.864   1.255
 5187SOL     OW32702   3.429   4.561   5.869
 5187SOL    HW132703   3.397   4.522   5.788
 5187SOL    HW232704   3.411   4.654   5.860
 5188SOL     OW32705   3.077   1.535   7.675
 5188SOL    HW132706   3.060   1.610   7.732
 5188SOL    HW232707   3.042   1.560   7.590
 5189SOL     OW32708   1.838   6.136   1.286
 5189SOL    HW132709   1.820   6.061   1.231
 5189SOL    HW232710   1.909   6.107   1.343
 5190SOL     OW32711   5.115   5.689   0.846
 5190SOL    HW132712   5.205   5.661   0.827
 5190SOL    HW232713   5.125   5.761   0.908
 5191SOL     OW32714   1.082   2.172   0.498
 5191SOL    HW132715   1.100   2.141   0.409
 5191SOL    HW232716   1.157   2.143   0.549
 5192SOL     OW32717   3.958   1.664   5.377
 5192SOL    HW132718   4.042   1.661   5.330
 5192SOL    HW232719   3.901   1.607   5.327
 5193SOL     OW32720   5.805   3.898   5.912
 5193SOL    HW132721   5.758   3.907   5.994
 5193SOL    HW232722   5.767   3.965   5.855
 5194SOL     OW32723   3.968   2.933   7.616
 5194SOL    HW132724   4.025   2.857   7.626
 5194SOL    HW232725   3.988   2.988   7.692
 5195SOL     OW32726   3.662   2.541   1.448
 5195SOL    HW132727   3.625   2.612   1.501
 5195SOL    HW232728   3.606   2.465   1.467
 5196SOL     OW32729   0.425   3.555   6.854
 5196SOL    HW132730   0.401   3.500   6.780
 5196SOL    HW232731   0.353   3.546   6.916
 5197SOL     OW32732   2.228   1.989   7.770
 5197SOL    HW132733   2.133   1.987   7.755
 5197SOL    HW232734   2.257   1.900   7.750
 5198SOL     OW32735   4.191   0.536   1.823
 5198SOL    HW132736   4.268   0.489   1.792
 5198SOL    HW232737   4.219   0.578   1.904
 5199SOL     OW32738   4.475   6.393   0.120
 5199SOL    HW132739   4.419   6.396   0.198
 5199SOL    HW232740   4.413   6.392   0.047
 5200SOL     OW32741   3.511   4.511   0.843
 5200SOL    HW132742   3.574   4.476   0.781
 5200SOL    HW232743   3.493   4.439   0.903
 5201SOL     OW32744   1.264   3.762   1.790
 5201SOL    HW132745   1.195   3.813   1.831
 5201SOL    HW232746   1.243   3.671   1.811
 5202SOL     OW32747   2.653   3.739   0.486
 5202SOL    HW132748   2.617   3.684   0.555
 5202SOL    HW232749   2.577   3.781   0.446
 5203SOL     OW32750   2.783   5.097   0.272
 5203SOL    HW132751   2.774   5.004   0.251
 5203SOL    HW232752   2.697   5.134   0.255
 5204SOL     OW32753   0.905   2.931   0.180
 5204SOL    HW132754   0.940   2.842   0.172
 5204SOL    HW232755   0.815   2.919   0.212
 5205SOL     OW32756   4.607   2.598   6.240
 5205SOL    HW132757   4.632   2.602   6.148
 5205SOL    HW232758   4.578   2.687   6.262
 5206SOL     OW32759   0.131   2.432   7.288
 5206SOL    HW132760   0.175   2.515   7.271
 5206SOL    HW232761   0.081   2.414   7.208
 5207SOL     OW32762   4.359   4.500   0.368
 5207SOL    HW132763   4.449   4.494   0.336
 5207SOL    HW232764   4.348   4.593   0.390
 5208SOL     OW32765   2.481   2.729   7.274
 5208SOL    HW132766   2.436   2.658   7.320
 5208SOL    HW232767   2.431   2.741   7.193
 5209SOL     OW32768   0.955   4.982   0.530
 5209SOL    HW132769   0.909   4.975   0.614
 5209SOL    HW232770   0.992   4.894   0.517
 5210SOL     OW32771   3.984   1.410   0.245
 5210SOL    HW132772   4.075   1.383   0.258
 5210SOL    HW232773   3.943   1.398   0.331
 5211SOL     OW32774   1.783   6.372   0.590
 5211SOL    HW132775   1.738   6.432   0.649
 5211SOL    HW232776   1.876   6.383   0.611
 5212SOL     OW32777   4.649   1.385   6.316
 5212SOL    HW132778   4.729   1.360   6.270
 5212SOL    HW232779   4.674   1.461   6.368
 5213SOL     OW32780   2.138   4.352   0.491
 5213SOL    HW132781   2.191   4.283   0.450
 5213SOL    HW232782   2.048   4.331   0.465
 5214SOL     OW32783   0.120   2.052   1.731
 5214SOL    HW132784   0.210   2.076   1.754
 5214SOL    HW232785   0.087   2.004   1.807
 5215SOL     OW32786   0.173   2.424   1.592
 5215SOL    HW132787   0.211   2.493   1.647
 5215SOL    HW232788   0.153   2.469   1.510
 5216SOL     OW32789   3.706   2.874   0.045
 5216SOL    HW132790   3.705   2.782   0.072
 5216SOL    HW232791   3.650   2.919   0.109
 5217SOL     OW32792   6.367   3.316   2.385
 5217SOL    HW132793   6.338   3.320   2.294
 5217SOL    HW232794   6.290   3.286   2.433
 5218SOL     OW32795   1.456   1.431   7.230
 5218SOL    HW132796   1.425   1.453   7.318
 5218SOL    HW232797   1.493   1.343   7.240
 5219SOL     OW32798   5.414   5.282   1.350
 5219SOL    HW132799   5.367   5.362   1.372
 5219SOL    HW232800   5.494   5.286   1.402
 5220SOL     OW32801   6.359   2.152   7.535
 5220SOL    HW132802   6.381   2.059   7.539
 5220SOL    HW232803   6.315   2.163   7.450
 5221SOL     OW32804   0.899   5.247   0.758
 5221SOL    HW132805   0.854   5.224   0.677
 5221SOL    HW232806   0.925   5.163   0.796
 5222SOL     OW32807   2.879   5.407   5.980
 5222SOL    HW132808   2.961   5.391   5.934
 5222SOL    HW232809   2.818   5.437   5.912
 5223SOL     OW32810   0.945   3.770   1.685
 5223SOL    HW132811   0.976   3.792   1.773
 5223SOL    HW232812   0.914   3.680   1.693
 5224SOL     OW32813   6.197   2.183   0.740
 5224SOL    HW132814   6.253   2.223   0.806
 5224SOL    HW232815   6.245   2.196   0.658
 5225SOL     OW32816   0.504   0.661   0.128
 5225SOL    HW132817   0.544   0.634   0.045
 5225SOL    HW232818   0.560   0.731   0.160
 5226SOL     OW32819   0.991   2.603   5.926
 5226SOL    HW132820   0.966   2.653   6.003
 5226SOL    HW232821   1.077   2.637   5.901
 5227SOL     OW32822   5.904   3.722   1.575
 5227SOL    HW132823   5.983   3.760   1.536
 5227SOL    HW232824   5.927   3.707   1.666
 5228SOL     OW32825   3.376   4.521   5.615
 5228SOL    HW132826   3.375   4.480   5.528
 5228SOL    HW232827   3.318   4.597   5.606
 5229SOL     OW32828   1.530   2.914   5.894
 5229SOL    HW132829   1.582   2.837   5.917
 5229SOL    HW232830   1.585   2.961   5.832
 5230SOL     OW32831   4.826   3.469   1.404
 5230SOL    HW132832   4.763   3.537   1.381
 5230SOL    HW232833   4.869   3.503   1.483
 5231SOL     OW32834   2.196   2.468   0.571
 5231SOL    HW132835   2.211   2.523   0.494
 5231SOL    HW232836   2.226   2.381   0.544
 5232SOL     OW32837   0.430   4.449   1.647
 5232SOL    HW132838   0.457   4.420   1.734
 5232SOL    HW232839   0.412   4.542   1.657
 5233SOL     OW32840   2.138   1.129   5.841
 5233SOL    HW132841   2.223   1.157   5.874
 5233SOL    HW232842   2.091   1.211   5.824
 5234SOL     OW32843   0.619   5.166   2.572
 5234SOL    HW132844   0.556   5.192   2.504
 5234SOL    HW232845   0.632   5.072   2.558
 5235SOL     OW32846   0.237   3.345   1.319
 5235SOL    HW132847   0.171   3.333   1.386
 5235SOL    HW232848   0.257   3.257   1.288
 5236SOL     OW32849   4.907   2.932   6.360
 5236SOL    HW132850   4.992   2.974   6.365
 5236SOL    HW232851   4.907   2.887   6.276
 5237SOL     OW32852   1.266   3.808   6.303
 5237SOL    HW132853   1.182   3.838   6.269
 5237SOL    HW232854   1.277   3.720   6.265
 5238SOL     OW32855   6.069   5.629   5.832
 5238SOL    HW132856   6.155   5.587   5.831
 5238SOL    HW232857   6.027   5.600   5.751
 5239SOL     OW32858   2.710   5.839   0.008
 5239SOL    HW132859   2.642   5.901  -0.018
 5239SOL    HW232860   2.758   5.821  -0.072
 5240SOL     OW32861   5.169   3.433   6.225
 5240SOL    HW132862   5.156   3.519   6.185
 5240SOL    HW232863   5.129   3.441   6.312
 5241SOL     OW32864   4.012   4.664   7.184
 5241SOL    HW132865   4.067   4.608   7.130
 5241SOL    HW232866   4.063   4.679   7.263
 5242SOL     OW32867   2.094   0.034   7.646
 5242SOL    HW132868   2.105  -0.051   7.687
 5242SOL    HW232869   2.029   0.019   7.577
 5243SOL     OW32870   5.668   1.312   7.213
 5243SOL    HW132871   5.584   1.265   7.217
 5243SOL    HW232872   5.648   1.400   7.245
 5244SOL     OW32873   1.152   3.956   1.596
 5244SOL    HW132874   1.221   3.927   1.537
 5244SOL    HW232875   1.093   3.881   1.602
 5245SOL     OW32876   3.869   4.019   0.495
 5245SOL    HW132877   3.875   3.990   0.586
 5245SOL    HW232878   3.854   4.113   0.501
 5246SOL     OW32879   3.479   5.781   1.461
 5246SOL    HW132880   3.569   5.807   1.444
 5246SOL    HW232881   3.480   5.750   1.552
 5247SOL     OW32882   4.728   4.875   6.651
 5247SOL    HW132883   4.717   4.780   6.639
 5247SOL    HW232884   4.660   4.899   6.714
 5248SOL     OW32885   2.810   3.333   6.509
 5248SOL    HW132886   2.822   3.242   6.483
 5248SOL    HW232887   2.718   3.351   6.491
 5249SOL     OW32888   2.898   0.755   6.170
 5249SOL    HW132889   2.884   0.720   6.258
 5249SOL    HW232890   2.810   0.775   6.138
 5250SOL     OW32891   4.434   5.551   7.029
 5250SOL    HW132892   4.422   5.520   6.940
 5250SOL    HW232893   4.411   5.477   7.084
 5251SOL     OW32894   4.691   5.305   7.340
 5251SOL    HW132895   4.646   5.337   7.419
 5251SOL    HW232896   4.622   5.301   7.273
 5252SOL     OW32897   2.415   0.830   5.929
 5252SOL    HW132898   2.336   0.778   5.913
 5252SOL    HW232899   2.471   0.812   5.854
 5253SOL     OW32900   2.616   0.538   0.913
 5253SOL    HW132901   2.674   0.532   0.838
 5253SOL    HW232902   2.592   0.631   0.918
 5254SOL     OW32903   2.398   0.858   6.983
 5254SOL    HW132904   2.472   0.891   7.032
 5254SOL    HW232905   2.363   0.935   6.937
 5255SOL     OW32906   4.783   6.117   0.064
 5255SOL    HW132907   4.742   6.031   0.075
 5255SOL    HW232908   4.824   6.135   0.149
 5256SOL     OW32909   5.287   0.067   0.453
 5256SOL    HW132910   5.220   0.052   0.386
 5256SOL    HW232911   5.317  -0.020   0.477
 5257SOL     OW32912   1.856   0.542   7.742
 5257SOL    HW132913   1.782   0.506   7.791
 5257SOL    HW232914   1.931   0.532   7.801
 5258SOL     OW32915   1.225   2.390   1.311
 5258SOL    HW132916   1.282   2.342   1.371
 5258SOL    HW232917   1.284   2.448   1.263
 5259SOL     OW32918   0.168   4.192   0.270
 5259SOL    HW132919   0.121   4.263   0.313
 5259SOL    HW232920   0.131   4.188   0.181
 5260SOL     OW32921   4.535   0.833   6.419
 5260SOL    HW132922   4.561   0.810   6.329
 5260SOL    HW232923   4.441   0.818   6.420
 5261SOL     OW32924   3.860   2.179   1.554
 5261SOL    HW132925   3.823   2.184   1.466
 5261SOL    HW232926   3.897   2.266   1.569
 5262SOL     OW32927   3.282   2.983   0.495
 5262SOL    HW132928   3.216   3.011   0.558
 5262SOL    HW232929   3.255   3.023   0.412
 5263SOL     OW32930   0.260   3.900   6.103
 5263SOL    HW132931   0.175   3.876   6.065
 5263SOL    HW232932   0.240   3.917   6.195
 5264SOL     OW32933   5.920   4.768   7.135
 5264SOL    HW132934   5.829   4.797   7.127
 5264SOL    HW232935   5.915   4.689   7.190
 5265SOL     OW32936   2.009   5.193   0.841
 5265SOL    HW132937   2.095   5.205   0.802
 5265SOL    HW232938   2.022   5.128   0.910
 5266SOL     OW32939   2.758   6.377   2.410
 5266SOL    HW132940   2.779   6.339   2.325
 5266SOL    HW232941   2.773   6.470   2.399
 5267SOL     OW32942   4.803   3.255   5.789
 5267SOL    HW132943   4.811   3.235   5.882
 5267SOL    HW232944   4.709   3.256   5.772
 5268SOL     OW32945   0.722   5.869   7.015
 5268SOL    HW132946   0.716   5.908   6.927
 5268SOL    HW232947   0.800   5.909   7.053
 5269SOL     OW32948   1.622   3.561   7.234
 5269SOL    HW132949   1.559   3.624   7.198
 5269SOL    HW232950   1.693   3.615   7.268
 5270SOL     OW32951   5.165   1.686   1.446
 5270SOL    HW132952   5.252   1.646   1.447
 5270SOL    HW232953   5.107   1.618   1.412
 5271SOL     OW32954   2.459   0.149   6.125
 5271SOL    HW132955   2.430   0.066   6.162
 5271SOL    HW232956   2.378   0.198   6.110
 5272SOL     OW32957   1.341   3.056   1.854
 5272SOL    HW132958   1.344   2.961   1.844
 5272SOL    HW232959   1.255   3.081   1.819
 5273SOL     OW32960   0.825   1.550   7.033
 5273SOL    HW132961   0.853   1.518   7.119
 5273SOL    HW232962   0.757   1.488   7.006
 5274SOL     OW32963   3.123   1.851   2.325
 5274SOL    HW132964   3.132   1.776   2.267
 5274SOL    HW232965   3.204   1.901   2.313
 5275SOL     OW32966   0.975   0.727   0.742
 5275SOL    HW132967   1.058   0.718   0.696
 5275SOL    HW232968   0.945   0.815   0.719
 5276SOL     OW32969   3.270   5.431   0.018
 5276SOL    HW132970   3.257   5.344  -0.020
 5276SOL    HW232971   3.187   5.476   0.002
 5277SOL     OW32972   1.012   3.601   1.433
 5277SOL    HW132973   0.965   3.597   1.349
 5277SOL    HW232974   0.943   3.618   1.497
 5278SOL     OW32975   5.923   1.687   0.690
 5278SOL    HW132976   6.003   1.665   0.739
 5278SOL    HW232977   5.953   1.700   0.600
 5279SOL     OW32978   0.091   3.884   1.524
 5279SOL    HW132979   0.017   3.824   1.528
 5279SOL    HW232980   0.052   3.970   1.512
 5280SOL     OW32981   3.283   5.381   6.551
 5280SOL    HW132982   3.329   5.461   6.577
 5280SOL    HW232983   3.191   5.398   6.571
 5281SOL     OW32984   6.276   0.036   1.086
 5281SOL    HW132985   6.246   0.103   1.025
 5281SOL    HW232986   6.344   0.079   1.138
 5282SOL     OW32987   4.010   6.027   0.832
 5282SOL    HW132988   4.013   6.109   0.784
 5282SOL    HW232989   4.031   6.051   0.922
 5283SOL     OW32990   0.133   5.216   0.998
 5283SOL    HW132991   0.037   5.212   1.005
 5283SOL    HW232992   0.162   5.127   1.016
 5284SOL     OW32993   0.356   1.475   5.638
 5284SOL    HW132994   0.401   1.556   5.661
 5284SOL    HW232995   0.364   1.420   5.715
 5285SOL     OW32996   5.879   2.325   6.940
 5285SOL    HW132997   5.807   2.352   6.997
 5285SOL    HW232998   5.837   2.281   6.867
 5286SOL     OW32999   1.902   1.732   0.352
 5286SOL    HW133000   1.989   1.710   0.318
 5286SOL    HW233001   1.853   1.650   0.348
 5287SOL     OW33002   5.484   2.057   0.906
 5287SOL    HW133003   5.512   2.055   0.814
 5287SOL    HW233004   5.557   2.098   0.953
 5288SOL     OW33005   1.574   1.824   6.391
 5288SOL    HW133006   1.577   1.918   6.378
 5288SOL    HW233007   1.664   1.799   6.413
 5289SOL     OW33008   3.765   5.915   7.645
 5289SOL    HW133009   3.801   6.003   7.633
 5289SOL    HW233010   3.842   5.858   7.654
 5290SOL     OW33011   2.678   0.040   6.814
 5290SOL    HW133012   2.681   0.053   6.719
 5290SOL    HW233013   2.764   0.003   6.835
 5291SOL     OW33014   5.895   2.905   0.590
 5291SOL    HW133015   5.853   2.838   0.536
 5291SOL    HW233016   5.984   2.911   0.556
 5292SOL     OW33017   5.925   3.514   6.126
 5292SOL    HW133018   5.977   3.583   6.168
 5292SOL    HW233019   5.916   3.542   6.035
 5293SOL     OW33020   3.400   2.078   0.556
 5293SOL    HW133021   3.372   2.064   0.466
 5293SOL    HW233022   3.482   2.031   0.564
 5294SOL     OW33023   0.795   2.210   1.292
 5294SOL    HW133024   0.737   2.148   1.337
 5294SOL    HW233025   0.819   2.273   1.360
 5295SOL     OW33026   5.886   3.445   6.962
 5295SOL    HW133027   5.860   3.406   7.045
 5295SOL    HW233028   5.978   3.422   6.952
 5296SOL     OW33029   5.185   6.236   6.678
 5296SOL    HW133030   5.266   6.202   6.715
 5296SOL    HW233031   5.131   6.158   6.663
 5297SOL     OW33032   6.130   1.910   6.951
 5297SOL    HW133033   6.043   1.949   6.943
 5297SOL    HW233034   6.115   1.826   6.995
 5298SOL     OW33035   4.139   0.667   0.226
 5298SOL    HW133036   4.101   0.727   0.290
 5298SOL    HW233037   4.073   0.659   0.157
 5299SOL     OW33038   0.335   0.452   1.211
 5299SOL    HW133039   0.317   0.396   1.287
 5299SOL    HW233040   0.280   0.529   1.225
 5300SOL     OW33041   0.236   4.565   7.233
 5300SOL    HW133042   0.321   4.609   7.234
 5300SOL    HW233043   0.223   4.536   7.323
 5301SOL     OW33044   4.715   1.108   1.282
 5301SOL    HW133045   4.661   1.186   1.293
 5301SOL    HW233046   4.653   1.039   1.259
 5302SOL     OW33047   3.000   5.989   5.734
 5302SOL    HW133048   3.056   6.040   5.675
 5302SOL    HW233049   2.913   5.994   5.695
 5303SOL     OW33050   3.255   0.865   0.358
 5303SOL    HW133051   3.196   0.906   0.295
 5303SOL    HW233052   3.338   0.854   0.311
 5304SOL     OW33053   5.144   2.350   7.566
 5304SOL    HW133054   5.125   2.392   7.649
 5304SOL    HW233055   5.093   2.269   7.568
 5305SOL     OW33056   2.013   3.458   1.986
 5305SOL    HW133057   2.031   3.552   1.990
 5305SOL    HW233058   1.990   3.434   2.076
 5306SOL     OW33059   6.427   3.535   1.697
 5306SOL    HW133060   6.434   3.554   1.791
 5306SOL    HW233061   6.399   3.617   1.658
 5307SOL     OW33062   5.443   2.108   6.352
 5307SOL    HW133063   5.359   2.137   6.316
 5307SOL    HW233064   5.439   2.132   6.445
 5308SOL     OW33065   0.343   3.969   6.764
 5308SOL    HW133066   0.307   3.932   6.845
 5308SOL    HW233067   0.412   3.908   6.738
 5309SOL     OW33068   3.043   5.680   5.977
 5309SOL    HW133069   2.957   5.637   5.985
 5309SOL    HW233070   3.026   5.771   6.000
 5310SOL     OW33071   3.073   4.280   6.452
 5310SOL    HW133072   3.077   4.329   6.534
 5310SOL    HW233073   3.007   4.212   6.468
 5311SOL     OW33074   2.713   2.645   7.036
 5311SOL    HW133075   2.767   2.600   7.101
 5311SOL    HW233076   2.673   2.718   7.083
 5312SOL     OW33077   3.050   1.238   7.378
 5312SOL    HW133078   3.144   1.254   7.381
 5312SOL    HW233079   3.015   1.315   7.333
 5313SOL     OW33080   2.578   5.807   1.524
 5313SOL    HW133081   2.585   5.734   1.462
 5313SOL    HW233082   2.656   5.799   1.579
 5314SOL     OW33083   1.661   2.974   7.242
 5314SOL    HW133084   1.574   3.010   7.261
 5314SOL    HW233085   1.645   2.882   7.224
 5315SOL     OW33086   5.035   1.787   0.804
 5315SOL    HW133087   5.087   1.756   0.878
 5315SOL    HW233088   5.085   1.861   0.769
 5316SOL     OW33089   4.430   4.644   7.368
 5316SOL    HW133090   4.344   4.685   7.381
 5316SOL    HW233091   4.492   4.709   7.400
 5317SOL     OW33092   3.166   1.099   6.965
 5317SOL    HW133093   3.225   1.122   6.893
 5317SOL    HW233094   3.083   1.079   6.923
 5318SOL     OW33095   1.460   6.360   6.722
 5318SOL    HW133096   1.552   6.334   6.733
 5318SOL    HW233097   1.417   6.281   6.690
 5319SOL     OW33098   0.980   0.312   0.412
 5319SOL    HW133099   1.043   0.384   0.403
 5319SOL    HW233100   0.897   0.349   0.381
 5320SOL     OW33101   4.223   0.579   7.461
 5320SOL    HW133102   4.164   0.506   7.480
 5320SOL    HW233103   4.278   0.546   7.390
 5321SOL     OW33104   3.489   4.281   1.690
 5321SOL    HW133105   3.468   4.242   1.606
 5321SOL    HW233106   3.524   4.368   1.669
 5322SOL     OW33107   1.656   3.427   0.609
 5322SOL    HW133108   1.572   3.457   0.644
 5322SOL    HW233109   1.720   3.454   0.675
 5323SOL     OW33110   0.126   0.223   1.989
 5323SOL    HW133111   0.062   0.175   2.041
 5323SOL    HW233112   0.078   0.250   1.911
 5324SOL     OW33113   4.244   1.426   1.552
 5324SOL    HW133114   4.276   1.512   1.524
 5324SOL    HW233115   4.248   1.429   1.647
 5325SOL     OW33116   0.654   0.624   7.649
 5325SOL    HW133117   0.582   0.600   7.590
 5325SOL    HW233118   0.710   0.546   7.651
 5326SOL     OW33119   4.612   5.814   1.981
 5326SOL    HW133120   4.629   5.907   1.999
 5326SOL    HW233121   4.615   5.773   2.068
 5327SOL     OW33122   5.968   1.414   1.120
 5327SOL    HW133123   5.926   1.500   1.121
 5327SOL    HW233124   6.058   1.431   1.095
 5328SOL     OW33125   0.444   4.044   0.276
 5328SOL    HW133126   0.471   4.103   0.206
 5328SOL    HW233127   0.365   4.084   0.312
 5329SOL     OW33128   2.531   5.160   0.155
 5329SOL    HW133129   2.482   5.188   0.078
 5329SOL    HW233130   2.497   5.073   0.174
 5330SOL     OW33131   3.961   2.371   6.225
 5330SOL    HW133132   4.049   2.334   6.223
 5330SOL    HW233133   3.975   2.464   6.241
 5331SOL     OW33134   5.682   6.038   1.696
 5331SOL    HW133135   5.587   6.041   1.703
 5331SOL    HW233136   5.713   6.083   1.775
 5332SOL     OW33137   3.393   1.587   0.015
 5332SOL    HW133138   3.363   1.631  -0.065
 5332SOL    HW233139   3.412   1.659   0.076
 5333SOL     OW33140   2.678   3.710   6.144
 5333SOL    HW133141   2.593   3.725   6.100
 5333SOL    HW233142   2.720   3.796   6.145
 5334SOL     OW33143   2.455   5.381   0.309
 5334SOL    HW133144   2.521   5.444   0.280
 5334SOL    HW233145   2.466   5.306   0.249
 5335SOL     OW33146   1.355   0.397   1.546
 5335SOL    HW133147   1.402   0.398   1.462
 5335SOL    HW233148   1.339   0.489   1.565
 5336SOL     OW33149   5.201   3.387   1.570
 5336SOL    HW133150   5.262   3.329   1.615
 5336SOL    HW233151   5.243   3.473   1.571
 5337SOL     OW33152   6.060   3.511   0.255
 5337SOL    HW133153   6.093   3.598   0.279
 5337SOL    HW233154   5.971   3.509   0.288
 5338SOL     OW33155   1.961   3.639   1.658
 5338SOL    HW133156   1.944   3.556   1.613
 5338SOL    HW233157   2.056   3.649   1.655
 5339SOL     OW33158   6.358   1.648   5.847
 5339SOL    HW133159   6.452   1.648   5.866
 5339SOL    HW233160   6.333   1.740   5.846
 5340SOL     OW33161   0.753   4.915   1.823
 5340SOL    HW133162   0.809   4.924   1.746
 5340SOL    HW233163   0.802   4.959   1.893
 5341SOL     OW33164   6.425   3.794   0.707
 5341SOL    HW133165   6.393   3.743   0.633
 5341SOL    HW233166   6.355   3.857   0.725
 5342SOL     OW33167   2.769   5.461   0.601
 5342SOL    HW133168   2.827   5.520   0.648
 5342SOL    HW233169   2.681   5.481   0.634
 5343SOL     OW33170   3.838   2.481   0.631
 5343SOL    HW133171   3.881   2.542   0.691
 5343SOL    HW233172   3.910   2.445   0.578
 5344SOL     OW33173   1.799   5.994   2.375
 5344SOL    HW133174   1.719   6.012   2.325
 5344SOL    HW233175   1.867   6.042   2.329
 5345SOL     OW33176   5.032   1.948   6.265
 5345SOL    HW133177   5.045   1.996   6.347
 5345SOL    HW233178   5.029   2.015   6.197
 5346SOL     OW33179   0.542   3.027   6.213
 5346SOL    HW133180   0.463   2.976   6.230
 5346SOL    HW233181   0.511   3.105   6.166
 5347SOL     OW33182   2.078   4.068   1.608
 5347SOL    HW133183   2.040   4.148   1.570
 5347SOL    HW233184   2.053   4.071   1.700
 5348SOL     OW33185   1.620   5.964   0.435
 5348SOL    HW133186   1.577   5.961   0.349
 5348SOL    HW233187   1.691   6.027   0.424
 5349SOL     OW33188   4.708   2.214   0.623
 5349SOL    HW133189   4.776   2.163   0.668
 5349SOL    HW233190   4.728   2.203   0.530
 5350SOL     OW33191   4.834   2.193   0.367
 5350SOL    HW133192   4.889   2.117   0.384
 5350SOL    HW233193   4.895   2.268   0.372
 5351SOL     OW33194   1.371   3.872   1.428
 5351SOL    HW133195   1.407   3.818   1.498
 5351SOL    HW233196   1.446   3.887   1.369
 5352SOL     OW33197   6.227   1.451   2.297
 5352SOL    HW133198   6.196   1.362   2.312
 5352SOL    HW233199   6.224   1.492   2.384
 5353SOL     OW33200   3.828   1.432   0.476
 5353SOL    HW133201   3.854   1.525   0.479
 5353SOL    HW233202   3.761   1.424   0.544
 5354SOL     OW33203   5.233   4.109   0.293
 5354SOL    HW133204   5.254   4.189   0.340
 5354SOL    HW233205   5.201   4.049   0.360
 5355SOL     OW33206   4.996   4.374   1.268
 5355SOL    HW133207   5.009   4.399   1.359
 5355SOL    HW233208   4.925   4.429   1.237
 5356SOL     OW33209   3.923   5.297   0.949
 5356SOL    HW133210   3.882   5.375   0.985
 5356SOL    HW233211   3.890   5.225   1.003
 5357SOL     OW33212   0.284   4.464   0.689
 5357SOL    HW133213   0.289   4.378   0.648
 5357SOL    HW233214   0.375   4.485   0.713
 5358SOL     OW33215   5.086   4.234   1.751
 5358SOL    HW133216   5.178   4.256   1.739
 5358SOL    HW233217   5.081   4.193   1.837
 5359SOL     OW33218   2.167   0.233   0.071
 5359SOL    HW133219   2.147   0.168   0.004
 5359SOL    HW233220   2.137   0.192   0.153
 5360SOL     OW33221   0.368   5.319   7.606
 5360SOL    HW133222   0.463   5.309   7.609
 5360SOL    HW233223   0.342   5.282   7.522
 5361SOL     OW33224   2.249   2.892   6.386
 5361SOL    HW133225   2.203   2.825   6.438
 5361SOL    HW233226   2.236   2.864   6.295
 5362SOL     OW33227   4.585   4.332   7.117
 5362SOL    HW133228   4.604   4.242   7.091
 5362SOL    HW233229   4.653   4.354   7.180
 5363SOL     OW33230   2.650   3.886   2.409
 5363SOL    HW133231   2.593   3.916   2.338
 5363SOL    HW233232   2.589   3.853   2.475
 5364SOL     OW33233   5.207   4.638   0.258
 5364SOL    HW133234   5.241   4.555   0.294
 5364SOL    HW233235   5.279   4.671   0.204
 5365SOL     OW33236   0.306   1.780   7.596
 5365SOL    HW133237   0.341   1.868   7.584
 5365SOL    HW233238   0.231   1.792   7.655
 5366SOL     OW33239   2.697   1.774   6.296
 5366SOL    HW133240   2.622   1.834   6.301
 5366SOL    HW233241   2.762   1.822   6.245
 5367SOL     OW33242   5.693   3.473   0.103
 5367SOL    HW133243   5.732   3.417   0.170
 5367SOL    HW233244   5.729   3.560   0.121
 5368SOL     OW33245   5.016   4.567   1.849
 5368SOL    HW133246   5.109   4.565   1.828
 5368SOL    HW233247   4.998   4.482   1.890
 5369SOL     OW33248   0.425   4.821   6.962
 5369SOL    HW133249   0.378   4.853   6.884
 5369SOL    HW233250   0.513   4.858   6.953
 5370SOL     OW33251   0.565   5.174   0.314
 5370SOL    HW133252   0.567   5.248   0.254
 5370SOL    HW233253   0.472   5.159   0.331
 5371SOL     OW33254   3.859   4.957   5.716
 5371SOL    HW133255   3.867   4.886   5.779
 5371SOL    HW233256   3.909   4.927   5.639
 5372SOL     OW33257   5.826   0.709   7.537
 5372SOL    HW133258   5.766   0.644   7.500
 5372SOL    HW233259   5.910   0.691   7.495
 5373SOL     OW33260   4.527   0.156   7.227
 5373SOL    HW133261   4.486   0.168   7.313
 5373SOL    HW233262   4.460   0.113   7.175
 5374SOL     OW33263   4.846   4.037   2.076
 5374SOL    HW133264   4.870   4.087   2.154
 5374SOL    HW233265   4.888   3.952   2.088
 5375SOL     OW33266   5.132   3.017   1.301
 5375SOL    HW133267   5.189   3.091   1.323
 5375SOL    HW233268   5.047   3.041   1.340
 5376SOL     OW33269   3.485   2.463   7.736
 5376SOL    HW133270   3.442   2.531   7.787
 5376SOL    HW233271   3.495   2.500   7.649
 5377SOL     OW33272   3.243   0.612   0.736
 5377SOL    HW133273   3.218   0.698   0.701
 5377SOL    HW233274   3.204   0.610   0.824
 5378SOL     OW33275   4.029   5.913   0.597
 5378SOL    HW133276   4.029   5.934   0.690
 5378SOL    HW233277   4.095   5.973   0.560
 5379SOL     OW33278   3.412   4.082   7.297
 5379SOL    HW133279   3.334   4.137   7.301
 5379SOL    HW233280   3.455   4.108   7.215
 5380SOL     OW33281   5.691   5.300   6.315
 5380SOL    HW133282   5.660   5.309   6.405
 5380SOL    HW233283   5.763   5.237   6.320
 5381SOL     OW33284   5.587   1.692   0.867
 5381SOL    HW133285   5.668   1.740   0.880
 5381SOL    HW233286   5.531   1.720   0.939
 5382SOL     OW33287   4.845   1.323   6.130
 5382SOL    HW133288   4.917   1.367   6.176
 5382SOL    HW233289   4.874   1.233   6.119
 5383SOL     OW33290   6.348   6.073   6.761
 5383SOL    HW133291   6.416   6.112   6.706
 5383SOL    HW233292   6.266   6.108   6.726
 5384SOL     OW33293   2.177   0.342   7.054
 5384SOL    HW133294   2.170   0.303   7.141
 5384SOL    HW233295   2.246   0.292   7.011
 5385SOL     OW33296   6.341   0.427   1.925
 5385SOL    HW133297   6.365   0.498   1.984
 5385SOL    HW233298   6.305   0.471   1.848
 5386SOL     OW33299   5.849   1.663   6.317
 5386SOL    HW133300   5.908   1.593   6.345
 5386SOL    HW233301   5.907   1.732   6.287
 5387SOL     OW33302   6.154   1.957   0.905
 5387SOL    HW133303   6.228   2.005   0.868
 5387SOL    HW233304   6.078   1.990   0.856
 5388SOL     OW33305   4.621   4.932   7.685
 5388SOL    HW133306   4.638   4.855   7.740
 5388SOL    HW233307   4.627   5.006   7.745
 5389SOL     OW33308   3.321   2.174   0.808
 5389SOL    HW133309   3.323   2.264   0.774
 5389SOL    HW233310   3.361   2.122   0.738
 5390SOL     OW33311   0.368   2.728   1.125
 5390SOL    HW133312   0.449   2.716   1.174
 5390SOL    HW233313   0.382   2.677   1.044
 5391SOL     OW33314   4.131   4.640   1.297
 5391SOL    HW133315   4.113   4.684   1.214
 5391SOL    HW233316   4.118   4.709   1.363
 5392SOL     OW33317   3.241   0.041   6.196
 5392SOL    HW133318   3.258   0.044   6.102
 5392SOL    HW233319   3.184  -0.035   6.208
 5393SOL     OW33320   2.889   0.269   0.806
 5393SOL    HW133321   2.795   0.281   0.795
 5393SOL    HW233322   2.912   0.326   0.879
 5394SOL     OW33323   1.370   2.794   1.925
 5394SOL    HW133324   1.345   2.716   1.877
 5394SOL    HW233325   1.315   2.793   2.003
 5395SOL     OW33326   2.450   6.182   1.968
 5395SOL    HW133327   2.520   6.123   1.940
 5395SOL    HW233328   2.478   6.268   1.938
 5396SOL     OW33329   5.279   3.518   5.209
 5396SOL    HW133330   5.330   3.480   5.280
 5396SOL    HW233331   5.241   3.442   5.164
 5397SOL     OW33332   0.743   0.817   7.109
 5397SOL    HW133333   0.770   0.727   7.126
 5397SOL    HW233334   0.648   0.812   7.095
 5398SOL     OW33335   6.329   5.143   6.653
 5398SOL    HW133336   6.257   5.096   6.612
 5398SOL    HW233337   6.286   5.201   6.716
 5399SOL     OW33338   3.631   6.124   1.839
 5399SOL    HW133339   3.725   6.113   1.847
 5399SOL    HW233340   3.596   6.093   1.923
 5400SOL     OW33341   0.003   4.254   6.734
 5400SOL    HW133342  -0.024   4.346   6.735
 5400SOL    HW233343   0.098   4.258   6.722
 5401SOL     OW33344   1.387   6.013   0.595
 5401SOL    HW133345   1.462   6.004   0.537
 5401SOL    HW233346   1.421   6.056   0.673
 5402SOL     OW33347   3.228   1.042   0.909
 5402SOL    HW133348   3.318   1.010   0.894
 5402SOL    HW233349   3.227   1.066   1.001
 5403SOL     OW33350   1.182   1.456   0.100
 5403SOL    HW133351   1.129   1.478   0.176
 5403SOL    HW233352   1.265   1.502   0.115
 5404SOL     OW33353   3.769   0.980   6.613
 5404SOL    HW133354   3.751   0.984   6.519
 5404SOL    HW233355   3.807   0.894   6.627
 5405SOL     OW33356   2.263   5.414   0.873
 5405SOL    HW133357   2.249   5.420   0.967
 5405SOL    HW233358   2.326   5.483   0.853
 5406SOL     OW33359   3.705   1.070   7.073
 5406SOL    HW133360   3.798   1.046   7.076
 5406SOL    HW233361   3.705   1.166   7.077
 5407SOL     OW33362   0.810   3.539   1.642
 5407SOL    HW133363   0.730   3.492   1.616
 5407SOL    HW233364   0.859   3.474   1.693
 5408SOL     OW33365   3.147   5.387   2.157
 5408SOL    HW133366   3.156   5.297   2.127
 5408SOL    HW233367   3.061   5.414   2.126
 5409SOL     OW33368   4.680   4.662   0.882
 5409SOL    HW133369   4.766   4.656   0.923
 5409SOL    HW233370   4.684   4.741   0.828
 5410SOL     OW33371   2.449   1.452   0.887
 5410SOL    HW133372   2.384   1.491   0.946
 5410SOL    HW233373   2.533   1.487   0.916
 5411SOL     OW33374   6.118   0.478   7.662
 5411SOL    HW133375   6.134   0.410   7.727
 5411SOL    HW233376   6.052   0.441   7.604
 5412SOL     OW33377   2.738   2.070   1.964
 5412SOL    HW133378   2.660   2.059   1.908
 5412SOL    HW233379   2.705   2.113   2.043
 5413SOL     OW33380   0.905   3.618   0.178
 5413SOL    HW133381   0.927   3.679   0.249
 5413SOL    HW233382   0.813   3.635   0.159
 5414SOL     OW33383   5.275   3.249   6.896
 5414SOL    HW133384   5.335   3.275   6.966
 5414SOL    HW233385   5.239   3.165   6.925
 5415SOL     OW33386   3.225   3.493   6.791
 5415SOL    HW133387   3.137   3.499   6.756
 5415SOL    HW233388   3.215   3.448   6.875
 5416SOL     OW33389   0.605   6.382   0.284
 5416SOL    HW133390   0.663   6.412   0.354
 5416SOL    HW233391   0.649   6.410   0.203
 5417SOL     OW33392   2.877   0.621   6.405
 5417SOL    HW133393   2.799   0.613   6.459
 5417SOL    HW233394   2.866   0.555   6.337
 5418SOL     OW33395   2.074   5.386   7.362
 5418SOL    HW133396   1.982   5.407   7.342
 5418SOL    HW233397   2.123   5.418   7.286
 5419SOL     OW33398   3.377   1.181   6.803
 5419SOL    HW133399   3.420   1.188   6.888
 5419SOL    HW233400   3.444   1.206   6.739
 5420SOL     OW33401   4.661   2.776   1.677
 5420SOL    HW133402   4.607   2.854   1.684
 5420SOL    HW233403   4.699   2.765   1.764
 5421SOL     OW33404   5.120   1.310   1.146
 5421SOL    HW133405   5.197   1.261   1.118
 5421SOL    HW233406   5.069   1.246   1.196
 5422SOL     OW33407   5.587   4.822   6.411
 5422SOL    HW133408   5.621   4.737   6.441
 5422SOL    HW233409   5.596   4.819   6.316
 5423SOL     OW33410   5.726   4.979   0.060
 5423SOL    HW133411   5.704   4.892   0.026
 5423SOL    HW233412   5.734   4.966   0.155
 5424SOL     OW33413   5.719   5.729   1.436
 5424SOL    HW133414   5.708   5.704   1.528
 5424SOL    HW233415   5.756   5.817   1.439
 5425SOL     OW33416   3.261   1.760   1.315
 5425SOL    HW133417   3.194   1.717   1.369
 5425SOL    HW233418   3.318   1.805   1.377
 5426SOL     OW33419   0.772   0.145   1.446
 5426SOL    HW133420   0.808   0.089   1.377
 5426SOL    HW233421   0.739   0.084   1.512
 5427SOL     OW33422   4.285   1.426   0.272
 5427SOL    HW133423   4.377   1.436   0.249
 5427SOL    HW233424   4.275   1.476   0.353
 5428SOL     OW33425   2.522   5.084   0.621
 5428SOL    HW133426   2.596   5.102   0.562
 5428SOL    HW233427   2.468   5.163   0.615
 5429SOL     OW33428   4.976   3.603   1.642
 5429SOL    HW133429   5.022   3.532   1.688
 5429SOL    HW233430   4.930   3.651   1.711
 5430SOL     OW33431   0.109   6.266   7.391
 5430SOL    HW133432   0.187   6.214   7.413
 5430SOL    HW233433   0.063   6.277   7.474
 5431SOL     OW33434   5.736   3.908   0.992
 5431SOL    HW133435   5.781   3.986   1.025
 5431SOL    HW233436   5.722   3.853   1.069
 5432SOL     OW33437   2.113   4.813   0.366
 5432SOL    HW133438   2.081   4.723   0.364
 5432SOL    HW233439   2.070   4.856   0.292
 5433SOL     OW33440   1.175   5.682   5.859
 5433SOL    HW133441   1.172   5.686   5.763
 5433SOL    HW233442   1.188   5.589   5.879
 5434SOL     OW33443   6.441   3.301   1.027
 5434SOL    HW133444   6.351   3.286   0.996
 5434SOL    HW233445   6.456   3.231   1.091
 5435SOL     OW33446   4.346   2.360   0.397
 5435SOL    HW133447   4.366   2.364   0.491
 5435SOL    HW233448   4.383   2.277   0.368
 5436SOL     OW33449   3.825   5.930   0.257
 5436SOL    HW133450   3.869   5.854   0.296
 5436SOL    HW233451   3.736   5.926   0.291
 5437SOL     OW33452   4.791   1.565   5.496
 5437SOL    HW133453   4.872   1.604   5.462
 5437SOL    HW233454   4.766   1.622   5.569
 5438SOL     OW33455   2.061   2.633   6.167
 5438SOL    HW133456   2.005   2.614   6.092
 5438SOL    HW233457   2.131   2.689   6.132
 5439SOL     OW33458   5.048   2.516   1.417
 5439SOL    HW133459   5.004   2.570   1.482
 5439SOL    HW233460   5.034   2.426   1.447
 5440SOL     OW33461   3.687   0.449   2.016
 5440SOL    HW133462   3.773   0.447   1.972
 5440SOL    HW233463   3.657   0.539   2.006
 5441SOL     OW33464   2.154   5.728   1.200
 5441SOL    HW133465   2.240   5.746   1.163
 5441SOL    HW233466   2.099   5.709   1.124
 5442SOL     OW33467   6.460   3.125   6.743
 5442SOL    HW133468   6.480   3.134   6.836
 5442SOL    HW233469   6.450   3.215   6.711
 5443SOL     OW33470   4.416   4.823   2.352
 5443SOL    HW133471   4.324   4.798   2.358
 5443SOL    HW233472   4.434   4.871   2.433
 5444SOL     OW33473   3.317   0.178   1.453
 5444SOL    HW133474   3.293   0.088   1.476
 5444SOL    HW233475   3.270   0.195   1.371
 5445SOL     OW33476   2.027   2.285   7.631
 5445SOL    HW133477   2.054   2.211   7.576
 5445SOL    HW233478   1.950   2.320   7.587
 5446SOL     OW33479   2.453   2.957   7.429
 5446SOL    HW133480   2.442   2.937   7.522
 5446SOL    HW233481   2.454   2.871   7.386
 5447SOL     OW33482   3.948   6.190   7.319
 5447SOL    HW133483   3.874   6.239   7.283
 5447SOL    HW233484   3.959   6.116   7.260
 5448SOL     OW33485   6.464   2.378   6.544
 5448SOL    HW133486   6.386   2.365   6.491
 5448SOL    HW233487   6.487   2.291   6.576
 5449SOL     OW33488   2.890   4.344   7.578
 5449SOL    HW133489   2.822   4.399   7.539
 5449SOL    HW233490   2.967   4.401   7.583
 5450SOL     OW33491   2.565   1.541   6.992
 5450SOL    HW133492   2.521   1.604   6.936
 5450SOL    HW233493   2.647   1.521   6.945
 5451SOL     OW33494   3.869   4.263   1.904
 5451SOL    HW133495   3.964   4.271   1.911
 5451SOL    HW233496   3.842   4.222   1.986
 5452SOL     OW33497   1.469   6.294   7.514
 5452SOL    HW133498   1.557   6.307   7.479
 5452SOL    HW233499   1.443   6.381   7.544
 5453SOL     OW33500   0.402   1.992   1.468
 5453SOL    HW133501   0.431   2.057   1.532
 5453SOL    HW233502   0.326   2.032   1.425
 5454SOL     OW33503   5.344   5.075   0.732
 5454SOL    HW133504   5.401   5.141   0.771
 5454SOL    HW233505   5.273   5.126   0.691
 5455SOL     OW33506   0.199   3.665   1.992
 5455SOL    HW133507   0.219   3.671   2.085
 5455SOL    HW233508   0.230   3.577   1.967
 5456SOL     OW33509   3.760   2.174   5.836
 5456SOL    HW133510   3.807   2.234   5.778
 5456SOL    HW233511   3.694   2.228   5.879
 5457SOL     OW33512   3.544   5.784   7.727
 5457SOL    HW133513   3.478   5.852   7.709
 5457SOL    HW233514   3.628   5.828   7.714
 5458SOL     OW33515   2.796   1.091   5.616
 5458SOL    HW133516   2.762   1.045   5.693
 5458SOL    HW233517   2.853   1.027   5.574
 5459SOL     OW33518   0.442   0.328   7.382
 5459SOL    HW133519   0.447   0.233   7.368
 5459SOL    HW233520   0.531   0.353   7.409
 5460SOL     OW33521   3.056   1.976   0.299
 5460SOL    HW133522   3.011   1.898   0.330
 5460SOL    HW233523   3.051   1.970   0.204
 5461SOL     OW33524   0.525   0.686   7.207
 5461SOL    HW133525   0.496   0.656   7.293
 5461SOL    HW233526   0.449   0.675   7.150
 5462SOL     OW33527   1.883   3.374   2.273
 5462SOL    HW133528   1.795   3.338   2.279
 5462SOL    HW233529   1.891   3.431   2.349
 5463SOL     OW33530   3.141   6.320   1.791
 5463SOL    HW133531   3.090   6.345   1.868
 5463SOL    HW233532   3.134   6.225   1.787
 5464SOL     OW33533   0.222   0.673   1.284
 5464SOL    HW133534   0.289   0.733   1.317
 5464SOL    HW233535   0.173   0.724   1.219
 5465SOL     OW33536   0.644   5.566   1.030
 5465SOL    HW133537   0.604   5.585   0.945
 5465SOL    HW233538   0.727   5.523   1.008
 5466SOL     OW33539   0.589   5.150   5.621
 5466SOL    HW133540   0.523   5.140   5.552
 5466SOL    HW233541   0.538   5.158   5.702
 5467SOL     OW33542   0.512   6.119   6.559
 5467SOL    HW133543   0.539   6.027   6.560
 5467SOL    HW233544   0.544   6.152   6.475
 5468SOL     OW33545   5.123   3.717   6.788
 5468SOL    HW133546   5.080   3.654   6.730
 5468SOL    HW233547   5.179   3.663   6.844
 5469SOL     OW33548   2.299   3.436   5.999
 5469SOL    HW133549   2.307   3.351   6.042
 5469SOL    HW233550   2.265   3.494   6.067
 5470SOL     OW33551   1.470   2.804   0.674
 5470SOL    HW133552   1.423   2.805   0.757
 5470SOL    HW233553   1.467   2.895   0.643
 5471SOL     OW33554   3.131   3.249   1.773
 5471SOL    HW133555   3.091   3.213   1.693
 5471SOL    HW233556   3.141   3.342   1.754
 5472SOL     OW33557   5.735   0.717   0.295
 5472SOL    HW133558   5.649   0.757   0.289
 5472SOL    HW233559   5.769   0.719   0.206
 5473SOL     OW33560   1.144   6.124   0.570
 5473SOL    HW133561   1.146   6.192   0.503
 5473SOL    HW233562   1.237   6.104   0.586
 5474SOL     OW33563   4.887   5.378   5.604
 5474SOL    HW133564   4.860   5.383   5.512
 5474SOL    HW233565   4.809   5.401   5.654
 5475SOL     OW33566   4.431   1.756   6.642
 5475SOL    HW133567   4.477   1.800   6.570
 5475SOL    HW233568   4.397   1.828   6.696
 5476SOL     OW33569   0.864   4.577   2.259
 5476SOL    HW133570   0.919   4.499   2.252
 5476SOL    HW233571   0.877   4.607   2.349
 5477SOL     OW33572   1.640   6.382   1.518
 5477SOL    HW133573   1.580   6.412   1.587
 5477SOL    HW233574   1.584   6.367   1.442
 5478SOL     OW33575   1.998   5.095   0.535
 5478SOL    HW133576   2.043   5.156   0.593
 5478SOL    HW233577   2.047   5.013   0.545
 5479SOL     OW33578   2.937   5.331   1.005
 5479SOL    HW133579   3.022   5.375   0.999
 5479SOL    HW233580   2.903   5.355   1.091
 5480SOL     OW33581   0.532   3.682   5.732
 5480SOL    HW133582   0.497   3.761   5.692
 5480SOL    HW233583   0.505   3.687   5.824
 5481SOL     OW33584   2.801   4.490   0.896
 5481SOL    HW133585   2.769   4.508   0.984
 5481SOL    HW233586   2.838   4.574   0.867
 5482SOL     OW33587   5.044   5.413   7.489
 5482SOL    HW133588   4.974   5.363   7.531
 5482SOL    HW233589   5.019   5.417   7.397
 5483SOL     OW33590   3.693   3.190   6.545
 5483SOL    HW133591   3.690   3.285   6.531
 5483SOL    HW233592   3.616   3.172   6.600
 5484SOL     OW33593   6.406   4.954   0.034
 5484SOL    HW133594   6.374   5.012   0.103
 5484SOL    HW233595   6.483   4.998  -0.001
 5485SOL     OW33596   5.128   0.109   0.723
 5485SOL    HW133597   5.193   0.160   0.773
 5485SOL    HW233598   5.175   0.080   0.645
 5486SOL     OW33599   6.058   0.172   2.132
 5486SOL    HW133600   6.039   0.113   2.059
 5486SOL    HW233601   6.062   0.115   2.208
 5487SOL     OW33602   5.320   2.195   1.377
 5487SOL    HW133603   5.296   2.233   1.292
 5487SOL    HW233604   5.366   2.114   1.355
 5488SOL     OW33605   5.307   5.339   6.947
 5488SOL    HW133606   5.351   5.276   6.889
 5488SOL    HW233607   5.229   5.365   6.899
 5489SOL     OW33608   0.833   1.679   6.206
 5489SOL    HW133609   0.890   1.613   6.167
 5489SOL    HW233610   0.763   1.692   6.142
 5490SOL     OW33611   0.888   3.644   5.496
 5490SOL    HW133612   0.935   3.721   5.526
 5490SOL    HW233613   0.796   3.669   5.501
 5491SOL     OW33614   5.482   4.520   1.691
 5491SOL    HW133615   5.556   4.500   1.748
 5491SOL    HW233616   5.439   4.595   1.732
 5492SOL     OW33617   4.813   0.715   1.803
 5492SOL    HW133618   4.888   0.709   1.862
 5492SOL    HW233619   4.742   0.671   1.849
 5493SOL     OW33620   2.047   5.134   2.161
 5493SOL    HW133621   2.069   5.050   2.202
 5493SOL    HW233622   2.016   5.189   2.233
 5494SOL     OW33623   4.083   0.095   0.263
 5494SOL    HW133624   4.030   0.109   0.184
 5494SOL    HW233625   4.172   0.117   0.237
 5495SOL     OW33626   2.483   1.421   7.607
 5495SOL    HW133627   2.429   1.493   7.574
 5495SOL    HW233628   2.544   1.403   7.536
 5496SOL     OW33629   4.477   5.330   1.171
 5496SOL    HW133630   4.486   5.256   1.230
 5496SOL    HW233631   4.396   5.372   1.198
 5497SOL     OW33632   5.856   5.949   1.495
 5497SOL    HW133633   5.876   6.039   1.470
 5497SOL    HW233634   5.825   5.955   1.585
 5498SOL     OW33635   6.315   1.380   6.700
 5498SOL    HW133636   6.405   1.413   6.695
 5498SOL    HW233637   6.311   1.311   6.634
 5499SOL     OW33638   1.879   1.500   6.969
 5499SOL    HW133639   1.840   1.565   6.912
 5499SOL    HW233640   1.805   1.458   7.013
 5500SOL     OW33641   3.323   0.375   0.582
 5500SOL    HW133642   3.375   0.413   0.511
 5500SOL    HW233643   3.313   0.446   0.645
 5501SOL     OW33644   1.759   2.996   0.415
 5501SOL    HW133645   1.815   3.052   0.361
 5501SOL    HW233646   1.699   3.056   0.458
 5502SOL     OW33647   0.546   3.932   1.531
 5502SOL    HW133648   0.486   3.866   1.495
 5502SOL    HW233649   0.493   3.982   1.593
 5503SOL     OW33650   4.274   5.627   0.796
 5503SOL    HW133651   4.257   5.632   0.890
 5503SOL    HW233652   4.202   5.574   0.761
 5504SOL     OW33653   5.645   0.027   0.304
 5504SOL    HW133654   5.561   0.054   0.266
 5504SOL    HW233655   5.650   0.075   0.387
 5505SOL     OW33656   4.452   0.231   7.494
 5505SOL    HW133657   4.467   0.306   7.552
 5505SOL    HW233658   4.358   0.214   7.503
 5506SOL     OW33659   5.980   0.694   1.561
 5506SOL    HW133660   6.006   0.753   1.633
 5506SOL    HW233661   6.039   0.619   1.569
 5507SOL     OW33662   5.371   3.086   7.182
 5507SOL    HW133663   5.300   3.061   7.122
 5507SOL    HW233664   5.449   3.049   7.142
 5508SOL     OW33665   6.075   3.864   0.033
 5508SOL    HW133666   6.000   3.836  -0.018
 5508SOL    HW233667   6.146   3.806   0.005
 5509SOL     OW33668   5.243   5.166   0.279
 5509SOL    HW133669   5.284   5.107   0.216
 5509SOL    HW233670   5.305   5.170   0.352
 5510SOL     OW33671   2.796   2.874   7.601
 5510SOL    HW133672   2.717   2.856   7.653
 5510SOL    HW233673   2.868   2.846   7.658
 5511SOL     OW33674   5.876   1.409   7.070
 5511SOL    HW133675   5.943   1.341   7.083
 5511SOL    HW233676   5.798   1.373   7.111
 5512SOL     OW33677   0.847   4.055   6.742
 5512SOL    HW133678   0.879   4.139   6.774
 5512SOL    HW233679   0.877   4.051   6.651
 5513SOL     OW33680   1.260   1.686   1.138
 5513SOL    HW133681   1.293   1.625   1.204
 5513SOL    HW233682   1.166   1.689   1.153
 5514SOL     OW33683   0.473   2.796   1.826
 5514SOL    HW133684   0.568   2.806   1.819
 5514SOL    HW233685   0.458   2.772   1.917
 5515SOL     OW33686   5.413   0.108   1.306
 5515SOL    HW133687   5.462   0.187   1.329
 5515SOL    HW233688   5.392   0.120   1.213
 5516SOL     OW33689   1.910   6.129   7.406
 5516SOL    HW133690   1.926   6.035   7.395
 5516SOL    HW233691   1.942   6.168   7.324
 5517SOL     OW33692   5.925   1.354   2.160
 5517SOL    HW133693   6.005   1.328   2.205
 5517SOL    HW233694   5.915   1.447   2.180
 5518SOL     OW33695   3.200   3.524   5.903
 5518SOL    HW133696   3.128   3.529   5.841
 5518SOL    HW233697   3.174   3.457   5.966
 5519SOL     OW33698   5.552   2.005   7.456
 5519SOL    HW133699   5.513   2.052   7.383
 5519SOL    HW233700   5.573   1.918   7.421
 5520SOL     OW33701   2.280   0.896   6.557
 5520SOL    HW133702   2.315   0.849   6.633
 5520SOL    HW233703   2.297   0.837   6.483
 5521SOL     OW33704   5.674   4.605   6.194
 5521SOL    HW133705   5.737   4.635   6.128
 5521SOL    HW233706   5.717   4.530   6.236
 5522SOL     OW33707   6.031   5.464   7.325
 5522SOL    HW133708   6.086   5.418   7.388
 5522SOL    HW233709   5.950   5.483   7.373
 5523SOL     OW33710   5.098   2.102   6.847
 5523SOL    HW133711   5.048   2.021   6.859
 5523SOL    HW233712   5.032   2.171   6.841
 5524SOL     OW33713   4.839   1.732   2.052
 5524SOL    HW133714   4.860   1.648   2.011
 5524SOL    HW233715   4.748   1.724   2.078
 5525SOL     OW33716   3.874   0.313   1.145
 5525SOL    HW133717   3.964   0.339   1.129
 5525SOL    HW233718   3.823   0.393   1.135
 5526SOL     OW33719   4.370   3.041   0.537
 5526SOL    HW133720   4.354   3.086   0.454
 5526SOL    HW233721   4.359   3.109   0.603
 5527SOL     OW33722   4.205   1.667   7.238
 5527SOL    HW133723   4.175   1.694   7.325
 5527SOL    HW233724   4.227   1.749   7.193
 5528SOL     OW33725   1.002   1.671   1.213
 5528SOL    HW133726   0.992   1.588   1.166
 5528SOL    HW233727   0.938   1.668   1.283
 5529SOL     OW33728   5.248   2.163   5.777
 5529SOL    HW133729   5.204   2.102   5.718
 5529SOL    HW233730   5.225   2.249   5.744
 5530SOL     OW33731   4.836   1.747   6.580
 5530SOL    HW133732   4.875   1.741   6.493
 5530SOL    HW233733   4.745   1.774   6.563
 5531SOL     OW33734   5.402   5.869   0.274
 5531SOL    HW133735   5.354   5.830   0.347
 5531SOL    HW233736   5.468   5.803   0.251
 5532SOL     OW33737   4.411   3.645   1.056
 5532SOL    HW133738   4.452   3.691   0.983
 5532SOL    HW233739   4.406   3.710   1.126
 5533SOL     OW33740   0.594   1.834   7.411
 5533SOL    HW133741   0.556   1.778   7.343
 5533SOL    HW233742   0.524   1.895   7.434
 5534SOL     OW33743   5.396   4.191   1.009
 5534SOL    HW133744   5.393   4.111   1.061
 5534SOL    HW233745   5.408   4.161   0.919
 5535SOL     OW33746   3.891   0.044   0.071
 5535SOL    HW133747   3.796   0.047   0.070
 5535SOL    HW233748   3.913  -0.045   0.040
 5536SOL     OW33749   6.382   4.052   7.443
 5536SOL    HW133750   6.422   3.968   7.469
 5536SOL    HW233751   6.426   4.075   7.361
 5537SOL     OW33752   4.996   1.852   6.782
 5537SOL    HW133753   5.012   1.770   6.829
 5537SOL    HW233754   4.938   1.827   6.710
 5538SOL     OW33755   3.198   0.750   1.659
 5538SOL    HW133756   3.123   0.701   1.693
 5538SOL    HW233757   3.178   0.764   1.567
 5539SOL     OW33758   2.849   1.517   6.879
 5539SOL    HW133759   2.914   1.490   6.814
 5539SOL    HW233760   2.901   1.544   6.955
 5540SOL     OW33761   0.290   1.359   1.349
 5540SOL    HW133762   0.204   1.401   1.353
 5540SOL    HW233763   0.278   1.275   1.395
 5541SOL     OW33764   5.292   3.979   7.593
 5541SOL    HW133765   5.361   4.044   7.609
 5541SOL    HW233766   5.338   3.895   7.592
 5542SOL     OW33767   2.251   5.421   6.636
 5542SOL    HW133768   2.254   5.332   6.600
 5542SOL    HW233769   2.240   5.408   6.731
 5543SOL     OW33770   2.954   3.616   7.350
 5543SOL    HW133771   2.943   3.672   7.427
 5543SOL    HW233772   2.936   3.527   7.381
 5544SOL     OW33773   3.489   1.345   5.792
 5544SOL    HW133774   3.393   1.340   5.795
 5544SOL    HW233775   3.509   1.367   5.701
 5545SOL     OW33776   1.839   6.436   2.615
 5545SOL    HW133777   1.856   6.452   2.522
 5545SOL    HW233778   1.837   6.341   2.624
 5546SOL     OW33779   5.926   0.421   0.609
 5546SOL    HW133780   5.867   0.491   0.582
 5546SOL    HW233781   5.893   0.394   0.695
 5547SOL     OW33782   3.038   4.066   0.552
 5547SOL    HW133783   2.944   4.058   0.569
 5547SOL    HW233784   3.057   3.996   0.489
 5548SOL     OW33785   1.587   3.183   6.035
 5548SOL    HW133786   1.546   3.223   6.112
 5548SOL    HW233787   1.530   3.207   5.963
 5549SOL     OW33788   2.655   1.420   6.721
 5549SOL    HW133789   2.628   1.490   6.662
 5549SOL    HW233790   2.714   1.462   6.784
 5550SOL     OW33791   4.354   0.388   6.121
 5550SOL    HW133792   4.337   0.396   6.214
 5550SOL    HW233793   4.447   0.366   6.116
 5551SOL     OW33794   1.684   5.681   6.021
 5551SOL    HW133795   1.683   5.748   5.952
 5551SOL    HW233796   1.772   5.685   6.057
 5552SOL     OW33797   1.953   0.870   6.170
 5552SOL    HW133798   1.951   0.881   6.075
 5552SOL    HW233799   1.869   0.829   6.191
 5553SOL     OW33800   2.122   1.807   2.048
 5553SOL    HW133801   2.043   1.753   2.057
 5553SOL    HW233802   2.139   1.840   2.136
 5554SOL     OW33803   6.087   1.867   0.520
 5554SOL    HW133804   6.052   1.824   0.443
 5554SOL    HW233805   6.165   1.816   0.543
 5555SOL     OW33806   2.497   0.042   7.706
 5555SOL    HW133807   2.531   0.071   7.790
 5555SOL    HW233808   2.513  -0.053   7.705
 5556SOL     OW33809   4.866   0.768   0.314
 5556SOL    HW133810   4.913   0.686   0.302
 5556SOL    HW233811   4.869   0.784   0.408
 5557SOL     OW33812   1.404   0.170   1.375
 5557SOL    HW133813   1.445   0.083   1.373
 5557SOL    HW233814   1.328   0.159   1.432
 5558SOL     OW33815   4.869   5.976   7.576
 5558SOL    HW133816   4.860   6.019   7.661
 5558SOL    HW233817   4.788   5.926   7.566
 5559SOL     OW33818   1.938   4.057   1.852
 5559SOL    HW133819   1.881   4.036   1.778
 5559SOL    HW233820   1.891   4.023   1.928
 5560SOL     OW33821   2.824   3.163   7.566
 5560SOL    HW133822   2.775   3.182   7.646
 5560SOL    HW233823   2.826   3.068   7.560
 5561SOL     OW33824   4.938   3.849   7.010
 5561SOL    HW133825   4.906   3.923   6.958
 5561SOL    HW233826   5.010   3.813   6.959
 5562SOL     OW33827   0.774   3.699   6.773
 5562SOL    HW133828   0.857   3.710   6.820
 5562SOL    HW233829   0.775   3.609   6.743
 5563SOL     OW33830   5.977   3.020   7.369
 5563SOL    HW133831   6.046   2.959   7.343
 5563SOL    HW233832   5.898   2.966   7.374
 5564SOL     OW33833   4.285   4.144   7.001
 5564SOL    HW133834   4.239   4.147   7.085
 5564SOL    HW233835   4.353   4.078   7.013
 5565SOL     OW33836   0.582   4.455   0.717
 5565SOL    HW133837   0.522   4.404   0.772
 5565SOL    HW233838   0.583   4.409   0.634
 5566SOL     OW33839   5.963   0.279   6.095
 5566SOL    HW133840   5.964   0.305   6.003
 5566SOL    HW233841   6.011   0.196   6.097
 5567SOL     OW33842   6.045   1.832   6.216
 5567SOL    HW133843   6.055   1.927   6.209
 5567SOL    HW233844   6.119   1.796   6.168
 5568SOL     OW33845   4.672   4.844   0.669
 5568SOL    HW133846   4.724   4.919   0.700
 5568SOL    HW233847   4.597   4.884   0.624
 5569SOL     OW33848   0.073   2.033   2.193
 5569SOL    HW133849  -0.004   1.976   2.197
 5569SOL    HW233850   0.117   2.008   2.112
 5570SOL     OW33851   1.152   5.523   7.327
 5570SOL    HW133852   1.107   5.592   7.280
 5570SOL    HW233853   1.147   5.549   7.419
 5571SOL     OW33854   6.080   5.373   0.634
 5571SOL    HW133855   6.113   5.292   0.672
 5571SOL    HW233856   6.155   5.433   0.633
 5572SOL     OW33857   3.442   5.489   1.412
 5572SOL    HW133858   3.510   5.446   1.362
 5572SOL    HW233859   3.489   5.539   1.479
 5573SOL     OW33860   5.157   0.795   0.963
 5573SOL    HW133861   5.239   0.759   0.998
 5573SOL    HW233862   5.183   0.841   0.883
 5574SOL     OW33863   5.592   1.537   1.164
 5574SOL    HW133864   5.515   1.494   1.199
 5574SOL    HW233865   5.597   1.506   1.073
 5575SOL     OW33866   2.092   0.720   7.022
 5575SOL    HW133867   2.148   0.680   6.956
 5575SOL    HW233868   2.065   0.803   6.983
 5576SOL     OW33869   6.032   1.263   7.430
 5576SOL    HW133870   5.976   1.188   7.451
 5576SOL    HW233871   5.992   1.301   7.352
 5577SOL     OW33872   2.013   0.947   6.862
 5577SOL    HW133873   2.027   0.885   6.790
 5577SOL    HW233874   1.992   1.029   6.819
 5578SOL     OW33875   1.947   0.264   0.970
 5578SOL    HW133876   1.944   0.286   0.877
 5578SOL    HW233877   2.020   0.314   1.005
 5579SOL     OW33878   6.052   2.154   1.921
 5579SOL    HW133879   5.961   2.173   1.943
 5579SOL    HW233880   6.081   2.097   1.992
 5580SOL     OW33881   1.400   1.277   1.150
 5580SOL    HW133882   1.414   1.184   1.133
 5580SOL    HW233883   1.488   1.314   1.153
 5581SOL     OW33884   2.408   6.157   6.801
 5581SOL    HW133885   2.360   6.202   6.733
 5581SOL    HW233886   2.479   6.112   6.755
 5582SOL     OW33887   6.012   2.138   0.405
 5582SOL    HW133888   6.054   2.087   0.474
 5582SOL    HW233889   6.072   2.132   0.331
 5583SOL     OW33890   1.689   6.225   6.791
 5583SOL    HW133891   1.706   6.141   6.834
 5583SOL    HW233892   1.772   6.273   6.799
 5584SOL     OW33893   3.196   1.659   0.262
 5584SOL    HW133894   3.135   1.670   0.189
 5584SOL    HW233895   3.140   1.655   0.339
 5585SOL     OW33896   3.913   3.830   2.107
 5585SOL    HW133897   3.857   3.775   2.162
 5585SOL    HW233898   3.961   3.885   2.169
 5586SOL     OW33899   3.842   4.836   1.143
 5586SOL    HW133900   3.778   4.768   1.123
 5586SOL    HW233901   3.926   4.797   1.121
 5587SOL     OW33902   3.273   6.180   2.211
 5587SOL    HW133903   3.342   6.243   2.189
 5587SOL    HW233904   3.197   6.211   2.162
 5588SOL     OW33905   4.386   3.993   0.331
 5588SOL    HW133906   4.383   3.932   0.257
 5588SOL    HW233907   4.297   3.994   0.365
 5589SOL     OW33908   3.286   3.367   1.273
 5589SOL    HW133909   3.272   3.422   1.195
 5589SOL    HW233910   3.223   3.296   1.263
 5590SOL     OW33911   3.791   5.098   1.084
 5590SOL    HW133912   3.705   5.108   1.044
 5590SOL    HW233913   3.816   5.008   1.066
 5591SOL     OW33914   3.898   0.335   6.902
 5591SOL    HW133915   3.890   0.364   6.811
 5591SOL    HW233916   3.923   0.414   6.950
 5592SOL     OW33917   2.196   3.430   0.599
 5592SOL    HW133918   2.121   3.409   0.543
 5592SOL    HW233919   2.167   3.409   0.687
 5593SOL     OW33920   1.852   4.715   7.430
 5593SOL    HW133921   1.924   4.747   7.376
 5593SOL    HW233922   1.819   4.793   7.474
 5594SOL     OW33923   2.240   6.430   1.761
 5594SOL    HW133924   2.215   6.346   1.721
 5594SOL    HW233925   2.292   6.474   1.694
 5595SOL     OW33926   5.189   1.624   2.182
 5595SOL    HW133927   5.171   1.716   2.205
 5595SOL    HW233928   5.265   1.601   2.235
 5596SOL     OW33929   5.788   0.243   7.600
 5596SOL    HW133930   5.865   0.206   7.558
 5596SOL    HW233931   5.732   0.168   7.620
 5597SOL     OW33932   3.604   3.500   1.059
 5597SOL    HW133933   3.693   3.535   1.063
 5597SOL    HW233934   3.565   3.523   1.143
 5598SOL     OW33935   4.534   5.180   0.013
 5598SOL    HW133936   4.569   5.218   0.093
 5598SOL    HW233937   4.458   5.129   0.042
 5599SOL     OW33938   6.055   0.187   1.777
 5599SOL    HW133939   6.081   0.112   1.832
 5599SOL    HW233940   6.122   0.191   1.709
 5600SOL     OW33941   5.312   0.716   7.669
 5600SOL    HW133942   5.345   0.670   7.592
 5600SOL    HW233943   5.296   0.805   7.638
 5601SOL     OW33944   5.505   1.367   7.500
 5601SOL    HW133945   5.413   1.356   7.479
 5601SOL    HW233946   5.524   1.296   7.562
 5602SOL     OW33947   3.362   5.160   6.363
 5602SOL    HW133948   3.336   5.244   6.402
 5602SOL    HW233949   3.348   5.172   6.269
 5603SOL     OW33950   3.809   2.901   1.641
 5603SOL    HW133951   3.835   2.949   1.562
 5603SOL    HW233952   3.743   2.839   1.611
 5604SOL     OW33953   5.109   1.437   6.018
 5604SOL    HW133954   5.101   1.343   6.028
 5604SOL    HW233955   5.181   1.449   5.955
 5605SOL     OW33956  -0.002   1.414   1.068
 5605SOL    HW133957   0.068   1.414   1.003
 5605SOL    HW233958   0.040   1.442   1.149
 5606SOL     OW33959   2.660   3.736   1.412
 5606SOL    HW133960   2.666   3.697   1.499
 5606SOL    HW233961   2.663   3.830   1.427
 5607SOL     OW33962   0.585   2.623   0.595
 5607SOL    HW133963   0.566   2.551   0.655
 5607SOL    HW233964   0.638   2.684   0.646
 5608SOL     OW33965   1.794   4.735   6.806
 5608SOL    HW133966   1.851   4.791   6.754
 5608SOL    HW233967   1.843   4.719   6.886
 5609SOL     OW33968   2.929   0.866   7.023
 5609SOL    HW133969   2.976   0.849   6.941
 5609SOL    HW233970   2.955   0.793   7.080
 5610SOL     OW33971   5.321   6.251   1.418
 5610SOL    HW133972   5.227   6.236   1.402
 5610SOL    HW233973   5.364   6.174   1.381
 5611SOL     OW33974   5.843   4.322   0.171
 5611SOL    HW133975   5.769   4.378   0.194
 5611SOL    HW233976   5.914   4.351   0.229
 5612SOL     OW33977   2.968   5.032   0.988
 5612SOL    HW133978   2.922   4.980   1.053
 5612SOL    HW233979   2.952   5.123   1.013
 5613SOL     OW33980   1.430   2.544   7.282
 5613SOL    HW133981   1.489   2.536   7.206
 5613SOL    HW233982   1.343   2.525   7.246
 5614SOL     OW33983   5.921   4.069   6.344
 5614SOL    HW133984   5.921   4.088   6.438
 5614SOL    HW233985   5.841   4.017   6.331
 5615SOL     OW33986   3.307   3.904   7.491
 5615SOL    HW133987   3.380   3.843   7.501
 5615SOL    HW233988   3.335   3.963   7.421
 5616SOL     OW33989   1.455   1.292   6.155
 5616SOL    HW133990   1.362   1.276   6.171
 5616SOL    HW233991   1.500   1.238   6.220
 5617SOL     OW33992   5.482   3.601   5.946
 5617SOL    HW133993   5.573   3.580   5.965
 5617SOL    HW233994   5.462   3.551   5.867
 5618SOL     OW33995   0.943   1.124   0.446
 5618SOL    HW133996   0.949   1.099   0.354
 5618SOL    HW233997   1.031   1.154   0.469
 5619SOL     OW33998   1.657   5.070   6.843
 5619SOL    HW133999   1.629   5.130   6.912
 5619SOL    HW234000   1.607   4.990   6.858
 5620SOL     OW34001   4.931   2.402   0.123
 5620SOL    HW134002   4.857   2.347   0.098
 5620SOL    HW234003   4.923   2.412   0.218
 5621SOL     OW34004   1.553   1.277   1.560
 5621SOL    HW134005   1.526   1.222   1.487
 5621SOL    HW234006   1.471   1.301   1.604
 5622SOL     OW34007   5.129   5.038   2.867
 5622SOL    HW134008   5.137   5.133   2.861
 5622SOL    HW234009   5.218   5.006   2.855
 5623SOL     OW34010   3.115   0.606   0.044
 5623SOL    HW134011   3.133   0.681  -0.012
 5623SOL    HW234012   3.182   0.609   0.112
 5624SOL     OW34013   3.595   1.079   5.651
 5624SOL    HW134014   3.512   1.124   5.636
 5624SOL    HW234015   3.661   1.149   5.649
 5625SOL     OW34016   0.700   2.915   1.547
 5625SOL    HW134017   0.742   2.875   1.471
 5625SOL    HW234018   0.724   2.858   1.620
 5626SOL     OW34019   4.848   1.368   0.196
 5626SOL    HW134020   4.769   1.336   0.154
 5626SOL    HW234021   4.846   1.463   0.180
 5627SOL     OW34022   2.227   4.934   7.619
 5627SOL    HW134023   2.282   4.869   7.576
 5627SOL    HW234024   2.209   4.999   7.551
 5628SOL     OW34025   1.113   6.033   0.007
 5628SOL    HW134026   1.195   6.082  -0.001
 5628SOL    HW234027   1.085   6.018  -0.083
 5629SOL     OW34028   6.125   2.514   5.713
 5629SOL    HW134029   6.038   2.481   5.735
 5629SOL    HW234030   6.116   2.610   5.715
 5630SOL     OW34031   1.300   4.308   1.134
 5630SOL    HW134032   1.309   4.403   1.141
 5630SOL    HW234033   1.209   4.295   1.107
 5631SOL     OW34034   1.870   5.043   1.074
 5631SOL    HW134035   1.784   5.053   1.032
 5631SOL    HW234036   1.871   5.110   1.142
 5632SOL     OW34037   2.679   3.991   1.511
 5632SOL    HW134038   2.632   3.977   1.593
 5632SOL    HW234039   2.616   4.031   1.452
 5633SOL     OW34040   4.945   4.866   7.388
 5633SOL    HW134041   4.956   4.828   7.301
 5633SOL    HW234042   4.899   4.949   7.373
 5634SOL     OW34043   4.602   3.936   1.066
 5634SOL    HW134044   4.523   3.931   1.120
 5634SOL    HW234045   4.674   3.924   1.128
 5635SOL     OW34046   0.993   3.304   1.535
 5635SOL    HW134047   0.996   3.391   1.495
 5635SOL    HW234048   0.975   3.322   1.628
 5636SOL     OW34049   0.478   2.834   7.280
 5636SOL    HW134050   0.569   2.807   7.271
 5636SOL    HW234051   0.478   2.894   7.355
 5637SOL     OW34052   3.232   5.264   2.742
 5637SOL    HW134053   3.212   5.357   2.737
 5637SOL    HW234054   3.151   5.224   2.776
 5638SOL     OW34055   1.433   3.107   7.010
 5638SOL    HW134056   1.417   3.186   7.061
 5638SOL    HW234057   1.349   3.061   7.009
 5639SOL     OW34058   5.123   0.344   6.760
 5639SOL    HW134059   5.156   0.434   6.770
 5639SOL    HW234060   5.121   0.330   6.665
 5640SOL     OW34061   5.778   6.213   1.330
 5640SOL    HW134062   5.779   6.122   1.302
 5640SOL    HW234063   5.837   6.215   1.406
 5641SOL     OW34064   5.589   0.870   2.097
 5641SOL    HW134065   5.652   0.879   2.168
 5641SOL    HW234066   5.575   0.959   2.066
 5642SOL     OW34067   0.527   2.493   7.576
 5642SOL    HW134068   0.542   2.499   7.670
 5642SOL    HW234069   0.612   2.513   7.537
 5643SOL     OW34070   5.124   1.436   0.901
 5643SOL    HW134071   5.115   1.528   0.927
 5643SOL    HW234072   5.120   1.387   0.983
 5644SOL     OW34073   1.601   1.448   0.642
 5644SOL    HW134074   1.690   1.459   0.608
 5644SOL    HW234075   1.546   1.440   0.564
 5645SOL     OW34076   2.825   1.464   6.203
 5645SOL    HW134077   2.730   1.475   6.201
 5645SOL    HW234078   2.859   1.540   6.156
 5646SOL     OW34079   1.124   2.711   0.999
 5646SOL    HW134080   1.051   2.684   0.944
 5646SOL    HW234081   1.090   2.783   1.052
 5647SOL     OW34082   0.654   0.081   0.736
 5647SOL    HW134083   0.737   0.111   0.773
 5647SOL    HW234084   0.589   0.102   0.803
 5648SOL     OW34085   4.319   4.218   6.446
 5648SOL    HW134086   4.339   4.312   6.441
 5648SOL    HW234087   4.280   4.206   6.533
 5649SOL     OW34088   4.577   0.252   1.333
 5649SOL    HW134089   4.653   0.252   1.390
 5649SOL    HW234090   4.561   0.159   1.315
 5650SOL     OW34091   4.481   3.736   7.258
 5650SOL    HW134092   4.515   3.712   7.344
 5650SOL    HW234093   4.539   3.691   7.196
 5651SOL     OW34094   0.465   5.581   0.788
 5651SOL    HW134095   0.395   5.522   0.815
 5651SOL    HW234096   0.497   5.545   0.705
 5652SOL     OW34097   0.916   5.339   1.431
 5652SOL    HW134098   0.898   5.275   1.362
 5652SOL    HW234099   0.961   5.411   1.386
 5653SOL     OW34100   0.311   6.283   1.181
 5653SOL    HW134101   0.281   6.316   1.096
 5653SOL    HW234102   0.393   6.329   1.197
 5654SOL     OW34103   5.298   3.026   7.711
 5654SOL    HW134104   5.325   3.090   7.645
 5654SOL    HW234105   5.319   2.942   7.672
 5655SOL     OW34106   1.141   0.408   7.235
 5655SOL    HW134107   1.217   0.380   7.286
 5655SOL    HW234108   1.091   0.328   7.221
 5656MOL     C134109   4.117   2.944   7.152
 5656MOL     C234110   4.206   2.951   7.269
 5656MOL     N134111   4.218   2.738   7.056
 5656MOL     N234112   4.254   2.853   7.338
 5656MOL     C334113   4.294   2.684   7.157
 5656MOL     C434114   4.237   2.714   7.296
 5656MOL     H134115   4.130   2.691   7.298
 5656MOL     H234116   4.287   2.646   7.365
 5656MOL     C534117   4.029   2.832   6.952
 5656MOL     C634118   3.928   2.927   6.934
 5656MOL     C734119   4.123   2.842   7.056
 5656MOL     C834120   3.922   3.023   7.035
 5656MOL     C934121   4.017   3.041   7.136
 5656MOL     H334122   3.857   2.904   6.854
 5656MOL     H434123   4.004   3.122   7.206
 5656MOL     H534124   4.043   2.751   6.882
 5656MOL     O134125   4.378   2.599   7.135
 5656MOL    C1034126   4.256   3.085   7.305
 5656MOL    C1134127   4.272   3.118   7.440
 5656MOL     N334128   4.292   3.174   7.211
 5656MOL    C1234129   4.330   3.239   7.480
 5656MOL    C1334130   4.352   3.289   7.241
 5656MOL    C1434131   4.379   3.319   7.375
 5656MOL     H634132   4.235   3.051   7.517
 5656MOL     H734133   4.353   3.261   7.583
 5656MOL     H834134   4.372   3.347   7.152
 5656MOL     H934135   4.431   3.412   7.396
 5656MOL    H1034136   4.228   2.701   6.962
 5656MOL    BR134137   3.777   3.147   7.029
 5656MOL     EP34138   3.624   3.278   7.023
   6.46606   6.46606   7.77584
