[ atomtypes ]
;name   bond_type     mass     charge   ptype   sigma         epsilon       Amb
 ca       ca          0.00000  0.00000   A     3.39967e-01   3.59824e-01 ; 1.91  0.0860
 ce       ce          0.00000  0.00000   A     3.39967e-01   3.59824e-01 ; 1.91  0.0860
 n        n           0.00000  0.00000   A     3.25000e-01   7.11280e-01 ; 1.82  0.1700
 n2       n2          0.00000  0.00000   A     3.25000e-01   7.11280e-01 ; 1.82  0.1700
 c        c           0.00000  0.00000   A     3.39967e-01   3.59824e-01 ; 1.91  0.0860
 c3       c3          0.00000  0.00000   A     3.39967e-01   4.57730e-01 ; 1.91  0.1094
 h1       h1          0.00000  0.00000   A     2.47135e-01   6.56888e-02 ; 1.39  0.0157
 ha       ha          0.00000  0.00000   A     2.59964e-01   6.27600e-02 ; 1.46  0.0150
 o        o           0.00000  0.00000   A     2.95992e-01   8.78640e-01 ; 1.66  0.2100
 nb       nb          0.00000  0.00000   A     3.25000e-01   7.11280e-01 ; 1.82  0.1700
 h4       h4          0.00000  0.00000   A     2.51055e-01   6.27600e-02 ; 1.41  0.0150
 hn       hn          0.00000  0.00000   A     1.06908e-01   6.56888e-02 ; 0.60  0.0157
 br       br          0.00000  0.00000   A     3.59923e-01   1.75728e+00 ; 2.02  0.4200
 ep       ep          0.00000  0.00000   A     0.00000e+00   0.00000e+00 ; 0.00  0.0000

