Georgetown Riga Oslo Madrid Amsterdam Chisinau Stockholm
   30
    1MOL     N2    1   3.707   3.075   7.284
    1MOL     C4    2   3.715   2.935   7.245
    1MOL    Br1    3   4.343   3.177   7.338
    1MOL     C1    4   3.940   3.066   7.364
    1MOL    C10    5   3.796   3.278   7.366
    1MOL    C11    6   3.842   3.329   7.489
    1MOL    C12    7   3.821   3.463   7.518
    1MOL    C13    8   3.717   3.484   7.304
    1MOL    C14    9   3.757   3.543   7.424
    1MOL     C2   10   3.810   3.132   7.334
    1MOL     C3   11   3.720   2.843   7.367
    1MOL     C5   12   4.072   2.883   7.454
    1MOL     C6   13   4.189   2.954   7.432
    1MOL     C7   14   3.947   2.937   7.420
    1MOL     C8   15   4.182   3.080   7.373
    1MOL     C9   16   4.060   3.136   7.341
    1MOL     EP   17   4.514   3.279   7.301
    1MOL    H10   18   3.840   2.790   7.520
    1MOL     H3   19   4.285   2.910   7.458
    1MOL     H4   20   4.055   3.235   7.297
    1MOL     H5   21   4.076   2.784   7.498
    1MOL     H6   22   3.891   3.263   7.560
    1MOL     H7   23   3.854   3.504   7.613
    1MOL     H9   24   3.739   3.648   7.442
    1MOL     N1   25   3.832   2.861   7.448
    1MOL     N3   26   3.735   3.355   7.275
    1MOL     O1   27   3.636   2.761   7.394
    1MOL     H1   28   3.625   2.908   7.189
    1MOL     H2   29   3.803   2.915   7.183
    1MOL     H8   30   3.668   3.543   7.228
   0.00000   0.00000   0.00000
