MOL_GMX.gro created by acpype (Rev: 0) on Thu Aug  3 23:23:15 2023
 30
    1  MOL   C1    1  -0.024  -0.062  -0.007
    1  MOL   C2    2  -0.154   0.004  -0.037
    1  MOL   N1    3  -0.132  -0.267   0.077
    1  MOL   N2    4  -0.257  -0.053  -0.087
    1  MOL   C3    5  -0.244  -0.284  -0.004
    1  MOL   C4    6  -0.249  -0.193  -0.126
    1  MOL   H1    7  -0.338  -0.219  -0.181
    1  MOL   H2    8  -0.161  -0.213  -0.188
    1  MOL   C5    9   0.108  -0.245   0.083
    1  MOL   C6   10   0.225  -0.174   0.061
    1  MOL   C7   11  -0.017  -0.191   0.049
    1  MOL   C8   12   0.218  -0.048   0.002
    1  MOL   C9   13   0.096   0.008  -0.030
    1  MOL   H3   14   0.321  -0.217   0.087
    1  MOL   H4   15   0.092   0.107  -0.074
    1  MOL   H5   16   0.113  -0.344   0.127
    1  MOL   O1   17  -0.328  -0.367   0.024
    1  MOL  C10   18  -0.167   0.151  -0.004
    1  MOL  C11   19  -0.122   0.201   0.118
    1  MOL   N3   20  -0.228   0.227  -0.096
    1  MOL  C12   21  -0.143   0.335   0.148
    1  MOL  C13   22  -0.247   0.356  -0.067
    1  MOL  C14   23  -0.207   0.415   0.053
    1  MOL   H6   24  -0.072   0.136   0.189
    1  MOL   H7   25  -0.110   0.376   0.242
    1  MOL   H8   26  -0.296   0.416  -0.143
    1  MOL   H9   27  -0.225   0.520   0.071
    1  MOL  H10   28  -0.124  -0.337   0.149
    1  MOL  BR1   29   0.380   0.049  -0.033
    1  MOL   EP   30   0.550   0.151  -0.070
    0.88842     0.88710     0.43000
