POPC bilayer and 5FIBZ with EP hydrated t= 17980.00000 step= 490000
34138
    1PA    C116    1   1.116   5.064   4.272
    1PA    H16R    2   1.224   5.077   4.272
    1PA    H16S    3   1.077   5.070   4.374
    1PA    H16T    4   1.077   5.151   4.219
    1PA    C115    5   1.069   4.939   4.195
    1PA    H15R    6   0.960   4.935   4.196
    1PA    H15S    7   1.096   4.940   4.090
    1PA    C114    8   1.130   4.807   4.243
    1PA    H14R    9   1.092   4.723   4.184
    1PA    H14S   10   1.238   4.817   4.228
    1PA    C113   11   1.093   4.783   4.390
    1PA    H13R   12   1.147   4.851   4.456
    1PA    H13S   13   0.987   4.787   4.417
    1PA    C112   14   1.139   4.641   4.426
    1PA    H12R   15   1.091   4.562   4.367
    1PA    H12S   16   1.246   4.630   4.405
    1PA    C111   17   1.120   4.608   4.574
    1PA    H11R   18   1.170   4.685   4.634
    1PA    H11S   19   1.012   4.599   4.583
    1PA    C110   20   1.171   4.471   4.622
    1PA    H10R   21   1.112   4.391   4.576
    1PA    H10S   22   1.266   4.447   4.575
    1PA     C19   23   1.165   4.449   4.774
    1PA     H9R   24   1.230   4.516   4.829
    1PA     H9S   25   1.060   4.456   4.803
    1PA     C18   26   1.216   4.307   4.803
    1PA     H8R   27   1.157   4.233   4.748
    1PA     H8S   28   1.320   4.297   4.770
    1PA     C17   29   1.204   4.270   4.951
    1PA     H7R   30   1.269   4.334   5.011
    1PA     H7S   31   1.107   4.281   5.000
    1PA     C16   32   1.251   4.124   4.964
    1PA     H6R   33   1.192   4.070   4.889
    1PA     H6S   34   1.358   4.131   4.948
    1PA     C15   35   1.237   4.056   5.101
    1PA     H5R   36   1.299   4.104   5.177
    1PA     H5S   37   1.131   4.057   5.126
    1PA     C14   38   1.266   3.907   5.081
    1PA     H4R   39   1.190   3.858   5.018
    1PA     H4S   40   1.362   3.895   5.031
    1PA     C13   41   1.261   3.833   5.216
    1PA     H3R   42   1.180   3.875   5.276
    1PA     H3S   43   1.243   3.729   5.188
    1PA     C12   44   1.397   3.844   5.287
    1PA     H2R   45   1.479   3.827   5.218
    1PA     H2S   46   1.413   3.946   5.323
    2PC     C11   47   1.420   3.746   5.399
    2PC     O12   48   1.534   3.721   5.434
    2PC     O11   49   1.310   3.713   5.469
    2PC      C1   50   1.327   3.638   5.591
    2PC      HR   51   1.371   3.543   5.560
    2PC      HS   52   1.396   3.690   5.657
    2PC      C2   53   1.191   3.610   5.656
    2PC      HX   54   1.141   3.706   5.672
    2PC      C3   55   1.199   3.543   5.794
    2PC      HA   56   1.256   3.450   5.787
    2PC      HB   57   1.241   3.624   5.855
    2PC     O31   58   1.067   3.520   5.846
    2PC     P31   59   1.049   3.425   5.974
    2PC     O32   60   1.166   3.471   6.073
    2PC     C31   61   1.176   3.400   6.198
    2PC     H1A   62   1.097   3.429   6.267
    2PC     H1B   63   1.172   3.292   6.179
    2PC     C32   64   1.313   3.435   6.259
    2PC     H2A   65   1.384   3.384   6.194
    2PC     H2B   66   1.330   3.541   6.242
    2PC     N31   67   1.347   3.401   6.401
    2PC     C33   68   1.480   3.461   6.436
    2PC     H3A   69   1.550   3.409   6.371
    2PC     H3B   70   1.482   3.566   6.407
    2PC     H3C   71   1.509   3.442   6.540
    2PC     C34   72   1.245   3.455   6.496
    2PC     H4A   73   1.282   3.424   6.594
    2PC     H4B   74   1.242   3.562   6.479
    2PC     H4C   75   1.151   3.406   6.468
    2PC     C35   76   1.364   3.253   6.418
    2PC     H5A   77   1.458   3.230   6.369
    2PC     H5B   78   1.278   3.196   6.381
    2PC     H5C   79   1.371   3.226   6.524
    2PC     O33   80   0.917   3.450   6.037
    2PC     O34   81   1.049   3.284   5.926
    2PC     O21   82   1.120   3.528   5.562
    2PC     C21   83   0.992   3.563   5.541
    2PC     O22   84   0.933   3.656   5.591
    3OL     C12   85   0.919   3.467   5.450
    3OL     H2R   86   0.811   3.466   5.468
    3OL     H2S   87   0.954   3.367   5.477
    3OL     C13   88   0.956   3.487   5.303
    3OL     H3R   89   0.922   3.404   5.242
    3OL     H3S   90   1.065   3.483   5.299
    3OL     C14   91   0.910   3.626   5.256
    3OL     H4R   92   0.935   3.711   5.320
    3OL     H4S   93   0.801   3.625   5.252
    3OL     C15   94   0.965   3.663   5.118
    3OL     H5R   95   1.066   3.624   5.104
    3OL     H5S   96   0.975   3.772   5.106
    3OL     C16   97   0.878   3.625   4.997
    3OL     H6R   98   0.787   3.685   5.002
    3OL     H6S   99   0.855   3.518   4.990
    3OL     C17  100   0.940   3.678   4.867
    3OL     H7R  101   1.029   3.621   4.838
    3OL     H7S  102   0.967   3.781   4.889
    3OL     C18  103   0.849   3.672   4.743
    3OL     H8R  104   0.887   3.722   4.653
    3OL     H8S  105   0.763   3.732   4.774
    3OL     C19  106   0.818   3.528   4.712
    3OL     H9R  107   0.787   3.471   4.799
    3OL    C110  108   0.836   3.472   4.593
    3OL    H10R  109   0.813   3.366   4.580
    3OL    C111  110   0.883   3.541   4.468
    3OL    H11R  111   0.952   3.480   4.409
    3OL    H11S  112   0.935   3.635   4.486
    3OL    C112  113   0.758   3.564   4.383
    3OL    H12R  114   0.688   3.623   4.443
    3OL    H12S  115   0.706   3.471   4.358
    3OL    C113  116   0.791   3.648   4.259
    3OL    H13R  117   0.869   3.594   4.206
    3OL    H13S  118   0.831   3.743   4.295
    3OL    C114  119   0.662   3.668   4.177
    3OL    H14R  120   0.593   3.727   4.237
    3OL    H14S  121   0.624   3.568   4.154
    3OL    C115  122   0.677   3.737   4.041
    3OL    H15R  123   0.692   3.844   4.056
    3OL    H15S  124   0.582   3.737   3.986
    3OL    C116  125   0.781   3.680   3.943
    3OL    H16R  126   0.880   3.654   3.982
    3OL    H16S  127   0.798   3.756   3.867
    3OL    C117  128   0.726   3.555   3.874
    3OL    H17R  129   0.636   3.575   3.815
    3OL    H17S  130   0.700   3.494   3.961
    3OL    C118  131   0.826   3.485   3.781
    3OL    H18R  132   0.777   3.398   3.736
    3OL    H18S  133   0.918   3.449   3.827
    3OL    H18T  134   0.860   3.548   3.699
    1PA    C116  135   0.968   3.329   4.080
    1PA    H16R  136   0.861   3.344   4.098
    1PA    H16S  137   0.995   3.383   3.989
    1PA    H16T  138   1.031   3.372   4.158
    1PA    C115  139   0.987   3.178   4.066
    1PA    H15R  140   0.980   3.153   3.960
    1PA    H15S  141   1.085   3.139   4.093
    1PA    C114  142   0.875   3.111   4.147
    1PA    H14R  143   0.780   3.161   4.125
    1PA    H14S  144   0.872   3.007   4.115
    1PA    C113  145   0.903   3.114   4.298
    1PA    H13R  146   0.988   3.051   4.324
    1PA    H13S  147   0.912   3.217   4.331
    1PA    C112  148   0.774   3.076   4.373
    1PA    H12R  149   0.701   3.152   4.343
    1PA    H12S  150   0.732   2.990   4.321
    1PA    C111  151   0.808   3.065   4.522
    1PA    H11R  152   0.895   3.003   4.547
    1PA    H11S  153   0.845   3.161   4.558
    1PA    C110  154   0.685   3.012   4.598
    1PA    H10R  155   0.610   3.087   4.571
    1PA    H10S  156   0.663   2.922   4.540
    1PA     C19  157   0.713   2.989   4.747
    1PA     H9R  158   0.813   2.948   4.765
    1PA     H9S  159   0.722   3.085   4.797
    1PA     C18  160   0.606   2.908   4.821
    1PA     H8R  161   0.557   2.832   4.760
    1PA     H8S  162   0.653   2.857   4.905
    1PA     C17  163   0.501   3.009   4.869
    1PA     H7R  164   0.549   3.086   4.931
    1PA     H7S  165   0.463   3.068   4.785
    1PA     C16  166   0.398   2.934   4.953
    1PA     H6R  167   0.321   3.011   4.966
    1PA     H6S  168   0.355   2.846   4.905
    1PA     C15  169   0.452   2.900   5.093
    1PA     H5R  170   0.535   2.830   5.087
    1PA     H5S  171   0.491   2.992   5.138
    1PA     C14  172   0.347   2.836   5.185
    1PA     H4R  173   0.299   2.756   5.130
    1PA     H4S  174   0.401   2.789   5.268
    1PA     C13  175   0.241   2.933   5.240
    1PA     H3R  176   0.197   2.983   5.153
    1PA     H3S  177   0.166   2.868   5.285
    1PA     C12  178   0.290   3.031   5.348
    1PA     H2R  179   0.372   3.093   5.311
    1PA     H2S  180   0.212   3.104   5.370
    2PC     C11  181   0.355   2.951   5.458
    2PC     O12  182   0.283   2.887   5.531
    2PC     O11  183   0.485   2.981   5.478
    2PC      C1  184   0.540   2.923   5.597
    2PC      HR  185   0.639   2.967   5.611
    2PC      HS  186   0.472   2.954   5.677
    2PC      C2  187   0.555   2.770   5.597
    2PC      HX  188   0.456   2.724   5.588
    2PC      C3  189   0.626   2.714   5.721
    2PC      HA  190   0.557   2.722   5.805
    2PC      HB  191   0.651   2.609   5.705
    2PC     O31  192   0.748   2.786   5.742
    2PC     P31  193   0.831   2.795   5.880
    2PC     O32  194   0.970   2.729   5.836
    2PC     C31  195   1.091   2.803   5.863
    2PC     H1A  196   1.084   2.902   5.816
    2PC     H1B  197   1.109   2.808   5.971
    2PC     C32  198   1.210   2.735   5.795
    2PC     H2A  199   1.179   2.735   5.690
    2PC     H2B  200   1.292   2.808   5.799
    2PC     N31  201   1.256   2.602   5.845
    2PC     C33  202   1.137   2.511   5.855
    2PC     H3A  203   1.067   2.566   5.918
    2PC     H3B  204   1.094   2.504   5.755
    2PC     H3C  205   1.165   2.411   5.890
    2PC     C34  206   1.357   2.539   5.754
    2PC     H4A  207   1.449   2.597   5.760
    2PC     H4B  208   1.375   2.438   5.793
    2PC     H4C  209   1.322   2.534   5.651
    2PC     C35  210   1.330   2.613   5.975
    2PC     H5A  211   1.418   2.675   5.962
    2PC     H5B  212   1.348   2.515   6.020
    2PC     H5C  213   1.259   2.669   6.036
    2PC     O33  214   0.838   2.934   5.931
    2PC     O34  215   0.765   2.728   5.994
    2PC     O21  216   0.632   2.737   5.480
    2PC     C21  217   0.610   2.618   5.423
    2PC     O22  218   0.534   2.537   5.472
    3OL     C12  219   0.679   2.603   5.290
    3OL     H2R  220   0.783   2.629   5.312
    3OL     H2S  221   0.652   2.680   5.218
    3OL     C13  222   0.685   2.467   5.220
    3OL     H3R  223   0.583   2.456   5.181
    3OL     H3S  224   0.712   2.397   5.299
    3OL     C14  225   0.786   2.451   5.106
    3OL     H4R  226   0.768   2.350   5.070
    3OL     H4S  227   0.887   2.450   5.149
    3OL     C15  228   0.782   2.558   4.995
    3OL     H5R  229   0.813   2.653   5.040
    3OL     H5S  230   0.678   2.568   4.966
    3OL     C16  231   0.867   2.525   4.872
    3OL     H6R  232   0.820   2.431   4.843
    3OL     H6S  233   0.966   2.496   4.907
    3OL     C17  234   0.879   2.633   4.763
    3OL     H7R  235   0.915   2.729   4.801
    3OL     H7S  236   0.778   2.646   4.725
    3OL     C18  237   0.975   2.594   4.649
    3OL     H8R  238   0.957   2.490   4.624
    3OL     H8S  239   1.078   2.607   4.681
    3OL     C19  240   0.926   2.688   4.541
    3OL     H9R  241   0.819   2.704   4.538
    3OL    C110  242   0.999   2.750   4.449
    3OL    H10R  243   0.951   2.819   4.380
    3OL    C111  244   1.145   2.722   4.422
    3OL    H11R  245   1.179   2.632   4.473
    3OL    H11S  246   1.205   2.806   4.458
    3OL    C112  247   1.170   2.687   4.275
    3OL    H12R  248   1.108   2.605   4.239
    3OL    H12S  249   1.278   2.671   4.266
    3OL    C113  250   1.141   2.805   4.180
    3OL    H13R  251   1.195   2.895   4.209
    3OL    H13S  252   1.035   2.833   4.179
    3OL    C114  253   1.175   2.762   4.036
    3OL    H14R  254   1.107   2.679   4.019
    3OL    H14S  255   1.283   2.746   4.034
    3OL    C115  256   1.147   2.881   3.943
    3OL    H15R  257   1.193   2.975   3.973
    3OL    H15S  258   1.038   2.887   3.933
    3OL    C116  259   1.200   2.842   3.805
    3OL    H16R  260   1.304   2.808   3.815
    3OL    H16S  261   1.209   2.927   3.737
    3OL    C117  262   1.116   2.738   3.729
    3OL    H17R  263   1.011   2.766   3.730
    3OL    H17S  264   1.119   2.641   3.779
    3OL    C118  265   1.177   2.713   3.590
    3OL    H18R  266   1.274   2.664   3.598
    3OL    H18S  267   1.193   2.807   3.537
    3OL    H18T  268   1.113   2.652   3.526
    1PA    C116  269   7.275   4.319   4.272
    1PA    H16R  270   7.214   4.265   4.199
    1PA    H16S  271   7.360   4.254   4.294
    1PA    H16T  272   7.311   4.411   4.224
    1PA    C115  273   7.197   4.337   4.403
    1PA    H15R  274   7.279   4.363   4.471
    1PA    H15S  275   7.128   4.421   4.393
    1PA    C114  276   7.121   4.210   4.442
    1PA    H14R  277   7.049   4.234   4.520
    1PA    H14S  278   7.051   4.175   4.367
    1PA    C113  279   7.215   4.092   4.476
    1PA    H13R  280   7.280   4.086   4.389
    1PA    H13S  281   7.282   4.117   4.558
    1PA    C112  282   7.138   3.962   4.501
    1PA    H12R  283   7.097   3.932   4.404
    1PA    H12S  284   7.203   3.882   4.538
    1PA    C111  285   7.025   3.980   4.603
    1PA    H11R  286   7.071   4.015   4.695
    1PA    H11S  287   6.958   4.058   4.564
    1PA    C110  288   6.952   3.848   4.628
    1PA    H10R  289   6.911   3.824   4.530
    1PA    H10S  290   7.016   3.763   4.650
    1PA     C19  291   6.847   3.862   4.740
    1PA     H9R  292   6.808   3.963   4.729
    1PA     H9S  293   6.768   3.790   4.718
    1PA     C18  294   6.913   3.842   4.877
    1PA     H8R  295   6.965   3.746   4.884
    1PA     H8S  296   6.976   3.930   4.894
    1PA     C17  297   6.807   3.844   4.988
    1PA     H7R  298   6.733   3.920   4.962
    1PA     H7S  299   6.757   3.747   4.997
    1PA     C16  300   6.867   3.867   5.127
    1PA     H6R  301   6.937   3.785   5.145
    1PA     H6S  302   6.915   3.965   5.130
    1PA     C15  303   6.764   3.845   5.238
    1PA     H5R  304   6.713   3.750   5.224
    1PA     H5S  305   6.820   3.836   5.332
    1PA     C14  306   6.658   3.955   5.253
    1PA     H4R  307   6.714   4.047   5.270
    1PA     H4S  308   6.607   3.975   5.158
    1PA     C13  309   6.556   3.921   5.362
    1PA     H3R  310   6.512   3.824   5.337
    1PA     H3S  311   6.602   3.901   5.459
    1PA     C12  312   6.455   4.036   5.377
    1PA     H2R  313   6.506   4.133   5.370
    1PA     H2S  314   6.381   4.034   5.297
    2PC     C11  315   6.376   4.030   5.505
    2PC     O12  316   6.420   3.991   5.612
    2PC     O11  317   6.271   4.112   5.491
    2PC      C1  318   6.180   4.138   5.600
    2PC      HR  319   6.144   4.045   5.645
    2PC      HS  320   6.243   4.186   5.676
    2PC      C2  321   6.066   4.224   5.545
    2PC      HX  322   6.120   4.307   5.500
    2PC      C3  323   5.981   4.283   5.659
    2PC      HA  324   6.035   4.367   5.703
    2PC      HB  325   5.884   4.323   5.630
    2PC     O31  326   5.961   4.171   5.747
    2PC     P31  327   5.916   4.203   5.897
    2PC     O32  328   5.904   4.048   5.934
    2PC     C31  329   5.927   4.006   6.070
    2PC     H1A  330   6.036   3.998   6.072
    2PC     H1B  331   5.881   4.078   6.138
    2PC     C32  332   5.862   3.867   6.070
    2PC     H2A  333   5.754   3.877   6.063
    2PC     H2B  334   5.894   3.810   5.982
    2PC     N31  335   5.874   3.786   6.195
    2PC     C33  336   6.018   3.771   6.235
    2PC     H3A  337   6.077   3.745   6.147
    2PC     H3B  338   6.052   3.870   6.264
    2PC     H3C  339   6.018   3.704   6.321
    2PC     C34  340   5.800   3.857   6.305
    2PC     H4A  341   5.694   3.877   6.286
    2PC     H4B  342   5.815   3.800   6.397
    2PC     H4C  343   5.844   3.956   6.304
    2PC     C35  344   5.809   3.652   6.180
    2PC     H5A  345   5.709   3.653   6.137
    2PC     H5B  346   5.810   3.592   6.271
    2PC     H5C  347   5.879   3.604   6.110
    2PC     O33  348   6.015   4.265   5.988
    2PC     O34  349   5.786   4.273   5.886
    2PC     O21  350   5.987   4.142   5.457
    2PC     C21  351   6.010   4.127   5.326
    2PC     O22  352   6.097   4.183   5.263
    3OL     C12  353   5.903   4.040   5.264
    3OL     H2R  354   5.817   4.045   5.331
    3OL     H2S  355   5.945   3.939   5.266
    3OL     C13  356   5.868   4.074   5.119
    3OL     H3R  357   5.962   4.087   5.065
    3OL     H3S  358   5.820   4.172   5.118
    3OL     C14  359   5.780   3.970   5.049
    3OL     H4R  360   5.808   3.877   5.099
    3OL     H4S  361   5.813   3.976   4.945
    3OL     C15  362   5.629   3.987   5.074
    3OL     H5R  363   5.604   4.086   5.036
    3OL     H5S  364   5.600   3.995   5.179
    3OL     C16  365   5.554   3.869   5.011
    3OL     H6R  366   5.586   3.784   5.072
    3OL     H6S  367   5.598   3.860   4.911
    3OL     C17  368   5.401   3.875   5.008
    3OL     H7R  369   5.382   3.974   4.965
    3OL     H7S  370   5.350   3.882   5.104
    3OL     C18  371   5.329   3.787   4.905
    3OL     H8R  372   5.334   3.689   4.952
    3OL     H8S  373   5.386   3.792   4.812
    3OL     C19  374   5.180   3.811   4.897
    3OL     H9R  375   5.128   3.782   4.989
    3OL    C110  376   5.112   3.849   4.790
    3OL    H10R  377   5.004   3.852   4.800
    3OL    C111  378   5.166   3.880   4.653
    3OL    H11R  379   5.257   3.822   4.638
    3OL    H11S  380   5.196   3.985   4.639
    3OL    C112  381   5.069   3.854   4.536
    3OL    H12R  382   4.993   3.933   4.535
    3OL    H12S  383   5.024   3.756   4.551
    3OL    C113  384   5.144   3.846   4.402
    3OL    H13R  385   5.232   3.782   4.407
    3OL    H13S  386   5.183   3.947   4.385
    3OL    C114  387   5.054   3.793   4.290
    3OL    H14R  388   4.964   3.854   4.284
    3OL    H14S  389   5.020   3.694   4.321
    3OL    C115  390   5.133   3.798   4.158
    3OL    H15R  391   5.224   3.738   4.171
    3OL    H15S  392   5.165   3.902   4.148
    3OL    C116  393   5.052   3.754   4.036
    3OL    H16R  394   4.981   3.834   4.011
    3OL    H16S  395   4.990   3.665   4.047
    3OL    C117  396   5.137   3.753   3.908
    3OL    H17R  397   5.227   3.692   3.906
    3OL    H17S  398   5.172   3.850   3.875
    3OL    C118  399   5.045   3.703   3.795
    3OL    H18R  400   4.979   3.785   3.771
    3OL    H18S  401   4.980   3.621   3.827
    3OL    H18T  402   5.093   3.686   3.698
    1PA    C116  403   1.515   3.118   3.862
    1PA    H16R  404   1.622   3.116   3.884
    1PA    H16S  405   1.511   3.192   3.783
    1PA    H16T  406   1.478   3.021   3.827
    1PA    C115  407   1.419   3.158   3.976
    1PA    H15R  408   1.330   3.168   3.914
    1PA    H15S  409   1.414   3.079   4.051
    1PA    C114  410   1.470   3.285   4.044
    1PA    H14R  411   1.567   3.269   4.092
    1PA    H14S  412   1.494   3.350   3.959
    1PA    C113  413   1.371   3.344   4.146
    1PA    H13R  414   1.401   3.447   4.165
    1PA    H13S  415   1.272   3.359   4.103
    1PA    C112  416   1.353   3.254   4.269
    1PA    H12R  417   1.283   3.174   4.243
    1PA    H12S  418   1.448   3.217   4.308
    1PA    C111  419   1.291   3.329   4.387
    1PA    H11R  420   1.356   3.411   4.418
    1PA    H11S  421   1.197   3.372   4.353
    1PA    C110  422   1.266   3.227   4.499
    1PA    H10R  423   1.199   3.146   4.469
    1PA    H10S  424   1.358   3.185   4.539
    1PA     C19  425   1.180   3.282   4.614
    1PA     H9R  426   1.223   3.373   4.655
    1PA     H9S  427   1.079   3.295   4.573
    1PA     C18  428   1.148   3.185   4.728
    1PA     H8R  429   1.104   3.096   4.682
    1PA     H8S  430   1.236   3.151   4.783
    1PA     C17  431   1.051   3.253   4.826
    1PA     H7R  432   1.081   3.347   4.874
    1PA     H7S  433   0.959   3.275   4.770
    1PA     C16  434   1.022   3.146   4.931
    1PA     H6R  435   0.993   3.049   4.890
    1PA     H6S  436   1.122   3.130   4.972
    1PA     C15  437   0.928   3.194   5.043
    1PA     H5R  438   0.967   3.288   5.084
    1PA     H5S  439   0.822   3.199   5.019
    1PA     C14  440   0.925   3.084   5.150
    1PA     H4R  441   0.895   2.991   5.101
    1PA     H4S  442   1.025   3.077   5.194
    1PA     C13  443   0.836   3.113   5.271
    1PA     H3R  444   0.871   3.209   5.309
    1PA     H3S  445   0.728   3.109   5.258
    1PA     C12  446   0.861   3.013   5.386
    1PA     H2R  447   0.793   3.039   5.468
    1PA     H2S  448   0.838   2.910   5.357
    2PC     C11  449   1.000   3.019   5.443
    2PC     O12  450   1.053   2.921   5.490
    2PC     O11  451   1.067   3.135   5.435
    2PC      C1  452   1.180   3.154   5.523
    2PC      HR  453   1.202   3.261   5.513
    2PC      HS  454   1.149   3.146   5.627
    2PC      C2  455   1.307   3.078   5.484
    2PC      HX  456   1.299   2.969   5.481
    2PC      C3  457   1.413   3.103   5.592
    2PC      HA  458   1.411   3.039   5.681
    2PC      HB  459   1.508   3.079   5.544
    2PC     O31  460   1.416   3.238   5.641
    2PC     P31  461   1.512   3.283   5.760
    2PC     O32  462   1.654   3.216   5.728
    2PC     C31  463   1.765   3.242   5.815
    2PC     H1A  464   1.726   3.242   5.917
    2PC     H1B  465   1.843   3.167   5.798
    2PC     C32  466   1.822   3.381   5.782
    2PC     H2A  467   1.837   3.383   5.674
    2PC     H2B  468   1.752   3.458   5.817
    2PC     N31  469   1.951   3.417   5.850
    2PC     C33  470   2.058   3.316   5.826
    2PC     H3A  471   2.054   3.288   5.721
    2PC     H3B  472   2.148   3.371   5.853
    2PC     H3C  473   2.042   3.226   5.886
    2PC     C34  474   2.006   3.535   5.777
    2PC     H4A  475   2.042   3.496   5.681
    2PC     H4B  476   1.934   3.613   5.753
    2PC     H4C  477   2.096   3.574   5.826
    2PC     C35  478   1.944   3.434   5.999
    2PC     H5A  479   2.033   3.488   6.032
    2PC     H5B  480   1.927   3.341   6.052
    2PC     H5C  481   1.853   3.490   6.019
    2PC     O33  482   1.527   3.430   5.772
    2PC     O34  483   1.467   3.232   5.892
    2PC     O21  484   1.336   3.133   5.354
    2PC     C21  485   1.445   3.097   5.285
    2PC     O22  486   1.528   3.016   5.320
    3OL     C12  487   1.436   3.157   5.147
    3OL     H2R  488   1.371   3.102   5.079
    3OL     H2S  489   1.540   3.156   5.114
    3OL     C13  490   1.392   3.304   5.152
    3OL     H3R  491   1.452   3.363   5.220
    3OL     H3S  492   1.288   3.308   5.184
    3OL     C14  493   1.408   3.368   5.013
    3OL     H4R  494   1.365   3.296   4.943
    3OL     H4S  495   1.516   3.381   5.000
    3OL     C15  496   1.332   3.501   5.013
    3OL     H5R  497   1.370   3.572   5.087
    3OL     H5S  498   1.227   3.477   5.030
    3OL     C16  499   1.327   3.571   4.877
    3OL     H6R  500   1.242   3.639   4.878
    3OL     H6S  501   1.318   3.494   4.799
    3OL     C17  502   1.452   3.660   4.863
    3OL     H7R  503   1.543   3.600   4.865
    3OL     H7S  504   1.464   3.720   4.954
    3OL     C18  505   1.454   3.749   4.738
    3OL     H8R  506   1.440   3.689   4.648
    3OL     H8S  507   1.550   3.801   4.731
    3OL     C19  508   1.348   3.855   4.751
    3OL     H9R  509   1.349   3.920   4.838
    3OL    C110  510   1.236   3.856   4.681
    3OL    H10R  511   1.158   3.923   4.716
    3OL    C111  512   1.214   3.785   4.550
    3OL    H11R  513   1.172   3.684   4.561
    3OL    H11S  514   1.311   3.768   4.503
    3OL    C112  515   1.117   3.867   4.464
    3OL    H12R  516   1.137   3.974   4.470
    3OL    H12S  517   1.014   3.854   4.497
    3OL    C113  518   1.123   3.811   4.321
    3OL    H13R  519   1.065   3.719   4.321
    3OL    H13S  520   1.228   3.790   4.296
    3OL    C114  521   1.060   3.916   4.228
    3OL    H14R  522   1.114   4.009   4.249
    3OL    H14S  523   0.957   3.938   4.257
    3OL    C115  524   1.081   3.900   4.077
    3OL    H15R  525   1.037   3.806   4.043
    3OL    H15S  526   1.188   3.902   4.058
    3OL    C116  527   1.031   4.024   4.001
    3OL    H16R  528   1.072   4.020   3.900
    3OL    H16S  529   1.073   4.109   4.054
    3OL    C117  530   0.879   4.039   3.987
    3OL    H17R  531   0.827   4.029   4.083
    3OL    H17S  532   0.858   3.955   3.921
    3OL    C118  533   0.834   4.161   3.905
    3OL    H18R  534   0.885   4.249   3.944
    3OL    H18S  535   0.725   4.169   3.902
    3OL    H18T  536   0.873   4.145   3.804
    1PA    C116  537   0.575   3.154   3.850
    1PA    H16R  538   0.492   3.104   3.799
    1PA    H16S  539   0.649   3.077   3.871
    1PA    H16T  540   0.624   3.226   3.784
    1PA    C115  541   0.518   3.219   3.977
    1PA    H15R  542   0.594   3.271   4.036
    1PA    H15S  543   0.439   3.289   3.950
    1PA    C114  544   0.455   3.112   4.068
    1PA    H14R  545   0.384   3.050   4.012
    1PA    H14S  546   0.531   3.041   4.099
    1PA    C113  547   0.382   3.171   4.190
    1PA    H13R  548   0.463   3.214   4.250
    1PA    H13S  549   0.312   3.253   4.174
    1PA    C112  550   0.310   3.059   4.265
    1PA    H12R  551   0.213   3.024   4.228
    1PA    H12S  552   0.368   2.967   4.269
    1PA    C111  553   0.294   3.096   4.413
    1PA    H11R  554   0.394   3.112   4.454
    1PA    H11S  555   0.235   3.188   4.417
    1PA    C110  556   0.235   2.979   4.493
    1PA    H10R  557   0.155   2.937   4.432
    1PA    H10S  558   0.315   2.905   4.509
    1PA     C19  559   0.162   3.021   4.621
    1PA     H9R  560   0.245   3.052   4.685
    1PA     H9S  561   0.098   3.094   4.571
    1PA     C18  562   0.089   2.905   4.689
    1PA     H8R  563   0.015   2.867   4.619
    1PA     H8S  564   0.150   2.816   4.708
    1PA     C17  565   0.008   2.951   4.811
    1PA     H7R  566   0.065   3.000   4.890
    1PA     H7S  567  -0.063   3.029   4.780
    1PA     C16  568  -0.072   2.845   4.888
    1PA     H6R  569  -0.156   2.901   4.929
    1PA     H6S  570  -0.128   2.785   4.816
    1PA     C15  571   0.016   2.752   4.972
    1PA     H5R  572   0.090   2.698   4.913
    1PA     H5S  573   0.065   2.819   5.042
    1PA     C14  574  -0.073   2.661   5.059
    1PA     H4R  575  -0.003   2.608   5.123
    1PA     H4S  576  -0.154   2.713   5.111
    1PA     C13  577  -0.145   2.556   4.974
    1PA     H3R  578  -0.203   2.616   4.904
    1PA     H3S  579  -0.067   2.495   4.927
    1PA     C12  580  -0.226   2.458   5.060
    1PA     H2R  581  -0.295   2.513   5.124
    1PA     H2S  582  -0.284   2.401   4.987
    2PC     C11  583  -0.144   2.371   5.152
    2PC     O12  584  -0.031   2.333   5.129
    2PC     O11  585  -0.214   2.330   5.259
    2PC      C1  586  -0.131   2.281   5.367
    2PC      HR  587  -0.197   2.225   5.434
    2PC      HS  588  -0.055   2.209   5.339
    2PC      C2  589  -0.055   2.391   5.442
    2PC      HX  590  -0.008   2.343   5.528
    2PC      C3  591  -0.152   2.501   5.491
    2PC      HA  592  -0.206   2.541   5.405
    2PC      HB  593  -0.230   2.459   5.556
    2PC     O31  594  -0.067   2.598   5.555
    2PC     P31  595  -0.138   2.735   5.598
    2PC     O32  596  -0.014   2.817   5.656
    2PC     C31  597  -0.024   2.873   5.789
    2PC     H1A  598  -0.088   2.818   5.857
    2PC     H1B  599   0.072   2.863   5.840
    2PC     C32  600  -0.079   3.013   5.760
    2PC     H2A  601  -0.175   3.006   5.709
    2PC     H2B  602  -0.095   3.070   5.852
    2PC     N31  603  -0.001   3.112   5.680
    2PC     C33  604   0.139   3.111   5.734
    2PC     H3A  605   0.137   3.147   5.837
    2PC     H3B  606   0.183   3.012   5.716
    2PC     H3C  607   0.198   3.181   5.675
    2PC     C34  608  -0.004   3.081   5.533
    2PC     H4A  609   0.048   2.985   5.525
    2PC     H4B  610  -0.110   3.085   5.505
    2PC     H4C  611   0.044   3.161   5.477
    2PC     C35  612  -0.061   3.248   5.696
    2PC     H5A  613  -0.031   3.311   5.612
    2PC     H5B  614  -0.028   3.278   5.796
    2PC     H5C  615  -0.169   3.234   5.697
    2PC     O33  616  -0.209   2.811   5.492
    2PC     O34  617  -0.246   2.717   5.698
    2PC     O21  618   0.050   2.454   5.367
    2PC     C21  619   0.164   2.385   5.351
    2PC     O22  620   0.192   2.282   5.408
    3OL     C12  621   0.261   2.458   5.260
    3OL     H2R  622   0.348   2.495   5.314
    3OL     H2S  623   0.206   2.546   5.228
    3OL     C13  624   0.309   2.377   5.139
    3OL     H3R  625   0.232   2.314   5.095
    3OL     H3S  626   0.387   2.310   5.177
    3OL     C14  627   0.369   2.456   5.022
    3OL     H4R  628   0.438   2.533   5.056
    3OL     H4S  629   0.288   2.505   4.967
    3OL     C15  630   0.439   2.370   4.916
    3OL     H5R  631   0.396   2.273   4.890
    3OL     H5S  632   0.536   2.354   4.964
    3OL     C16  633   0.458   2.448   4.785
    3OL     H6R  634   0.489   2.548   4.815
    3OL     H6S  635   0.367   2.469   4.728
    3OL     C17  636   0.551   2.378   4.684
    3OL     H7R  637   0.523   2.273   4.676
    3OL     H7S  638   0.648   2.391   4.733
    3OL     C18  639   0.558   2.444   4.546
    3OL     H8R  640   0.654   2.419   4.499
    3OL     H8S  641   0.550   2.552   4.562
    3OL     C19  642   0.444   2.387   4.465
    3OL     H9R  643   0.345   2.404   4.507
    3OL    C110  644   0.446   2.338   4.342
    3OL    H10R  645   0.353   2.319   4.290
    3OL    C111  646   0.577   2.315   4.272
    3OL    H11R  647   0.630   2.227   4.309
    3OL    H11S  648   0.642   2.403   4.275
    3OL    C112  649   0.539   2.289   4.125
    3OL    H12R  650   0.527   2.394   4.095
    3OL    H12S  651   0.453   2.223   4.115
    3OL    C113  652   0.647   2.204   4.058
    3OL    H13R  653   0.677   2.124   4.125
    3OL    H13S  654   0.741   2.259   4.046
    3OL    C114  655   0.580   2.151   3.930
    3OL    H14R  656   0.515   2.227   3.886
    3OL    H14S  657   0.509   2.069   3.944
    3OL    C115  658   0.682   2.095   3.831
    3OL    H15R  659   0.736   2.013   3.880
    3OL    H15S  660   0.750   2.174   3.797
    3OL    C116  661   0.612   2.052   3.702
    3OL    H16R  662   0.543   2.129   3.665
    3OL    H16S  663   0.555   1.960   3.719
    3OL    C117  664   0.717   2.011   3.598
    3OL    H17R  665   0.773   1.931   3.647
    3OL    H17S  666   0.799   2.081   3.576
    3OL    C118  667   0.654   1.949   3.472
    3OL    H18R  668   0.597   2.026   3.419
    3OL    H18S  669   0.596   1.862   3.502
    3OL    H18T  670   0.734   1.910   3.408
    1PA    C116  671   0.367   3.993   3.990
    1PA    H16R  672   0.401   3.891   3.972
    1PA    H16S  673   0.454   4.053   4.016
    1PA    H16T  674   0.317   4.033   3.901
    1PA    C115  675   0.262   4.006   4.102
    1PA    H15R  676   0.245   4.107   4.140
    1PA    H15S  677   0.177   3.960   4.053
    1PA    C114  678   0.304   3.920   4.222
    1PA    H14R  679   0.397   3.866   4.207
    1PA    H14S  680   0.330   3.977   4.311
    1PA    C113  681   0.198   3.809   4.241
    1PA    H13R  682   0.115   3.870   4.279
    1PA    H13S  683   0.165   3.763   4.148
    1PA    C112  684   0.228   3.706   4.351
    1PA    H12R  685   0.317   3.649   4.321
    1PA    H12S  686   0.245   3.768   4.438
    1PA    C111  687   0.111   3.607   4.368
    1PA    H11R  688   0.013   3.654   4.374
    1PA    H11S  689   0.114   3.560   4.270
    1PA    C110  690   0.142   3.508   4.481
    1PA    H10R  691   0.090   3.414   4.459
    1PA    H10S  692   0.250   3.498   4.494
    1PA     C19  693   0.091   3.571   4.612
    1PA     H9R  694   0.145   3.664   4.633
    1PA     H9S  695  -0.015   3.587   4.594
    1PA     C18  696   0.091   3.472   4.729
    1PA     H8R  697   0.013   3.505   4.797
    1PA     H8S  698   0.062   3.374   4.691
    1PA     C17  699   0.230   3.470   4.794
    1PA     H7R  700   0.300   3.444   4.714
    1PA     H7S  701   0.246   3.572   4.831
    1PA     C16  702   0.226   3.364   4.905
    1PA     H6R  703   0.161   3.397   4.987
    1PA     H6S  704   0.200   3.271   4.855
    1PA     C15  705   0.362   3.335   4.971
    1PA     H5R  706   0.346   3.251   5.038
    1PA     H5S  707   0.425   3.282   4.900
    1PA     C14  708   0.437   3.453   5.035
    1PA     H4R  709   0.462   3.504   4.942
    1PA     H4S  710   0.359   3.503   5.092
    1PA     C13  711   0.557   3.418   5.125
    1PA     H3R  712   0.624   3.347   5.076
    1PA     H3S  713   0.622   3.503   5.144
    1PA     C12  714   0.525   3.354   5.261
    1PA     H2R  715   0.444   3.281   5.256
    1PA     H2S  716   0.616   3.317   5.308
    2PC     C11  717   0.476   3.454   5.362
    2PC     O12  718   0.375   3.437   5.427
    2PC     O11  719   0.560   3.557   5.386
    2PC      C1  720   0.523   3.655   5.485
    2PC      HR  721   0.430   3.707   5.458
    2PC      HS  722   0.511   3.598   5.577
    2PC      C2  723   0.641   3.753   5.495
    2PC      HX  724   0.724   3.682   5.496
    2PC      C3  725   0.639   3.845   5.618
    2PC      HA  726   0.658   3.778   5.702
    2PC      HB  727   0.714   3.924   5.614
    2PC     O31  728   0.513   3.908   5.646
    2PC     P31  729   0.504   3.992   5.782
    2PC     O32  730   0.525   3.886   5.899
    2PC     C31  731   0.417   3.805   5.948
    2PC     H1A  732   0.337   3.874   5.974
    2PC     H1B  733   0.375   3.736   5.874
    2PC     C32  734   0.461   3.727   6.072
    2PC     H2A  735   0.507   3.795   6.145
    2PC     H2B  736   0.376   3.673   6.114
    2PC     N31  737   0.566   3.624   6.045
    2PC     C33  738   0.515   3.530   5.940
    2PC     H3A  739   0.498   3.580   5.844
    2PC     H3B  740   0.596   3.460   5.923
    2PC     H3C  741   0.427   3.476   5.975
    2PC     C34  742   0.698   3.685   6.011
    2PC     H4A  743   0.777   3.610   6.011
    2PC     H4B  744   0.698   3.744   5.919
    2PC     H4C  745   0.734   3.749   6.092
    2PC     C35  746   0.601   3.544   6.167
    2PC     H5A  747   0.629   3.618   6.243
    2PC     H5B  748   0.692   3.487   6.146
    2PC     H5C  749   0.521   3.485   6.212
    2PC     O33  750   0.602   4.103   5.790
    2PC     O34  751   0.369   4.052   5.800
    2PC     O21  752   0.636   3.837   5.378
    2PC     C21  753   0.741   3.918   5.356
    2PC     O22  754   0.847   3.917   5.417
    3OL     C12  755   0.701   4.022   5.255
    3OL     H2R  756   0.614   4.079   5.288
    3OL     H2S  757   0.661   3.977   5.164
    3OL     C13  758   0.809   4.125   5.218
    3OL     H3R  759   0.897   4.076   5.177
    3OL     H3S  760   0.842   4.178   5.308
    3OL     C14  761   0.760   4.230   5.117
    3OL     H4R  762   0.817   4.321   5.135
    3OL     H4S  763   0.660   4.261   5.146
    3OL     C15  764   0.765   4.189   4.969
    3OL     H5R  765   0.736   4.084   4.958
    3OL     H5S  766   0.870   4.186   4.940
    3OL     C16  767   0.676   4.280   4.883
    3OL     H6R  768   0.681   4.228   4.786
    3OL     H6S  769   0.706   4.385   4.882
    3OL     C17  770   0.528   4.278   4.921
    3OL     H7R  771   0.511   4.317   5.022
    3OL     H7S  772   0.478   4.180   4.919
    3OL     C18  773   0.457   4.361   4.813
    3OL     H8R  774   0.358   4.322   4.789
    3OL     H8S  775   0.511   4.352   4.719
    3OL     C19  776   0.459   4.506   4.853
    3OL     H9R  777   0.392   4.535   4.934
    3OL    C110  778   0.540   4.603   4.813
    3OL    H10R  779   0.534   4.698   4.866
    3OL    C111  780   0.631   4.611   4.693
    3OL    H11R  781   0.625   4.523   4.630
    3OL    H11S  782   0.727   4.633   4.741
    3OL    C112  783   0.615   4.736   4.605
    3OL    H12R  784   0.681   4.735   4.519
    3OL    H12S  785   0.641   4.824   4.665
    3OL    C113  786   0.467   4.744   4.563
    3OL    H13R  787   0.396   4.774   4.639
    3OL    H13S  788   0.436   4.645   4.531
    3OL    C114  789   0.453   4.840   4.444
    3OL    H14R  790   0.528   4.817   4.367
    3OL    H14S  791   0.471   4.940   4.484
    3OL    C115  792   0.313   4.846   4.382
    3OL    H15R  793   0.236   4.881   4.450
    3OL    H15S  794   0.279   4.748   4.350
    3OL    C116  795   0.306   4.945   4.264
    3OL    H16R  796   0.375   4.913   4.185
    3OL    H16S  797   0.322   5.040   4.314
    3OL    C117  798   0.172   4.955   4.190
    3OL    H17R  799   0.190   5.016   4.102
    3OL    H17S  800   0.107   5.021   4.249
    3OL    C118  801   0.105   4.823   4.149
    3OL    H18R  802   0.160   4.764   4.076
    3OL    H18S  803   0.008   4.852   4.108
    3OL    H18T  804   0.090   4.757   4.235
    1PA    C116  805   5.345   2.383   3.494
    1PA    H16R  806   5.411   2.327   3.428
    1PA    H16S  807   5.370   2.489   3.498
    1PA    H16T  808   5.246   2.359   3.456
    1PA    C115  809   5.352   2.319   3.633
    1PA    H15R  810   5.325   2.214   3.626
    1PA    H15S  811   5.457   2.325   3.661
    1PA    C114  812   5.281   2.392   3.748
    1PA    H14R  813   5.327   2.368   3.844
    1PA    H14S  814   5.300   2.499   3.731
    1PA    C113  815   5.130   2.362   3.750
    1PA    H13R  816   5.083   2.449   3.795
    1PA    H13S  817   5.087   2.360   3.650
    1PA    C112  818   5.098   2.223   3.807
    1PA    H12R  819   5.144   2.148   3.741
    1PA    H12S  820   5.151   2.208   3.902
    1PA    C111  821   4.949   2.197   3.829
    1PA    H11R  822   4.889   2.210   3.739
    1PA    H11S  823   4.935   2.093   3.858
    1PA    C110  824   4.901   2.286   3.945
    1PA    H10R  825   4.958   2.271   4.036
    1PA    H10S  826   4.908   2.391   3.916
    1PA     C19  827   4.757   2.248   3.983
    1PA     H9R  828   4.693   2.234   3.895
    1PA     H9S  829   4.759   2.146   4.023
    1PA     C18  830   4.684   2.350   4.071
    1PA     H8R  831   4.738   2.381   4.161
    1PA     H8S  832   4.664   2.440   4.013
    1PA     C17  833   4.550   2.293   4.118
    1PA     H7R  834   4.466   2.363   4.127
    1PA     H7S  835   4.512   2.221   4.045
    1PA     C16  836   4.571   2.231   4.257
    1PA     H6R  837   4.631   2.144   4.229
    1PA     H6S  838   4.626   2.300   4.321
    1PA     C15  839   4.452   2.166   4.329
    1PA     H5R  840   4.362   2.225   4.311
    1PA     H5S  841   4.423   2.078   4.271
    1PA     C14  842   4.483   2.125   4.473
    1PA     H4R  843   4.406   2.056   4.507
    1PA     H4S  844   4.579   2.073   4.481
    1PA     C13  845   4.481   2.254   4.556
    1PA     H3R  846   4.546   2.334   4.521
    1PA     H3S  847   4.379   2.292   4.547
    1PA     C12  848   4.504   2.217   4.703
    1PA     H2R  849   4.418   2.161   4.740
    1PA     H2S  850   4.590   2.149   4.713
    2PC     C11  851   4.514   2.334   4.798
    2PC     O12  852   4.483   2.448   4.770
    2PC     O11  853   4.553   2.289   4.918
    2PC      C1  854   4.572   2.374   5.033
    2PC      HR  855   4.647   2.449   5.009
    2PC      HS  856   4.482   2.431   5.057
    2PC      C2  857   4.618   2.279   5.145
    2PC      HX  858   4.563   2.186   5.130
    2PC      C3  859   4.589   2.337   5.284
    2PC      HA  860   4.481   2.325   5.298
    2PC      HB  861   4.642   2.289   5.366
    2PC     O31  862   4.597   2.480   5.279
    2PC     P31  863   4.514   2.575   5.377
    2PC     O32  864   4.368   2.548   5.316
    2PC     C31  865   4.258   2.610   5.385
    2PC     H1A  866   4.170   2.580   5.327
    2PC     H1B  867   4.263   2.592   5.493
    2PC     C32  868   4.271   2.760   5.356
    2PC     H2A  869   4.352   2.798   5.418
    2PC     H2B  870   4.303   2.778   5.254
    2PC     N31  871   4.151   2.847   5.375
    2PC     C33  872   4.194   2.984   5.418
    2PC     H3A  873   4.120   3.063   5.433
    2PC     H3B  874   4.252   2.964   5.508
    2PC     H3C  875   4.267   3.009   5.341
    2PC     C34  876   4.076   2.864   5.246
    2PC     H4A  877   4.135   2.897   5.161
    2PC     H4B  878   4.042   2.762   5.232
    2PC     H4C  879   3.992   2.934   5.249
    2PC     C35  880   4.057   2.798   5.481
    2PC     H5A  881   3.991   2.885   5.494
    2PC     H5B  882   4.117   2.776   5.569
    2PC     H5C  883   3.995   2.718   5.440
    2PC     O33  884   4.530   2.512   5.511
    2PC     O34  885   4.571   2.711   5.381
    2PC     O21  886   4.759   2.260   5.126
    2PC     C21  887   4.830   2.175   5.202
    2PC     O22  888   4.787   2.095   5.282
    3OL     C12  889   4.978   2.178   5.172
    3OL     H2R  890   5.036   2.195   5.262
    3OL     H2S  891   5.000   2.273   5.122
    3OL     C13  892   5.027   2.051   5.102
    3OL     H3R  893   4.975   2.045   5.006
    3OL     H3S  894   5.007   1.965   5.166
    3OL     C14  895   5.177   2.056   5.066
    3OL     H4R  896   5.247   2.036   5.148
    3OL     H4S  897   5.203   2.157   5.037
    3OL     C15  898   5.212   1.949   4.962
    3OL     H5R  899   5.147   1.949   4.874
    3OL     H5S  900   5.198   1.848   5.001
    3OL     C16  901   5.356   1.949   4.911
    3OL     H6R  902   5.412   1.931   5.003
    3OL     H6S  903   5.389   2.049   4.884
    3OL     C17  904   5.376   1.830   4.815
    3OL     H7R  905   5.320   1.743   4.851
    3OL     H7S  906   5.483   1.811   4.817
    3OL     C18  907   5.333   1.867   4.673
    3OL     H8R  908   5.384   1.958   4.641
    3OL     H8S  909   5.225   1.875   4.678
    3OL     C19  910   5.367   1.756   4.577
    3OL     H9R  911   5.473   1.740   4.559
    3OL    C110  912   5.293   1.662   4.522
    3OL    H10R  913   5.338   1.581   4.464
    3OL    C111  914   5.144   1.653   4.548
    3OL    H11R  915   5.125   1.693   4.648
    3OL    H11S  916   5.120   1.547   4.544
    3OL    C112  917   5.052   1.719   4.444
    3OL    H12R  918   4.951   1.704   4.483
    3OL    H12S  919   5.065   1.673   4.346
    3OL    C113  920   5.066   1.870   4.419
    3OL    H13R  921   5.173   1.892   4.411
    3OL    H13S  922   5.037   1.928   4.506
    3OL    C114  923   4.998   1.924   4.293
    3OL    H14R  924   5.060   1.913   4.203
    3OL    H14S  925   4.988   2.032   4.302
    3OL    C115  926   4.854   1.872   4.275
    3OL    H15R  927   4.800   1.963   4.251
    3OL    H15S  928   4.826   1.828   4.371
    3OL    C116  929   4.838   1.768   4.163
    3OL    H16R  930   4.742   1.718   4.179
    3OL    H16S  931   4.914   1.690   4.164
    3OL    C117  932   4.827   1.833   4.025
    3OL    H17R  933   4.917   1.889   3.998
    3OL    H17S  934   4.741   1.901   4.024
    3OL    C118  935   4.810   1.726   3.916
    3OL    H18R  936   4.904   1.671   3.911
    3OL    H18S  937   4.794   1.771   3.818
    3OL    H18T  938   4.729   1.656   3.939
    1PA    C116  939   2.122   4.246   3.445
    1PA    H16R  940   2.173   4.159   3.403
    1PA    H16S  941   2.171   4.343   3.430
    1PA    H16T  942   2.029   4.244   3.388
    1PA    C115  943   2.102   4.238   3.597
    1PA    H15R  944   2.022   4.293   3.646
    1PA    H15S  945   2.080   4.134   3.623
    1PA    C114  946   2.229   4.270   3.675
    1PA    H14R  947   2.311   4.211   3.633
    1PA    H14S  948   2.244   4.376   3.654
    1PA    C113  949   2.206   4.243   3.824
    1PA    H13R  950   2.119   4.291   3.870
    1PA    H13S  951   2.180   4.139   3.846
    1PA    C112  952   2.333   4.282   3.901
    1PA    H12R  953   2.420   4.234   3.857
    1PA    H12S  954   2.351   4.389   3.893
    1PA    C111  955   2.320   4.244   4.050
    1PA    H11R  956   2.271   4.147   4.058
    1PA    H11S  957   2.417   4.240   4.100
    1PA    C110  958   2.236   4.350   4.122
    1PA    H10R  959   2.280   4.450   4.129
    1PA    H10S  960   2.149   4.370   4.058
    1PA     C19  961   2.180   4.294   4.254
    1PA     H9R  962   2.111   4.213   4.229
    1PA     H9S  963   2.249   4.255   4.328
    1PA     C18  964   2.107   4.406   4.329
    1PA     H8R  965   2.179   4.486   4.349
    1PA     H8S  966   2.024   4.448   4.271
    1PA     C17  967   2.045   4.354   4.459
    1PA     H7R  968   1.960   4.290   4.438
    1PA     H7S  969   2.122   4.291   4.504
    1PA     C16  970   2.002   4.468   4.553
    1PA     H6R  971   2.088   4.533   4.574
    1PA     H6S  972   1.932   4.534   4.503
    1PA     C15  973   1.951   4.415   4.688
    1PA     H5R  974   2.033   4.361   4.737
    1PA     H5S  975   1.924   4.494   4.758
    1PA     C14  976   1.834   4.315   4.686
    1PA     H4R  977   1.750   4.368   4.642
    1PA     H4S  978   1.857   4.226   4.628
    1PA     C13  979   1.795   4.282   4.831
    1PA     H3R  980   1.880   4.239   4.885
    1PA     H3S  981   1.779   4.378   4.880
    1PA     C12  982   1.678   4.184   4.846
    1PA     H2R  983   1.583   4.227   4.813
    1PA     H2S  984   1.692   4.092   4.788
    2PC     C11  985   1.644   4.140   4.986
    2PC     O12  986   1.574   4.045   5.013
    2PC     O11  987   1.697   4.217   5.082
    2PC      C1  988   1.691   4.183   5.222
    2PC      HR  989   1.707   4.262   5.296
    2PC      HS  990   1.599   4.129   5.242
    2PC      C2  991   1.799   4.080   5.258
    2PC      HX  992   1.782   3.996   5.190
    2PC      C3  993   1.776   4.057   5.408
    2PC      HA  994   1.671   4.039   5.431
    2PC      HB  995   1.836   3.973   5.444
    2PC     O31  996   1.819   4.173   5.482
    2PC     P31  997   1.815   4.175   5.642
    2PC     O32  998   1.972   4.154   5.665
    2PC     C31  999   2.045   4.040   5.616
    2PC     H1A 1000   2.013   3.962   5.687
    2PC     H1B 1001   2.021   4.022   5.511
    2PC     C32 1002   2.190   4.082   5.640
    2PC     H2A 1003   2.210   4.174   5.584
    2PC     H2B 1004   2.205   4.115   5.743
    2PC     N31 1005   2.299   3.984   5.609
    2PC     C33 1006   2.283   3.853   5.680
    2PC     H3A 1007   2.368   3.785   5.668
    2PC     H3B 1008   2.271   3.883   5.785
    2PC     H3C 1009   2.193   3.802   5.644
    2PC     C34 1010   2.300   3.944   5.464
    2PC     H4A 1011   2.205   3.902   5.428
    2PC     H4B 1012   2.312   4.038   5.411
    2PC     H4C 1013   2.376   3.871   5.435
    2PC     C35 1014   2.430   4.046   5.647
    2PC     H5A 1015   2.508   3.983   5.604
    2PC     H5B 1016   2.427   4.044   5.756
    2PC     H5C 1017   2.435   4.151   5.618
    2PC     O33 1018   1.765   4.307   5.689
    2PC     O34 1019   1.731   4.069   5.703
    2PC     O21 1020   1.929   4.128   5.218
    2PC     C21 1021   2.037   4.049   5.227
    2PC     O22 1022   2.034   3.936   5.270
    3OL     C12 1023   2.165   4.119   5.189
    3OL     H2R 1024   2.254   4.058   5.204
    3OL     H2S 1025   2.174   4.202   5.259
    3OL     C13 1026   2.168   4.161   5.041
    3OL     H3R 1027   2.079   4.221   5.023
    3OL     H3S 1028   2.160   4.072   4.978
    3OL     C14 1029   2.287   4.250   5.003
    3OL     H4R 1030   2.367   4.176   5.013
    3OL     H4S 1031   2.295   4.329   5.077
    3OL     C15 1032   2.279   4.305   4.860
    3OL     H5R 1033   2.188   4.365   4.855
    3OL     H5S 1034   2.275   4.233   4.778
    3OL     C16 1035   2.392   4.403   4.824
    3OL     H6R 1036   2.491   4.357   4.815
    3OL     H6S 1037   2.379   4.480   4.900
    3OL     C17 1038   2.377   4.460   4.682
    3OL     H7R 1039   2.275   4.498   4.678
    3OL     H7S 1040   2.397   4.381   4.609
    3OL     C18 1041   2.474   4.576   4.654
    3OL     H8R 1042   2.577   4.542   4.662
    3OL     H8S 1043   2.458   4.658   4.723
    3OL     C19 1044   2.443   4.625   4.515
    3OL     H9R 1045   2.360   4.695   4.513
    3OL    C110 1046   2.498   4.593   4.398
    3OL    H10R 1047   2.465   4.636   4.304
    3OL    C111 1048   2.626   4.519   4.369
    3OL    H11R 1049   2.662   4.474   4.462
    3OL    H11S 1050   2.700   4.585   4.323
    3OL    C112 1051   2.603   4.402   4.273
    3OL    H12R 1052   2.541   4.441   4.192
    3OL    H12S 1053   2.553   4.325   4.332
    3OL    C113 1054   2.735   4.338   4.225
    3OL    H13R 1055   2.788   4.309   4.316
    3OL    H13S 1056   2.796   4.410   4.171
    3OL    C114 1057   2.714   4.214   4.137
    3OL    H14R 1058   2.639   4.232   4.060
    3OL    H14S 1059   2.668   4.130   4.189
    3OL    C115 1060   2.846   4.163   4.076
    3OL    H15R 1061   2.836   4.062   4.036
    3OL    H15S 1062   2.922   4.162   4.154
    3OL    C116 1063   2.907   4.257   3.971
    3OL    H16R 1064   2.834   4.254   3.890
    3OL    H16S 1065   2.917   4.356   4.015
    3OL    C117 1066   3.050   4.226   3.924
    3OL    H17R 1067   3.047   4.138   3.859
    3OL    H17S 1068   3.120   4.221   4.009
    3OL    C118 1069   3.099   4.338   3.831
    3OL    H18R 1070   3.028   4.367   3.753
    3OL    H18S 1071   3.120   4.420   3.900
    3OL    H18T 1072   3.193   4.311   3.782
    1PA    C116 1073   6.256   3.684   5.332
    1PA    H16R 1074   6.364   3.696   5.323
    1PA    H16S 1075   6.245   3.599   5.401
    1PA    H16T 1076   6.226   3.775   5.384
    1PA    C115 1077   6.206   3.660   5.189
    1PA    H15R 1078   6.223   3.559   5.150
    1PA    H15S 1079   6.101   3.683   5.204
    1PA    C114 1080   6.271   3.763   5.096
    1PA    H14R 1081   6.260   3.861   5.142
    1PA    H14S 1082   6.374   3.729   5.080
    1PA    C113 1083   6.203   3.765   4.958
    1PA    H13R 1084   6.209   3.670   4.906
    1PA    H13S 1085   6.095   3.778   4.973
    1PA    C112 1086   6.267   3.861   4.857
    1PA    H12R 1087   6.205   3.858   4.767
    1PA    H12S 1088   6.249   3.958   4.903
    1PA    C111 1089   6.418   3.849   4.834
    1PA    H11R 1090   6.469   3.852   4.931
    1PA    H11S 1091   6.443   3.754   4.788
    1PA    C110 1092   6.471   3.954   4.736
    1PA    H10R 1093   6.580   3.950   4.730
    1PA    H10S 1094   6.432   3.945   4.634
    1PA     C19 1095   6.450   4.101   4.776
    1PA     H9R 1096   6.449   4.164   4.687
    1PA     H9S 1097   6.350   4.116   4.818
    1PA     C18 1098   6.556   4.139   4.880
    1PA     H8R 1099   6.546   4.078   4.970
    1PA     H8S 1100   6.656   4.127   4.839
    1PA     C17 1101   6.549   4.286   4.924
    1PA     H7R 1102   6.601   4.349   4.851
    1PA     H7S 1103   6.448   4.323   4.940
    1PA     C16 1104   6.636   4.288   5.051
    1PA     H6R 1105   6.706   4.205   5.052
    1PA     H6S 1106   6.698   4.377   5.050
    1PA     C15 1107   6.556   4.295   5.182
    1PA     H5R 1108   6.469   4.230   5.170
    1PA     H5S 1109   6.623   4.263   5.262
    1PA     C14 1110   6.509   4.436   5.218
    1PA     H4R 1111   6.599   4.497   5.231
    1PA     H4S 1112   6.453   4.477   5.134
    1PA     C13 1113   6.425   4.433   5.347
    1PA     H3R 1114   6.345   4.359   5.345
    1PA     H3S 1115   6.501   4.391   5.413
    1PA     C12 1116   6.397   4.576   5.394
    1PA     H2R 1117   6.491   4.632   5.394
    1PA     H2S 1118   6.321   4.625   5.333
    2PC     C11 1119   6.348   4.583   5.536
    2PC     O12 1120   6.420   4.571   5.633
    2PC     O11 1121   6.216   4.609   5.541
    2PC      C1 1122   6.155   4.654   5.663
    2PC      HR 1123   6.047   4.666   5.647
    2PC      HS 1124   6.160   4.587   5.749
    2PC      C2 1125   6.220   4.789   5.693
    2PC      HX 1126   6.328   4.773   5.704
    2PC      C3 1127   6.170   4.859   5.821
    2PC      HA 1128   6.070   4.898   5.801
    2PC      HB 1129   6.161   4.791   5.906
    2PC     O31 1130   6.259   4.968   5.849
    2PC     P31 1131   6.224   5.060   5.976
    2PC     O32 1132   6.274   5.187   5.890
    2PC     C31 1133   6.415   5.213   5.879
    2PC     H1A 1134   6.441   5.234   5.983
    2PC     H1B 1135   6.469   5.131   5.833
    2PC     C32 1136   6.435   5.339   5.794
    2PC     H2A 1137   6.395   5.423   5.850
    2PC     H2B 1138   6.538   5.360   5.765
    2PC     N31 1139   6.355   5.345   5.667
    2PC     C33 1140   6.362   5.212   5.597
    2PC     H3A 1141   6.467   5.206   5.566
    2PC     H3B 1142   6.327   5.138   5.670
    2PC     H3C 1143   6.293   5.219   5.513
    2PC     C34 1144   6.211   5.380   5.688
    2PC     H4A 1145   6.208   5.462   5.759
    2PC     H4B 1146   6.164   5.405   5.593
    2PC     H4C 1147   6.153   5.300   5.733
    2PC     C35 1148   6.408   5.454   5.579
    2PC     H5A 1149   6.513   5.445   5.552
    2PC     H5B 1150   6.394   5.548   5.633
    2PC     H5C 1151   6.345   5.447   5.490
    2PC     O33 1152   6.087   5.068   6.032
    2PC     O34 1153   6.320   5.046   6.088
    2PC     O21 1154   6.184   4.877   5.585
    2PC     C21 1155   6.283   4.928   5.510
    2PC     O22 1156   6.402   4.916   5.528
    3OL     C12 1157   6.223   4.983   5.382
    3OL     H2R 1158   6.291   5.058   5.341
    3OL     H2S 1159   6.133   5.036   5.412
    3OL     C13 1160   6.192   4.872   5.280
    3OL     H3R 1161   6.114   4.799   5.302
    3OL     H3S 1162   6.291   4.828   5.271
    3OL     C14 1163   6.159   4.936   5.144
    3OL     H4R 1164   6.236   5.001   5.103
    3OL     H4S 1165   6.071   4.997   5.161
    3OL     C15 1166   6.119   4.830   5.041
    3OL     H5R 1167   6.029   4.774   5.070
    3OL     H5S 1168   6.194   4.751   5.030
    3OL     C16 1169   6.114   4.888   4.899
    3OL     H6R 1170   6.206   4.941   4.873
    3OL     H6S 1171   6.032   4.960   4.910
    3OL     C17 1172   6.091   4.778   4.795
    3OL     H7R 1173   5.994   4.728   4.805
    3OL     H7S 1174   6.176   4.714   4.822
    3OL     C18 1175   6.107   4.826   4.650
    3OL     H8R 1176   6.207   4.867   4.635
    3OL     H8S 1177   6.035   4.906   4.637
    3OL     C19 1178   6.071   4.715   4.554
    3OL     H9R 1179   5.971   4.675   4.567
    3OL    C110 1180   6.153   4.658   4.467
    3OL    H10R 1181   6.109   4.574   4.414
    3OL    C111 1182   6.291   4.696   4.419
    3OL    H11R 1183   6.312   4.798   4.451
    3OL    H11S 1184   6.287   4.688   4.310
    3OL    C112 1185   6.398   4.596   4.464
    3OL    H12R 1186   6.495   4.629   4.424
    3OL    H12S 1187   6.374   4.498   4.424
    3OL    C113 1188   6.424   4.583   4.614
    3OL    H13R 1189   6.475   4.487   4.627
    3OL    H13S 1190   6.328   4.580   4.666
    3OL    C114 1191   6.511   4.697   4.669
    3OL    H14R 1192   6.458   4.792   4.660
    3OL    H14S 1193   6.606   4.706   4.615
    3OL    C115 1194   6.524   4.681   4.821
    3OL    H15R 1195   6.568   4.583   4.841
    3OL    H15S 1196   6.428   4.696   4.870
    3OL    C116 1197   6.630   4.777   4.877
    3OL    H16R 1198   6.606   4.881   4.855
    3OL    H16S 1199   6.729   4.758   4.834
    3OL    C117 1200   6.662   4.757   5.026
    3OL    H17R 1201   6.741   4.825   5.057
    3OL    H17S 1202   6.679   4.651   5.044
    3OL    C118 1203   6.541   4.808   5.107
    3OL    H18R 1204   6.499   4.897   5.059
    3OL    H18S 1205   6.575   4.818   5.210
    3OL    H18T 1206   6.470   4.725   5.107
    1PA    C116 1207   5.597   3.773   3.696
    1PA    H16R 1208   5.692   3.821   3.676
    1PA    H16S 1209   5.534   3.773   3.606
    1PA    H16T 1210   5.631   3.670   3.710
    1PA    C115 1211   5.507   3.832   3.805
    1PA    H15R 1212   5.465   3.928   3.774
    1PA    H15S 1213   5.421   3.765   3.815
    1PA    C114 1214   5.563   3.836   3.948
    1PA    H14R 1215   5.623   3.745   3.961
    1PA    H14S 1216   5.629   3.923   3.952
    1PA    C113 1217   5.454   3.860   4.053
    1PA    H13R 1218   5.394   3.942   4.012
    1PA    H13S 1219   5.391   3.771   4.054
    1PA    C112 1220   5.513   3.887   4.191
    1PA    H12R 1221   5.606   3.945   4.183
    1PA    H12S 1222   5.443   3.942   4.255
    1PA    C111 1223   5.542   3.753   4.260
    1PA    H11R 1224   5.453   3.690   4.250
    1PA    H11S 1225   5.626   3.701   4.213
    1PA    C110 1226   5.572   3.772   4.409
    1PA    H10R 1227   5.651   3.848   4.407
    1PA    H10S 1228   5.481   3.811   4.455
    1PA     C19 1229   5.629   3.650   4.483
    1PA     H9R 1230   5.542   3.583   4.488
    1PA     H9S 1231   5.714   3.610   4.427
    1PA     C18 1232   5.674   3.674   4.627
    1PA     H8R 1233   5.730   3.768   4.639
    1PA     H8S 1234   5.585   3.690   4.687
    1PA     C17 1235   5.750   3.553   4.684
    1PA     H7R 1236   5.680   3.478   4.721
    1PA     H7S 1237   5.809   3.512   4.602
    1PA     C16 1238   5.841   3.594   4.801
    1PA     H6R 1239   5.902   3.680   4.774
    1PA     H6S 1240   5.774   3.633   4.879
    1PA     C15 1241   5.922   3.476   4.858
    1PA     H5R 1242   5.963   3.515   4.951
    1PA     H5S 1243   5.847   3.399   4.876
    1PA     C14 1244   6.037   3.437   4.764
    1PA     H4R 1245   5.987   3.392   4.677
    1PA     H4S 1246   6.085   3.525   4.720
    1PA     C13 1247   6.141   3.338   4.817
    1PA     H3R 1248   6.208   3.297   4.742
    1PA     H3S 1249   6.202   3.375   4.899
    1PA     C12 1250   6.077   3.213   4.879
    1PA     H2R 1251   5.980   3.195   4.832
    1PA     H2S 1252   6.140   3.125   4.866
    2PC     C11 1253   6.054   3.213   5.028
    2PC     O12 1254   6.124   3.273   5.108
    2PC     O11 1255   5.946   3.141   5.061
    2PC      C1 1256   5.892   3.142   5.195
    2PC      HR 1257   5.838   3.048   5.214
    2PC      HS 1258   5.974   3.138   5.266
    2PC      C2 1259   5.819   3.276   5.215
    2PC      HX 1260   5.877   3.363   5.183
    2PC      C3 1261   5.772   3.273   5.361
    2PC      HA 1262   5.740   3.172   5.386
    2PC      HB 1263   5.854   3.312   5.423
    2PC     O31 1264   5.671   3.376   5.369
    2PC     P31 1265   5.624   3.424   5.514
    2PC     O32 1266   5.618   3.583   5.497
    2PC     C31 1267   5.628   3.665   5.615
    2PC     H1A 1268   5.544   3.650   5.683
    2PC     H1B 1269   5.721   3.634   5.662
    2PC     C32 1270   5.637   3.813   5.573
    2PC     H2A 1271   5.709   3.809   5.491
    2PC     H2B 1272   5.540   3.852   5.543
    2PC     N31 1273   5.685   3.910   5.676
    2PC     C33 1274   5.604   3.899   5.802
    2PC     H3A 1275   5.630   3.988   5.860
    2PC     H3B 1276   5.498   3.899   5.778
    2PC     H3C 1277   5.618   3.814   5.869
    2PC     C34 1278   5.827   3.874   5.706
    2PC     H4A 1279   5.844   3.772   5.670
    2PC     H4B 1280   5.886   3.951   5.656
    2PC     H4C 1281   5.843   3.871   5.814
    2PC     C35 1282   5.680   4.053   5.630
    2PC     H5A 1283   5.576   4.062   5.599
    2PC     H5B 1284   5.745   4.051   5.542
    2PC     H5C 1285   5.717   4.123   5.705
    2PC     O33 1286   5.491   3.369   5.550
    2PC     O34 1287   5.719   3.389   5.622
    2PC     O21 1288   5.708   3.260   5.126
    2PC     C21 1289   5.640   3.370   5.088
    2PC     O22 1290   5.679   3.483   5.105
    3OL     C12 1291   5.506   3.330   5.032
    3OL     H2R 1292   5.457   3.263   5.104
    3OL     H2S 1293   5.528   3.282   4.937
    3OL     C13 1294   5.422   3.456   5.008
    3OL     H3R 1295   5.485   3.530   4.959
    3OL     H3S 1296   5.397   3.503   5.103
    3OL     C14 1297   5.297   3.425   4.924
    3OL     H4R 1298   5.208   3.482   4.952
    3OL     H4S 1299   5.265   3.322   4.942
    3OL     C15 1300   5.332   3.436   4.775
    3OL     H5R 1301   5.414   3.366   4.758
    3OL     H5S 1302   5.364   3.537   4.750
    3OL     C16 1303   5.216   3.398   4.682
    3OL     H6R 1304   5.124   3.450   4.709
    3OL     H6S 1305   5.195   3.292   4.690
    3OL     C17 1306   5.254   3.436   4.538
    3OL     H7R 1307   5.344   3.377   4.516
    3OL     H7S 1308   5.293   3.538   4.545
    3OL     C18 1309   5.142   3.416   4.435
    3OL     H8R 1310   5.052   3.471   4.463
    3OL     H8S 1311   5.107   3.313   4.443
    3OL     C19 1312   5.182   3.466   4.298
    3OL     H9R 1313   5.217   3.568   4.296
    3OL    C110 1314   5.191   3.402   4.182
    3OL    H10R 1315   5.222   3.455   4.092
    3OL    C111 1316   5.145   3.263   4.146
    3OL    H11R 1317   5.038   3.247   4.161
    3OL    H11S 1318   5.197   3.198   4.216
    3OL    C112 1319   5.190   3.215   4.008
    3OL    H12R 1320   5.298   3.230   4.005
    3OL    H12S 1321   5.143   3.265   3.923
    3OL    C113 1322   5.176   3.063   3.992
    3OL    H13R 1323   5.077   3.021   4.012
    3OL    H13S 1324   5.248   3.032   4.068
    3OL    C114 1325   5.204   3.023   3.846
    3OL    H14R 1326   5.303   3.057   3.813
    3OL    H14S 1327   5.130   3.077   3.786
    3OL    C115 1328   5.196   2.874   3.813
    3OL    H15R 1329   5.099   2.840   3.850
    3OL    H15S 1330   5.281   2.824   3.859
    3OL    C116 1331   5.208   2.858   3.660
    3OL    H16R 1332   5.125   2.901   3.604
    3OL    H16S 1333   5.181   2.754   3.639
    3OL    C117 1334   5.345   2.900   3.607
    3OL    H17R 1335   5.432   2.863   3.662
    3OL    H17S 1336   5.350   3.009   3.613
    3OL    C118 1337   5.349   2.856   3.460
    3OL    H18R 1338   5.365   2.749   3.469
    3OL    H18S 1339   5.415   2.919   3.401
    3OL    H18T 1340   5.249   2.860   3.416
    1PA    C116 1341   6.040   3.720   4.391
    1PA    H16R 1342   5.967   3.740   4.313
    1PA    H16S 1343   6.131   3.771   4.359
    1PA    H16T 1344   6.010   3.765   4.486
    1PA    C115 1345   6.064   3.569   4.405
    1PA    H15R 1346   6.115   3.549   4.499
    1PA    H15S 1347   5.965   3.522   4.402
    1PA    C114 1348   6.145   3.514   4.287
    1PA    H14R 1349   6.086   3.521   4.195
    1PA    H14S 1350   6.242   3.563   4.282
    1PA    C113 1351   6.166   3.362   4.293
    1PA    H13R 1352   6.068   3.315   4.309
    1PA    H13S 1353   6.214   3.327   4.201
    1PA    C112 1354   6.264   3.329   4.406
    1PA    H12R 1355   6.349   3.392   4.379
    1PA    H12S 1356   6.226   3.359   4.504
    1PA    C111 1357   6.296   3.179   4.417
    1PA    H11R 1358   6.307   3.132   4.320
    1PA    H11S 1359   6.386   3.162   4.476
    1PA    C110 1360   6.184   3.112   4.499
    1PA    H10R 1361   6.183   3.156   4.599
    1PA    H10S 1362   6.091   3.138   4.448
    1PA     C19 1363   6.198   2.959   4.501
    1PA     H9R 1364   6.182   2.914   4.403
    1PA     H9S 1365   6.298   2.938   4.539
    1PA     C18 1366   6.094   2.897   4.595
    1PA     H8R 1367   6.138   2.812   4.648
    1PA     H8S 1368   6.072   2.971   4.672
    1PA     C17 1369   5.968   2.851   4.519
    1PA     H7R 1370   5.910   2.939   4.490
    1PA     H7S 1371   5.988   2.788   4.431
    1PA     C16 1372   5.881   2.757   4.602
    1PA     H6R 1373   5.879   2.799   4.703
    1PA     H6S 1374   5.782   2.759   4.555
    1PA     C15 1375   5.929   2.611   4.608
    1PA     H5R 1376   5.936   2.554   4.516
    1PA     H5S 1377   6.030   2.608   4.651
    1PA     C14 1378   5.831   2.526   4.689
    1PA     H4R 1379   5.728   2.533   4.655
    1PA     H4S 1380   5.855   2.425   4.654
    1PA     C13 1381   5.846   2.536   4.841
    1PA     H3R 1382   5.948   2.510   4.870
    1PA     H3S 1383   5.835   2.640   4.872
    1PA     C12 1384   5.738   2.449   4.908
    1PA     H2R 1385   5.643   2.467   4.858
    1PA     H2S 1386   5.768   2.346   4.889
    2PC     C11 1387   5.743   2.477   5.056
    2PC     O12 1388   5.837   2.440   5.123
    2PC     O11 1389   5.633   2.541   5.098
    2PC      C1 1390   5.622   2.582   5.236
    2PC      HR 1391   5.517   2.595   5.262
    2PC      HS 1392   5.666   2.496   5.288
    2PC      C2 1393   5.704   2.707   5.272
    2PC      HX 1394   5.806   2.702   5.235
    2PC      C3 1395   5.725   2.734   5.422
    2PC      HA 1396   5.629   2.717   5.471
    2PC      HB 1397   5.798   2.660   5.457
    2PC     O31 1398   5.777   2.865   5.450
    2PC     P31 1399   5.765   2.938   5.592
    2PC     O32 1400   5.618   2.998   5.579
    2PC     C31 1401   5.553   3.044   5.699
    2PC     H1A 1402   5.565   2.969   5.778
    2PC     H1B 1403   5.600   3.140   5.720
    2PC     C32 1404   5.411   3.091   5.667
    2PC     H2A 1405   5.375   3.148   5.753
    2PC     H2B 1406   5.414   3.160   5.582
    2PC     N31 1407   5.311   2.988   5.624
    2PC     C33 1408   5.307   2.865   5.710
    2PC     H3A 1409   5.246   2.790   5.660
    2PC     H3B 1410   5.404   2.816   5.721
    2PC     H3C 1411   5.259   2.892   5.804
    2PC     C34 1412   5.174   3.047   5.638
    2PC     H4A 1413   5.166   3.111   5.726
    2PC     H4B 1414   5.144   3.111   5.555
    2PC     H4C 1415   5.098   2.969   5.651
    2PC     C35 1416   5.329   2.963   5.477
    2PC     H5A 1417   5.429   2.994   5.448
    2PC     H5B 1418   5.260   3.009   5.406
    2PC     H5C 1419   5.314   2.855   5.473
    2PC     O33 1420   5.773   2.823   5.686
    2PC     O34 1421   5.873   3.027   5.642
    2PC     O21 1422   5.635   2.820   5.216
    2PC     C21 1423   5.666   2.860   5.092
    2PC     O22 1424   5.750   2.809   5.020
    3OL     C12 1425   5.571   2.969   5.051
    3OL     H2R 1426   5.601   3.063   5.098
    3OL     H2S 1427   5.472   2.938   5.086
    3OL     C13 1428   5.552   2.980   4.899
    3OL     H3R 1429   5.466   3.039   4.867
    3OL     H3S 1430   5.541   2.880   4.857
    3OL     C14 1431   5.669   3.042   4.822
    3OL     H4R 1432   5.755   2.975   4.819
    3OL     H4S 1433   5.711   3.120   4.885
    3OL     C15 1434   5.620   3.100   4.688
    3OL     H5R 1435   5.535   3.165   4.708
    3OL     H5S 1436   5.591   3.022   4.618
    3OL     C16 1437   5.736   3.179   4.625
    3OL     H6R 1438   5.816   3.108   4.604
    3OL     H6S 1439   5.791   3.250   4.688
    3OL     C17 1440   5.700   3.252   4.495
    3OL     H7R 1441   5.787   3.306   4.458
    3OL     H7S 1442   5.625   3.328   4.516
    3OL     C18 1443   5.659   3.165   4.375
    3OL     H8R 1444   5.561   3.121   4.397
    3OL     H8S 1445   5.734   3.086   4.371
    3OL     C19 1446   5.648   3.244   4.248
    3OL     H9R 1447   5.650   3.353   4.248
    3OL    C110 1448   5.633   3.182   4.132
    3OL    H10R 1449   5.637   3.243   4.043
    3OL    C111 1450   5.602   3.036   4.108
    3OL    H11R 1451   5.509   3.050   4.052
    3OL    H11S 1452   5.590   2.982   4.203
    3OL    C112 1453   5.709   2.962   4.028
    3OL    H12R 1454   5.813   2.965   4.064
    3OL    H12S 1455   5.713   3.013   3.931
    3OL    C113 1456   5.685   2.811   4.012
    3OL    H13R 1457   5.747   2.767   3.933
    3OL    H13S 1458   5.587   2.801   3.964
    3OL    C114 1459   5.699   2.746   4.150
    3OL    H14R 1460   5.609   2.766   4.209
    3OL    H14S 1461   5.783   2.790   4.203
    3OL    C115 1462   5.709   2.594   4.133
    3OL    H15R 1463   5.790   2.552   4.073
    3OL    H15S 1464   5.612   2.575   4.085
    3OL    C116 1465   5.701   2.514   4.264
    3OL    H16R 1466   5.600   2.524   4.306
    3OL    H16S 1467   5.767   2.557   4.339
    3OL    C117 1468   5.714   2.364   4.234
    3OL    H17R 1469   5.661   2.345   4.140
    3OL    H17S 1470   5.670   2.299   4.310
    3OL    C118 1471   5.859   2.316   4.225
    3OL    H18R 1472   5.914   2.330   4.318
    3OL    H18S 1473   5.907   2.378   4.149
    3OL    H18T 1474   5.863   2.212   4.191
    1PA    C116 1475   6.073   2.157   4.480
    1PA    H16R 1476   5.978   2.207   4.458
    1PA    H16S 1477   6.154   2.208   4.430
    1PA    H16T 1478   6.097   2.167   4.586
    1PA    C115 1479   6.056   2.008   4.446
    1PA    H15R 1480   6.001   1.956   4.524
    1PA    H15S 1481   6.024   1.983   4.344
    1PA    C114 1482   6.194   1.941   4.448
    1PA    H14R 1483   6.246   1.969   4.356
    1PA    H14S 1484   6.247   1.985   4.533
    1PA    C113 1485   6.196   1.788   4.464
    1PA    H13R 1486   6.158   1.757   4.562
    1PA    H13S 1487   6.139   1.741   4.385
    1PA    C112 1488   6.335   1.725   4.444
    1PA    H12R 1489   6.358   1.731   4.337
    1PA    H12S 1490   6.407   1.788   4.496
    1PA    C111 1491   6.344   1.578   4.485
    1PA    H11R 1492   6.323   1.568   4.592
    1PA    H11S 1493   6.262   1.529   4.432
    1PA    C110 1494   6.478   1.519   4.440
    1PA    H10R 1495   6.486   1.414   4.469
    1PA    H10S 1496   6.483   1.520   4.331
    1PA     C19 1497   6.599   1.588   4.503
    1PA     H9R 1498   6.690   1.542   4.463
    1PA     H9S 1499   6.598   1.690   4.465
    1PA     C18 1500   6.603   1.594   4.656
    1PA     H8R 1501   6.684   1.658   4.692
    1PA     H8S 1502   6.507   1.639   4.682
    1PA     C17 1503   6.640   1.458   4.717
    1PA     H7R 1504   6.573   1.378   4.684
    1PA     H7S 1505   6.735   1.425   4.674
    1PA     C16 1506   6.651   1.459   4.870
    1PA     H6R 1507   6.692   1.366   4.910
    1PA     H6S 1508   6.720   1.536   4.906
    1PA     C15 1509   6.511   1.471   4.933
    1PA     H5R 1510   6.459   1.556   4.889
    1PA     H5S 1511   6.448   1.387   4.905
    1PA     C14 1512   6.509   1.491   5.085
    1PA     H4R 1513   6.558   1.403   5.129
    1PA     H4S 1514   6.563   1.579   5.121
    1PA     C13 1515   6.365   1.496   5.137
    1PA     H3R 1516   6.328   1.581   5.080
    1PA     H3S 1517   6.316   1.402   5.109
    1PA     C12 1518   6.374   1.515   5.289
    1PA     H2R 1519   6.379   1.413   5.326
    1PA     H2S 1520   6.461   1.572   5.323
    2PC     C11 1521   6.255   1.576   5.358
    2PC     O12 1522   6.233   1.568   5.477
    2PC     O11 1523   6.172   1.646   5.279
    2PC      C1 1524   6.071   1.723   5.348
    2PC      HR 1525   5.996   1.756   5.276
    2PC      HS 1526   6.021   1.668   5.428
    2PC      C2 1527   6.131   1.858   5.391
    2PC      HX 1528   6.214   1.843   5.460
    2PC      C3 1529   6.026   1.940   5.468
    2PC      HA 1530   5.954   1.984   5.399
    2PC      HB 1531   5.982   1.869   5.539
    2PC     O31 1532   6.082   2.053   5.537
    2PC     P31 1533   5.992   2.162   5.612
    2PC     O32 1534   6.103   2.241   5.695
    2PC     C31 1535   6.067   2.293   5.825
    2PC     H1A 1536   5.972   2.346   5.816
    2PC     H1B 1537   6.043   2.207   5.887
    2PC     C32 1538   6.182   2.387   5.867
    2PC     H2A 1539   6.270   2.322   5.873
    2PC     H2B 1540   6.200   2.462   5.791
    2PC     N31 1541   6.170   2.464   5.995
    2PC     C33 1542   6.169   2.372   6.114
    2PC     H3A 1543   6.068   2.334   6.125
    2PC     H3B 1544   6.237   2.287   6.102
    2PC     H3C 1545   6.197   2.431   6.201
    2PC     C34 1546   6.284   2.561   6.006
    2PC     H4A 1547   6.274   2.619   5.914
    2PC     H4B 1548   6.278   2.625   6.094
    2PC     H4C 1549   6.370   2.495   6.001
    2PC     C35 1550   6.042   2.541   6.008
    2PC     H5A 1551   6.035   2.623   5.937
    2PC     H5B 1552   6.029   2.578   6.110
    2PC     H5C 1553   5.956   2.479   5.985
    2PC     O33 1554   5.902   2.238   5.522
    2PC     O34 1555   5.905   2.081   5.701
    2PC     O21 1556   6.180   1.930   5.277
    2PC     C21 1557   6.298   1.905   5.217
    2PC     O22 1558   6.372   1.815   5.251
    3OL     C12 1559   6.329   1.993   5.099
    3OL     H2R 1560   6.434   2.024   5.097
    3OL     H2S 1561   6.253   2.071   5.090
    3OL     C13 1562   6.307   1.915   4.968
    3OL     H3R 1563   6.203   1.887   4.953
    3OL     H3S 1564   6.354   1.817   4.977
    3OL     C14 1565   6.356   1.987   4.842
    3OL     H4R 1566   6.337   1.924   4.755
    3OL     H4S 1567   6.459   2.022   4.849
    3OL     C15 1568   6.271   2.113   4.818
    3OL     H5R 1569   6.268   2.174   4.908
    3OL     H5S 1570   6.171   2.083   4.787
    3OL     C16 1571   6.335   2.202   4.710
    3OL     H6R 1572   6.266   2.283   4.687
    3OL     H6S 1573   6.355   2.154   4.614
    3OL     C17 1574   6.458   2.280   4.760
    3OL     H7R 1575   6.550   2.223   4.748
    3OL     H7S 1576   6.445   2.297   4.867
    3OL     C18 1577   6.477   2.414   4.687
    3OL     H8R 1578   6.543   2.466   4.757
    3OL     H8S 1579   6.383   2.470   4.683
    3OL     C19 1580   6.531   2.389   4.548
    3OL     H9R 1581   6.566   2.287   4.535
    3OL    C110 1582   6.510   2.466   4.443
    3OL    H10R 1583   6.544   2.428   4.347
    3OL    C111 1584   6.469   2.611   4.450
    3OL    H11R 1585   6.539   2.675   4.397
    3OL    H11S 1586   6.466   2.637   4.556
    3OL    C112 1587   6.329   2.620   4.387
    3OL    H12R 1588   6.287   2.713   4.427
    3OL    H12S 1589   6.256   2.544   4.417
    3OL    C113 1590   6.340   2.648   4.237
    3OL    H13R 1591   6.411   2.575   4.196
    3OL    H13S 1592   6.384   2.747   4.226
    3OL    C114 1593   6.204   2.644   4.166
    3OL    H14R 1594   6.132   2.715   4.208
    3OL    H14S 1595   6.166   2.544   4.188
    3OL    C115 1596   6.207   2.672   4.015
    3OL    H15R 1597   6.295   2.630   3.966
    3OL    H15S 1598   6.222   2.780   4.010
    3OL    C116 1599   6.075   2.641   3.945
    3OL    H16R 1600   6.084   2.683   3.844
    3OL    H16S 1601   5.999   2.698   3.998
    3OL    C117 1602   6.024   2.497   3.924
    3OL    H17R 1603   5.930   2.495   3.870
    3OL    H17S 1604   6.020   2.429   4.009
    3OL    C118 1605   6.122   2.431   3.826
    3OL    H18R 1606   6.213   2.403   3.879
    3OL    H18S 1607   6.150   2.503   3.749
    3OL    H18T 1608   6.080   2.341   3.781
    1PA    C116 1609   3.884   6.424   3.615
    1PA    H16R 1610   3.974   6.473   3.577
    1PA    H16S 1611   3.822   6.483   3.683
    1PA    H16T 1612   3.819   6.422   3.528
    1PA    C115 1613   3.904   6.280   3.664
    1PA    H15R 1614   3.986   6.242   3.602
    1PA    H15S 1615   3.956   6.300   3.758
    1PA    C114 1616   3.771   6.205   3.670
    1PA    H14R 1617   3.705   6.228   3.586
    1PA    H14S 1618   3.792   6.098   3.661
    1PA    C113 1619   3.706   6.235   3.806
    1PA    H13R 1620   3.698   6.342   3.827
    1PA    H13S 1621   3.604   6.196   3.807
    1PA    C112 1622   3.781   6.161   3.918
    1PA    H12R 1623   3.774   6.052   3.909
    1PA    H12S 1624   3.887   6.184   3.924
    1PA    C111 1625   3.724   6.194   4.057
    1PA    H11R 1626   3.724   6.301   4.078
    1PA    H11S 1627   3.621   6.160   4.063
    1PA    C110 1628   3.798   6.125   4.172
    1PA    H10R 1629   3.904   6.114   4.150
    1PA    H10S 1630   3.781   6.194   4.255
    1PA     C19 1631   3.753   5.981   4.202
    1PA     H9R 1632   3.648   5.969   4.226
    1PA     H9S 1633   3.765   5.916   4.115
    1PA     C18 1634   3.838   5.909   4.307
    1PA     H8R 1635   3.814   5.802   4.303
    1PA     H8S 1636   3.943   5.909   4.277
    1PA     C17 1637   3.820   5.971   4.446
    1PA     H7R 1638   3.827   6.079   4.457
    1PA     H7S 1639   3.719   5.965   4.486
    1PA     C16 1640   3.920   5.901   4.540
    1PA     H6R 1641   3.898   5.794   4.539
    1PA     H6S 1642   4.025   5.911   4.507
    1PA     C15 1643   3.895   5.951   4.683
    1PA     H5R 1644   3.904   6.059   4.691
    1PA     H5S 1645   3.798   5.920   4.723
    1PA     C14 1646   3.995   5.893   4.784
    1PA     H4R 1647   4.004   5.784   4.786
    1PA     H4S 1648   4.096   5.927   4.758
    1PA     C13 1649   3.973   5.943   4.927
    1PA     H3R 1650   3.978   6.052   4.929
    1PA     H3S 1651   3.879   5.904   4.967
    1PA     C12 1652   4.096   5.898   5.007
    1PA     H2R 1653   4.125   5.796   4.983
    1PA     H2S 1654   4.190   5.950   4.985
    2PC     C11 1655   4.077   5.914   5.156
    2PC     O12 1656   4.043   6.019   5.207
    2PC     O11 1657   4.105   5.802   5.225
    2PC      C1 1658   4.092   5.810   5.368
    2PC      HR 1659   4.140   5.900   5.408
    2PC      HS 1660   3.993   5.784   5.406
    2PC      C2 1661   4.184   5.700   5.425
    2PC      HX 1662   4.150   5.613   5.369
    2PC      C3 1663   4.162   5.671   5.574
    2PC      HA 1664   4.056   5.661   5.598
    2PC      HB 1665   4.207   5.573   5.594
    2PC     O31 1666   4.223   5.773   5.654
    2PC     P31 1667   4.254   5.737   5.807
    2PC     O32 1668   4.103   5.710   5.851
    2PC     C31 1669   4.087   5.661   5.986
    2PC     H1A 1670   4.125   5.559   5.993
    2PC     H1B 1671   4.145   5.724   6.053
    2PC     C32 1672   3.941   5.660   6.034
    2PC     H2A 1673   3.924   5.667   6.142
    2PC     H2B 1674   3.890   5.751   6.004
    2PC     N31 1675   3.854   5.544   5.996
    2PC     C33 1676   3.835   5.524   5.849
    2PC     H3A 1677   3.929   5.501   5.799
    2PC     H3B 1678   3.763   5.446   5.824
    2PC     H3C 1679   3.799   5.621   5.813
    2PC     C34 1680   3.901   5.412   6.049
    2PC     H4A 1681   3.833   5.330   6.028
    2PC     H4B 1682   3.996   5.389   6.001
    2PC     H4C 1683   3.906   5.421   6.158
    2PC     C35 1684   3.720   5.564   6.060
    2PC     H5A 1685   3.665   5.471   6.065
    2PC     H5B 1686   3.673   5.646   6.006
    2PC     H5C 1687   3.734   5.582   6.167
    2PC     O33 1688   4.342   5.619   5.826
    2PC     O34 1689   4.321   5.844   5.883
    2PC     O21 1690   4.321   5.737   5.400
    2PC     C21 1691   4.415   5.641   5.406
    2PC     O22 1692   4.390   5.526   5.435
    3OL     C12 1693   4.551   5.690   5.365
    3OL     H2R 1694   4.581   5.768   5.435
    3OL     H2S 1695   4.551   5.736   5.266
    3OL     C13 1696   4.652   5.574   5.354
    3OL     H3R 1697   4.646   5.520   5.260
    3OL     H3S 1698   4.631   5.507   5.438
    3OL     C14 1699   4.799   5.619   5.358
    3OL     H4R 1700   4.855   5.538   5.404
    3OL     H4S 1701   4.798   5.703   5.428
    3OL     C15 1702   4.860   5.660   5.223
    3OL     H5R 1703   4.797   5.740   5.184
    3OL     H5S 1704   4.857   5.575   5.155
    3OL     C16 1705   5.003   5.710   5.246
    3OL     H6R 1706   5.057   5.642   5.312
    3OL     H6S 1707   4.995   5.807   5.295
    3OL     C17 1708   5.083   5.747   5.120
    3OL     H7R 1709   5.022   5.818   5.065
    3OL     H7S 1710   5.093   5.665   5.049
    3OL     C18 1711   5.210   5.827   5.154
    3OL     H8R 1712   5.276   5.758   5.206
    3OL     H8S 1713   5.176   5.908   5.220
    3OL     C19 1714   5.272   5.880   5.028
    3OL     H9R 1715   5.247   5.984   5.007
    3OL    C110 1716   5.346   5.804   4.949
    3OL    H10R 1717   5.392   5.848   4.861
    3OL    C111 1718   5.387   5.659   4.962
    3OL    H11R 1719   5.360   5.610   5.056
    3OL    H11S 1720   5.495   5.643   4.957
    3OL    C112 1721   5.343   5.567   4.847
    3OL    H12R 1722   5.235   5.555   4.853
    3OL    H12S 1723   5.389   5.470   4.867
    3OL    C113 1724   5.384   5.611   4.706
    3OL    H13R 1725   5.493   5.611   4.705
    3OL    H13S 1726   5.345   5.712   4.693
    3OL    C114 1727   5.327   5.518   4.598
    3OL    H14R 1728   5.337   5.578   4.507
    3OL    H14S 1729   5.222   5.496   4.622
    3OL    C115 1730   5.390   5.379   4.583
    3OL    H15R 1731   5.356   5.330   4.675
    3OL    H15S 1732   5.496   5.404   4.578
    3OL    C116 1733   5.348   5.286   4.469
    3OL    H16R 1734   5.419   5.203   4.472
    3OL    H16S 1735   5.372   5.315   4.366
    3OL    C117 1736   5.209   5.222   4.477
    3OL    H17R 1737   5.139   5.304   4.495
    3OL    H17S 1738   5.206   5.155   4.563
    3OL    C118 1739   5.177   5.164   4.339
    3OL    H18R 1740   5.199   5.233   4.257
    3OL    H18S 1741   5.068   5.164   4.348
    3OL    H18T 1742   5.225   5.066   4.336
    1PA    C116 1743   6.194   5.043   4.221
    1PA    H16R 1744   6.088   5.060   4.200
    1PA    H16S 1745   6.217   4.936   4.221
    1PA    H16T 1746   6.241   5.097   4.138
    1PA    C115 1747   6.238   5.115   4.349
    1PA    H15R 1748   6.179   5.082   4.435
    1PA    H15S 1749   6.341   5.086   4.370
    1PA    C114 1750   6.219   5.267   4.338
    1PA    H14R 1751   6.266   5.303   4.247
    1PA    H14S 1752   6.115   5.300   4.341
    1PA    C113 1753   6.280   5.347   4.453
    1PA    H13R 1754   6.387   5.333   4.469
    1PA    H13S 1755   6.272   5.454   4.433
    1PA    C112 1756   6.220   5.325   4.593
    1PA    H12R 1757   6.113   5.345   4.593
    1PA    H12S 1758   6.236   5.221   4.622
    1PA    C111 1759   6.285   5.420   4.693
    1PA    H11R 1760   6.389   5.446   4.669
    1PA    H11S 1761   6.230   5.514   4.699
    1PA    C110 1762   6.305   5.341   4.823
    1PA    H10R 1763   6.353   5.247   4.796
    1PA    H10S 1764   6.374   5.383   4.896
    1PA     C19 1765   6.173   5.300   4.890
    1PA     H9R 1766   6.104   5.253   4.819
    1PA     H9S 1767   6.191   5.225   4.967
    1PA     C18 1768   6.104   5.420   4.957
    1PA     H8R 1769   6.175   5.454   5.033
    1PA     H8S 1770   6.093   5.500   4.883
    1PA     C17 1771   5.968   5.379   5.014
    1PA     H7R 1772   5.915   5.335   4.930
    1PA     H7S 1773   5.980   5.303   5.092
    1PA     C16 1774   5.898   5.502   5.075
    1PA     H6R 1775   5.955   5.538   5.160
    1PA     H6S 1776   5.905   5.579   4.998
    1PA     C15 1777   5.761   5.457   5.128
    1PA     H5R 1778   5.689   5.439   5.048
    1PA     H5S 1779   5.773   5.363   5.183
    1PA     C14 1780   5.700   5.569   5.213
    1PA     H4R 1781   5.761   5.617   5.290
    1PA     H4S 1782   5.676   5.649   5.141
    1PA     C13 1783   5.567   5.521   5.272
    1PA     H3R 1784   5.510   5.612   5.293
    1PA     H3S 1785   5.513   5.453   5.206
    1PA     C12 1786   5.588   5.447   5.405
    1PA     H2R 1787   5.488   5.422   5.442
    1PA     H2S 1788   5.640   5.353   5.383
    2PC     C11 1789   5.664   5.520   5.513
    2PC     O12 1790   5.622   5.617   5.571
    2PC     O11 1791   5.783   5.464   5.540
    2PC      C1 1792   5.853   5.500   5.660
    2PC      HR 1793   5.957   5.466   5.651
    2PC      HS 1794   5.857   5.609   5.668
    2PC      C2 1795   5.782   5.447   5.785
    2PC      HX 1796   5.672   5.452   5.789
    2PC      C3 1797   5.827   5.529   5.907
    2PC      HA 1798   5.817   5.637   5.891
    2PC      HB 1799   5.774   5.500   5.998
    2PC     O31 1800   5.970   5.512   5.915
    2PC     P31 1801   6.066   5.618   5.986
    2PC     O32 1802   6.172   5.521   6.057
    2PC     C31 1803   6.153   5.483   6.195
    2PC     H1A 1804   6.191   5.572   6.246
    2PC     H1B 1805   6.046   5.474   6.216
    2PC     C32 1806   6.230   5.354   6.222
    2PC     H2A 1807   6.184   5.282   6.154
    2PC     H2B 1808   6.337   5.365   6.204
    2PC     N31 1809   6.204   5.295   6.358
    2PC     C33 1810   6.221   5.400   6.463
    2PC     H3A 1811   6.231   5.355   6.562
    2PC     H3B 1812   6.312   5.459   6.444
    2PC     H3C 1813   6.137   5.469   6.453
    2PC     C34 1814   6.070   5.228   6.355
    2PC     H4A 1815   5.993   5.305   6.351
    2PC     H4B 1816   6.057   5.156   6.274
    2PC     H4C 1817   6.056   5.174   6.449
    2PC     C35 1818   6.312   5.193   6.380
    2PC     H5A 1819   6.411   5.233   6.359
    2PC     H5B 1820   6.286   5.103   6.325
    2PC     H5C 1821   6.309   5.185   6.488
    2PC     O33 1822   6.152   5.685   5.886
    2PC     O34 1823   5.990   5.711   6.072
    2PC     O21 1824   5.817   5.309   5.801
    2PC     C21 1825   5.757   5.214   5.728
    2PC     O22 1826   5.664   5.235   5.653
    3OL     C12 1827   5.807   5.074   5.757
    3OL     H2R 1828   5.793   5.050   5.863
    3OL     H2S 1829   5.915   5.090   5.757
    3OL     C13 1830   5.758   4.959   5.669
    3OL     H3R 1831   5.649   4.952   5.677
    3OL     H3S 1832   5.809   4.868   5.701
    3OL     C14 1833   5.799   4.987   5.524
    3OL     H4R 1834   5.906   5.009   5.515
    3OL     H4S 1835   5.752   5.073   5.476
    3OL     C15 1836   5.763   4.865   5.438
    3OL     H5R 1837   5.659   4.839   5.454
    3OL     H5S 1838   5.832   4.791   5.480
    3OL     C16 1839   5.786   4.889   5.288
    3OL     H6R 1840   5.781   4.793   5.237
    3OL     H6S 1841   5.888   4.927   5.283
    3OL     C17 1842   5.695   4.989   5.214
    3OL     H7R 1843   5.707   5.083   5.268
    3OL     H7S 1844   5.590   4.962   5.226
    3OL     C18 1845   5.742   5.020   5.071
    3OL     H8R 1846   5.735   4.926   5.015
    3OL     H8S 1847   5.843   5.062   5.075
    3OL     C19 1848   5.652   5.125   5.011
    3OL     H9R 1849   5.583   5.170   5.082
    3OL    C110 1850   5.633   5.137   4.881
    3OL    H10R 1851   5.539   5.182   4.849
    3OL    C111 1852   5.704   5.070   4.766
    3OL    H11R 1853   5.637   5.006   4.709
    3OL    H11S 1854   5.786   5.009   4.806
    3OL    C112 1855   5.772   5.185   4.690
    3OL    H12R 1856   5.857   5.215   4.752
    3OL    H12S 1857   5.701   5.267   4.681
    3OL    C113 1858   5.826   5.136   4.554
    3OL    H13R 1859   5.877   5.040   4.563
    3OL    H13S 1860   5.904   5.208   4.527
    3OL    C114 1861   5.711   5.136   4.453
    3OL    H14R 1862   5.652   5.228   4.452
    3OL    H14S 1863   5.637   5.068   4.496
    3OL    C115 1864   5.756   5.094   4.312
    3OL    H15R 1865   5.804   4.997   4.308
    3OL    H15S 1866   5.831   5.166   4.278
    3OL    C116 1867   5.649   5.101   4.203
    3OL    H16R 1868   5.692   5.062   4.110
    3OL    H16S 1869   5.617   5.205   4.193
    3OL    C117 1870   5.536   5.002   4.235
    3OL    H17R 1871   5.488   5.031   4.329
    3OL    H17S 1872   5.586   4.906   4.248
    3OL    C118 1873   5.432   5.000   4.122
    3OL    H18R 1874   5.475   4.956   4.032
    3OL    H18S 1875   5.402   5.104   4.106
    3OL    H18T 1876   5.355   4.935   4.164
    1PA    C116 1877   1.911   3.217   4.078
    1PA    H16R 1878   1.922   3.325   4.090
    1PA    H16S 1879   1.849   3.208   3.989
    1PA    H16T 1880   2.004   3.164   4.057
    1PA    C115 1881   1.854   3.163   4.210
    1PA    H15R 1882   1.770   3.228   4.237
    1PA    H15S 1883   1.821   3.060   4.197
    1PA    C114 1884   1.963   3.178   4.317
    1PA    H14R 1885   2.059   3.147   4.275
    1PA    H14S 1886   1.966   3.285   4.340
    1PA    C113 1887   1.924   3.096   4.441
    1PA    H13R 1888   1.971   3.139   4.530
    1PA    H13S 1889   1.815   3.095   4.445
    1PA    C112 1890   1.971   2.949   4.442
    1PA    H12R 1891   1.918   2.891   4.366
    1PA    H12S 1892   2.075   2.955   4.411
    1PA    C111 1893   1.950   2.880   4.577
    1PA    H11R 1894   2.017   2.917   4.655
    1PA    H11S 1895   1.851   2.899   4.619
    1PA    C110 1896   1.977   2.729   4.577
    1PA    H10R 1897   1.931   2.676   4.493
    1PA    H10S 1898   2.083   2.704   4.574
    1PA     C19 1899   1.923   2.668   4.707
    1PA     H9R 1900   1.983   2.699   4.793
    1PA     H9S 1901   1.819   2.696   4.720
    1PA     C18 1902   1.929   2.515   4.699
    1PA     H8R 1903   1.843   2.476   4.643
    1PA     H8S 1904   2.018   2.478   4.647
    1PA     C17 1905   1.934   2.445   4.835
    1PA     H7R 1906   1.987   2.351   4.817
    1PA     H7S 1907   1.991   2.496   4.913
    1PA     C16 1908   1.792   2.413   4.883
    1PA     H6R 1909   1.744   2.511   4.890
    1PA     H6S 1910   1.743   2.342   4.816
    1PA     C15 1911   1.788   2.353   5.024
    1PA     H5R 1912   1.844   2.259   5.015
    1PA     H5S 1913   1.847   2.407   5.097
    1PA     C14 1914   1.644   2.341   5.077
    1PA     H4R 1915   1.587   2.434   5.068
    1PA     H4S 1916   1.588   2.275   5.010
    1PA     C13 1917   1.650   2.289   5.221
    1PA     H3R 1918   1.695   2.189   5.221
    1PA     H3S 1919   1.703   2.357   5.286
    1PA     C12 1920   1.504   2.267   5.263
    1PA     H2R 1921   1.450   2.361   5.245
    1PA     H2S 1922   1.457   2.186   5.207
    2PC     C11 1923   1.479   2.228   5.406
    2PC     O12 1924   1.368   2.230   5.455
    2PC     O11 1925   1.586   2.179   5.472
    2PC      C1 1926   1.572   2.147   5.611
    2PC      HR 1927   1.672   2.142   5.656
    2PC      HS 1928   1.515   2.227   5.660
    2PC      C2 1929   1.498   2.013   5.615
    2PC      HX 1930   1.392   2.028   5.592
    2PC      C3 1931   1.499   1.962   5.760
    2PC      HA 1932   1.457   2.043   5.821
    2PC      HB 1933   1.431   1.877   5.758
    2PC     O31 1934   1.631   1.924   5.802
    2PC     P31 1935   1.642   1.852   5.945
    2PC     O32 1936   1.623   1.976   6.045
    2PC     C31 1937   1.498   1.980   6.117
    2PC     H1A 1938   1.418   1.984   6.043
    2PC     H1B 1939   1.489   1.882   6.163
    2PC     C32 1940   1.483   2.096   6.217
    2PC     H2A 1941   1.510   2.193   6.175
    2PC     H2B 1942   1.379   2.104   6.248
    2PC     N31 1943   1.563   2.086   6.343
    2PC     C33 1944   1.541   1.955   6.412
    2PC     H3A 1945   1.439   1.918   6.408
    2PC     H3B 1946   1.613   1.891   6.360
    2PC     H3C 1947   1.576   1.972   6.514
    2PC     C34 1948   1.705   2.107   6.300
    2PC     H4A 1949   1.776   2.117   6.383
    2PC     H4B 1950   1.728   2.018   6.241
    2PC     H4C 1951   1.705   2.196   6.237
    2PC     C35 1952   1.534   2.201   6.436
    2PC     H5A 1953   1.474   2.160   6.518
    2PC     H5B 1954   1.479   2.281   6.387
    2PC     H5C 1955   1.628   2.244   6.472
    2PC     O33 1956   1.550   1.741   5.980
    2PC     O34 1957   1.776   1.789   5.958
    2PC     O21 1958   1.567   1.926   5.523
    2PC     C21 1959   1.534   1.799   5.495
    2PC     O22 1960   1.436   1.745   5.543
    3OL     C12 1961   1.622   1.737   5.390
    3OL     H2R 1962   1.626   1.631   5.418
    3OL     H2S 1963   1.722   1.780   5.395
    3OL     C13 1964   1.561   1.737   5.249
    3OL     H3R 1965   1.459   1.696   5.249
    3OL     H3S 1966   1.629   1.681   5.186
    3OL     C14 1967   1.532   1.879   5.198
    3OL     H4R 1968   1.626   1.932   5.183
    3OL     H4S 1969   1.470   1.934   5.270
    3OL     C15 1970   1.455   1.889   5.066
    3OL     H5R 1971   1.393   1.979   5.061
    3OL     H5S 1972   1.379   1.812   5.072
    3OL     C16 1973   1.540   1.865   4.940
    3OL     H6R 1974   1.599   1.775   4.961
    3OL     H6S 1975   1.606   1.951   4.928
    3OL     C17 1976   1.452   1.844   4.816
    3OL     H7R 1977   1.394   1.936   4.808
    3OL     H7S 1978   1.383   1.760   4.828
    3OL     C18 1979   1.531   1.822   4.686
    3OL     H8R 1980   1.603   1.742   4.702
    3OL     H8S 1981   1.580   1.916   4.656
    3OL     C19 1982   1.435   1.765   4.585
    3OL     H9R 1983   1.339   1.729   4.622
    3OL    C110 1984   1.460   1.746   4.457
    3OL    H10R 1985   1.383   1.695   4.400
    3OL    C111 1986   1.585   1.783   4.381
    3OL    H11R 1987   1.641   1.690   4.365
    3OL    H11S 1988   1.648   1.848   4.443
    3OL    C112 1989   1.555   1.858   4.251
    3OL    H12R 1990   1.500   1.952   4.263
    3OL    H12S 1991   1.491   1.800   4.183
    3OL    C113 1992   1.680   1.901   4.173
    3OL    H13R 1993   1.733   1.976   4.232
    3OL    H13S 1994   1.648   1.953   4.083
    3OL    C114 1995   1.767   1.779   4.137
    3OL    H14R 1996   1.780   1.721   4.229
    3OL    H14S 1997   1.866   1.819   4.114
    3OL    C115 1998   1.720   1.686   4.025
    3OL    H15R 1999   1.629   1.639   4.065
    3OL    H15S 2000   1.793   1.605   4.012
    3OL    C116 2001   1.711   1.753   3.887
    3OL    H16R 2002   1.812   1.775   3.852
    3OL    H16S 2003   1.650   1.844   3.890
    3OL    C117 2004   1.641   1.672   3.777
    3OL    H17R 2005   1.643   1.728   3.683
    3OL    H17S 2006   1.535   1.663   3.803
    3OL    C118 2007   1.694   1.528   3.765
    3OL    H18R 2008   1.636   1.471   3.693
    3OL    H18S 2009   1.657   1.482   3.857
    3OL    H18T 2010   1.803   1.529   3.755
    1PA    C116 2011   1.530   5.401   3.864
    1PA    H16R 2012   1.513   5.508   3.850
    1PA    H16S 2013   1.436   5.348   3.847
    1PA    H16T 2014   1.594   5.365   3.782
    1PA    C115 2015   1.592   5.363   3.999
    1PA    H15R 2016   1.627   5.260   3.989
    1PA    H15S 2017   1.676   5.428   4.025
    1PA    C114 2018   1.485   5.367   4.109
    1PA    H14R 2019   1.464   5.470   4.139
    1PA    H14S 2020   1.389   5.331   4.074
    1PA    C113 2021   1.545   5.292   4.229
    1PA    H13R 2022   1.529   5.187   4.203
    1PA    H13S 2023   1.653   5.305   4.227
    1PA    C112 2024   1.473   5.322   4.361
    1PA    H12R 2025   1.479   5.430   4.377
    1PA    H12S 2026   1.371   5.292   4.337
    1PA    C111 2027   1.531   5.238   4.476
    1PA    H11R 2028   1.518   5.133   4.448
    1PA    H11S 2029   1.636   5.264   4.480
    1PA    C110 2030   1.459   5.270   4.607
    1PA    H10R 2031   1.459   5.374   4.643
    1PA    H10S 2032   1.352   5.247   4.602
    1PA     C19 2033   1.519   5.180   4.716
    1PA     H9R 2034   1.440   5.144   4.782
    1PA     H9S 2035   1.547   5.084   4.670
    1PA     C18 2036   1.633   5.253   4.788
    1PA     H8R 2037   1.716   5.253   4.718
    1PA     H8S 2038   1.599   5.351   4.822
    1PA     C17 2039   1.682   5.178   4.913
    1PA     H7R 2040   1.718   5.081   4.878
    1PA     H7S 2041   1.775   5.226   4.947
    1PA     C16 2042   1.578   5.184   5.026
    1PA     H6R 2043   1.558   5.286   5.058
    1PA     H6S 2044   1.488   5.150   4.975
    1PA     C15 2045   1.614   5.094   5.144
    1PA     H5R 2046   1.640   4.995   5.104
    1PA     H5S 2047   1.704   5.133   5.193
    1PA     C14 2048   1.500   5.087   5.246
    1PA     H4R 2049   1.487   5.184   5.294
    1PA     H4S 2050   1.405   5.060   5.200
    1PA     C13 2051   1.530   4.995   5.366
    1PA     H3R 2052   1.558   4.894   5.335
    1PA     H3S 2053   1.626   5.038   5.396
    1PA     C12 2054   1.424   5.009   5.476
    1PA     H2R 2055   1.457   4.964   5.570
    1PA     H2S 2056   1.390   5.111   5.495
    2PC     C11 2057   1.297   4.934   5.442
    2PC     O12 2058   1.237   4.942   5.337
    2PC     O11 2059   1.270   4.848   5.541
    2PC      C1 2060   1.176   4.740   5.521
    2PC      HR 2061   1.124   4.724   5.615
    2PC      HS 2062   1.117   4.776   5.436
    2PC      C2 2063   1.257   4.615   5.483
    2PC      HX 2064   1.189   4.533   5.457
    2PC      C3 2065   1.337   4.570   5.606
    2PC      HA 2066   1.388   4.476   5.585
    2PC      HB 2067   1.406   4.653   5.620
    2PC     O31 2068   1.252   4.549   5.721
    2PC     P31 2069   1.322   4.479   5.847
    2PC     O32 2070   1.221   4.355   5.862
    2PC     C31 2071   1.184   4.281   5.745
    2PC     H1A 2072   1.107   4.343   5.696
    2PC     H1B 2073   1.267   4.266   5.676
    2PC     C32 2074   1.131   4.142   5.781
    2PC     H2A 2075   1.219   4.085   5.810
    2PC     H2B 2076   1.068   4.146   5.870
    2PC     N31 2077   1.060   4.065   5.673
    2PC     C33 2078   0.940   4.137   5.618
    2PC     H3A 2079   0.977   4.237   5.597
    2PC     H3B 2080   0.888   4.091   5.534
    2PC     H3C 2081   0.861   4.142   5.693
    2PC     C34 2082   1.147   4.027   5.557
    2PC     H4A 2083   1.176   4.116   5.502
    2PC     H4B 2084   1.234   3.973   5.594
    2PC     H4C 2085   1.094   3.956   5.494
    2PC     C35 2086   1.019   3.934   5.732
    2PC     H5A 2087   0.957   3.963   5.817
    2PC     H5B 2088   1.107   3.878   5.763
    2PC     H5C 2089   0.955   3.875   5.665
    2PC     O33 2090   1.459   4.427   5.828
    2PC     O34 2091   1.324   4.560   5.971
    2PC     O21 2092   1.351   4.633   5.376
    2PC     C21 2093   1.381   4.544   5.280
    2PC     O22 2094   1.319   4.441   5.266
    3OL     C12 2095   1.502   4.578   5.197
    3OL     H2R 2096   1.548   4.485   5.161
    3OL     H2S 2097   1.574   4.634   5.257
    3OL     C13 2098   1.454   4.669   5.084
    3OL     H3R 2099   1.408   4.759   5.124
    3OL     H3S 2100   1.377   4.623   5.022
    3OL     C14 2101   1.578   4.701   4.999
    3OL     H4R 2102   1.616   4.611   4.950
    3OL     H4S 2103   1.658   4.745   5.058
    3OL     C15 2104   1.554   4.817   4.901
    3OL     H5R 2105   1.652   4.858   4.874
    3OL     H5S 2106   1.492   4.890   4.954
    3OL     C16 2107   1.491   4.753   4.777
    3OL     H6R 2108   1.412   4.815   4.735
    3OL     H6S 2109   1.444   4.658   4.806
    3OL     C17 2110   1.607   4.733   4.679
    3OL     H7R 2111   1.678   4.665   4.725
    3OL     H7S 2112   1.656   4.829   4.662
    3OL     C18 2113   1.555   4.664   4.551
    3OL     H8R 2114   1.472   4.720   4.506
    3OL     H8S 2115   1.514   4.566   4.578
    3OL     C19 2116   1.668   4.644   4.453
    3OL     H9R 2117   1.709   4.544   4.455
    3OL    C110 2118   1.692   4.721   4.349
    3OL    H10R 2119   1.765   4.687   4.276
    3OL    C111 2120   1.638   4.861   4.332
    3OL    H11R 2121   1.716   4.934   4.310
    3OL    H11S 2122   1.584   4.892   4.422
    3OL    C112 2123   1.532   4.856   4.221
    3OL    H12R 2124   1.486   4.955   4.216
    3OL    H12S 2125   1.450   4.790   4.251
    3OL    C113 2126   1.581   4.811   4.083
    3OL    H13R 2127   1.611   4.706   4.096
    3OL    H13S 2128   1.664   4.878   4.060
    3OL    C114 2129   1.473   4.803   3.974
    3OL    H14R 2130   1.380   4.763   4.015
    3OL    H14S 2131   1.504   4.737   3.893
    3OL    C115 2132   1.440   4.939   3.913
    3OL    H15R 2133   1.529   4.979   3.862
    3OL    H15S 2134   1.422   5.007   3.996
    3OL    C116 2135   1.316   4.942   3.823
    3OL    H16R 2136   1.298   5.038   3.774
    3OL    H16S 2137   1.227   4.924   3.884
    3OL    C117 2138   1.322   4.837   3.711
    3OL    H17R 2139   1.355   4.739   3.745
    3OL    H17S 2140   1.385   4.886   3.637
    3OL    C118 2141   1.180   4.828   3.651
    3OL    H18R 2142   1.167   4.915   3.587
    3OL    H18S 2143   1.102   4.815   3.726
    3OL    H18T 2144   1.186   4.744   3.582
    1PA    C116 2145   2.373   2.708   3.838
    1PA    H16R 2146   2.396   2.717   3.945
    1PA    H16S 2147   2.330   2.608   3.827
    1PA    H16T 2148   2.297   2.787   3.827
    1PA    C115 2149   2.496   2.727   3.749
    1PA    H15R 2150   2.575   2.656   3.775
    1PA    H15S 2151   2.467   2.711   3.645
    1PA    C114 2152   2.560   2.866   3.757
    1PA    H14R 2153   2.628   2.886   3.674
    1PA    H14S 2154   2.484   2.944   3.746
    1PA    C113 2155   2.634   2.880   3.891
    1PA    H13R 2156   2.566   2.856   3.972
    1PA    H13S 2157   2.718   2.810   3.897
    1PA    C112 2158   2.713   3.011   3.912
    1PA    H12R 2159   2.805   2.989   3.859
    1PA    H12S 2160   2.659   3.092   3.864
    1PA    C111 2161   2.747   3.037   4.060
    1PA    H11R 2162   2.672   3.000   4.129
    1PA    H11S 2163   2.841   2.991   4.090
    1PA    C110 2164   2.756   3.187   4.094
    1PA    H10R 2165   2.819   3.232   4.018
    1PA    H10S 2166   2.662   3.241   4.084
    1PA     C19 2167   2.826   3.213   4.228
    1PA     H9R 2168   2.924   3.166   4.233
    1PA     H9S 2169   2.862   3.316   4.218
    1PA     C18 2170   2.741   3.189   4.353
    1PA     H8R 2171   2.650   3.251   4.347
    1PA     H8S 2172   2.716   3.083   4.353
    1PA     C17 2173   2.820   3.223   4.480
    1PA     H7R 2174   2.906   3.155   4.481
    1PA     H7S 2175   2.848   3.328   4.476
    1PA     C16 2176   2.722   3.199   4.596
    1PA     H6R 2177   2.629   3.254   4.577
    1PA     H6S 2178   2.705   3.091   4.608
    1PA     C15 2179   2.780   3.243   4.731
    1PA     H5R 2180   2.868   3.185   4.756
    1PA     H5S 2181   2.813   3.347   4.718
    1PA     C14 2182   2.672   3.227   4.839
    1PA     H4R 2183   2.586   3.287   4.813
    1PA     H4S 2184   2.641   3.122   4.834
    1PA     C13 2185   2.733   3.283   4.969
    1PA     H3R 2186   2.815   3.221   5.005
    1PA     H3S 2187   2.772   3.384   4.960
    1PA     C12 2188   2.619   3.284   5.072
    1PA     H2R 2189   2.535   3.346   5.041
    1PA     H2S 2190   2.577   3.184   5.083
    2PC     C11 2191   2.667   3.343   5.202
    2PC     O12 2192   2.628   3.453   5.233
    2PC     O11 2193   2.756   3.264   5.265
    2PC      C1 2194   2.836   3.330   5.365
    2PC      HR 2195   2.846   3.438   5.349
    2PC      HS 2196   2.779   3.335   5.458
    2PC      C2 2197   2.971   3.260   5.390
    2PC      HX 2198   2.963   3.155   5.416
    2PC      C3 2199   3.044   3.332   5.504
    2PC      HA 2200   3.061   3.437   5.477
    2PC      HB 2201   2.996   3.346   5.601
    2PC     O31 2202   3.168   3.266   5.531
    2PC     P31 2203   3.277   3.336   5.626
    2PC     O32 2204   3.257   3.283   5.776
    2PC     C31 2205   3.333   3.346   5.880
    2PC     H1A 2206   3.430   3.298   5.891
    2PC     H1B 2207   3.338   3.454   5.866
    2PC     C32 2208   3.262   3.317   6.013
    2PC     H2A 2209   3.155   3.340   6.007
    2PC     H2B 2210   3.260   3.211   6.036
    2PC     N31 2211   3.324   3.373   6.138
    2PC     C33 2212   3.368   3.516   6.125
    2PC     H3A 2213   3.279   3.579   6.111
    2PC     H3B 2214   3.419   3.545   6.217
    2PC     H3C 2215   3.421   3.524   6.030
    2PC     C34 2216   3.220   3.365   6.245
    2PC     H4A 2217   3.260   3.413   6.335
    2PC     H4B 2218   3.126   3.408   6.210
    2PC     H4C 2219   3.200   3.260   6.262
    2PC     C35 2220   3.434   3.285   6.190
    2PC     H5A 2221   3.525   3.299   6.132
    2PC     H5B 2222   3.403   3.182   6.172
    2PC     H5C 2223   3.441   3.311   6.296
    2PC     O33 2224   3.413   3.307   5.572
    2PC     O34 2225   3.247   3.480   5.614
    2PC     O21 2226   3.048   3.279   5.270
    2PC     C21 2227   3.094   3.163   5.220
    2PC     O22 2228   3.088   3.053   5.270
    3OL     C12 2229   3.147   3.194   5.083
    3OL     H2R 2230   3.249   3.233   5.092
    3OL     H2S 2231   3.079   3.267   5.037
    3OL     C13 2232   3.155   3.067   4.997
    3OL     H3R 2233   3.057   3.023   4.978
    3OL     H3S 2234   3.222   2.988   5.031
    3OL     C14 2235   3.217   3.111   4.863
    3OL     H4R 2236   3.303   3.178   4.866
    3OL     H4S 2237   3.132   3.163   4.817
    3OL     C15 2238   3.251   2.993   4.771
    3OL     H5R 2239   3.165   2.935   4.738
    3OL     H5S 2240   3.314   2.912   4.807
    3OL     C16 2241   3.319   3.048   4.645
    3OL     H6R 2242   3.410   3.097   4.682
    3OL     H6S 2243   3.259   3.119   4.589
    3OL     C17 2244   3.376   2.938   4.554
    3OL     H7R 2245   3.438   2.866   4.607
    3OL     H7S 2246   3.450   2.987   4.490
    3OL     C18 2247   3.271   2.862   4.472
    3OL     H8R 2248   3.225   2.784   4.533
    3OL     H8S 2249   3.316   2.795   4.399
    3OL     C19 2250   3.173   2.950   4.399
    3OL     H9R 2251   3.075   2.963   4.445
    3OL    C110 2252   3.194   3.006   4.281
    3OL    H10R 2253   3.111   3.065   4.244
    3OL    C111 2254   3.317   2.996   4.194
    3OL    H11R 2255   3.390   2.926   4.236
    3OL    H11S 2256   3.355   3.098   4.183
    3OL    C112 2257   3.286   2.947   4.052
    3OL    H12R 2258   3.377   2.958   3.992
    3OL    H12S 2259   3.207   3.009   4.009
    3OL    C113 2260   3.246   2.799   4.054
    3OL    H13R 2261   3.190   2.769   3.966
    3OL    H13S 2262   3.177   2.787   4.138
    3OL    C114 2263   3.366   2.704   4.067
    3OL    H14R 2264   3.413   2.712   4.165
    3OL    H14S 2265   3.444   2.736   3.998
    3OL    C115 2266   3.326   2.565   4.013
    3OL    H15R 2267   3.317   2.570   3.905
    3OL    H15S 2268   3.238   2.530   4.067
    3OL    C116 2269   3.436   2.469   4.060
    3OL    H16R 2270   3.419   2.365   4.034
    3OL    H16S 2271   3.442   2.481   4.168
    3OL    C117 2272   3.573   2.494   3.995
    3OL    H17R 2273   3.644   2.441   4.060
    3OL    H17S 2274   3.598   2.600   3.989
    3OL    C118 2275   3.578   2.425   3.858
    3OL    H18R 2276   3.656   2.470   3.797
    3OL    H18S 2277   3.487   2.447   3.801
    3OL    H18T 2278   3.576   2.316   3.863
    1PA    C116 2279   4.079   3.872   3.668
    1PA    H16R 2280   4.166   3.916   3.619
    1PA    H16S 2281   3.993   3.923   3.622
    1PA    H16T 2282   4.072   3.765   3.647
    1PA    C115 2283   4.080   3.898   3.819
    1PA    H15R 2284   4.154   3.826   3.854
    1PA    H15S 2285   4.122   3.997   3.837
    1PA    C114 2286   3.943   3.892   3.889
    1PA    H14R 2287   3.958   3.908   3.996
    1PA    H14S 2288   3.882   3.980   3.866
    1PA    C113 2289   3.862   3.764   3.867
    1PA    H13R 2290   3.869   3.710   3.772
    1PA    H13S 2291   3.906   3.704   3.947
    1PA    C112 2292   3.713   3.791   3.893
    1PA    H12R 2293   3.697   3.818   3.997
    1PA    H12S 2294   3.698   3.877   3.828
    1PA    C111 2295   3.608   3.687   3.851
    1PA    H11R 2296   3.517   3.739   3.822
    1PA    H11S 2297   3.632   3.629   3.762
    1PA    C110 2298   3.570   3.590   3.964
    1PA    H10R 2299   3.504   3.637   4.038
    1PA    H10S 2300   3.507   3.516   3.913
    1PA     C19 2301   3.685   3.517   4.034
    1PA     H9R 2302   3.742   3.460   3.961
    1PA     H9S 2303   3.755   3.597   4.062
    1PA     C18 2304   3.651   3.420   4.148
    1PA     H8R 2305   3.613   3.484   4.229
    1PA     H8S 2306   3.572   3.356   4.108
    1PA     C17 2307   3.765   3.344   4.217
    1PA     H7R 2308   3.813   3.275   4.148
    1PA     H7S 2309   3.848   3.407   4.247
    1PA     C16 2310   3.712   3.266   4.338
    1PA     H6R 2311   3.669   3.336   4.410
    1PA     H6S 2312   3.632   3.205   4.296
    1PA     C15 2313   3.814   3.175   4.407
    1PA     H5R 2314   3.862   3.115   4.329
    1PA     H5S 2315   3.889   3.241   4.452
    1PA     C14 2316   3.757   3.074   4.508
    1PA     H4R 2317   3.669   3.021   4.471
    1PA     H4S 2318   3.839   3.004   4.527
    1PA     C13 2319   3.715   3.159   4.629
    1PA     H3R 2320   3.788   3.235   4.655
    1PA     H3S 2321   3.634   3.225   4.599
    1PA     C12 2322   3.684   3.070   4.751
    1PA     H2R 2323   3.582   3.032   4.741
    1PA     H2S 2324   3.753   2.986   4.761
    2PC     C11 2325   3.680   3.148   4.880
    2PC     O12 2326   3.589   3.218   4.918
    2PC     O11 2327   3.790   3.122   4.953
    2PC      C1 2328   3.787   3.189   5.080
    2PC      HR 2329   3.787   3.299   5.075
    2PC      HS 2330   3.709   3.158   5.150
    2PC      C2 2331   3.927   3.164   5.138
    2PC      HX 2332   3.944   3.056   5.130
    2PC      C3 2333   3.935   3.217   5.282
    2PC      HA 2334   3.865   3.158   5.341
    2PC      HB 2335   4.031   3.199   5.332
    2PC     O31 2336   3.896   3.355   5.278
    2PC     P31 2337   3.900   3.433   5.419
    2PC     O32 2338   3.797   3.553   5.394
    2PC     C31 2339   3.655   3.539   5.411
    2PC     H1A 2340   3.628   3.448   5.356
    2PC     H1B 2341   3.629   3.516   5.515
    2PC     C32 2342   3.583   3.661   5.353
    2PC     H2A 2343   3.636   3.751   5.386
    2PC     H2B 2344   3.587   3.669   5.244
    2PC     N31 2345   3.436   3.676   5.380
    2PC     C33 2346   3.412   3.707   5.524
    2PC     H3A 2347   3.307   3.730   5.543
    2PC     H3B 2348   3.442   3.626   5.591
    2PC     H3C 2349   3.473   3.794   5.549
    2PC     C34 2350   3.378   3.786   5.296
    2PC     H4A 2351   3.419   3.753   5.201
    2PC     H4B 2352   3.269   3.787   5.286
    2PC     H4C 2353   3.420   3.883   5.326
    2PC     C35 2354   3.366   3.551   5.337
    2PC     H5A 2355   3.394   3.469   5.405
    2PC     H5B 2356   3.383   3.522   5.233
    2PC     H5C 2357   3.260   3.569   5.351
    2PC     O33 2358   3.874   3.351   5.539
    2PC     O34 2359   4.042   3.474   5.434
    2PC     O21 2360   4.026   3.233   5.057
    2PC     C21 2361   4.156   3.215   5.082
    2PC     O22 2362   4.196   3.134   5.163
    3OL     C12 2363   4.233   3.318   5.004
    3OL     H2R 2364   4.336   3.283   4.994
    3OL     H2S 2365   4.235   3.400   5.076
    3OL     C13 2366   4.171   3.376   4.876
    3OL     H3R 2367   4.072   3.414   4.899
    3OL     H3S 2368   4.166   3.300   4.798
    3OL     C14 2369   4.255   3.491   4.818
    3OL     H4R 2370   4.350   3.449   4.784
    3OL     H4S 2371   4.276   3.564   4.896
    3OL     C15 2372   4.185   3.557   4.699
    3OL     H5R 2373   4.123   3.639   4.736
    3OL     H5S 2374   4.126   3.480   4.650
    3OL     C16 2375   4.280   3.613   4.592
    3OL     H6R 2376   4.349   3.539   4.551
    3OL     H6S 2377   4.350   3.682   4.639
    3OL     C17 2378   4.211   3.687   4.476
    3OL     H7R 2379   4.177   3.783   4.515
    3OL     H7S 2380   4.131   3.616   4.453
    3OL     C18 2381   4.299   3.682   4.351
    3OL     H8R 2382   4.320   3.576   4.334
    3OL     H8S 2383   4.387   3.743   4.372
    3OL     C19 2384   4.222   3.751   4.242
    3OL     H9R 2385   4.171   3.840   4.278
    3OL    C110 2386   4.180   3.708   4.123
    3OL    H10R 2387   4.107   3.776   4.080
    3OL    C111 2388   4.243   3.601   4.038
    3OL    H11R 2389   4.348   3.595   4.067
    3OL    H11S 2390   4.229   3.641   3.937
    3OL    C112 2391   4.166   3.470   4.062
    3OL    H12R 2392   4.062   3.482   4.033
    3OL    H12S 2393   4.179   3.432   4.163
    3OL    C113 2394   4.215   3.368   3.958
    3OL    H13R 2395   4.324   3.365   3.961
    3OL    H13S 2396   4.177   3.403   3.861
    3OL    C114 2397   4.144   3.239   4.001
    3OL    H14R 2398   4.036   3.249   3.998
    3OL    H14S 2399   4.168   3.217   4.105
    3OL    C115 2400   4.196   3.131   3.905
    3OL    H15R 2401   4.235   3.173   3.812
    3OL    H15S 2402   4.115   3.067   3.870
    3OL    C116 2403   4.304   3.042   3.968
    3OL    H16R 2404   4.268   2.986   4.054
    3OL    H16S 2405   4.378   3.107   4.016
    3OL    C117 2406   4.364   2.944   3.866
    3OL    H17R 2407   4.460   2.924   3.914
    3OL    H17S 2408   4.387   2.993   3.772
    3OL    C118 2409   4.281   2.818   3.837
    3OL    H18R 2410   4.336   2.743   3.781
    3OL    H18S 2411   4.189   2.837   3.781
    3OL    H18T 2412   4.258   2.772   3.934
    1PA    C116 2413   4.075   1.859   4.288
    1PA    H16R 2414   4.128   1.788   4.225
    1PA    H16S 2415   4.138   1.908   4.363
    1PA    H16T 2416   4.027   1.933   4.225
    1PA    C115 2417   3.968   1.782   4.366
    1PA    H15R 2418   4.016   1.706   4.428
    1PA    H15S 2419   3.912   1.842   4.437
    1PA    C114 2420   3.864   1.717   4.273
    1PA    H14R 2421   3.800   1.792   4.225
    1PA    H14S 2422   3.913   1.654   4.200
    1PA    C113 2423   3.763   1.633   4.352
    1PA    H13R 2424   3.814   1.543   4.386
    1PA    H13S 2425   3.729   1.696   4.435
    1PA    C112 2426   3.643   1.573   4.278
    1PA    H12R 2427   3.591   1.646   4.216
    1PA    H12S 2428   3.681   1.493   4.214
    1PA    C111 2429   3.546   1.513   4.382
    1PA    H11R 2430   3.581   1.426   4.437
    1PA    H11S 2431   3.516   1.584   4.459
    1PA    C110 2432   3.420   1.466   4.308
    1PA    H10R 2433   3.384   1.552   4.252
    1PA    H10S 2434   3.438   1.380   4.244
    1PA     C19 2435   3.313   1.425   4.410
    1PA     H9R 2436   3.356   1.351   4.478
    1PA     H9S 2437   3.294   1.511   4.474
    1PA     C18 2438   3.180   1.378   4.349
    1PA     H8R 2439   3.129   1.460   4.298
    1PA     H8S 2440   3.190   1.300   4.273
    1PA     C17 2441   3.082   1.328   4.456
    1PA     H7R 2442   3.134   1.240   4.494
    1PA     H7S 2443   3.072   1.398   4.539
    1PA     C16 2444   2.944   1.286   4.404
    1PA     H6R 2445   2.905   1.371   4.347
    1PA     H6S 2446   2.955   1.198   4.341
    1PA     C15 2447   2.850   1.240   4.517
    1PA     H5R 2448   2.886   1.148   4.563
    1PA     H5S 2449   2.822   1.319   4.588
    1PA     C14 2450   2.718   1.206   4.446
    1PA     H4R 2451   2.684   1.281   4.374
    1PA     H4S 2452   2.738   1.122   4.379
    1PA     C13 2453   2.607   1.174   4.547
    1PA     H3R 2454   2.636   1.083   4.600
    1PA     H3S 2455   2.597   1.253   4.621
    1PA     C12 2456   2.474   1.141   4.478
    1PA     H2R 2457   2.436   1.226   4.421
    1PA     H2S 2458   2.472   1.053   4.413
    2PC     C11 2459   2.374   1.114   4.587
    2PC     O12 2460   2.385   1.015   4.657
    2PC     O11 2461   2.272   1.201   4.585
    2PC      C1 2462   2.169   1.191   4.685
    2PC      HR 2463   2.081   1.251   4.659
    2PC      HS 2464   2.127   1.090   4.681
    2PC      C2 2465   2.228   1.223   4.823
    2PC      HX 2466   2.315   1.164   4.854
    2PC      C3 2467   2.119   1.206   4.930
    2PC      HA 2468   2.022   1.244   4.896
    2PC      HB 2469   2.101   1.102   4.956
    2PC     O31 2470   2.153   1.279   5.049
    2PC     P31 2471   2.033   1.302   5.153
    2PC     O32 2472   2.108   1.282   5.293
    2PC     C31 2473   2.179   1.159   5.315
    2PC     H1A 2474   2.110   1.078   5.339
    2PC     H1B 2475   2.227   1.131   5.221
    2PC     C32 2476   2.288   1.176   5.422
    2PC     H2A 2477   2.314   1.071   5.438
    2PC     H2B 2478   2.368   1.235   5.375
    2PC     N31 2479   2.249   1.242   5.550
    2PC     C33 2480   2.359   1.237   5.652
    2PC     H3A 2481   2.369   1.333   5.702
    2PC     H3B 2482   2.335   1.157   5.723
    2PC     H3C 2483   2.456   1.223   5.603
    2PC     C34 2484   2.207   1.383   5.519
    2PC     H4A 2485   2.106   1.371   5.479
    2PC     H4B 2486   2.198   1.448   5.605
    2PC     H4C 2487   2.285   1.413   5.449
    2PC     C35 2488   2.130   1.169   5.604
    2PC     H5A 2489   2.040   1.191   5.547
    2PC     H5B 2490   2.112   1.205   5.705
    2PC     H5C 2491   2.141   1.061   5.591
    2PC     O33 2492   1.968   1.435   5.153
    2PC     O34 2493   1.919   1.208   5.150
    2PC     O21 2494   2.242   1.365   4.804
    2PC     C21 2495   2.370   1.405   4.801
    2PC     O22 2496   2.468   1.335   4.808
    3OL     C12 2497   2.372   1.553   4.769
    3OL     H2R 2498   2.356   1.565   4.662
    3OL     H2S 2499   2.474   1.579   4.796
    3OL     C13 2500   2.280   1.634   4.861
    3OL     H3R 2501   2.308   1.618   4.965
    3OL     H3S 2502   2.180   1.593   4.843
    3OL     C14 2503   2.302   1.785   4.846
    3OL     H4R 2504   2.403   1.811   4.877
    3OL     H4S 2505   2.226   1.839   4.904
    3OL     C15 2506   2.278   1.833   4.701
    3OL     H5R 2507   2.173   1.816   4.677
    3OL     H5S 2508   2.339   1.771   4.635
    3OL     C16 2509   2.315   1.981   4.687
    3OL     H6R 2510   2.412   2.007   4.731
    3OL     H6S 2511   2.243   2.042   4.742
    3OL     C17 2512   2.324   2.035   4.544
    3OL     H7R 2513   2.320   2.144   4.551
    3OL     H7S 2514   2.234   1.999   4.493
    3OL     C18 2515   2.450   1.983   4.474
    3OL     H8R 2516   2.475   1.880   4.499
    3OL     H8S 2517   2.529   2.035   4.527
    3OL     C19 2518   2.446   2.009   4.325
    3OL     H9R 2519   2.357   1.977   4.272
    3OL    C110 2520   2.544   2.072   4.262
    3OL    H10R 2521   2.539   2.104   4.158
    3OL    C111 2522   2.676   2.113   4.323
    3OL    H11R 2523   2.744   2.120   4.237
    3OL    H11S 2524   2.706   2.028   4.385
    3OL    C112 2525   2.676   2.245   4.400
    3OL    H12R 2526   2.621   2.246   4.494
    3OL    H12S 2527   2.615   2.319   4.348
    3OL    C113 2528   2.818   2.304   4.397
    3OL    H13R 2529   2.822   2.411   4.418
    3OL    H13S 2530   2.858   2.302   4.296
    3OL    C114 2531   2.909   2.222   4.490
    3OL    H14R 2532   3.006   2.211   4.441
    3OL    H14S 2533   2.882   2.116   4.502
    3OL    C115 2534   2.902   2.288   4.628
    3OL    H15R 2535   2.931   2.224   4.712
    3OL    H15S 2536   2.798   2.312   4.651
    3OL    C116 2537   2.973   2.423   4.642
    3OL    H16R 2538   2.975   2.443   4.750
    3OL    H16S 2539   2.923   2.507   4.594
    3OL    C117 2540   3.124   2.416   4.616
    3OL    H17R 2541   3.159   2.313   4.630
    3OL    H17S 2542   3.180   2.477   4.687
    3OL    C118 2543   3.161   2.465   4.476
    3OL    H18R 2544   3.127   2.396   4.399
    3OL    H18S 2545   3.270   2.468   4.472
    3OL    H18T 2546   3.120   2.565   4.458
    1PA    C116 2547   5.930   1.171   3.930
    1PA    H16R 2548   5.973   1.223   4.016
    1PA    H16S 2549   5.875   1.250   3.877
    1PA    H16T 2550   6.014   1.135   3.871
    1PA    C115 2551   5.836   1.056   3.969
    1PA    H15R 2552   5.801   0.996   3.885
    1PA    H15S 2553   5.884   0.988   4.041
    1PA    C114 2554   5.707   1.103   4.037
    1PA    H14R 2555   5.742   1.165   4.119
    1PA    H14S 2556   5.641   1.155   3.966
    1PA    C113 2557   5.641   0.975   4.089
    1PA    H13R 2558   5.631   0.912   4.000
    1PA    H13S 2559   5.711   0.919   4.150
    1PA    C112 2560   5.509   1.012   4.159
    1PA    H12R 2561   5.456   1.089   4.103
    1PA    H12S 2562   5.450   0.921   4.168
    1PA    C111 2563   5.532   1.071   4.299
    1PA    H11R 2564   5.612   1.023   4.357
    1PA    H11S 2565   5.565   1.173   4.276
    1PA    C110 2566   5.398   1.081   4.374
    1PA    H10R 2567   5.412   1.161   4.447
    1PA    H10S 2568   5.314   1.108   4.310
    1PA     C19 2569   5.359   0.956   4.453
    1PA     H9R 2570   5.339   0.868   4.391
    1PA     H9S 2571   5.443   0.936   4.520
    1PA     C18 2572   5.238   0.985   4.543
    1PA     H8R 2573   5.242   1.078   4.600
    1PA     H8S 2574   5.155   1.004   4.474
    1PA     C17 2575   5.196   0.871   4.637
    1PA     H7R 2576   5.111   0.895   4.701
    1PA     H7S 2577   5.158   0.802   4.561
    1PA     C16 2578   5.309   0.832   4.733
    1PA     H6R 2579   5.388   0.791   4.671
    1PA     H6S 2580   5.337   0.923   4.786
    1PA     C15 2581   5.259   0.739   4.844
    1PA     H5R 2582   5.173   0.786   4.892
    1PA     H5S 2583   5.207   0.649   4.810
    1PA     C14 2584   5.361   0.690   4.948
    1PA     H4R 2585   5.430   0.618   4.902
    1PA     H4S 2586   5.414   0.783   4.971
    1PA     C13 2587   5.295   0.624   5.069
    1PA     H3R 2588   5.226   0.698   5.110
    1PA     H3S 2589   5.229   0.543   5.040
    1PA     C12 2590   5.405   0.570   5.162
    1PA     H2R 2591   5.465   0.487   5.125
    1PA     H2S 2592   5.482   0.646   5.177
    2PC     C11 2593   5.341   0.538   5.295
    2PC     O12 2594   5.389   0.460   5.375
    2PC     O11 2595   5.229   0.603   5.330
    2PC      C1 2596   5.160   0.572   5.452
    2PC      HR 2597   5.155   0.463   5.463
    2PC      HS 2598   5.219   0.614   5.533
    2PC      C2 2599   5.021   0.634   5.432
    2PC      HX 2600   5.024   0.736   5.392
    2PC      C3 2601   4.959   0.654   5.571
    2PC      HA 2602   5.031   0.720   5.618
    2PC      HB 2603   4.867   0.713   5.562
    2PC     O31 2604   4.933   0.530   5.639
    2PC     P31 2605   4.925   0.547   5.798
    2PC     O32 2606   4.771   0.532   5.840
    2PC     C31 2607   4.705   0.405   5.845
    2PC     H1A 2608   4.598   0.424   5.832
    2PC     H1B 2609   4.734   0.340   5.762
    2PC     C32 2610   4.741   0.330   5.974
    2PC     H2A 2611   4.705   0.228   5.962
    2PC     H2B 2612   4.850   0.329   5.975
    2PC     N31 2613   4.691   0.386   6.104
    2PC     C33 2614   4.543   0.367   6.113
    2PC     H3A 2615   4.500   0.446   6.051
    2PC     H3B 2616   4.507   0.268   6.085
    2PC     H3C 2617   4.517   0.392   6.216
    2PC     C34 2618   4.751   0.299   6.210
    2PC     H4A 2619   4.716   0.199   6.188
    2PC     H4B 2620   4.860   0.295   6.210
    2PC     H4C 2621   4.710   0.333   6.306
    2PC     C35 2622   4.724   0.528   6.140
    2PC     H5A 2623   4.670   0.547   6.233
    2PC     H5B 2624   4.690   0.608   6.073
    2PC     H5C 2625   4.828   0.548   6.166
    2PC     O33 2626   5.004   0.447   5.873
    2PC     O34 2627   4.971   0.680   5.842
    2PC     O21 2628   4.943   0.543   5.352
    2PC     C21 2629   4.834   0.590   5.289
    2PC     O22 2630   4.793   0.704   5.295
    3OL     C12 2631   4.768   0.488   5.201
    3OL     H2R 2632   4.761   0.395   5.258
    3OL     H2S 2633   4.837   0.476   5.117
    3OL     C13 2634   4.626   0.519   5.151
    3OL     H3R 2635   4.626   0.598   5.075
    3OL     H3S 2636   4.563   0.537   5.238
    3OL     C14 2637   4.554   0.397   5.091
    3OL     H4R 2638   4.448   0.407   5.117
    3OL     H4S 2639   4.584   0.299   5.129
    3OL     C15 2640   4.551   0.405   4.938
    3OL     H5R 2641   4.651   0.385   4.898
    3OL     H5S 2642   4.514   0.505   4.914
    3OL     C16 2643   4.458   0.302   4.873
    3OL     H6R 2644   4.412   0.247   4.956
    3OL     H6S 2645   4.514   0.233   4.808
    3OL     C17 2646   4.339   0.368   4.801
    3OL     H7R 2647   4.298   0.283   4.747
    3OL     H7S 2648   4.365   0.455   4.741
    3OL     C18 2649   4.237   0.418   4.904
    3OL     H8R 2650   4.284   0.502   4.956
    3OL     H8S 2651   4.216   0.347   4.984
    3OL     C19 2652   4.110   0.474   4.846
    3OL     H9R 2653   4.088   0.580   4.846
    3OL    C110 2654   4.001   0.399   4.828
    3OL    H10R 2655   3.908   0.446   4.799
    3OL    C111 2656   3.995   0.249   4.827
    3OL    H11R 2657   3.927   0.211   4.903
    3OL    H11S 2658   4.089   0.206   4.863
    3OL    C112 2659   3.949   0.188   4.694
    3OL    H12R 2660   3.844   0.210   4.675
    3OL    H12S 2661   3.961   0.080   4.711
    3OL    C113 2662   4.040   0.226   4.576
    3OL    H13R 2663   4.134   0.171   4.580
    3OL    H13S 2664   4.058   0.333   4.579
    3OL    C114 2665   3.971   0.209   4.440
    3OL    H14R 2666   3.875   0.260   4.442
    3OL    H14S 2667   3.939   0.104   4.431
    3OL    C115 2668   4.057   0.259   4.324
    3OL    H15R 2669   4.095   0.355   4.361
    3OL    H15S 2670   3.988   0.283   4.243
    3OL    C116 2671   4.165   0.153   4.301
    3OL    H16R 2672   4.114   0.058   4.282
    3OL    H16S 2673   4.234   0.138   4.384
    3OL    C117 2674   4.241   0.183   4.171
    3OL    H17R 2675   4.343   0.143   4.182
    3OL    H17S 2676   4.236   0.291   4.169
    3OL    C118 2677   4.185   0.116   4.044
    3OL    H18R 2678   4.194   0.007   4.038
    3OL    H18S 2679   4.229   0.162   3.956
    3OL    H18T 2680   4.078   0.136   4.047
    1PA    C116 2681   1.681   4.111   3.783
    1PA    H16R 2682   1.654   4.120   3.678
    1PA    H16S 2683   1.784   4.143   3.797
    1PA    H16T 2684   1.625   4.190   3.835
    1PA    C115 2685   1.626   3.982   3.845
    1PA    H15R 2686   1.517   3.971   3.843
    1PA    H15S 2687   1.665   3.895   3.791
    1PA    C114 2688   1.679   3.966   3.988
    1PA    H14R 2689   1.788   3.970   3.990
    1PA    H14S 2690   1.646   4.046   4.054
    1PA    C113 2691   1.640   3.828   4.042
    1PA    H13R 2692   1.532   3.813   4.038
    1PA    H13S 2693   1.693   3.747   3.991
    1PA    C112 2694   1.676   3.820   4.191
    1PA    H12R 2695   1.784   3.827   4.206
    1PA    H12S 2696   1.626   3.898   4.249
    1PA    C111 2697   1.625   3.685   4.243
    1PA    H11R 2698   1.517   3.674   4.245
    1PA    H11S 2699   1.653   3.614   4.165
    1PA    C110 2700   1.689   3.656   4.380
    1PA    H10R 2701   1.797   3.669   4.391
    1PA    H10S 2702   1.639   3.721   4.453
    1PA     C19 2703   1.660   3.513   4.427
    1PA     H9R 2704   1.553   3.493   4.435
    1PA     H9S 2705   1.703   3.446   4.352
    1PA     C18 2706   1.728   3.490   4.563
    1PA     H8R 2707   1.836   3.506   4.562
    1PA     H8S 2708   1.691   3.559   4.639
    1PA     C17 2709   1.696   3.350   4.616
    1PA     H7R 2710   1.590   3.346   4.643
    1PA     H7S 2711   1.704   3.263   4.550
    1PA     C16 2712   1.788   3.315   4.733
    1PA     H6R 2713   1.892   3.318   4.699
    1PA     H6S 2714   1.787   3.390   4.813
    1PA     C15 2715   1.745   3.184   4.799
    1PA     H5R 2716   1.639   3.180   4.826
    1PA     H5S 2717   1.752   3.102   4.728
    1PA     C14 2718   1.837   3.153   4.918
    1PA     H4R 2719   1.938   3.193   4.902
    1PA     H4S 2720   1.786   3.197   5.004
    1PA     C13 2721   1.851   3.006   4.960
    1PA     H3R 2722   1.907   2.942   4.892
    1PA     H3S 2723   1.910   2.998   5.052
    1PA     C12 2724   1.718   2.934   4.986
    1PA     H2R 2725   1.647   2.980   5.055
    1PA     H2S 2726   1.661   2.925   4.894
    2PC     C11 2727   1.754   2.802   5.049
    2PC     O12 2728   1.843   2.726   5.014
    2PC     O11 2729   1.669   2.785   5.151
    2PC      C1 2730   1.715   2.687   5.247
    2PC      HR 2731   1.721   2.588   5.202
    2PC      HS 2732   1.811   2.731   5.277
    2PC      C2 2733   1.636   2.701   5.378
    2PC      HX 2734   1.636   2.805   5.410
    2PC      C3 2735   1.690   2.607   5.486
    2PC      HA 2736   1.615   2.527   5.485
    2PC      HB 2737   1.788   2.568   5.458
    2PC     O31 2738   1.697   2.662   5.619
    2PC     P31 2739   1.725   2.560   5.739
    2PC     O32 2740   1.885   2.557   5.754
    2PC     C31 2741   1.942   2.476   5.858
    2PC     H1A 2742   1.886   2.492   5.951
    2PC     H1B 2743   1.923   2.373   5.827
    2PC     C32 2744   2.090   2.511   5.878
    2PC     H2A 2745   2.099   2.615   5.846
    2PC     H2B 2746   2.122   2.517   5.983
    2PC     N31 2747   2.194   2.432   5.806
    2PC     C33 2748   2.167   2.416   5.660
    2PC     H3A 2749   2.251   2.374   5.605
    2PC     H3B 2750   2.073   2.361   5.649
    2PC     H3C 2751   2.137   2.513   5.620
    2PC     C34 2752   2.324   2.505   5.824
    2PC     H4A 2753   2.405   2.454   5.772
    2PC     H4B 2754   2.312   2.601   5.773
    2PC     H4C 2755   2.335   2.527   5.930
    2PC     C35 2756   2.210   2.292   5.859
    2PC     H5A 2757   2.264   2.295   5.955
    2PC     H5B 2758   2.267   2.235   5.785
    2PC     H5C 2759   2.111   2.248   5.861
    2PC     O33 2760   1.668   2.610   5.866
    2PC     O34 2761   1.668   2.427   5.708
    2PC     O21 2762   1.499   2.667   5.350
    2PC     C21 2763   1.409   2.712   5.440
    2PC     O22 2764   1.443   2.783   5.532
    3OL     C12 2765   1.274   2.650   5.413
    3OL     H2R 2766   1.216   2.665   5.504
    3OL     H2S 2767   1.285   2.541   5.403
    3OL     C13 2768   1.210   2.697   5.282
    3OL     H3R 2769   1.230   2.800   5.251
    3OL     H3S 2770   1.102   2.691   5.289
    3OL     C14 2771   1.248   2.610   5.161
    3OL     H4R 2772   1.189   2.519   5.166
    3OL     H4S 2773   1.351   2.575   5.170
    3OL     C15 2774   1.232   2.675   5.023
    3OL     H5R 2775   1.132   2.720   5.023
    3OL     H5S 2776   1.233   2.610   4.935
    3OL     C16 2777   1.343   2.775   4.988
    3OL     H6R 2778   1.429   2.709   4.978
    3OL     H6S 2779   1.368   2.837   5.075
    3OL     C17 2780   1.305   2.858   4.864
    3OL     H7R 2781   1.362   2.951   4.865
    3OL     H7S 2782   1.200   2.886   4.867
    3OL     C18 2783   1.332   2.778   4.736
    3OL     H8R 2784   1.290   2.821   4.645
    3OL     H8S 2785   1.278   2.683   4.736
    3OL     C19 2786   1.478   2.746   4.714
    3OL     H9R 2787   1.508   2.655   4.765
    3OL    C110 2788   1.557   2.825   4.642
    3OL    H10R 2789   1.653   2.783   4.614
    3OL    C111 2790   1.520   2.954   4.573
    3OL    H11R 2791   1.563   3.040   4.625
    3OL    H11S 2792   1.415   2.983   4.566
    3OL    C112 2793   1.562   2.953   4.426
    3OL    H12R 2794   1.669   2.932   4.430
    3OL    H12S 2795   1.552   3.057   4.392
    3OL    C113 2796   1.491   2.859   4.328
    3OL    H13R 2797   1.386   2.888   4.324
    3OL    H13S 2798   1.500   2.756   4.363
    3OL    C114 2799   1.545   2.870   4.185
    3OL    H14R 2800   1.556   2.972   4.147
    3OL    H14S 2801   1.469   2.823   4.121
    3OL    C115 2802   1.676   2.794   4.160
    3OL    H15R 2803   1.677   2.699   4.213
    3OL    H15S 2804   1.755   2.853   4.207
    3OL    C116 2805   1.693   2.787   4.008
    3OL    H16R 2806   1.683   2.885   3.961
    3OL    H16S 2807   1.615   2.731   3.955
    3OL    C117 2808   1.831   2.736   3.964
    3OL    H17R 2809   1.834   2.681   3.869
    3OL    H17S 2810   1.865   2.655   4.029
    3OL    C118 2811   1.933   2.850   3.955
    3OL    H18R 2812   1.939   2.912   4.045
    3OL    H18S 2813   1.914   2.901   3.861
    3OL    H18T 2814   2.029   2.805   3.929
    1PA    C116 2815   0.471   6.488   4.593
    1PA    H16R 2816   0.394   6.493   4.671
    1PA    H16S 2817   0.469   6.587   4.549
    1PA    H16T 2818   0.569   6.462   4.633
    1PA    C115 2819   0.421   6.376   4.500
    1PA    H15R 2820   0.316   6.356   4.520
    1PA    H15S 2821   0.424   6.411   4.397
    1PA    C114 2822   0.511   6.252   4.501
    1PA    H14R 2823   0.483   6.189   4.416
    1PA    H14S 2824   0.617   6.273   4.491
    1PA    C113 2825   0.507   6.186   4.640
    1PA    H13R 2826   0.574   6.100   4.627
    1PA    H13S 2827   0.554   6.248   4.717
    1PA    C112 2828   0.371   6.135   4.689
    1PA    H12R 2829   0.378   6.100   4.793
    1PA    H12S 2830   0.305   6.220   4.671
    1PA    C111 2831   0.326   6.015   4.605
    1PA    H11R 2832   0.306   6.060   4.507
    1PA    H11S 2833   0.399   5.935   4.597
    1PA    C110 2834   0.199   5.950   4.661
    1PA    H10R 2835   0.135   6.035   4.683
    1PA    H10S 2836   0.159   5.887   4.581
    1PA     C19 2837   0.219   5.862   4.785
    1PA     H9R 2838   0.266   5.915   4.868
    1PA     H9S 2839   0.112   5.862   4.808
    1PA     C18 2840   0.269   5.718   4.761
    1PA     H8R 2841   0.219   5.674   4.674
    1PA     H8S 2842   0.376   5.715   4.740
    1PA     C17 2843   0.247   5.636   4.889
    1PA     H7R 2844   0.314   5.551   4.886
    1PA     H7S 2845   0.274   5.703   4.971
    1PA     C16 2846   0.108   5.578   4.921
    1PA     H6R 2847   0.030   5.652   4.904
    1PA     H6S 2848   0.095   5.500   4.847
    1PA     C15 2849   0.113   5.518   5.062
    1PA     H5R 2850   0.150   5.591   5.134
    1PA     H5S 2851   0.009   5.498   5.092
    1PA     C14 2852   0.183   5.384   5.086
    1PA     H4R 2853   0.127   5.305   5.036
    1PA     H4S 2854   0.281   5.393   5.038
    1PA     C13 2855   0.183   5.351   5.236
    1PA     H3R 2856   0.216   5.439   5.291
    1PA     H3S 2857   0.081   5.322   5.264
    1PA     C12 2858   0.285   5.239   5.259
    1PA     H2R 2859   0.262   5.149   5.200
    1PA     H2S 2860   0.386   5.267   5.230
    2PC     C11 2861   0.271   5.189   5.401
    2PC     O12 2862   0.244   5.269   5.488
    2PC     O11 2863   0.284   5.056   5.415
    2PC      C1 2864   0.300   5.007   5.550
    2PC      HR 2865   0.388   5.052   5.598
    2PC      HS 2866   0.214   5.041   5.608
    2PC      C2 2867   0.294   4.854   5.537
    2PC      HX 2868   0.209   4.833   5.472
    2PC      C3 2869   0.271   4.779   5.669
    2PC      HA 2870   0.167   4.799   5.693
    2PC      HB 2871   0.297   4.675   5.649
    2PC     O31 2872   0.356   4.828   5.775
    2PC     P31 2873   0.322   4.777   5.923
    2PC     O32 2874   0.475   4.748   5.961
    2PC     C31 2875   0.545   4.633   5.910
    2PC     H1A 2876   0.525   4.543   5.967
    2PC     H1B 2877   0.509   4.611   5.809
    2PC     C32 2878   0.697   4.654   5.914
    2PC     H2A 2879   0.729   4.687   6.013
    2PC     H2B 2880   0.752   4.561   5.901
    2PC     N31 2881   0.755   4.751   5.816
    2PC     C33 2882   0.719   4.715   5.675
    2PC     H3A 2883   0.620   4.755   5.653
    2PC     H3B 2884   0.791   4.766   5.610
    2PC     H3C 2885   0.729   4.607   5.661
    2PC     C34 2886   0.726   4.896   5.843
    2PC     H4A 2887   0.772   4.915   5.941
    2PC     H4B 2888   0.768   4.955   5.762
    2PC     H4C 2889   0.622   4.913   5.869
    2PC     C35 2890   0.902   4.732   5.832
    2PC     H5A 2891   0.954   4.816   5.783
    2PC     H5B 2892   0.935   4.648   5.771
    2PC     H5C 2893   0.930   4.720   5.937
    2PC     O33 2894   0.265   4.874   6.019
    2PC     O34 2895   0.253   4.647   5.938
    2PC     O21 2896   0.423   4.816   5.488
    2PC     C21 2897   0.432   4.702   5.417
    2PC     O22 2898   0.341   4.623   5.404
    3OL     C12 2899   0.565   4.694   5.347
    3OL     H2R 2900   0.624   4.621   5.403
    3OL     H2S 2901   0.617   4.790   5.341
    3OL     C13 2902   0.561   4.662   5.197
    3OL     H3R 2903   0.534   4.752   5.142
    3OL     H3S 2904   0.487   4.582   5.185
    3OL     C14 2905   0.692   4.595   5.153
    3OL     H4R 2906   0.676   4.533   5.064
    3OL     H4S 2907   0.713   4.518   5.228
    3OL     C15 2908   0.816   4.684   5.142
    3OL     H5R 2909   0.844   4.720   5.241
    3OL     H5S 2910   0.790   4.773   5.084
    3OL     C16 2911   0.933   4.606   5.080
    3OL     H6R 2912   0.913   4.582   4.975
    3OL     H6S 2913   0.954   4.508   5.121
    3OL     C17 2914   1.062   4.690   5.088
    3OL     H7R 2915   1.148   4.627   5.063
    3OL     H7S 2916   1.076   4.734   5.187
    3OL     C18 2917   1.055   4.797   4.979
    3OL     H8R 2918   0.956   4.843   4.981
    3OL     H8S 2919   1.066   4.744   4.884
    3OL     C19 2920   1.159   4.906   4.992
    3OL     H9R 2921   1.218   4.909   5.083
    3OL    C110 2922   1.199   4.994   4.901
    3OL    H10R 2923   1.270   5.075   4.914
    3OL    C111 2924   1.162   4.980   4.756
    3OL    H11R 2925   1.092   4.898   4.740
    3OL    H11S 2926   1.256   4.954   4.707
    3OL    C112 2927   1.095   5.104   4.694
    3OL    H12R 2928   1.090   5.080   4.587
    3OL    H12S 2929   1.155   5.194   4.687
    3OL    C113 2930   0.950   5.132   4.738
    3OL    H13R 2931   0.945   5.180   4.836
    3OL    H13S 2932   0.907   5.032   4.749
    3OL    C114 2933   0.870   5.219   4.640
    3OL    H14R 2934   0.921   5.311   4.609
    3OL    H14S 2935   0.778   5.239   4.694
    3OL    C115 2936   0.826   5.132   4.521
    3OL    H15R 2937   0.768   5.049   4.562
    3OL    H15S 2938   0.917   5.095   4.474
    3OL    C116 2939   0.750   5.203   4.408
    3OL    H16R 2940   0.795   5.292   4.366
    3OL    H16S 2941   0.654   5.229   4.455
    3OL    C117 2942   0.714   5.112   4.289
    3OL    H17R 2943   0.668   5.024   4.334
    3OL    H17S 2944   0.812   5.084   4.251
    3OL    C118 2945   0.627   5.167   4.175
    3OL    H18R 2946   0.529   5.196   4.214
    3OL    H18S 2947   0.616   5.096   4.093
    3OL    H18T 2948   0.674   5.248   4.120
    1PA    C116 2949   3.994   4.156   4.130
    1PA    H16R 2950   4.009   4.237   4.058
    1PA    H16S 2951   3.949   4.199   4.220
    1PA    H16T 2952   3.920   4.084   4.095
    1PA    C115 2953   4.127   4.084   4.161
    1PA    H15R 2954   4.114   4.018   4.247
    1PA    H15S 2955   4.147   4.018   4.077
    1PA    C114 2956   4.237   4.186   4.195
    1PA    H14R 2957   4.249   4.249   4.107
    1PA    H14S 2958   4.193   4.246   4.274
    1PA    C113 2959   4.366   4.112   4.232
    1PA    H13R 2960   4.344   4.020   4.286
    1PA    H13S 2961   4.409   4.090   4.134
    1PA    C112 2962   4.469   4.198   4.307
    1PA    H12R 2963   4.507   4.275   4.240
    1PA    H12S 2964   4.426   4.256   4.389
    1PA    C111 2965   4.587   4.112   4.354
    1PA    H11R 2966   4.609   4.027   4.288
    1PA    H11S 2967   4.670   4.183   4.346
    1PA    C110 2968   4.571   4.049   4.492
    1PA    H10R 2969   4.518   4.123   4.552
    1PA    H10S 2970   4.501   3.966   4.482
    1PA     C19 2971   4.705   3.993   4.545
    1PA     H9R 2972   4.757   3.925   4.477
    1PA     H9S 2973   4.782   4.070   4.556
    1PA     C18 2974   4.681   3.910   4.671
    1PA     H8R 2975   4.587   3.854   4.678
    1PA     H8S 2976   4.758   3.832   4.672
    1PA     C17 2977   4.684   3.998   4.796
    1PA     H7R 2978   4.790   4.023   4.807
    1PA     H7S 2979   4.625   4.088   4.778
    1PA     C16 2980   4.637   3.931   4.926
    1PA     H6R 2981   4.563   3.851   4.919
    1PA     H6S 2982   4.724   3.874   4.959
    1PA     C15 2983   4.604   4.033   5.036
    1PA     H5R 2984   4.510   4.087   5.025
    1PA     H5S 2985   4.607   3.977   5.130
    1PA     C14 2986   4.703   4.150   5.049
    1PA     H4R 2987   4.804   4.107   5.040
    1PA     H4S 2988   4.684   4.221   4.969
    1PA     C13 2989   4.698   4.214   5.188
    1PA     H3R 2990   4.597   4.244   5.218
    1PA     H3S 2991   4.737   4.146   5.264
    1PA     C12 2992   4.793   4.333   5.202
    1PA     H2R 2993   4.894   4.293   5.194
    1PA     H2S 2994   4.787   4.390   5.109
    2PC     C11 2995   4.766   4.440   5.306
    2PC     O12 2996   4.673   4.453   5.383
    2PC     O11 2997   4.873   4.520   5.308
    2PC      C1 2998   4.884   4.620   5.411
    2PC      HR 2999   4.973   4.681   5.390
    2PC      HS 3000   4.790   4.675   5.399
    2PC      C2 3001   4.912   4.557   5.548
    2PC      HX 3002   4.850   4.469   5.569
    2PC      C3 3003   4.897   4.661   5.660
    2PC      HA 3004   4.964   4.746   5.644
    2PC      HB 3005   4.793   4.694   5.671
    2PC     O31 3006   4.931   4.593   5.782
    2PC     P31 3007   4.943   4.675   5.919
    2PC     O32 3008   5.096   4.721   5.931
    2PC     C31 3009   5.142   4.829   6.015
    2PC     H1A 3010   5.089   4.922   5.991
    2PC     H1B 3011   5.113   4.814   6.119
    2PC     C32 3012   5.287   4.863   5.979
    2PC     H2A 3013   5.297   4.835   5.874
    2PC     H2B 3014   5.307   4.969   5.992
    2PC     N31 3015   5.395   4.783   6.046
    2PC     C33 3016   5.529   4.810   5.985
    2PC     H3A 3017   5.507   4.832   5.880
    2PC     H3B 3018   5.570   4.895   6.040
    2PC     H3C 3019   5.591   4.721   5.997
    2PC     C34 3020   5.404   4.831   6.188
    2PC     H4A 3021   5.315   4.797   6.242
    2PC     H4B 3022   5.487   4.774   6.230
    2PC     H4C 3023   5.424   4.938   6.199
    2PC     C35 3024   5.376   4.635   6.050
    2PC     H5A 3025   5.378   4.597   5.948
    2PC     H5B 3026   5.275   4.619   6.088
    2PC     H5C 3027   5.444   4.591   6.123
    2PC     O33 3028   4.843   4.784   5.912
    2PC     O34 3029   4.909   4.610   6.048
    2PC     O21 3030   5.048   4.512   5.539
    2PC     C21 3031   5.066   4.386   5.497
    2PC     O22 3032   4.992   4.291   5.506
    3OL     C12 3033   5.208   4.371   5.446
    3OL     H2R 3034   5.245   4.268   5.449
    3OL     H2S 3035   5.273   4.429   5.512
    3OL     C13 3036   5.202   4.417   5.300
    3OL     H3R 3037   5.166   4.520   5.295
    3OL     H3S 3038   5.131   4.348   5.254
    3OL     C14 3039   5.339   4.408   5.232
    3OL     H4R 3040   5.376   4.306   5.252
    3OL     H4S 3041   5.419   4.465   5.280
    3OL     C15 3042   5.333   4.450   5.085
    3OL     H5R 3043   5.424   4.505   5.062
    3OL     H5S 3044   5.242   4.502   5.056
    3OL     C16 3045   5.327   4.320   5.002
    3OL     H6R 3046   5.242   4.261   5.035
    3OL     H6S 3047   5.415   4.266   5.039
    3OL     C17 3048   5.337   4.339   4.850
    3OL     H7R 3049   5.406   4.422   4.834
    3OL     H7S 3050   5.236   4.356   4.812
    3OL     C18 3051   5.374   4.210   4.776
    3OL     H8R 3052   5.287   4.146   4.761
    3OL     H8S 3053   5.443   4.152   4.838
    3OL     C19 3054   5.440   4.241   4.644
    3OL     H9R 3055   5.393   4.324   4.594
    3OL    C110 3056   5.550   4.187   4.593
    3OL    H10R 3057   5.576   4.211   4.490
    3OL    C111 3058   5.632   4.073   4.650
    3OL    H11R 3059   5.597   3.983   4.599
    3OL    H11S 3060   5.610   4.059   4.756
    3OL    C112 3061   5.780   4.077   4.611
    3OL    H12R 3062   5.789   4.084   4.503
    3OL    H12S 3063   5.833   3.987   4.645
    3OL    C113 3064   5.846   4.209   4.653
    3OL    H13R 3065   5.849   4.217   4.762
    3OL    H13S 3066   5.793   4.297   4.616
    3OL    C114 3067   5.987   4.204   4.594
    3OL    H14R 3068   5.983   4.205   4.485
    3OL    H14S 3069   6.036   4.109   4.617
    3OL    C115 3070   6.068   4.325   4.642
    3OL    H15R 3071   6.020   4.422   4.622
    3OL    H15S 3072   6.162   4.326   4.587
    3OL    C116 3073   6.104   4.313   4.791
    3OL    H16R 3074   6.141   4.211   4.805
    3OL    H16S 3075   6.013   4.323   4.850
    3OL    C117 3076   6.196   4.425   4.840
    3OL    H17R 3077   6.161   4.517   4.791
    3OL    H17S 3078   6.298   4.413   4.802
    3OL    C118 3079   6.195   4.445   4.992
    3OL    H18R 3080   6.262   4.370   5.035
    3OL    H18S 3081   6.096   4.431   5.035
    3OL    H18T 3082   6.240   4.536   5.032
    1PA    C116 3083   4.433   4.307   3.793
    1PA    H16R 3084   4.508   4.312   3.872
    1PA    H16S 3085   4.346   4.275   3.852
    1PA    H16T 3086   4.409   4.403   3.747
    1PA    C115 3087   4.457   4.202   3.684
    1PA    H15R 3088   4.372   4.199   3.616
    1PA    H15S 3089   4.540   4.222   3.615
    1PA    C114 3090   4.456   4.058   3.738
    1PA    H14R 3091   4.378   4.035   3.812
    1PA    H14S 3092   4.420   4.001   3.653
    1PA    C113 3093   4.598   4.005   3.760
    1PA    H13R 3094   4.658   4.011   3.669
    1PA    H13S 3095   4.640   4.077   3.831
    1PA    C112 3096   4.615   3.866   3.823
    1PA    H12R 3097   4.539   3.792   3.795
    1PA    H12S 3098   4.707   3.819   3.790
    1PA    C111 3099   4.619   3.876   3.977
    1PA    H11R 3100   4.690   3.957   3.995
    1PA    H11S 3101   4.526   3.916   4.016
    1PA    C110 3102   4.643   3.738   4.041
    1PA    H10R 3103   4.561   3.672   4.014
    1PA    H10S 3104   4.729   3.683   4.001
    1PA     C19 3105   4.655   3.747   4.193
    1PA     H9R 3106   4.740   3.814   4.210
    1PA     H9S 3107   4.558   3.777   4.232
    1PA     C18 3108   4.684   3.606   4.247
    1PA     H8R 3109   4.597   3.543   4.226
    1PA     H8S 3110   4.773   3.570   4.196
    1PA     C17 3111   4.711   3.622   4.397
    1PA     H7R 3112   4.790   3.693   4.423
    1PA     H7S 3113   4.624   3.662   4.451
    1PA     C16 3114   4.752   3.486   4.454
    1PA     H6R 3115   4.681   3.409   4.423
    1PA     H6S 3116   4.844   3.452   4.406
    1PA     C15 3117   4.774   3.492   4.606
    1PA     H5R 3118   4.866   3.437   4.630
    1PA     H5S 3119   4.777   3.592   4.649
    1PA     C14 3120   4.654   3.429   4.678
    1PA     H4R 3121   4.565   3.484   4.647
    1PA     H4S 3122   4.639   3.325   4.649
    1PA     C13 3123   4.664   3.430   4.831
    1PA     H3R 3124   4.562   3.395   4.851
    1PA     H3S 3125   4.732   3.354   4.869
    1PA     C12 3126   4.699   3.569   4.886
    1PA     H2R 3127   4.795   3.611   4.855
    1PA     H2S 3128   4.636   3.644   4.838
    2PC     C11 3129   4.688   3.573   5.036
    2PC     O12 3130   4.773   3.623   5.106
    2PC     O11 3131   4.577   3.512   5.081
    2PC      C1 3132   4.552   3.506   5.223
    2PC      HR 3133   4.477   3.429   5.237
    2PC      HS 3134   4.646   3.475   5.269
    2PC      C2 3135   4.496   3.644   5.262
    2PC      HX 3136   4.537   3.720   5.195
    2PC      C3 3137   4.527   3.680   5.407
    2PC      HA 3138   4.635   3.690   5.424
    2PC      HB 3139   4.465   3.764   5.438
    2PC     O31 3140   4.479   3.570   5.487
    2PC     P31 3141   4.541   3.531   5.629
    2PC     O32 3142   4.506   3.375   5.626
    2PC     C31 3143   4.611   3.277   5.630
    2PC     H1A 3144   4.699   3.291   5.567
    2PC     H1B 3145   4.656   3.268   5.730
    2PC     C32 3146   4.548   3.137   5.621
    2PC     H2A 3147   4.454   3.151   5.676
    2PC     H2B 3148   4.527   3.094   5.523
    2PC     N31 3149   4.628   3.026   5.682
    2PC     C33 3150   4.567   2.902   5.624
    2PC     H3A 3151   4.590   2.903   5.518
    2PC     H3B 3152   4.607   2.809   5.665
    2PC     H3C 3153   4.461   2.915   5.644
    2PC     C34 3154   4.775   3.032   5.655
    2PC     H4A 3155   4.814   3.126   5.697
    2PC     H4B 3156   4.817   2.943   5.702
    2PC     H4C 3157   4.788   3.032   5.547
    2PC     C35 3158   4.597   3.030   5.828
    2PC     H5A 3159   4.620   2.940   5.885
    2PC     H5B 3160   4.489   3.044   5.832
    2PC     H5C 3161   4.638   3.122   5.869
    2PC     O33 3162   4.683   3.567   5.653
    2PC     O34 3163   4.468   3.612   5.730
    2PC     O21 3164   4.356   3.622   5.240
    2PC     C21 3165   4.266   3.722   5.250
    2PC     O22 3166   4.297   3.835   5.281
    3OL     C12 3167   4.123   3.677   5.231
    3OL     H2R 3168   4.054   3.719   5.304
    3OL     H2S 3169   4.122   3.568   5.224
    3OL     C13 3170   4.065   3.717   5.095
    3OL     H3R 3171   4.132   3.696   5.012
    3OL     H3S 3172   4.048   3.824   5.110
    3OL     C14 3173   3.933   3.641   5.076
    3OL     H4R 3174   3.862   3.673   5.151
    3OL     H4S 3175   3.946   3.533   5.083
    3OL     C15 3176   3.874   3.674   4.938
    3OL     H5R 3177   3.948   3.642   4.865
    3OL     H5S 3178   3.858   3.781   4.924
    3OL     C16 3179   3.748   3.592   4.906
    3OL     H6R 3180   3.677   3.602   4.988
    3OL     H6S 3181   3.782   3.489   4.893
    3OL     C17 3182   3.663   3.635   4.785
    3OL     H7R 3183   3.642   3.743   4.790
    3OL     H7S 3184   3.571   3.579   4.802
    3OL     C18 3185   3.715   3.583   4.651
    3OL     H8R 3186   3.725   3.474   4.655
    3OL     H8S 3187   3.820   3.612   4.646
    3OL     C19 3188   3.622   3.624   4.539
    3OL     H9R 3189   3.518   3.605   4.564
    3OL    C110 3190   3.655   3.679   4.423
    3OL    H10R 3191   3.570   3.714   4.364
    3OL    C111 3192   3.796   3.718   4.388
    3OL    H11R 3193   3.822   3.684   4.287
    3OL    H11S 3194   3.873   3.673   4.451
    3OL    C112 3195   3.821   3.869   4.393
    3OL    H12R 3196   3.745   3.912   4.327
    3OL    H12S 3197   3.918   3.891   4.347
    3OL    C113 3198   3.806   3.940   4.528
    3OL    H13R 3199   3.718   3.900   4.579
    3OL    H13S 3200   3.792   4.044   4.499
    3OL    C114 3201   3.937   3.915   4.603
    3OL    H14R 3202   4.027   3.933   4.542
    3OL    H14S 3203   3.944   3.807   4.623
    3OL    C115 3204   3.936   4.003   4.728
    3OL    H15R 3205   3.845   3.982   4.783
    3OL    H15S 3206   3.935   4.111   4.713
    3OL    C116 3207   4.050   3.975   4.828
    3OL    H16R 3208   4.050   3.870   4.857
    3OL    H16S 3209   4.033   4.019   4.926
    3OL    C117 3210   4.189   4.011   4.775
    3OL    H17R 3211   4.183   4.118   4.755
    3OL    H17S 3212   4.206   3.955   4.683
    3OL    C118 3213   4.304   3.977   4.871
    3OL    H18R 3214   4.302   3.869   4.889
    3OL    H18S 3215   4.300   4.047   4.955
    3OL    H18T 3216   4.392   4.005   4.814
    1PA    C116 3217   6.344   0.985   3.851
    1PA    H16R 3218   6.260   0.981   3.782
    1PA    H16S 3219   6.334   0.894   3.910
    1PA    H16T 3220   6.441   0.969   3.802
    1PA    C115 3221   6.334   1.104   3.948
    1PA    H15R 3222   6.393   1.181   3.896
    1PA    H15S 3223   6.231   1.137   3.961
    1PA    C114 3224   6.404   1.081   4.082
    1PA    H14R 3225   6.350   0.999   4.129
    1PA    H14S 3226   6.507   1.045   4.072
    1PA    C113 3227   6.421   1.205   4.171
    1PA    H13R 3228   6.497   1.200   4.249
    1PA    H13S 3229   6.472   1.284   4.116
    1PA    C112 3230   6.286   1.248   4.229
    1PA    H12R 3231   6.303   1.340   4.286
    1PA    H12S 3232   6.223   1.276   4.144
    1PA    C111 3233   6.228   1.143   4.325
    1PA    H11R 3234   6.234   1.041   4.285
    1PA    H11S 3235   6.290   1.136   4.414
    1PA    C110 3236   6.083   1.177   4.359
    1PA    H10R 3237   6.081   1.273   4.412
    1PA    H10S 3238   6.012   1.189   4.276
    1PA     C19 3239   6.030   1.067   4.452
    1PA     H9R 3240   6.020   0.969   4.405
    1PA     H9S 3241   6.094   1.048   4.539
    1PA     C18 3242   5.898   1.104   4.520
    1PA     H8R 3243   5.903   1.180   4.598
    1PA     H8S 3244   5.832   1.143   4.442
    1PA     C17 3245   5.839   0.974   4.578
    1PA     H7R 3246   5.820   0.899   4.502
    1PA     H7S 3247   5.905   0.927   4.652
    1PA     C16 3248   5.704   1.005   4.644
    1PA     H6R 3249   5.636   1.034   4.564
    1PA     H6S 3250   5.664   0.909   4.679
    1PA     C15 3251   5.693   1.109   4.757
    1PA     H5R 3252   5.748   1.200   4.731
    1PA     H5S 3253   5.588   1.136   4.764
    1PA     C14 3254   5.761   1.038   4.875
    1PA     H4R 3255   5.724   0.937   4.893
    1PA     H4S 3256   5.867   1.016   4.861
    1PA     C13 3257   5.746   1.120   5.004
    1PA     H3R 3258   5.842   1.121   5.057
    1PA     H3S 3259   5.723   1.224   4.979
    1PA     C12 3260   5.636   1.073   5.100
    1PA     H2R 3261   5.544   1.052   5.045
    1PA     H2S 3262   5.674   0.984   5.151
    2PC     C11 3263   5.603   1.168   5.212
    2PC     O12 3264   5.636   1.285   5.211
    2PC     O11 3265   5.546   1.110   5.318
    2PC      C1 3266   5.532   1.181   5.442
    2PC      HR 3267   5.534   1.290   5.436
    2PC      HS 3268   5.444   1.152   5.501
    2PC      C2 3269   5.649   1.134   5.530
    2PC      HX 3270   5.642   1.025   5.539
    2PC      C3 3271   5.631   1.192   5.670
    2PC      HA 3272   5.570   1.134   5.741
    2PC      HB 3273   5.729   1.193   5.717
    2PC     O31 3274   5.586   1.329   5.667
    2PC     P31 3275   5.590   1.421   5.798
    2PC     O32 3276   5.735   1.379   5.851
    2PC     C31 3277   5.784   1.437   5.974
    2PC     H1A 3278   5.695   1.477   6.025
    2PC     H1B 3279   5.816   1.351   6.035
    2PC     C32 3280   5.887   1.546   5.945
    2PC     H2A 3281   5.836   1.615   5.878
    2PC     H2B 3282   5.922   1.595   6.036
    2PC     N31 3283   6.009   1.500   5.871
    2PC     C33 3284   6.075   1.623   5.815
    2PC     H3A 3285   6.148   1.602   5.737
    2PC     H3B 3286   5.991   1.670   5.763
    2PC     H3C 3287   6.103   1.694   5.893
    2PC     C34 3288   6.108   1.435   5.963
    2PC     H4A 3289   6.065   1.344   6.003
    2PC     H4B 3290   6.205   1.412   5.918
    2PC     H4C 3291   6.117   1.505   6.046
    2PC     C35 3292   5.989   1.405   5.757
    2PC     H5A 3293   5.953   1.308   5.791
    2PC     H5B 3294   6.083   1.384   5.705
    2PC     H5C 3295   5.922   1.458   5.689
    2PC     O33 3296   5.599   1.564   5.761
    2PC     O34 3297   5.477   1.396   5.890
    2PC     O21 3298   5.775   1.167   5.469
    2PC     C21 3299   5.893   1.133   5.525
    2PC     O22 3300   5.908   1.077   5.631
    3OL     C12 3301   6.012   1.168   5.439
    3OL     H2R 3302   6.090   1.098   5.470
    3OL     H2S 3303   6.043   1.271   5.460
    3OL     C13 3304   5.994   1.150   5.288
    3OL     H3R 3305   5.926   1.228   5.256
    3OL     H3S 3306   5.969   1.048   5.257
    3OL     C14 3307   6.131   1.190   5.231
    3OL     H4R 3308   6.209   1.121   5.265
    3OL     H4S 3309   6.162   1.289   5.266
    3OL     C15 3310   6.135   1.186   5.077
    3OL     H5R 3311   6.079   1.098   5.045
    3OL     H5S 3312   6.240   1.175   5.050
    3OL     C16 3313   6.069   1.307   5.009
    3OL     H6R 3314   6.114   1.398   5.049
    3OL     H6S 3315   5.965   1.320   5.040
    3OL     C17 3316   6.072   1.298   4.856
    3OL     H7R 3317   6.061   1.195   4.823
    3OL     H7S 3318   6.178   1.315   4.837
    3OL     C18 3319   5.994   1.407   4.781
    3OL     H8R 3320   5.893   1.416   4.822
    3OL     H8S 3321   5.994   1.384   4.674
    3OL     C19 3322   6.054   1.544   4.795
    3OL     H9R 3323   6.160   1.549   4.767
    3OL    C110 3324   6.004   1.653   4.850
    3OL    H10R 3325   6.069   1.741   4.849
    3OL    C111 3326   5.862   1.676   4.898
    3OL    H11R 3327   5.871   1.697   5.005
    3OL    H11S 3328   5.807   1.582   4.900
    3OL    C112 3329   5.776   1.785   4.833
    3OL    H12R 3330   5.698   1.816   4.903
    3OL    H12S 3331   5.722   1.736   4.752
    3OL    C113 3332   5.868   1.899   4.788
    3OL    H13R 3333   5.931   1.865   4.706
    3OL    H13S 3334   5.940   1.935   4.862
    3OL    C114 3335   5.796   2.026   4.739
    3OL    H14R 3336   5.874   2.092   4.701
    3OL    H14S 3337   5.743   2.081   4.816
    3OL    C115 3338   5.701   1.990   4.623
    3OL    H15R 3339   5.617   1.939   4.671
    3OL    H15S 3340   5.754   1.932   4.548
    3OL    C116 3341   5.634   2.112   4.558
    3OL    H16R 3342   5.562   2.074   4.485
    3OL    H16S 3343   5.707   2.166   4.498
    3OL    C117 3344   5.570   2.207   4.661
    3OL    H17R 3345   5.646   2.237   4.733
    3OL    H17S 3346   5.503   2.145   4.721
    3OL    C118 3347   5.499   2.323   4.590
    3OL    H18R 3348   5.577   2.377   4.535
    3OL    H18S 3349   5.446   2.388   4.659
    3OL    H18T 3350   5.429   2.281   4.517
    1PA    C116 3351   6.044   0.234   4.010
    1PA    H16R 3352   5.979   0.322   4.008
    1PA    H16S 3353   5.973   0.153   4.024
    1PA    H16T 3354   6.090   0.238   3.911
    1PA    C115 3355   6.152   0.253   4.118
    1PA    H15R 3356   6.212   0.163   4.130
    1PA    H15S 3357   6.226   0.331   4.100
    1PA    C114 3358   6.093   0.282   4.257
    1PA    H14R 3359   6.179   0.302   4.321
    1PA    H14S 3360   6.038   0.376   4.251
    1PA    C113 3361   6.008   0.167   4.312
    1PA    H13R 3362   5.929   0.129   4.247
    1PA    H13S 3363   6.075   0.085   4.339
    1PA    C112 3364   5.933   0.225   4.434
    1PA    H12R 3365   5.889   0.322   4.415
    1PA    H12S 3366   5.849   0.164   4.469
    1PA    C111 3367   6.017   0.256   4.558
    1PA    H11R 3368   6.067   0.162   4.581
    1PA    H11S 3369   6.102   0.325   4.550
    1PA    C110 3370   5.924   0.289   4.675
    1PA    H10R 3371   5.823   0.253   4.655
    1PA    H10S 3372   5.970   0.255   4.768
    1PA     C19 3373   5.916   0.442   4.690
    1PA     H9R 3374   6.020   0.474   4.684
    1PA     H9S 3375   5.867   0.483   4.601
    1PA     C18 3376   5.850   0.484   4.821
    1PA     H8R 3377   5.748   0.444   4.824
    1PA     H8S 3378   5.905   0.438   4.903
    1PA     C17 3379   5.842   0.636   4.841
    1PA     H7R 3380   5.941   0.684   4.842
    1PA     H7S 3381   5.793   0.679   4.753
    1PA     C16 3382   5.765   0.660   4.972
    1PA     H6R 3383   5.712   0.755   4.967
    1PA     H6S 3384   5.689   0.583   4.985
    1PA     C15 3385   5.842   0.645   5.104
    1PA     H5R 3386   5.780   0.659   5.192
    1PA     H5S 3387   5.876   0.541   5.104
    1PA     C14 3388   5.959   0.744   5.115
    1PA     H4R 3389   6.037   0.715   5.044
    1PA     H4S 3390   5.918   0.840   5.082
    1PA     C13 3391   6.023   0.742   5.254
    1PA     H3R 3392   5.974   0.810   5.325
    1PA     H3S 3393   6.013   0.642   5.297
    1PA     C12 3394   6.167   0.794   5.249
    1PA     H2R 3395   6.230   0.707   5.228
    1PA     H2S 3396   6.176   0.872   5.173
    2PC     C11 3397   6.213   0.849   5.381
    2PC     O12 3398   6.147   0.849   5.483
    2PC     O11 3399   6.334   0.908   5.373
    2PC      C1 3400   6.396   0.955   5.494
    2PC      HR 3401   6.485   1.014   5.470
    2PC      HS 3402   6.319   1.008   5.551
    2PC      C2 3403   6.445   0.837   5.579
    2PC      HX 3404   6.361   0.772   5.605
    2PC      C3 3405   6.500   0.879   5.716
    2PC      HA 3406   6.586   0.946   5.717
    2PC      HB 3407   6.424   0.923   5.781
    2PC     O31 3408   6.529   0.751   5.774
    2PC     P31 3409   6.553   0.725   5.931
    2PC     O32 3410   6.407   0.668   5.965
    2PC     C31 3411   6.304   0.753   6.019
    2PC     H1A 3412   6.336   0.785   6.119
    2PC     H1B 3413   6.297   0.845   5.960
    2PC     C32 3414   6.168   0.681   6.024
    2PC     H2A 3415   6.092   0.759   6.020
    2PC     H2B 3416   6.147   0.622   5.934
    2PC     N31 3417   6.150   0.577   6.130
    2PC     C33 3418   6.188   0.634   6.263
    2PC     H3A 3419   6.129   0.724   6.283
    2PC     H3B 3420   6.183   0.562   6.345
    2PC     H3C 3421   6.293   0.665   6.258
    2PC     C34 3422   6.006   0.535   6.121
    2PC     H4A 3423   5.947   0.627   6.132
    2PC     H4B 3424   5.989   0.490   6.024
    2PC     H4C 3425   5.980   0.465   6.200
    2PC     C35 3426   6.238   0.459   6.102
    2PC     H5A 3427   6.201   0.385   6.172
    2PC     H5B 3428   6.345   0.473   6.120
    2PC     H5C 3429   6.218   0.421   6.002
    2PC     O33 3430   6.654   0.630   5.980
    2PC     O34 3431   6.579   0.851   6.004
    2PC     O21 3432   6.547   0.761   5.513
    2PC     C21 3433   6.522   0.662   5.426
    2PC     O22 3434   6.418   0.599   5.426
    3OL     C12 3435   6.633   0.628   5.329
    3OL     H2R 3436   6.627   0.525   5.296
    3OL     H2S 3437   6.725   0.643   5.386
    3OL     C13 3438   6.643   0.725   5.211
    3OL     H3R 3439   6.727   0.697   5.147
    3OL     H3S 3440   6.656   0.828   5.245
    3OL     C14 3441   6.526   0.696   5.117
    3OL     H4R 3442   6.435   0.676   5.174
    3OL     H4S 3443   6.546   0.595   5.080
    3OL     C15 3444   6.513   0.783   4.991
    3OL     H5R 3445   6.451   0.730   4.918
    3OL     H5S 3446   6.613   0.802   4.952
    3OL     C16 3447   6.442   0.917   5.009
    3OL     H6R 3448   6.492   0.974   5.088
    3OL     H6S 3449   6.338   0.896   5.036
    3OL     C17 3450   6.447   0.999   4.880
    3OL     H7R 3451   6.553   1.016   4.859
    3OL     H7S 3452   6.397   1.096   4.883
    3OL     C18 3453   6.389   0.937   4.752
    3OL     H8R 3454   6.441   0.846   4.722
    3OL     H8S 3455   6.407   1.000   4.665
    3OL     C19 3456   6.240   0.915   4.762
    3OL     H9R 3457   6.182   0.995   4.807
    3OL    C110 3458   6.181   0.799   4.739
    3OL    H10R 3459   6.073   0.789   4.747
    3OL    C111 3460   6.248   0.681   4.672
    3OL    H11R 3461   6.186   0.592   4.687
    3OL    H11S 3462   6.347   0.666   4.715
    3OL    C112 3463   6.263   0.686   4.520
    3OL    H12R 3464   6.337   0.612   4.487
    3OL    H12S 3465   6.298   0.787   4.502
    3OL    C113 3466   6.132   0.665   4.443
    3OL    H13R 3467   6.059   0.735   4.484
    3OL    H13S 3468   6.097   0.564   4.465
    3OL    C114 3469   6.152   0.686   4.292
    3OL    H14R 3470   6.214   0.605   4.252
    3OL    H14S 3471   6.195   0.786   4.287
    3OL    C115 3472   6.018   0.692   4.219
    3OL    H15R 3473   5.958   0.766   4.273
    3OL    H15S 3474   5.963   0.599   4.237
    3OL    C116 3475   6.036   0.738   4.074
    3OL    H16R 3476   6.070   0.842   4.079
    3OL    H16S 3477   5.938   0.737   4.026
    3OL    C117 3478   6.119   0.641   3.988
    3OL    H17R 3479   6.077   0.540   3.994
    3OL    H17S 3480   6.222   0.636   4.024
    3OL    C118 3481   6.111   0.665   3.837
    3OL    H18R 3482   6.165   0.578   3.802
    3OL    H18S 3483   6.167   0.751   3.800
    3OL    H18T 3484   6.008   0.669   3.800
    1PA    C116 3485   5.611   4.199   3.836
    1PA    H16R 3486   5.682   4.274   3.798
    1PA    H16S 3487   5.663   4.145   3.915
    1PA    H16T 3488   5.592   4.128   3.756
    1PA    C115 3489   5.481   4.250   3.900
    1PA    H15R 3490   5.405   4.274   3.825
    1PA    H15S 3491   5.441   4.174   3.967
    1PA    C114 3492   5.498   4.375   3.986
    1PA    H14R 3493   5.577   4.440   3.946
    1PA    H14S 3494   5.405   4.433   3.990
    1PA    C113 3495   5.534   4.341   4.132
    1PA    H13R 3496   5.445   4.284   4.160
    1PA    H13S 3497   5.615   4.269   4.137
    1PA    C112 3498   5.546   4.474   4.207
    1PA    H12R 3499   5.484   4.551   4.162
    1PA    H12S 3500   5.524   4.454   4.312
    1PA    C111 3501   5.694   4.516   4.205
    1PA    H11R 3502   5.750   4.452   4.273
    1PA    H11S 3503   5.727   4.501   4.102
    1PA    C110 3504   5.722   4.654   4.267
    1PA    H10R 3505   5.831   4.661   4.264
    1PA    H10S 3506   5.677   4.722   4.196
    1PA     C19 3507   5.669   4.672   4.410
    1PA     H9R 3508   5.704   4.768   4.450
    1PA     H9S 3509   5.560   4.682   4.412
    1PA     C18 3510   5.707   4.565   4.513
    1PA     H8R 3511   5.661   4.468   4.493
    1PA     H8S 3512   5.812   4.536   4.512
    1PA     C17 3513   5.668   4.604   4.657
    1PA     H7R 3514   5.705   4.705   4.672
    1PA     H7S 3515   5.560   4.607   4.671
    1PA     C16 3516   5.721   4.505   4.762
    1PA     H6R 3517   5.652   4.421   4.748
    1PA     H6S 3518   5.822   4.471   4.740
    1PA     C15 3519   5.708   4.554   4.907
    1PA     H5R 3520   5.763   4.649   4.906
    1PA     H5S 3521   5.606   4.587   4.930
    1PA     C14 3522   5.763   4.459   5.014
    1PA     H4R 3523   5.708   4.365   5.012
    1PA     H4S 3524   5.870   4.449   4.996
    1PA     C13 3525   5.752   4.527   5.151
    1PA     H3R 3526   5.821   4.611   5.155
    1PA     H3S 3527   5.650   4.565   5.164
    1PA     C12 3528   5.780   4.418   5.256
    1PA     H2R 3529   5.695   4.350   5.263
    1PA     H2S 3530   5.867   4.358   5.229
    2PC     C11 3531   5.790   4.485   5.390
    2PC     O12 3532   5.894   4.533   5.429
    2PC     O11 3533   5.677   4.481   5.463
    2PC      C1 3534   5.682   4.529   5.599
    2PC      HR 3535   5.755   4.470   5.655
    2PC      HS 3536   5.712   4.634   5.602
    2PC      C2 3537   5.546   4.500   5.664
    2PC      HX 3538   5.546   4.529   5.769
    2PC      C3 3539   5.515   4.349   5.662
    2PC      HA 3540   5.475   4.312   5.567
    2PC      HB 3541   5.599   4.290   5.700
    2PC     O31 3542   5.401   4.329   5.748
    2PC     P31 3543   5.330   4.186   5.754
    2PC     O32 3544   5.171   4.202   5.755
    2PC     C31 3545   5.114   4.257   5.875
    2PC     H1A 3546   5.127   4.187   5.958
    2PC     H1B 3547   5.167   4.345   5.911
    2PC     C32 3548   4.970   4.300   5.842
    2PC     H2A 3549   4.934   4.369   5.918
    2PC     H2B 3550   4.975   4.350   5.746
    2PC     N31 3551   4.865   4.195   5.824
    2PC     C33 3552   4.760   4.261   5.739
    2PC     H3A 3553   4.718   4.353   5.781
    2PC     H3B 3554   4.802   4.278   5.640
    2PC     H3C 3555   4.679   4.190   5.721
    2PC     C34 3556   4.918   4.067   5.767
    2PC     H4A 3557   4.996   4.020   5.827
    2PC     H4B 3558   4.831   4.002   5.761
    2PC     H4C 3559   4.961   4.093   5.670
    2PC     C35 3560   4.813   4.168   5.962
    2PC     H5A 3561   4.887   4.102   6.008
    2PC     H5B 3562   4.715   4.121   5.955
    2PC     H5C 3563   4.810   4.262   6.017
    2PC     O33 3564   5.347   4.112   5.627
    2PC     O34 3565   5.387   4.096   5.857
    2PC     O21 3566   5.443   4.567   5.588
    2PC     C21 3567   5.417   4.696   5.616
    2PC     O22 3568   5.494   4.758   5.687
    3OL     C12 3569   5.303   4.758   5.538
    3OL     H2R 3570   5.301   4.862   5.571
    3OL     H2S 3571   5.206   4.711   5.556
    3OL     C13 3572   5.331   4.755   5.387
    3OL     H3R 3573   5.334   4.651   5.354
    3OL     H3S 3574   5.425   4.806   5.364
    3OL     C14 3575   5.229   4.841   5.310
    3OL     H4R 3576   5.256   4.946   5.326
    3OL     H4S 3577   5.131   4.826   5.355
    3OL     C15 3578   5.228   4.813   5.159
    3OL     H5R 3579   5.139   4.865   5.124
    3OL     H5S 3580   5.222   4.707   5.134
    3OL     C16 3581   5.357   4.858   5.089
    3OL     H6R 3582   5.441   4.814   5.142
    3OL     H6S 3583   5.358   4.966   5.107
    3OL     C17 3584   5.373   4.834   4.938
    3OL     H7R 3585   5.341   4.733   4.911
    3OL     H7S 3586   5.477   4.853   4.910
    3OL     C18 3587   5.280   4.928   4.860
    3OL     H8R 3588   5.297   5.029   4.897
    3OL     H8S 3589   5.173   4.911   4.868
    3OL     C19 3590   5.335   4.922   4.719
    3OL     H9R 3591   5.424   4.982   4.705
    3OL    C110 3592   5.288   4.846   4.622
    3OL    H10R 3593   5.343   4.844   4.529
    3OL    C111 3594   5.161   4.764   4.622
    3OL    H11R 3595   5.098   4.773   4.710
    3OL    H11S 3596   5.206   4.664   4.631
    3OL    C112 3597   5.079   4.766   4.493
    3OL    H12R 3598   5.040   4.867   4.476
    3OL    H12S 3599   4.995   4.696   4.503
    3OL    C113 3600   5.163   4.730   4.370
    3OL    H13R 3601   5.228   4.643   4.376
    3OL    H13S 3602   5.234   4.812   4.355
    3OL    C114 3603   5.080   4.721   4.241
    3OL    H14R 3604   5.030   4.817   4.226
    3OL    H14S 3605   5.001   4.648   4.262
    3OL    C115 3606   5.169   4.676   4.125
    3OL    H15R 3607   5.221   4.581   4.142
    3OL    H15S 3608   5.254   4.740   4.100
    3OL    C116 3609   5.071   4.641   4.013
    3OL    H16R 3610   5.027   4.732   3.970
    3OL    H16S 3611   4.987   4.589   4.060
    3OL    C117 3612   5.128   4.564   3.893
    3OL    H17R 3613   5.048   4.534   3.825
    3OL    H17S 3614   5.186   4.476   3.922
    3OL    C118 3615   5.221   4.659   3.815
    3OL    H18R 3616   5.256   4.624   3.718
    3OL    H18S 3617   5.308   4.687   3.875
    3OL    H18T 3618   5.173   4.755   3.798
    1PA    C116 3619   0.625   1.680   3.862
    1PA    H16R 3620   0.521   1.663   3.890
    1PA    H16S 3621   0.670   1.599   3.803
    1PA    H16T 3622   0.630   1.772   3.804
    1PA    C115 3623   0.702   1.720   3.989
    1PA    H15R 3624   0.652   1.807   4.032
    1PA    H15S 3625   0.690   1.643   4.066
    1PA    C114 3626   0.847   1.761   3.962
    1PA    H14R 3627   0.906   1.675   3.932
    1PA    H14S 3628   0.850   1.824   3.873
    1PA    C113 3629   0.902   1.832   4.087
    1PA    H13R 3630   0.990   1.882   4.044
    1PA    H13S 3631   0.838   1.911   4.126
    1PA    C112 3632   0.926   1.734   4.202
    1PA    H12R 3633   0.836   1.704   4.255
    1PA    H12S 3634   0.974   1.650   4.152
    1PA    C111 3635   1.027   1.806   4.294
    1PA    H11R 3636   1.116   1.839   4.240
    1PA    H11S 3637   0.984   1.893   4.345
    1PA    C110 3638   1.080   1.710   4.401
    1PA    H10R 3639   1.096   1.611   4.359
    1PA    H10S 3640   1.170   1.753   4.444
    1PA     C19 3641   0.978   1.705   4.516
    1PA     H9R 3642   0.959   1.806   4.553
    1PA     H9S 3643   0.895   1.650   4.472
    1PA     C18 3644   1.029   1.623   4.635
    1PA     H8R 3645   1.120   1.670   4.674
    1PA     H8S 3646   0.950   1.628   4.710
    1PA     C17 3647   1.060   1.474   4.617
    1PA     H7R 3648   0.978   1.412   4.579
    1PA     H7S 3649   1.144   1.466   4.547
    1PA     C16 3650   1.103   1.417   4.753
    1PA     H6R 3651   1.021   1.419   4.825
    1PA     H6S 3652   1.127   1.312   4.734
    1PA     C15 3653   1.228   1.486   4.810
    1PA     H5R 3654   1.305   1.495   4.733
    1PA     H5S 3655   1.200   1.581   4.855
    1PA     C14 3656   1.292   1.407   4.925
    1PA     H4R 3657   1.312   1.300   4.911
    1PA     H4S 3658   1.387   1.453   4.950
    1PA     C13 3659   1.210   1.417   5.055
    1PA     H3R 3660   1.116   1.362   5.050
    1PA     H3S 3661   1.271   1.359   5.125
    1PA     C12 3662   1.186   1.561   5.099
    1PA     H2R 3663   1.277   1.620   5.085
    1PA     H2S 3664   1.110   1.617   5.043
    2PC     C11 3665   1.138   1.569   5.242
    2PC     O12 3666   1.087   1.480   5.307
    2PC     O11 3667   1.160   1.693   5.286
    2PC      C1 3668   1.118   1.725   5.420
    2PC      HR 3669   1.015   1.693   5.435
    2PC      HS 3670   1.188   1.664   5.478
    2PC      C2 3671   1.140   1.874   5.446
    2PC      HX 3672   1.234   1.913   5.406
    2PC      C3 3673   1.131   1.892   5.598
    2PC      HA 3674   1.036   1.854   5.636
    2PC      HB 3675   1.216   1.837   5.640
    2PC     O31 3676   1.134   2.031   5.637
    2PC     P31 3677   1.140   2.072   5.791
    2PC     O32 3678   0.984   2.076   5.828
    2PC     C31 3679   0.900   2.181   5.775
    2PC     H1A 3680   0.910   2.264   5.845
    2PC     H1B 3681   0.933   2.203   5.673
    2PC     C32 3682   0.759   2.122   5.768
    2PC     H2A 3683   0.750   2.056   5.681
    2PC     H2B 3684   0.737   2.064   5.857
    2PC     N31 3685   0.648   2.222   5.761
    2PC     C33 3686   0.641   2.308   5.884
    2PC     H3A 3687   0.538   2.339   5.904
    2PC     H3B 3688   0.680   2.250   5.967
    2PC     H3C 3689   0.702   2.395   5.856
    2PC     C34 3690   0.665   2.308   5.639
    2PC     H4A 3691   0.567   2.354   5.630
    2PC     H4B 3692   0.741   2.384   5.659
    2PC     H4C 3693   0.699   2.245   5.556
    2PC     C35 3694   0.515   2.154   5.751
    2PC     H5A 3695   0.434   2.222   5.779
    2PC     H5B 3696   0.518   2.072   5.823
    2PC     H5C 3697   0.511   2.130   5.645
    2PC     O33 3698   1.218   1.991   5.887
    2PC     O34 3699   1.210   2.202   5.798
    2PC     O21 3700   1.038   1.944   5.373
    2PC     C21 3701   0.910   1.956   5.413
    2PC     O22 3702   0.860   1.891   5.502
    3OL     C12 3703   0.832   2.051   5.326
    3OL     H2R 3704   0.863   2.146   5.371
    3OL     H2S 3705   0.726   2.038   5.347
    3OL     C13 3706   0.856   2.024   5.177
    3OL     H3R 3707   0.961   2.030   5.149
    3OL     H3S 3708   0.807   2.106   5.123
    3OL     C14 3709   0.798   1.887   5.140
    3OL     H4R 3710   0.694   1.878   5.172
    3OL     H4S 3711   0.863   1.814   5.189
    3OL     C15 3712   0.816   1.858   4.990
    3OL     H5R 3713   0.790   1.754   4.972
    3OL     H5S 3714   0.922   1.871   4.966
    3OL     C16 3715   0.742   1.948   4.890
    3OL     H6R 3716   0.778   2.051   4.902
    3OL     H6S 3717   0.636   1.942   4.912
    3OL     C17 3718   0.789   1.922   4.746
    3OL     H7R 3719   0.755   1.820   4.724
    3OL     H7S 3720   0.898   1.922   4.736
    3OL     C18 3721   0.729   2.032   4.659
    3OL     H8R 3722   0.629   2.060   4.693
    3OL     H8S 3723   0.724   2.004   4.554
    3OL     C19 3724   0.814   2.155   4.678
    3OL     H9R 3725   0.785   2.219   4.761
    3OL    C110 3726   0.912   2.205   4.604
    3OL    H10R 3727   0.958   2.297   4.639
    3OL    C111 3728   0.961   2.156   4.470
    3OL    H11R 3729   0.889   2.093   4.418
    3OL    H11S 3730   1.038   2.081   4.490
    3OL    C112 3731   1.002   2.273   4.380
    3OL    H12R 3732   1.087   2.323   4.428
    3OL    H12S 3733   0.920   2.343   4.364
    3OL    C113 3734   1.048   2.228   4.240
    3OL    H13R 3735   1.062   2.324   4.191
    3OL    H13S 3736   0.967   2.187   4.179
    3OL    C114 3737   1.179   2.149   4.230
    3OL    H14R 3738   1.185   2.079   4.313
    3OL    H14S 3739   1.268   2.213   4.232
    3OL    C115 3740   1.198   2.072   4.098
    3OL    H15R 3741   1.103   2.060   4.044
    3OL    H15S 3742   1.247   1.975   4.107
    3OL    C116 3743   1.281   2.162   4.006
    3OL    H16R 3744   1.377   2.172   4.057
    3OL    H16S 3745   1.223   2.254   4.004
    3OL    C117 3746   1.297   2.106   3.864
    3OL    H17R 3747   1.298   2.195   3.802
    3OL    H17S 3748   1.206   2.056   3.830
    3OL    C118 3749   1.417   2.010   3.855
    3OL    H18R 3750   1.402   1.924   3.921
    3OL    H18S 3751   1.516   2.054   3.869
    3OL    H18T 3752   1.426   1.974   3.753
    1PA    C116 3753   1.837   2.115   3.900
    1PA    H16R 3754   1.733   2.103   3.870
    1PA    H16S 3755   1.863   2.046   3.981
    1PA    H16T 3756   1.906   2.091   3.818
    1PA    C115 3757   1.855   2.255   3.960
    1PA    H15R 3758   1.836   2.331   3.884
    1PA    H15S 3759   1.782   2.269   4.041
    1PA    C114 3760   1.998   2.269   4.014
    1PA    H14R 3761   2.015   2.203   4.099
    1PA    H14S 3762   2.080   2.257   3.943
    1PA    C113 3763   2.012   2.413   4.066
    1PA    H13R 3764   2.015   2.474   3.975
    1PA    H13S 3765   1.928   2.459   4.120
    1PA    C112 3766   2.139   2.418   4.151
    1PA    H12R 3767   2.129   2.345   4.231
    1PA    H12S 3768   2.224   2.397   4.086
    1PA    C111 3769   2.151   2.556   4.217
    1PA    H11R 3770   2.165   2.622   4.131
    1PA    H11S 3771   2.069   2.596   4.277
    1PA    C110 3772   2.285   2.560   4.293
    1PA    H10R 3773   2.370   2.513   4.244
    1PA    H10S 3774   2.309   2.664   4.317
    1PA     C19 3775   2.266   2.491   4.428
    1PA     H9R 3776   2.170   2.515   4.474
    1PA     H9S 3777   2.272   2.382   4.423
    1PA     C18 3778   2.379   2.531   4.525
    1PA     H8R 3779   2.471   2.483   4.492
    1PA     H8S 3780   2.390   2.640   4.522
    1PA     C17 3781   2.344   2.485   4.667
    1PA     H7R 3782   2.282   2.561   4.716
    1PA     H7S 3783   2.278   2.399   4.680
    1PA     C16 3784   2.479   2.473   4.739
    1PA     H6R 3785   2.544   2.408   4.682
    1PA     H6S 3786   2.526   2.572   4.733
    1PA     C15 3787   2.470   2.425   4.885
    1PA     H5R 3788   2.568   2.446   4.927
    1PA     H5S 3789   2.396   2.485   4.939
    1PA     C14 3790   2.446   2.273   4.882
    1PA     H4R 3791   2.353   2.245   4.832
    1PA     H4S 3792   2.531   2.224   4.833
    1PA     C13 3793   2.447   2.226   5.028
    1PA     H3R 3794   2.527   2.279   5.082
    1PA     H3S 3795   2.362   2.275   5.075
    1PA     C12 3796   2.441   2.075   5.050
    1PA     H2R 3797   2.355   2.036   4.995
    1PA     H2S 3798   2.526   2.017   5.012
    2PC     C11 3799   2.421   2.039   5.195
    2PC     O12 3800   2.475   2.099   5.286
    2PC     O11 3801   2.347   1.930   5.222
    2PC      C1 3802   2.342   1.883   5.357
    2PC      HR 3803   2.303   1.781   5.364
    2PC      HS 3804   2.444   1.879   5.396
    2PC      C2 3805   2.254   1.974   5.444
    2PC      HX 3806   2.261   2.082   5.432
    2PC      C3 3807   2.296   1.952   5.590
    2PC      HA 3808   2.400   1.983   5.602
    2PC      HB 3809   2.245   2.012   5.666
    2PC     O31 3810   2.277   1.811   5.608
    2PC     P31 3811   2.328   1.731   5.737
    2PC     O32 3812   2.192   1.710   5.819
    2PC     C31 3813   2.182   1.612   5.924
    2PC     H1A 3814   2.227   1.520   5.887
    2PC     H1B 3815   2.241   1.660   6.002
    2PC     C32 3816   2.036   1.611   5.970
    2PC     H2A 3817   2.005   1.706   6.014
    2PC     H2B 3818   1.971   1.583   5.887
    2PC     N31 3819   1.991   1.507   6.068
    2PC     C33 3820   1.850   1.537   6.108
    2PC     H3A 3821   1.805   1.445   6.147
    2PC     H3B 3822   1.842   1.621   6.176
    2PC     H3C 3823   1.787   1.558   6.021
    2PC     C34 3824   1.988   1.373   6.001
    2PC     H4A 3825   1.925   1.304   6.057
    2PC     H4B 3826   1.941   1.391   5.904
    2PC     H4C 3827   2.088   1.333   5.988
    2PC     C35 3828   2.094   1.497   6.176
    2PC     H5A 3829   2.194   1.506   6.133
    2PC     H5B 3830   2.080   1.403   6.230
    2PC     H5C 3831   2.084   1.576   6.251
    2PC     O33 3832   2.373   1.602   5.682
    2PC     O34 3833   2.438   1.801   5.808
    2PC     O21 3834   2.115   1.940   5.429
    2PC     C21 3835   2.043   1.997   5.331
    2PC     O22 3836   2.082   2.099   5.279
    3OL     C12 3837   1.921   1.916   5.293
    3OL     H2R 3838   1.836   1.942   5.356
    3OL     H2S 3839   1.944   1.811   5.309
    3OL     C13 3840   1.894   1.937   5.143
    3OL     H3R 3841   1.873   2.042   5.125
    3OL     H3S 3842   1.806   1.878   5.117
    3OL     C14 3843   2.001   1.879   5.049
    3OL     H4R 3844   2.037   1.779   5.072
    3OL     H4S 3845   2.082   1.953   5.047
    3OL     C15 3846   1.950   1.853   4.907
    3OL     H5R 3847   1.854   1.801   4.903
    3OL     H5S 3848   2.022   1.786   4.858
    3OL     C16 3849   1.941   1.985   4.829
    3OL     H6R 3850   2.031   2.046   4.826
    3OL     H6S 3851   1.866   2.049   4.875
    3OL     C17 3852   1.911   1.968   4.680
    3OL     H7R 3853   1.815   1.916   4.680
    3OL     H7S 3854   1.989   1.905   4.637
    3OL     C18 3855   1.914   2.110   4.620
    3OL     H8R 3856   2.015   2.151   4.621
    3OL     H8S 3857   1.844   2.175   4.674
    3OL     C19 3858   1.869   2.099   4.477
    3OL     H9R 3859   1.943   2.045   4.418
    3OL    C110 3860   1.773   2.167   4.417
    3OL    H10R 3861   1.764   2.160   4.309
    3OL    C111 3862   1.668   2.257   4.477
    3OL    H11R 3863   1.635   2.328   4.401
    3OL    H11S 3864   1.711   2.312   4.562
    3OL    C112 3865   1.549   2.170   4.518
    3OL    H12R 3866   1.577   2.110   4.604
    3OL    H12S 3867   1.515   2.104   4.437
    3OL    C113 3868   1.431   2.256   4.564
    3OL    H13R 3869   1.349   2.186   4.576
    3OL    H13S 3870   1.412   2.331   4.487
    3OL    C114 3871   1.449   2.331   4.697
    3OL    H14R 3872   1.530   2.403   4.690
    3OL    H14S 3873   1.467   2.260   4.778
    3OL    C115 3874   1.318   2.398   4.742
    3OL    H15R 3875   1.275   2.429   4.647
    3OL    H15S 3876   1.346   2.480   4.808
    3OL    C116 3877   1.223   2.305   4.819
    3OL    H16R 3878   1.209   2.211   4.765
    3OL    H16S 3879   1.137   2.371   4.832
    3OL    C117 3880   1.276   2.278   4.960
    3OL    H17R 3881   1.329   2.366   4.997
    3OL    H17S 3882   1.347   2.198   4.939
    3OL    C118 3883   1.172   2.225   5.060
    3OL    H18R 3884   1.111   2.306   5.101
    3OL    H18S 3885   1.227   2.175   5.140
    3OL    H18T 3886   1.106   2.157   5.006
    1PA    C116 3887   5.991   6.079   3.358
    1PA    H16R 3888   5.910   6.141   3.318
    1PA    H16S 3889   6.019   6.011   3.278
    1PA    H16T 3890   6.080   6.141   3.373
    1PA    C115 3891   5.944   6.019   3.491
    1PA    H15R 3892   5.923   6.099   3.562
    1PA    H15S 3893   5.850   5.965   3.475
    1PA    C114 3894   6.049   5.925   3.550
    1PA    H14R 3895   6.052   5.834   3.489
    1PA    H14S 3896   6.145   5.977   3.549
    1PA    C113 3897   6.026   5.885   3.697
    1PA    H13R 3898   5.925   5.846   3.711
    1PA    H13S 3899   6.091   5.802   3.726
    1PA    C112 3900   6.039   5.999   3.798
    1PA    H12R 3901   6.139   6.040   3.782
    1PA    H12S 3902   5.975   6.087   3.782
    1PA    C111 3903   6.026   5.950   3.943
    1PA    H11R 3904   5.925   5.908   3.943
    1PA    H11S 3905   6.097   5.870   3.965
    1PA    C110 3906   6.025   6.062   4.048
    1PA    H10R 3907   6.128   6.097   4.061
    1PA    H10S 3908   5.971   6.147   4.006
    1PA     C19 3909   5.970   6.005   4.179
    1PA     H9R 3910   5.895   6.075   4.215
    1PA     H9S 3911   5.911   5.916   4.158
    1PA     C18 3912   6.073   5.983   4.291
    1PA     H8R 3913   6.150   6.060   4.286
    1PA     H8S 3914   6.024   6.007   4.386
    1PA     C17 3915   6.126   5.839   4.302
    1PA     H7R 3916   6.041   5.772   4.311
    1PA     H7S 3917   6.162   5.801   4.206
    1PA     C16 3918   6.232   5.812   4.409
    1PA     H6R 3919   6.264   5.710   4.387
    1PA     H6S 3920   6.301   5.896   4.416
    1PA     C15 3921   6.168   5.808   4.548
    1PA     H5R 3922   6.105   5.895   4.569
    1PA     H5S 3923   6.096   5.726   4.556
    1PA     C14 3924   6.283   5.800   4.649
    1PA     H4R 3925   6.349   5.718   4.621
    1PA     H4S 3926   6.349   5.887   4.646
    1PA     C13 3927   6.231   5.766   4.789
    1PA     H3R 3928   6.143   5.703   4.776
    1PA     H3S 3929   6.300   5.706   4.847
    1PA     C12 3930   6.192   5.893   4.867
    1PA     H2R 3931   6.271   5.968   4.864
    1PA     H2S 3932   6.108   5.944   4.819
    2PC     C11 3933   6.167   5.864   5.013
    2PC     O12 3934   6.240   5.793   5.079
    2PC     O11 3935   6.048   5.904   5.059
    2PC      C1 3936   6.040   5.914   5.202
    2PC      HR 3937   5.942   5.948   5.234
    2PC      HS 3938   6.049   5.815   5.248
    2PC      C2 3939   6.145   6.009   5.263
    2PC      HX 3940   6.245   5.967   5.259
    2PC      C3 3941   6.104   6.038   5.408
    2PC      HA 3942   6.019   6.106   5.403
    2PC      HB 3943   6.094   5.939   5.454
    2PC     O31 3944   6.211   6.116   5.464
    2PC     P31 3945   6.250   6.080   5.615
    2PC     O32 3946   6.121   6.119   5.701
    2PC     C31 3947   6.090   6.033   5.812
    2PC     H1A 3948   6.098   5.928   5.781
    2PC     H1B 3949   6.166   6.035   5.890
    2PC     C32 3950   5.951   6.063   5.869
    2PC     H2A 3951   5.873   6.076   5.794
    2PC     H2B 3952   5.923   5.974   5.925
    2PC     N31 3953   5.936   6.178   5.965
    2PC     C33 3954   6.010   6.144   6.091
    2PC     H3A 3955   5.956   6.060   6.135
    2PC     H3B 3956   6.110   6.113   6.060
    2PC     H3C 3957   6.023   6.236   6.149
    2PC     C34 3958   5.989   6.308   5.913
    2PC     H4A 3959   5.926   6.382   5.964
    2PC     H4B 3960   6.096   6.315   5.929
    2PC     H4C 3961   5.955   6.310   5.809
    2PC     C35 3962   5.791   6.196   5.996
    2PC     H5A 3963   5.785   6.270   6.076
    2PC     H5B 3964   5.751   6.102   6.036
    2PC     H5C 3965   5.740   6.213   5.901
    2PC     O33 3966   6.287   5.938   5.637
    2PC     O34 3967   6.373   6.156   5.650
    2PC     O21 3968   6.152   6.128   5.183
    2PC     C21 3969   6.051   6.213   5.161
    2PC     O22 3970   5.936   6.199   5.200
    3OL     C12 3971   6.097   6.335   5.085
    3OL     H2R 3972   6.206   6.330   5.081
    3OL     H2S 3973   6.065   6.428   5.131
    3OL     C13 3974   6.073   6.324   4.933
    3OL     H3R 3975   6.116   6.229   4.901
    3OL     H3S 3976   6.121   6.411   4.889
    3OL     C14 3977   5.926   6.318   4.890
    3OL     H4R 3978   5.874   6.391   4.952
    3OL     H4S 3979   5.879   6.222   4.913
    3OL     C15 3980   5.911   6.341   4.738
    3OL     H5R 3981   5.941   6.443   4.716
    3OL     H5S 3982   5.807   6.326   4.709
    3OL     C16 3983   5.983   6.247   4.641
    3OL     H6R 3984   5.944   6.146   4.648
    3OL     H6S 3985   6.090   6.256   4.658
    3OL     C17 3986   5.969   6.297   4.496
    3OL     H7R 3987   6.031   6.228   4.438
    3OL     H7S 3988   6.022   6.391   4.484
    3OL     C18 3989   5.823   6.301   4.448
    3OL     H8R 3990   5.763   6.373   4.503
    3OL     H8S 3991   5.778   6.204   4.470
    3OL     C19 3992   5.814   6.307   4.297
    3OL     H9R 3993   5.908   6.308   4.242
    3OL    C110 3994   5.707   6.318   4.220
    3OL    H10R 3995   5.723   6.324   4.113
    3OL    C111 3996   5.566   6.321   4.271
    3OL    H11R 3997   5.564   6.300   4.378
    3OL    H11S 3998   5.499   6.251   4.220
    3OL    C112 3999   5.513   6.464   4.254
    3OL    H12R 4000   5.421   6.479   4.310
    3OL    H12S 4001   5.498   6.490   4.149
    3OL    C113 4002   5.604   6.576   4.308
    3OL    H13R 4003   5.684   6.599   4.238
    3OL    H13S 4004   5.644   6.540   4.403
    3OL    C114 4005   5.532   6.706   4.347
    3OL    H14R 4006   5.592   6.777   4.404
    3OL    H14S 4007   5.447   6.681   4.411
    3OL    C115 4008   5.468   6.793   4.238
    3OL    H15R 4009   5.412   6.877   4.281
    3OL    H15S 4010   5.383   6.743   4.191
    3OL    C116 4011   5.574   6.841   4.138
    3OL    H16R 4012   5.573   6.774   4.052
    3OL    H16S 4013   5.673   6.826   4.181
    3OL    C117 4014   5.557   6.984   4.085
    3OL    H17R 4015   5.641   6.999   4.017
    3OL    H17S 4016   5.558   7.057   4.167
    3OL    C118 4017   5.424   6.993   4.009
    3OL    H18R 4018   5.339   6.995   4.078
    3OL    H18S 4019   5.398   6.914   3.939
    3OL    H18T 4020   5.435   7.086   3.952
    1PA    C116 4021   2.516   3.923   3.903
    1PA    H16R 4022   2.480   3.877   3.810
    1PA    H16S 4023   2.622   3.942   3.883
    1PA    H16T 4024   2.467   4.020   3.911
    1PA    C115 4025   2.526   3.832   4.026
    1PA    H15R 4026   2.565   3.896   4.106
    1PA    H15S 4027   2.426   3.798   4.052
    1PA    C114 4028   2.625   3.716   4.010
    1PA    H14R 4029   2.578   3.641   3.947
    1PA    H14S 4030   2.711   3.761   3.959
    1PA    C113 4031   2.674   3.669   4.148
    1PA    H13R 4032   2.771   3.626   4.124
    1PA    H13S 4033   2.684   3.754   4.215
    1PA    C112 4034   2.591   3.556   4.210
    1PA    H12R 4035   2.576   3.475   4.138
    1PA    H12S 4036   2.653   3.524   4.294
    1PA    C111 4037   2.462   3.612   4.271
    1PA    H11R 4038   2.481   3.700   4.332
    1PA    H11S 4039   2.404   3.648   4.186
    1PA    C110 4040   2.394   3.509   4.363
    1PA    H10R 4041   2.356   3.424   4.306
    1PA    H10S 4042   2.473   3.464   4.424
    1PA     C19 4043   2.270   3.569   4.431
    1PA     H9R 4044   2.313   3.633   4.508
    1PA     H9S 4045   2.223   3.643   4.367
    1PA     C18 4046   2.178   3.458   4.484
    1PA     H8R 4047   2.088   3.515   4.509
    1PA     H8S 4048   2.170   3.380   4.408
    1PA     C17 4049   2.242   3.393   4.607
    1PA     H7R 4050   2.179   3.307   4.633
    1PA     H7S 4051   2.337   3.344   4.586
    1PA     C16 4052   2.258   3.477   4.734
    1PA     H6R 4053   2.340   3.431   4.789
    1PA     H6S 4054   2.285   3.580   4.710
    1PA     C15 4055   2.135   3.481   4.826
    1PA     H5R 4056   2.147   3.570   4.888
    1PA     H5S 4057   2.035   3.483   4.783
    1PA     C14 4058   2.122   3.358   4.918
    1PA     H4R 4059   2.035   3.372   4.983
    1PA     H4S 4060   2.122   3.264   4.862
    1PA     C13 4061   2.229   3.363   5.028
    1PA     H3R 4062   2.328   3.353   4.984
    1PA     H3S 4063   2.227   3.458   5.082
    1PA     C12 4064   2.205   3.257   5.136
    1PA     H2R 4065   2.107   3.266   5.183
    1PA     H2S 4066   2.217   3.157   5.095
    2PC     C11 4067   2.304   3.263   5.251
    2PC     O12 4068   2.310   3.358   5.326
    2PC     O11 4069   2.381   3.154   5.269
    2PC      C1 4070   2.441   3.140   5.399
    2PC      HR 4071   2.506   3.224   5.425
    2PC      HS 4072   2.364   3.139   5.477
    2PC      C2 4073   2.516   3.007   5.409
    2PC      HX 4074   2.447   2.924   5.392
    2PC      C3 4075   2.578   2.978   5.547
    2PC      HA 4076   2.498   2.980   5.622
    2PC      HB 4077   2.632   2.883   5.543
    2PC     O31 4078   2.679   3.075   5.577
    2PC     P31 4079   2.757   3.075   5.717
    2PC     O32 4080   2.907   3.070   5.662
    2PC     C31 4081   3.012   3.001   5.733
    2PC     H1A 4082   3.110   3.032   5.697
    2PC     H1B 4083   3.000   3.041   5.834
    2PC     C32 4084   2.998   2.849   5.714
    2PC     H2A 4085   3.046   2.795   5.795
    2PC     H2B 4086   2.893   2.820   5.716
    2PC     N31 4087   3.054   2.796   5.585
    2PC     C33 4088   3.084   2.650   5.602
    2PC     H3A 4089   3.138   2.610   5.516
    2PC     H3B 4090   3.145   2.641   5.692
    2PC     H3C 4091   2.989   2.597   5.613
    2PC     C34 4092   2.946   2.820   5.485
    2PC     H4A 4093   2.857   2.779   5.534
    2PC     H4B 4094   2.941   2.926   5.461
    2PC     H4C 4095   2.970   2.763   5.395
    2PC     C35 4096   3.185   2.858   5.545
    2PC     H5A 4097   3.248   2.854   5.634
    2PC     H5B 4098   3.170   2.960   5.509
    2PC     H5C 4099   3.239   2.798   5.472
    2PC     O33 4100   2.703   3.191   5.791
    2PC     O34 4101   2.718   2.956   5.797
    2PC     O21 4102   2.618   3.011   5.308
    2PC     C21 4103   2.673   2.896   5.264
    2PC     O22 4104   2.641   2.786   5.304
    3OL     C12 4105   2.756   2.910   5.139
    3OL     H2R 4106   2.852   2.859   5.146
    3OL     H2S 4107   2.771   3.017   5.121
    3OL     C13 4108   2.693   2.847   5.014
    3OL     H3R 4109   2.606   2.906   4.986
    3OL     H3S 4110   2.670   2.741   5.032
    3OL     C14 4111   2.798   2.857   4.902
    3OL     H4R 4112   2.878   2.791   4.934
    3OL     H4S 4113   2.840   2.957   4.892
    3OL     C15 4114   2.731   2.825   4.767
    3OL     H5R 4115   2.649   2.895   4.748
    3OL     H5S 4116   2.687   2.725   4.766
    3OL     C16 4117   2.843   2.829   4.662
    3OL     H6R 4118   2.909   2.743   4.677
    3OL     H6S 4119   2.913   2.912   4.670
    3OL     C17 4120   2.791   2.835   4.518
    3OL     H7R 4121   2.866   2.883   4.454
    3OL     H7S 4122   2.694   2.885   4.517
    3OL     C18 4123   2.773   2.696   4.456
    3OL     H8R 4124   2.730   2.638   4.539
    3OL     H8S 4125   2.873   2.655   4.440
    3OL     C19 4126   2.696   2.701   4.326
    3OL     H9R 4127   2.588   2.698   4.338
    3OL    C110 4128   2.744   2.720   4.204
    3OL    H10R 4129   2.680   2.714   4.116
    3OL    C111 4130   2.890   2.715   4.170
    3OL    H11R 4131   2.952   2.775   4.236
    3OL    H11S 4132   2.893   2.774   4.078
    3OL    C112 4133   2.929   2.568   4.147
    3OL    H12R 4134   2.917   2.505   4.235
    3OL    H12S 4135   3.035   2.565   4.119
    3OL    C113 4136   2.847   2.498   4.038
    3OL    H13R 4137   2.742   2.513   4.066
    3OL    H13S 4138   2.865   2.391   4.054
    3OL    C114 4139   2.887   2.547   3.898
    3OL    H14R 4140   2.995   2.540   3.887
    3OL    H14S 4141   2.873   2.655   3.896
    3OL    C115 4142   2.832   2.466   3.780
    3OL    H15R 4143   2.724   2.467   3.761
    3OL    H15S 4144   2.857   2.360   3.788
    3OL    C116 4145   2.904   2.512   3.652
    3OL    H16R 4146   3.010   2.517   3.677
    3OL    H16S 4147   2.883   2.619   3.639
    3OL    C117 4148   2.870   2.442   3.520
    3OL    H17R 4149   2.938   2.482   3.444
    3OL    H17S 4150   2.770   2.470   3.486
    3OL    C118 4151   2.886   2.289   3.523
    3OL    H18R 4152   2.875   2.261   3.418
    3OL    H18S 4153   2.805   2.239   3.576
    3OL    H18T 4154   2.984   2.262   3.563
    1PA    C116 4155   3.436   6.973   3.435
    1PA    H16R 4156   3.456   6.876   3.390
    1PA    H16S 4157   3.457   7.056   3.367
    1PA    H16T 4158   3.332   6.980   3.467
    1PA    C115 4159   3.533   6.979   3.554
    1PA    H15R 4160   3.632   7.009   3.518
    1PA    H15S 4161   3.497   7.052   3.628
    1PA    C114 4162   3.531   6.842   3.622
    1PA    H14R 4163   3.426   6.817   3.637
    1PA    H14S 4164   3.569   6.764   3.556
    1PA    C113 4165   3.604   6.839   3.757
    1PA    H13R 4166   3.712   6.852   3.746
    1PA    H13S 4167   3.566   6.927   3.810
    1PA    C112 4168   3.563   6.707   3.824
    1PA    H12R 4169   3.455   6.702   3.805
    1PA    H12S 4170   3.618   6.627   3.776
    1PA    C111 4171   3.603   6.715   3.972
    1PA    H11R 4172   3.698   6.768   3.981
    1PA    H11S 4173   3.529   6.772   4.028
    1PA    C110 4174   3.599   6.577   4.040
    1PA    H10R 4175   3.505   6.525   4.020
    1PA    H10S 4176   3.682   6.512   4.011
    1PA     C19 4177   3.616   6.598   4.191
    1PA     H9R 4178   3.708   6.657   4.203
    1PA     H9S 4179   3.530   6.656   4.226
    1PA     C18 4180   3.622   6.466   4.270
    1PA     H8R 4181   3.545   6.395   4.239
    1PA     H8S 4182   3.716   6.419   4.240
    1PA     C17 4183   3.630   6.489   4.421
    1PA     H7R 4184   3.712   6.552   4.456
    1PA     H7S 4185   3.537   6.540   4.446
    1PA     C16 4186   3.648   6.361   4.504
    1PA     H6R 4187   3.571   6.285   4.494
    1PA     H6S 4188   3.739   6.303   4.485
    1PA     C15 4189   3.653   6.396   4.654
    1PA     H5R 4190   3.710   6.485   4.681
    1PA     H5S 4191   3.549   6.418   4.679
    1PA     C14 4192   3.703   6.282   4.745
    1PA     H4R 4193   3.656   6.189   4.713
    1PA     H4S 4194   3.811   6.268   4.736
    1PA     C13 4195   3.681   6.303   4.895
    1PA     H3R 4196   3.575   6.297   4.918
    1PA     H3S 4197   3.720   6.212   4.942
    1PA     C12 4198   3.769   6.417   4.948
    1PA     H2R 4199   3.874   6.395   4.931
    1PA     H2S 4200   3.735   6.515   4.915
    2PC     C11 4201   3.752   6.411   5.098
    2PC     O12 4202   3.819   6.347   5.177
    2PC     O11 4203   3.655   6.494   5.138
    2PC      C1 4204   3.620   6.507   5.277
    2PC      HR 4205   3.710   6.505   5.338
    2PC      HS 4206   3.577   6.605   5.299
    2PC      C2 4207   3.521   6.399   5.325
    2PC      HX 4208   3.445   6.398   5.247
    2PC      C3 4209   3.443   6.436   5.452
    2PC      HA 4210   3.420   6.542   5.449
    2PC      HB 4211   3.360   6.370   5.478
    2PC     O31 4212   3.535   6.408   5.560
    2PC     P31 4213   3.482   6.405   5.711
    2PC     O32 4214   3.581   6.506   5.786
    2PC     C31 4215   3.676   6.450   5.878
    2PC     H1A 4216   3.713   6.536   5.935
    2PC     H1B 4217   3.617   6.387   5.945
    2PC     C32 4218   3.792   6.373   5.814
    2PC     H2A 4219   3.841   6.332   5.903
    2PC     H2B 4220   3.748   6.304   5.742
    2PC     N31 4221   3.892   6.448   5.731
    2PC     C33 4222   3.932   6.575   5.799
    2PC     H3A 4223   3.845   6.637   5.825
    2PC     H3B 4224   3.992   6.551   5.887
    2PC     H3C 4225   3.989   6.633   5.725
    2PC     C34 4226   4.012   6.358   5.723
    2PC     H4A 4227   4.051   6.348   5.825
    2PC     H4B 4228   3.980   6.257   5.699
    2PC     H4C 4229   4.083   6.405   5.654
    2PC     C35 4230   3.842   6.461   5.590
    2PC     H5A 4231   3.748   6.514   5.579
    2PC     H5B 4232   3.830   6.365   5.539
    2PC     H5C 4233   3.920   6.522   5.545
    2PC     O33 4234   3.342   6.451   5.730
    2PC     O34 4235   3.477   6.276   5.784
    2PC     O21 4236   3.586   6.271   5.325
    2PC     C21 4237   3.520   6.161   5.286
    2PC     O22 4238   3.402   6.156   5.255
    3OL     C12 4239   3.617   6.047   5.275
    3OL     H2R 4240   3.624   6.011   5.378
    3OL     H2S 4241   3.711   6.096   5.247
    3OL     C13 4242   3.575   5.930   5.184
    3OL     H3R 4243   3.551   5.976   5.088
    3OL     H3S 4244   3.489   5.878   5.227
    3OL     C14 4245   3.693   5.833   5.168
    3OL     H4R 4246   3.692   5.787   5.267
    3OL     H4S 4247   3.788   5.885   5.160
    3OL     C15 4248   3.674   5.727   5.058
    3OL     H5R 4249   3.637   5.766   4.963
    3OL     H5S 4250   3.596   5.658   5.091
    3OL     C16 4251   3.792   5.634   5.027
    3OL     H6R 4252   3.804   5.577   5.119
    3OL     H6S 4253   3.888   5.683   5.010
    3OL     C17 4254   3.749   5.549   4.906
    3OL     H7R 4255   3.755   5.616   4.819
    3OL     H7S 4256   3.647   5.515   4.924
    3OL     C18 4257   3.850   5.435   4.890
    3OL     H8R 4258   3.831   5.355   4.819
    3OL     H8S 4259   3.846   5.388   4.989
    3OL     C19 4260   3.987   5.479   4.843
    3OL     H9R 4261   3.991   5.498   4.736
    3OL    C110 4262   4.093   5.482   4.921
    3OL    H10R 4263   4.186   5.495   4.867
    3OL    C111 4264   4.099   5.452   5.069
    3OL    H11R 4265   4.040   5.363   5.092
    3OL    H11S 4266   4.062   5.542   5.118
    3OL    C112 4267   4.247   5.443   5.108
    3OL    H12R 4268   4.257   5.434   5.217
    3OL    H12S 4269   4.299   5.536   5.084
    3OL    C113 4270   4.321   5.327   5.041
    3OL    H13R 4271   4.298   5.327   4.934
    3OL    H13S 4272   4.284   5.230   5.076
    3OL    C114 4273   4.471   5.328   5.072
    3OL    H14R 4274   4.491   5.228   5.109
    3OL    H14S 4275   4.489   5.381   5.165
    3OL    C115 4276   4.568   5.361   4.957
    3OL    H15R 4277   4.554   5.296   4.871
    3OL    H15S 4278   4.665   5.359   5.006
    3OL    C116 4279   4.539   5.506   4.915
    3OL    H16R 4280   4.552   5.577   4.997
    3OL    H16S 4281   4.441   5.507   4.867
    3OL    C117 4282   4.628   5.547   4.797
    3OL    H17R 4283   4.567   5.616   4.738
    3OL    H17S 4284   4.650   5.456   4.740
    3OL    C118 4285   4.755   5.616   4.849
    3OL    H18R 4286   4.757   5.638   4.955
    3OL    H18S 4287   4.766   5.718   4.813
    3OL    H18T 4288   4.841   5.553   4.823
    1PA    C116 4289  -0.064   6.027   3.937
    1PA    H16R 4290  -0.132   5.945   3.916
    1PA    H16S 4291  -0.047   6.094   3.852
    1PA    H16T 4292  -0.110   6.091   4.013
    1PA    C115 4293   0.070   5.964   3.979
    1PA    H15R 4294   0.109   5.900   3.900
    1PA    H15S 4295   0.137   6.049   3.989
    1PA    C114 4296   0.060   5.887   4.112
    1PA    H14R 4297   0.015   5.947   4.191
    1PA    H14S 4298  -0.021   5.815   4.101
    1PA    C113 4299   0.194   5.824   4.153
    1PA    H13R 4300   0.240   5.752   4.085
    1PA    H13S 4301   0.261   5.909   4.166
    1PA    C112 4302   0.181   5.747   4.285
    1PA    H12R 4303   0.276   5.749   4.339
    1PA    H12S 4304   0.117   5.812   4.346
    1PA    C111 4305   0.117   5.607   4.286
    1PA    H11R 4306   0.043   5.595   4.364
    1PA    H11S 4307   0.066   5.589   4.191
    1PA    C110 4308   0.217   5.492   4.305
    1PA    H10R 4309   0.158   5.404   4.280
    1PA    H10S 4310   0.305   5.493   4.240
    1PA     C19 4311   0.264   5.474   4.450
    1PA     H9R 4312   0.334   5.554   4.471
    1PA     H9S 4313   0.179   5.491   4.517
    1PA     C18 4314   0.326   5.335   4.474
    1PA     H8R 4315   0.257   5.262   4.431
    1PA     H8S 4316   0.414   5.327   4.410
    1PA     C17 4317   0.346   5.306   4.623
    1PA     H7R 4318   0.413   5.386   4.656
    1PA     H7S 4319   0.252   5.325   4.676
    1PA     C16 4320   0.409   5.173   4.663
    1PA     H6R 4321   0.340   5.097   4.628
    1PA     H6S 4322   0.506   5.153   4.616
    1PA     C15 4323   0.411   5.177   4.817
    1PA     H5R 4324   0.468   5.266   4.845
    1PA     H5S 4325   0.307   5.197   4.845
    1PA     C14 4326   0.472   5.046   4.868
    1PA     H4R 4327   0.397   4.967   4.862
    1PA     H4S 4328   0.562   5.019   4.813
    1PA     C13 4329   0.519   5.064   5.013
    1PA     H3R 4330   0.448   5.110   5.082
    1PA     H3S 4331   0.547   4.967   5.056
    1PA     C12 4332   0.638   5.159   5.033
    1PA     H2R 4333   0.720   5.146   4.962
    1PA     H2S 4334   0.603   5.262   5.021
    2PC     C11 4335   0.703   5.144   5.168
    2PC     O12 4336   0.824   5.144   5.179
    2PC     O11 4337   0.622   5.130   5.274
    2PC      C1 4338   0.674   5.126   5.409
    2PC      HR 4339   0.594   5.077   5.465
    2PC      HS 4340   0.763   5.062   5.405
    2PC      C2 4341   0.716   5.260   5.470
    2PC      HX 4342   0.805   5.296   5.419
    2PC      C3 4343   0.737   5.263   5.622
    2PC      HA 4344   0.813   5.189   5.650
    2PC      HB 4345   0.771   5.359   5.661
    2PC     O31 4346   0.610   5.230   5.682
    2PC     P31 4347   0.607   5.228   5.843
    2PC     O32 4348   0.564   5.382   5.854
    2PC     C31 4349   0.504   5.421   5.979
    2PC     H1A 4350   0.399   5.392   5.971
    2PC     H1B 4351   0.565   5.378   6.059
    2PC     C32 4352   0.487   5.573   5.965
    2PC     H2A 4353   0.433   5.582   5.871
    2PC     H2B 4354   0.422   5.609   6.046
    2PC     N31 4355   0.601   5.667   5.942
    2PC     C33 4356   0.711   5.629   6.037
    2PC     H3A 4357   0.669   5.590   6.130
    2PC     H3B 4358   0.772   5.551   5.993
    2PC     H3C 4359   0.763   5.723   6.049
    2PC     C34 4360   0.660   5.656   5.804
    2PC     H4A 4361   0.690   5.556   5.775
    2PC     H4B 4362   0.592   5.685   5.724
    2PC     H4C 4363   0.747   5.721   5.808
    2PC     C35 4364   0.548   5.806   5.960
    2PC     H5A 4365   0.628   5.870   5.924
    2PC     H5B 4366   0.533   5.816   6.068
    2PC     H5C 4367   0.460   5.818   5.897
    2PC     O33 4368   0.502   5.141   5.899
    2PC     O34 4369   0.740   5.207   5.905
    2PC     O21 4370   0.620   5.359   5.430
    2PC     C21 4371   0.636   5.491   5.444
    2PC     O22 4372   0.717   5.544   5.517
    3OL     C12 4373   0.531   5.565   5.364
    3OL     H2R 4374   0.478   5.637   5.426
    3OL     H2S 4375   0.455   5.494   5.333
    3OL     C13 4376   0.602   5.642   5.252
    3OL     H3R 4377   0.694   5.685   5.293
    3OL     H3S 4378   0.538   5.724   5.218
    3OL     C14 4379   0.652   5.550   5.141
    3OL     H4R 4380   0.564   5.489   5.115
    3OL     H4S 4381   0.716   5.472   5.183
    3OL     C15 4382   0.710   5.620   5.017
    3OL     H5R 4383   0.796   5.683   5.040
    3OL     H5S 4384   0.636   5.682   4.966
    3OL     C16 4385   0.745   5.508   4.919
    3OL     H6R 4386   0.653   5.459   4.887
    3OL     H6S 4387   0.804   5.438   4.978
    3OL     C17 4388   0.819   5.553   4.792
    3OL     H7R 4389   0.853   5.461   4.744
    3OL     H7S 4390   0.906   5.613   4.819
    3OL     C18 4391   0.722   5.633   4.704
    3OL     H8R 4392   0.780   5.696   4.636
    3OL     H8S 4393   0.664   5.704   4.764
    3OL     C19 4394   0.639   5.544   4.616
    3OL     H9R 4395   0.579   5.473   4.672
    3OL    C110 4396   0.638   5.536   4.484
    3OL    H10R 4397   0.588   5.451   4.437
    3OL    C111 4398   0.738   5.609   4.398
    3OL    H11R 4399   0.837   5.570   4.421
    3OL    H11S 4400   0.737   5.716   4.417
    3OL    C112 4401   0.714   5.589   4.247
    3OL    H12R 4402   0.735   5.484   4.226
    3OL    H12S 4403   0.795   5.642   4.196
    3OL    C113 4404   0.578   5.637   4.194
    3OL    H13R 4405   0.501   5.612   4.267
    3OL    H13S 4406   0.552   5.585   4.102
    3OL    C114 4407   0.560   5.786   4.166
    3OL    H14R 4408   0.609   5.825   4.256
    3OL    H14S 4409   0.454   5.814   4.173
    3OL    C115 4410   0.633   5.826   4.038
    3OL    H15R 4411   0.573   5.792   3.953
    3OL    H15S 4412   0.725   5.767   4.031
    3OL    C116 4413   0.673   5.974   4.036
    3OL    H16R 4414   0.754   5.983   4.109
    3OL    H16S 4415   0.590   6.039   4.065
    3OL    C117 4416   0.733   6.008   3.899
    3OL    H17R 4417   0.715   6.114   3.879
    3OL    H17S 4418   0.690   5.947   3.820
    3OL    C118 4419   0.886   5.990   3.896
    3OL    H18R 4420   0.933   6.056   3.968
    3OL    H18S 4421   0.925   6.020   3.798
    3OL    H18T 4422   0.905   5.885   3.918
    1PA    C116 4423   3.291   4.826   3.970
    1PA    H16R 4424   3.268   4.880   3.878
    1PA    H16S 4425   3.399   4.830   3.988
    1PA    H16T 4426   3.240   4.868   4.057
    1PA    C115 4427   3.237   4.683   3.960
    1PA    H15R 4428   3.128   4.696   3.953
    1PA    H15S 4429   3.273   4.646   3.864
    1PA    C114 4430   3.286   4.589   4.072
    1PA    H14R 4431   3.242   4.490   4.057
    1PA    H14S 4432   3.392   4.563   4.068
    1PA    C113 4433   3.240   4.644   4.208
    1PA    H13R 4434   3.316   4.716   4.236
    1PA    H13S 4435   3.148   4.702   4.199
    1PA    C112 4436   3.228   4.537   4.318
    1PA    H12R 4437   3.178   4.454   4.268
    1PA    H12S 4438   3.326   4.500   4.351
    1PA    C111 4439   3.144   4.577   4.440
    1PA    H11R 4440   3.200   4.661   4.481
    1PA    H11S 4441   3.052   4.622   4.404
    1PA    C110 4442   3.130   4.461   4.540
    1PA    H10R 4443   3.225   4.407   4.542
    1PA    H10S 4444   3.091   4.506   4.631
    1PA     C19 4445   3.017   4.368   4.492
    1PA     H9R 4446   2.923   4.423   4.487
    1PA     H9S 4447   3.052   4.344   4.392
    1PA     C18 4448   2.990   4.247   4.583
    1PA     H8R 4449   2.941   4.173   4.520
    1PA     H8S 4450   3.084   4.213   4.626
    1PA     C17 4451   2.890   4.270   4.698
    1PA     H7R 4452   2.948   4.350   4.745
    1PA     H7S 4453   2.798   4.320   4.666
    1PA     C16 4454   2.877   4.152   4.794
    1PA     H6R 4455   2.835   4.078   4.726
    1PA     H6S 4456   2.975   4.117   4.827
    1PA     C15 4457   2.791   4.185   4.918
    1PA     H5R 4458   2.853   4.258   4.970
    1PA     H5S 4459   2.706   4.246   4.886
    1PA     C14 4460   2.764   4.063   5.007
    1PA     H4R 4461   2.675   4.009   4.973
    1PA     H4S 4462   2.850   3.995   5.009
    1PA     C13 4463   2.735   4.119   5.146
    1PA     H3R 4464   2.761   4.036   5.212
    1PA     H3S 4465   2.794   4.203   5.183
    1PA     C12 4466   2.588   4.163   5.158
    1PA     H2R 4467   2.572   4.233   5.076
    1PA     H2S 4468   2.517   4.081   5.147
    2PC     C11 4469   2.543   4.232   5.285
    2PC     O12 4470   2.434   4.203   5.329
    2PC     O11 4471   2.624   4.327   5.334
    2PC      C1 4472   2.575   4.426   5.426
    2PC      HR 4473   2.509   4.489   5.366
    2PC      HS 4474   2.520   4.373   5.504
    2PC      C2 4475   2.697   4.504   5.475
    2PC      HX 4476   2.769   4.423   5.493
    2PC      C3 4477   2.655   4.581   5.601
    2PC      HA 4478   2.600   4.525   5.678
    2PC      HB 4479   2.746   4.616   5.649
    2PC     O31 4480   2.571   4.690   5.559
    2PC     P31 4481   2.550   4.822   5.646
    2PC     O32 4482   2.444   4.784   5.760
    2PC     C31 4483   2.324   4.864   5.773
    2PC     H1A 4484   2.365   4.963   5.790
    2PC     H1B 4485   2.269   4.863   5.678
    2PC     C32 4486   2.237   4.815   5.889
    2PC     H2A 4487   2.136   4.851   5.868
    2PC     H2B 4488   2.235   4.706   5.879
    2PC     N31 4489   2.278   4.842   6.031
    2PC     C33 4490   2.161   4.806   6.118
    2PC     H3A 4491   2.132   4.702   6.111
    2PC     H3B 4492   2.181   4.833   6.222
    2PC     H3C 4493   2.076   4.873   6.100
    2PC     C34 4494   2.400   4.762   6.067
    2PC     H4A 4495   2.380   4.660   6.035
    2PC     H4B 4496   2.485   4.800   6.009
    2PC     H4C 4497   2.414   4.774   6.174
    2PC     C35 4498   2.320   4.984   6.053
    2PC     H5A 4499   2.377   5.020   5.967
    2PC     H5B 4500   2.390   4.993   6.136
    2PC     H5C 4501   2.235   5.048   6.077
    2PC     O33 4502   2.674   4.846   5.723
    2PC     O34 4503   2.511   4.949   5.581
    2PC     O21 4504   2.757   4.590   5.376
    2PC     C21 4505   2.880   4.636   5.403
    2PC     O22 4506   2.949   4.613   5.500
    3OL     C12 4507   2.915   4.738   5.297
    3OL     H2R 4508   2.861   4.719   5.204
    3OL     H2S 4509   3.018   4.725   5.265
    3OL     C13 4510   2.874   4.880   5.338
    3OL     H3R 4511   2.938   4.949   5.282
    3OL     H3S 4512   2.893   4.891   5.445
    3OL     C14 4513   2.728   4.912   5.305
    3OL     H4R 4514   2.677   4.838   5.367
    3OL     H4S 4515   2.701   4.876   5.205
    3OL     C15 4516   2.687   5.057   5.332
    3OL     H5R 4517   2.701   5.054   5.441
    3OL     H5S 4518   2.584   5.075   5.302
    3OL     C16 4519   2.771   5.167   5.265
    3OL     H6R 4520   2.878   5.155   5.281
    3OL     H6S 4521   2.746   5.268   5.300
    3OL     C17 4522   2.757   5.168   5.112
    3OL     H7R 4523   2.657   5.202   5.088
    3OL     H7S 4524   2.782   5.069   5.071
    3OL     C18 4525   2.858   5.258   5.041
    3OL     H8R 4526   2.957   5.259   5.087
    3OL     H8S 4527   2.834   5.363   5.059
    3OL     C19 4528   2.863   5.226   4.893
    3OL     H9R 4529   2.769   5.247   4.844
    3OL    C110 4530   2.955   5.153   4.831
    3OL    H10R 4531   2.947   5.120   4.728
    3OL    C111 4532   3.082   5.106   4.897
    3OL    H11R 4533   3.063   5.069   4.998
    3OL    H11S 4534   3.149   5.189   4.918
    3OL    C112 4535   3.165   4.997   4.828
    3OL    H12R 4536   3.259   4.984   4.882
    3OL    H12S 4537   3.194   5.040   4.732
    3OL    C113 4538   3.084   4.866   4.823
    3OL    H13R 4539   3.145   4.793   4.770
    3OL    H13S 4540   2.995   4.884   4.763
    3OL    C114 4541   3.050   4.794   4.954
    3OL    H14R 4542   2.997   4.862   5.022
    3OL    H14S 4543   3.140   4.767   5.010
    3OL    C115 4544   2.965   4.667   4.935
    3OL    H15R 4545   2.987   4.613   5.027
    3OL    H15S 4546   3.002   4.612   4.848
    3OL    C116 4547   2.815   4.696   4.919
    3OL    H16R 4548   2.789   4.750   4.828
    3OL    H16S 4549   2.780   4.760   5.000
    3OL    C117 4550   2.744   4.560   4.925
    3OL    H17R 4551   2.793   4.481   4.868
    3OL    H17S 4552   2.646   4.569   4.877
    3OL    C118 4553   2.718   4.501   5.065
    3OL    H18R 4554   2.628   4.550   5.103
    3OL    H18S 4555   2.798   4.522   5.136
    3OL    H18T 4556   2.696   4.394   5.061
    1PA    C116 4557   4.399   5.376   4.328
    1PA    H16R 4558   4.394   5.358   4.220
    1PA    H16S 4559   4.485   5.441   4.350
    1PA    H16T 4560   4.302   5.423   4.345
    1PA    C115 4561   4.404   5.243   4.404
    1PA    H15R 4562   4.317   5.182   4.379
    1PA    H15S 4563   4.491   5.184   4.376
    1PA    C114 4564   4.414   5.269   4.555
    1PA    H14R 4565   4.444   5.181   4.612
    1PA    H14S 4566   4.495   5.337   4.581
    1PA    C113 4567   4.287   5.333   4.612
    1PA    H13R 4568   4.304   5.363   4.715
    1PA    H13S 4569   4.272   5.431   4.566
    1PA    C112 4570   4.158   5.250   4.619
    1PA    H12R 4571   4.097   5.296   4.696
    1PA    H12S 4572   4.119   5.254   4.518
    1PA    C111 4573   4.182   5.103   4.658
    1PA    H11R 4574   4.093   5.042   4.641
    1PA    H11S 4575   4.258   5.075   4.584
    1PA    C110 4576   4.238   5.077   4.799
    1PA    H10R 4577   4.335   5.126   4.803
    1PA    H10S 4578   4.179   5.124   4.877
    1PA     C19 4579   4.267   4.931   4.836
    1PA     H9R 4580   4.186   4.862   4.811
    1PA     H9S 4581   4.350   4.894   4.776
    1PA     C18 4582   4.318   4.922   4.981
    1PA     H8R 4583   4.386   5.004   5.007
    1PA     H8S 4584   4.228   4.927   5.042
    1PA     C17 4585   4.387   4.794   5.028
    1PA     H7R 4586   4.472   4.775   4.963
    1PA     H7S 4587   4.437   4.803   5.125
    1PA     C16 4588   4.294   4.671   5.026
    1PA     H6R 4589   4.216   4.674   5.102
    1PA     H6S 4590   4.242   4.659   4.931
    1PA     C15 4591   4.383   4.549   5.058
    1PA     H5R 4592   4.453   4.537   4.975
    1PA     H5S 4593   4.437   4.563   5.151
    1PA     C14 4594   4.299   4.421   5.047
    1PA     H4R 4595   4.209   4.435   4.985
    1PA     H4S 4596   4.369   4.351   5.003
    1PA     C13 4597   4.264   4.374   5.189
    1PA     H3R 4598   4.357   4.367   5.246
    1PA     H3S 4599   4.194   4.434   5.247
    1PA     C12 4600   4.194   4.238   5.173
    1PA     H2R 4601   4.122   4.242   5.092
    1PA     H2S 4602   4.266   4.159   5.152
    2PC     C11 4603   4.113   4.192   5.292
    2PC     O12 4604   4.128   4.240   5.402
    2PC     O11 4605   4.038   4.083   5.267
    2PC      C1 4606   3.966   4.020   5.375
    2PC      HR 4607   3.952   3.914   5.351
    2PC      HS 4608   4.024   4.022   5.468
    2PC      C2 4609   3.832   4.093   5.388
    2PC      HX 4610   3.835   4.201   5.372
    2PC      C3 4611   3.764   4.074   5.525
    2PC      HA 4612   3.819   4.128   5.602
    2PC      HB 4613   3.657   4.097   5.519
    2PC     O31 4614   3.765   3.932   5.551
    2PC     P31 4615   3.707   3.878   5.690
    2PC     O32 4616   3.708   3.719   5.664
    2PC     C31 4617   3.756   3.641   5.775
    2PC     H1A 4618   3.736   3.700   5.864
    2PC     H1B 4619   3.698   3.548   5.779
    2PC     C32 4620   3.906   3.616   5.753
    2PC     H2A 4621   3.929   3.569   5.657
    2PC     H2B 4622   3.964   3.708   5.746
    2PC     N31 4623   3.971   3.525   5.852
    2PC     C33 4624   4.091   3.471   5.779
    2PC     H3A 4625   4.048   3.429   5.689
    2PC     H3B 4626   4.160   3.551   5.752
    2PC     H3C 4627   4.141   3.391   5.834
    2PC     C34 4628   4.006   3.592   5.982
    2PC     H4A 4629   4.040   3.511   6.046
    2PC     H4B 4630   4.097   3.647   5.955
    2PC     H4C 4631   3.936   3.660   6.031
    2PC     C35 4632   3.891   3.403   5.888
    2PC     H5A 4633   3.958   3.336   5.942
    2PC     H5B 4634   3.847   3.372   5.793
    2PC     H5C 4635   3.813   3.443   5.952
    2PC     O33 4636   3.780   3.917   5.812
    2PC     O34 4637   3.565   3.917   5.704
    2PC     O21 4638   3.740   4.045   5.288
    2PC     C21 4639   3.735   4.103   5.167
    2PC     O22 4640   3.799   4.200   5.132
    3OL     C12 4641   3.637   4.049   5.066
    3OL     H2R 4642   3.564   3.978   5.107
    3OL     H2S 4643   3.695   3.989   4.997
    3OL     C13 4644   3.558   4.163   5.000
    3OL     H3R 4645   3.621   4.225   4.936
    3OL     H3S 4646   3.509   4.225   5.076
    3OL     C14 4647   3.454   4.126   4.894
    3OL     H4R 4648   3.419   4.219   4.849
    3OL     H4S 4649   3.361   4.092   4.941
    3OL     C15 4650   3.509   4.025   4.793
    3OL     H5R 4651   3.550   3.931   4.831
    3OL     H5S 4652   3.590   4.078   4.743
    3OL     C16 4653   3.409   3.984   4.683
    3OL     H6R 4654   3.452   3.950   4.589
    3OL     H6S 4655   3.358   4.074   4.648
    3OL     C17 4656   3.311   3.878   4.734
    3OL     H7R 4657   3.288   3.896   4.839
    3OL     H7S 4658   3.356   3.778   4.727
    3OL     C18 4659   3.173   3.880   4.665
    3OL     H8R 4660   3.145   3.985   4.671
    3OL     H8S 4661   3.099   3.833   4.729
    3OL     C19 4662   3.166   3.814   4.529
    3OL     H9R 4663   3.264   3.789   4.491
    3OL    C110 4664   3.051   3.781   4.472
    3OL    H10R 4665   3.039   3.739   4.373
    3OL    C111 4666   2.915   3.802   4.534
    3OL    H11R 4667   2.856   3.859   4.462
    3OL    H11S 4668   2.907   3.865   4.623
    3OL    C112 4669   2.844   3.666   4.547
    3OL    H12R 4670   2.901   3.597   4.611
    3OL    H12S 4671   2.832   3.613   4.452
    3OL    C113 4672   2.704   3.684   4.606
    3OL    H13R 4673   2.649   3.592   4.586
    3OL    H13S 4674   2.652   3.770   4.561
    3OL    C114 4675   2.713   3.709   4.757
    3OL    H14R 4676   2.769   3.801   4.779
    3OL    H14S 4677   2.757   3.616   4.793
    3OL    C115 4678   2.576   3.718   4.826
    3OL    H15R 4679   2.499   3.644   4.802
    3OL    H15S 4680   2.527   3.814   4.809
    3OL    C116 4681   2.594   3.697   4.977
    3OL    H16R 4682   2.666   3.770   5.013
    3OL    H16S 4683   2.649   3.604   4.994
    3OL    C117 4684   2.466   3.684   5.060
    3OL    H17R 4685   2.489   3.651   5.162
    3OL    H17S 4686   2.408   3.607   5.010
    3OL    C118 4687   2.375   3.808   5.051
    3OL    H18R 4688   2.404   3.894   5.110
    3OL    H18S 4689   2.281   3.775   5.093
    3OL    H18T 4690   2.349   3.834   4.948
    1PA    C116 4691   5.636   1.666   3.646
    1PA    H16R 4692   5.696   1.669   3.555
    1PA    H16S 4693   5.573   1.754   3.660
    1PA    H16T 4694   5.572   1.581   3.625
    1PA    C115 4695   5.737   1.658   3.762
    1PA    H15R 4696   5.811   1.581   3.740
    1PA    H15S 4697   5.791   1.753   3.752
    1PA    C114 4698   5.685   1.657   3.906
    1PA    H14R 4699   5.623   1.745   3.924
    1PA    H14S 4700   5.627   1.566   3.918
    1PA    C113 4701   5.795   1.646   4.012
    1PA    H13R 4702   5.868   1.728   4.010
    1PA    H13S 4703   5.741   1.662   4.106
    1PA    C112 4704   5.872   1.514   4.026
    1PA    H12R 4705   5.807   1.427   4.040
    1PA    H12S 4706   5.918   1.490   3.930
    1PA    C111 4707   5.971   1.500   4.143
    1PA    H11R 4708   5.990   1.394   4.155
    1PA    H11S 4709   6.063   1.553   4.117
    1PA    C110 4710   5.904   1.549   4.273
    1PA    H10R 4711   5.981   1.545   4.349
    1PA    H10S 4712   5.870   1.652   4.262
    1PA     C19 4713   5.779   1.470   4.314
    1PA     H9R 4714   5.704   1.492   4.238
    1PA     H9S 4715   5.817   1.368   4.320
    1PA     C18 4716   5.730   1.513   4.454
    1PA     H8R 4717   5.818   1.505   4.517
    1PA     H8S 4718   5.708   1.619   4.446
    1PA     C17 4719   5.616   1.421   4.500
    1PA     H7R 4720   5.541   1.431   4.421
    1PA     H7S 4721   5.640   1.315   4.493
    1PA     C16 4722   5.557   1.460   4.636
    1PA     H6R 4723   5.631   1.434   4.712
    1PA     H6S 4724   5.548   1.568   4.649
    1PA     C15 4725   5.433   1.375   4.663
    1PA     H5R 4726   5.352   1.406   4.597
    1PA     H5S 4727   5.455   1.268   4.657
    1PA     C14 4728   5.391   1.418   4.805
    1PA     H4R 4729   5.459   1.379   4.881
    1PA     H4S 4730   5.387   1.527   4.808
    1PA     C13 4731   5.245   1.377   4.826
    1PA     H3R 4732   5.205   1.424   4.916
    1PA     H3S 4733   5.185   1.397   4.737
    1PA     C12 4734   5.221   1.228   4.856
    1PA     H2R 4735   5.117   1.200   4.836
    1PA     H2S 4736   5.273   1.167   4.782
    2PC     C11 4737   5.268   1.184   4.992
    2PC     O12 4738   5.331   1.254   5.068
    2PC     O11 4739   5.232   1.057   5.020
    2PC      C1 4740   5.251   1.010   5.154
    2PC      HR 4741   5.235   0.902   5.158
    2PC      HS 4742   5.353   1.024   5.192
    2PC      C2 4743   5.150   1.081   5.246
    2PC      HX 4744   5.158   1.189   5.235
    2PC      C3 4745   5.178   1.040   5.391
    2PC      HA 4746   5.152   0.935   5.406
    2PC      HB 4747   5.285   1.050   5.410
    2PC     O31 4748   5.110   1.122   5.488
    2PC     P31 4749   5.145   1.109   5.644
    2PC     O32 4750   5.213   1.254   5.657
    2PC     C31 4751   5.171   1.343   5.762
    2PC     H1A 4752   5.062   1.339   5.767
    2PC     H1B 4753   5.217   1.310   5.856
    2PC     C32 4754   5.230   1.478   5.720
    2PC     H2A 4755   5.225   1.542   5.808
    2PC     H2B 4756   5.335   1.455   5.699
    2PC     N31 4757   5.190   1.544   5.592
    2PC     C33 4758   5.239   1.471   5.471
    2PC     H3A 4759   5.212   1.365   5.471
    2PC     H3B 4760   5.191   1.514   5.382
    2PC     H3C 4761   5.347   1.478   5.460
    2PC     C34 4762   5.042   1.567   5.591
    2PC     H4A 4763   5.005   1.610   5.684
    2PC     H4B 4764   5.021   1.641   5.513
    2PC     H4C 4765   4.992   1.471   5.578
    2PC     C35 4766   5.255   1.679   5.592
    2PC     H5A 4767   5.357   1.672   5.630
    2PC     H5B 4768   5.195   1.742   5.657
    2PC     H5C 4769   5.264   1.714   5.489
    2PC     O33 4770   5.026   1.098   5.731
    2PC     O34 4771   5.243   1.002   5.675
    2PC     O21 4772   5.019   1.029   5.215
    2PC     C21 4773   4.955   1.078   5.108
    2PC     O22 4774   4.967   1.188   5.057
    3OL     C12 4775   4.847   0.983   5.064
    3OL     H2R 4776   4.755   1.042   5.066
    3OL     H2S 4777   4.837   0.896   5.129
    3OL     C13 4778   4.865   0.943   4.917
    3OL     H3R 4779   4.969   0.913   4.913
    3OL     H3S 4780   4.860   1.027   4.847
    3OL     C14 4781   4.777   0.825   4.872
    3OL     H4R 4782   4.679   0.842   4.917
    3OL     H4S 4783   4.810   0.736   4.926
    3OL     C15 4784   4.784   0.795   4.721
    3OL     H5R 4785   4.800   0.887   4.665
    3OL     H5S 4786   4.686   0.765   4.683
    3OL     C16 4787   4.884   0.685   4.683
    3OL     H6R 4788   4.856   0.597   4.742
    3OL     H6S 4789   4.983   0.713   4.719
    3OL     C17 4790   4.879   0.653   4.533
    3OL     H7R 4791   4.940   0.724   4.477
    3OL     H7S 4792   4.774   0.663   4.507
    3OL     C18 4793   4.934   0.511   4.509
    3OL     H8R 4794   4.939   0.495   4.401
    3OL     H8S 4795   4.865   0.444   4.561
    3OL     C19 4796   5.069   0.491   4.572
    3OL     H9R 4797   5.144   0.567   4.551
    3OL    C110 4798   5.103   0.396   4.658
    3OL    H10R 4799   5.203   0.394   4.699
    3OL    C111 4800   5.015   0.279   4.696
    3OL    H11R 4801   5.080   0.193   4.706
    3OL    H11S 4802   4.945   0.250   4.618
    3OL    C112 4803   4.939   0.293   4.829
    3OL    H12R 4804   4.871   0.210   4.845
    3OL    H12S 4805   4.872   0.378   4.816
    3OL    C113 4806   5.030   0.321   4.949
    3OL    H13R 4807   4.978   0.374   5.029
    3OL    H13S 4808   5.101   0.401   4.925
    3OL    C114 4809   5.104   0.201   5.009
    3OL    H14R 4810   5.158   0.146   4.931
    3OL    H14S 4811   5.029   0.137   5.058
    3OL    C115 4812   5.195   0.251   5.121
    3OL    H15R 4813   5.141   0.334   5.168
    3OL    H15S 4814   5.284   0.302   5.083
    3OL    C116 4815   5.231   0.133   5.211
    3OL    H16R 4816   5.329   0.148   5.256
    3OL    H16S 4817   5.243   0.043   5.150
    3OL    C117 4818   5.128   0.124   5.325
    3OL    H17R 4819   5.032   0.105   5.276
    3OL    H17S 4820   5.111   0.218   5.380
    3OL    C118 4821   5.163   0.006   5.417
    3OL    H18R 4822   5.084  -0.022   5.487
    3OL    H18S 4823   5.259   0.021   5.466
    3OL    H18T 4824   5.173  -0.086   5.360
    1PA    C116 4825   3.082   3.063   3.747
    1PA    H16R 4826   3.177   3.010   3.761
    1PA    H16S 4827   3.032   3.010   3.666
    1PA    H16T 4828   3.020   3.067   3.837
    1PA    C115 4829   3.123   3.208   3.719
    1PA    H15R 4830   3.175   3.214   3.623
    1PA    H15S 4831   3.029   3.263   3.713
    1PA    C114 4832   3.210   3.264   3.832
    1PA    H14R 4833   3.291   3.196   3.859
    1PA    H14S 4834   3.264   3.354   3.805
    1PA    C113 4835   3.133   3.289   3.962
    1PA    H13R 4836   3.046   3.348   3.933
    1PA    H13S 4837   3.099   3.189   3.990
    1PA    C112 4838   3.229   3.354   4.063
    1PA    H12R 4839   3.319   3.290   4.063
    1PA    H12S 4840   3.257   3.458   4.045
    1PA    C111 4841   3.159   3.357   4.199
    1PA    H11R 4842   3.062   3.405   4.188
    1PA    H11S 4843   3.145   3.254   4.233
    1PA    C110 4844   3.233   3.441   4.305
    1PA    H10R 4845   3.341   3.422   4.298
    1PA    H10S 4846   3.213   3.548   4.296
    1PA     C19 4847   3.197   3.388   4.444
    1PA     H9R 4848   3.097   3.428   4.463
    1PA     H9S 4849   3.184   3.280   4.450
    1PA     C18 4850   3.295   3.438   4.551
    1PA     H8R 4851   3.388   3.381   4.543
    1PA     H8S 4852   3.312   3.544   4.532
    1PA     C17 4853   3.230   3.415   4.689
    1PA     H7R 4854   3.164   3.328   4.691
    1PA     H7S 4855   3.314   3.401   4.758
    1PA     C16 4856   3.155   3.537   4.743
    1PA     H6R 4857   3.220   3.625   4.745
    1PA     H6S 4858   3.082   3.564   4.666
    1PA     C15 4859   3.103   3.515   4.886
    1PA     H5R 4860   3.031   3.434   4.895
    1PA     H5S 4861   3.193   3.491   4.942
    1PA     C14 4862   3.042   3.644   4.942
    1PA     H4R 4863   3.105   3.727   4.912
    1PA     H4S 4864   2.942   3.651   4.897
    1PA     C13 4865   3.023   3.637   5.094
    1PA     H3R 4866   2.962   3.550   5.120
    1PA     H3S 4867   3.123   3.616   5.131
    1PA     C12 4868   2.966   3.770   5.146
    1PA     H2R 4869   3.014   3.853   5.095
    1PA     H2S 4870   2.860   3.781   5.123
    2PC     C11 4871   2.971   3.786   5.296
    2PC     O12 4872   3.028   3.713   5.375
    2PC     O11 4873   2.910   3.898   5.336
    2PC      C1 4874   2.891   3.938   5.473
    2PC      HR 4875   2.837   4.032   5.470
    2PC      HS 4876   2.840   3.854   5.521
    2PC      C2 4877   3.029   3.973   5.530
    2PC      HX 4878   3.108   3.903   5.503
    2PC      C3 4879   3.029   3.994   5.683
    2PC      HA 4880   3.018   3.891   5.718
    2PC      HB 4881   3.125   4.031   5.719
    2PC     O31 4882   2.911   4.063   5.728
    2PC     P31 4883   2.896   4.087   5.885
    2PC     O32 4884   2.981   4.222   5.904
    2PC     C31 4885   2.935   4.341   5.837
    2PC     H1A 4886   2.943   4.328   5.729
    2PC     H1B 4887   2.836   4.350   5.883
    2PC     C32 4888   3.008   4.468   5.882
    2PC     H2A 4889   3.115   4.463   5.861
    2PC     H2B 4890   2.967   4.559   5.839
    2PC     N31 4891   3.006   4.487   6.031
    2PC     C33 4892   3.042   4.631   6.057
    2PC     H3A 4893   3.036   4.641   6.165
    2PC     H3B 4894   3.142   4.652   6.020
    2PC     H3C 4895   2.963   4.693   6.015
    2PC     C34 4896   2.881   4.444   6.102
    2PC     H4A 4897   2.869   4.336   6.090
    2PC     H4B 4898   2.903   4.451   6.209
    2PC     H4C 4899   2.798   4.504   6.066
    2PC     C35 4900   3.121   4.406   6.082
    2PC     H5A 4901   3.107   4.299   6.062
    2PC     H5B 4902   3.120   4.413   6.190
    2PC     H5C 4903   3.211   4.441   6.031
    2PC     O33 4904   2.759   4.117   5.934
    2PC     O34 4905   2.959   3.979   5.964
    2PC     O21 4906   3.051   4.110   5.490
    2PC     C21 4907   3.090   4.136   5.365
    2PC     O22 4908   3.155   4.061   5.294
    3OL     C12 4909   3.046   4.272   5.320
    3OL     H2R 4910   3.112   4.340   5.373
    3OL     H2S 4911   2.945   4.284   5.362
    3OL     C13 4912   3.058   4.292   5.168
    3OL     H3R 4913   2.966   4.348   5.151
    3OL     H3S 4914   3.044   4.202   5.107
    3OL     C14 4915   3.184   4.373   5.135
    3OL     H4R 4916   3.278   4.325   5.163
    3OL     H4S 4917   3.178   4.470   5.184
    3OL     C15 4918   3.193   4.389   4.983
    3OL     H5R 4919   3.100   4.438   4.954
    3OL     H5S 4920   3.201   4.299   4.922
    3OL     C16 4921   3.312   4.483   4.956
    3OL     H6R 4922   3.399   4.451   5.014
    3OL     H6S 4923   3.290   4.581   4.999
    3OL     C17 4924   3.329   4.505   4.805
    3OL     H7R 4925   3.239   4.556   4.770
    3OL     H7S 4926   3.342   4.408   4.756
    3OL     C18 4927   3.452   4.590   4.767
    3OL     H8R 4928   3.543   4.537   4.797
    3OL     H8S 4929   3.452   4.688   4.815
    3OL     C19 4930   3.444   4.614   4.619
    3OL     H9R 4931   3.360   4.680   4.596
    3OL    C110 4932   3.522   4.559   4.527
    3OL    H10R 4933   3.505   4.586   4.423
    3OL    C111 4934   3.634   4.461   4.550
    3OL    H11R 4935   3.665   4.453   4.654
    3OL    H11S 4936   3.718   4.488   4.485
    3OL    C112 4937   3.583   4.318   4.525
    3OL    H12R 4938   3.480   4.303   4.558
    3OL    H12S 4939   3.645   4.257   4.590
    3OL    C113 4940   3.591   4.281   4.376
    3OL    H13R 4941   3.692   4.293   4.336
    3OL    H13S 4942   3.528   4.344   4.312
    3OL    C114 4943   3.540   4.141   4.342
    3OL    H14R 4944   3.586   4.068   4.409
    3OL    H14S 4945   3.579   4.129   4.241
    3OL    C115 4946   3.387   4.138   4.334
    3OL    H15R 4947   3.354   4.198   4.249
    3OL    H15S 4948   3.357   4.180   4.430
    3OL    C116 4949   3.332   3.995   4.322
    3OL    H16R 4950   3.225   4.015   4.339
    3OL    H16S 4951   3.380   3.930   4.395
    3OL    C117 4952   3.339   3.940   4.179
    3OL    H17R 4953   3.439   3.944   4.137
    3OL    H17S 4954   3.269   3.993   4.113
    3OL    C118 4955   3.296   3.793   4.185
    3OL    H18R 4956   3.366   3.729   4.241
    3OL    H18S 4957   3.286   3.748   4.086
    3OL    H18T 4958   3.204   3.785   4.244
    1PA    C116 4959   5.679  -0.576   3.977
    1PA    H16R 4960   5.713  -0.477   4.006
    1PA    H16S 4961   5.693  -0.605   3.872
    1PA    H16T 4962   5.690  -0.651   4.056
    1PA    C115 4963   5.526  -0.564   3.976
    1PA    H15R 4964   5.493  -0.494   3.899
    1PA    H15S 4965   5.474  -0.658   3.958
    1PA    C114 4966   5.468  -0.509   4.107
    1PA    H14R 4967   5.550  -0.449   4.149
    1PA    H14S 4968   5.379  -0.448   4.090
    1PA    C113 4969   5.445  -0.619   4.212
    1PA    H13R 4970   5.370  -0.686   4.169
    1PA    H13S 4971   5.541  -0.668   4.233
    1PA    C112 4972   5.375  -0.564   4.336
    1PA    H12R 4973   5.316  -0.478   4.305
    1PA    H12S 4974   5.313  -0.645   4.376
    1PA    C111 4975   5.476  -0.528   4.446
    1PA    H11R 4976   5.537  -0.612   4.480
    1PA    H11S 4977   5.548  -0.450   4.420
    1PA    C110 4978   5.395  -0.477   4.566
    1PA    H10R 4979   5.316  -0.551   4.577
    1PA    H10S 4980   5.459  -0.484   4.654
    1PA     C19 4981   5.339  -0.335   4.546
    1PA     H9R 4982   5.346  -0.292   4.445
    1PA     H9S 4983   5.236  -0.323   4.579
    1PA     C18 4984   5.430  -0.231   4.613
    1PA     H8R 4985   5.429  -0.269   4.716
    1PA     H8S 4986   5.526  -0.234   4.562
    1PA     C17 4987   5.373  -0.089   4.621
    1PA     H7R 4988   5.333  -0.059   4.523
    1PA     H7S 4989   5.289  -0.095   4.690
    1PA     C16 4990   5.471   0.023   4.661
    1PA     H6R 4991   5.560   0.002   4.601
    1PA     H6S 4992   5.425   0.115   4.624
    1PA     C15 4993   5.497   0.013   4.812
    1PA     H5R 4994   5.400   0.034   4.859
    1PA     H5S 4995   5.532  -0.086   4.841
    1PA     C14 4996   5.593   0.123   4.857
    1PA     H4R 4997   5.690   0.080   4.831
    1PA     H4S 4998   5.568   0.206   4.790
    1PA     C13 4999   5.572   0.146   5.008
    1PA     H3R 5000   5.469   0.177   5.025
    1PA     H3S 5001   5.591   0.051   5.057
    1PA     C12 5002   5.659   0.262   5.058
    1PA     H2R 5003   5.762   0.229   5.043
    1PA     H2S 5004   5.637   0.356   5.007
    2PC     C11 5005   5.641   0.287   5.206
    2PC     O12 5006   5.576   0.216   5.279
    2PC     O11 5007   5.707   0.397   5.244
    2PC      C1 5008   5.730   0.419   5.385
    2PC      HR 5009   5.771   0.517   5.408
    2PC      HS 5010   5.631   0.408   5.431
    2PC      C2 5011   5.829   0.315   5.440
    2PC      HX 5012   5.794   0.214   5.424
    2PC      C3 5013   5.856   0.329   5.591
    2PC      HA 5014   5.761   0.329   5.645
    2PC      HB 5015   5.923   0.249   5.623
    2PC     O31 5016   5.935   0.449   5.607
    2PC     P31 5017   6.000   0.484   5.749
    2PC     O32 5018   6.151   0.431   5.743
    2PC     C31 5019   6.239   0.481   5.641
    2PC     H1A 5020   6.227   0.427   5.546
    2PC     H1B 5021   6.219   0.583   5.606
    2PC     C32 5022   6.385   0.477   5.688
    2PC     H2A 5023   6.452   0.548   5.640
    2PC     H2B 5024   6.387   0.516   5.790
    2PC     N31 5025   6.459   0.348   5.703
    2PC     C33 5026   6.392   0.276   5.816
    2PC     H3A 5027   6.425   0.173   5.828
    2PC     H3B 5028   6.401   0.334   5.908
    2PC     H3C 5029   6.287   0.270   5.787
    2PC     C34 5030   6.461   0.271   5.575
    2PC     H4A 5031   6.471   0.337   5.489
    2PC     H4B 5032   6.547   0.205   5.581
    2PC     H4C 5033   6.369   0.214   5.565
    2PC     C35 5034   6.601   0.388   5.733
    2PC     H5A 5035   6.611   0.452   5.820
    2PC     H5B 5036   6.654   0.440   5.653
    2PC     H5C 5037   6.658   0.296   5.748
    2PC     O33 5038   5.974   0.620   5.801
    2PC     O34 5039   5.921   0.396   5.839
    2PC     O21 5040   5.962   0.339   5.393
    2PC     C21 5041   6.010   0.270   5.287
    2PC     O22 5042   5.940   0.195   5.223
    3OL     C12 5043   6.154   0.304   5.259
    3OL     H2R 5044   6.191   0.206   5.236
    3OL     H2S 5045   6.195   0.339   5.354
    3OL     C13 5046   6.167   0.384   5.129
    3OL     H3R 5047   6.142   0.489   5.148
    3OL     H3S 5048   6.095   0.344   5.057
    3OL     C14 5049   6.300   0.363   5.055
    3OL     H4R 5050   6.290   0.259   5.024
    3OL     H4S 5051   6.391   0.372   5.114
    3OL     C15 5052   6.316   0.438   4.922
    3OL     H5R 5053   6.303   0.542   4.950
    3OL     H5S 5054   6.238   0.417   4.849
    3OL     C16 5055   6.453   0.414   4.858
    3OL     H6R 5056   6.531   0.438   4.930
    3OL     H6S 5057   6.466   0.485   4.777
    3OL     C17 5058   6.467   0.268   4.812
    3OL     H7R 5059   6.376   0.247   4.756
    3OL     H7S 5060   6.478   0.203   4.899
    3OL     C18 5061   6.594   0.253   4.728
    3OL     H8R 5062   6.592   0.150   4.691
    3OL     H8S 5063   6.680   0.255   4.794
    3OL     C19 5064   6.594   0.353   4.615
    3OL     H9R 5065   6.511   0.346   4.545
    3OL    C110 5066   6.687   0.447   4.601
    3OL    H10R 5067   6.675   0.513   4.516
    3OL    C111 5068   6.790   0.488   4.703
    3OL    H11R 5069   6.778   0.448   4.804
    3OL    H11S 5070   6.789   0.596   4.721
    3OL    C112 5071   6.931   0.459   4.649
    3OL    H12R 5072   6.931   0.364   4.596
    3OL    H12S 5073   6.987   0.469   4.742
    3OL    C113 5074   6.997   0.559   4.553
    3OL    H13R 5075   7.103   0.576   4.571
    3OL    H13S 5076   6.954   0.659   4.559
    3OL    C114 5077   6.968   0.510   4.410
    3OL    H14R 5078   6.864   0.478   4.398
    3OL    H14S 5079   7.029   0.424   4.383
    3OL    C115 5080   7.002   0.619   4.308
    3OL    H15R 5081   6.950   0.712   4.332
    3OL    H15S 5082   6.956   0.590   4.213
    3OL    C116 5083   7.153   0.646   4.292
    3OL    H16R 5084   7.199   0.548   4.286
    3OL    H16S 5085   7.194   0.705   4.374
    3OL    C117 5086   7.179   0.735   4.170
    3OL    H17R 5087   7.141   0.834   4.197
    3OL    H17S 5088   7.116   0.697   4.090
    3OL    C118 5089   7.324   0.746   4.120
    3OL    H18R 5090   7.338   0.816   4.038
    3OL    H18S 5091   7.369   0.647   4.106
    3OL    H18T 5092   7.383   0.796   4.197
    1PA    C116 5093   3.901   2.477   3.456
    1PA    H16R 5094   3.873   2.573   3.500
    1PA    H16S 5095   3.817   2.465   3.386
    1PA    H16T 5096   3.991   2.494   3.397
    1PA    C115 5097   3.905   2.378   3.574
    1PA    H15R 5098   3.812   2.391   3.629
    1PA    H15S 5099   3.920   2.273   3.549
    1PA    C114 5100   4.003   2.429   3.680
    1PA    H14R 5101   4.099   2.466   3.642
    1PA    H14S 5102   3.959   2.521   3.719
    1PA    C113 5103   4.009   2.323   3.792
    1PA    H13R 5104   3.908   2.318   3.833
    1PA    H13S 5105   4.015   2.224   3.747
    1PA    C112 5106   4.117   2.346   3.899
    1PA    H12R 5107   4.105   2.269   3.975
    1PA    H12S 5108   4.218   2.334   3.861
    1PA    C111 5109   4.090   2.484   3.962
    1PA    H11R 5110   4.087   2.566   3.890
    1PA    H11S 5111   3.991   2.470   4.005
    1PA    C110 5112   4.194   2.497   4.074
    1PA    H10R 5113   4.199   2.399   4.123
    1PA    H10S 5114   4.290   2.517   4.025
    1PA     C19 5115   4.172   2.603   4.182
    1PA     H9R 5116   4.168   2.702   4.136
    1PA     H9S 5117   4.079   2.572   4.231
    1PA     C18 5118   4.286   2.593   4.284
    1PA     H8R 5119   4.285   2.495   4.331
    1PA     H8S 5120   4.383   2.600   4.234
    1PA     C17 5121   4.290   2.698   4.397
    1PA     H7R 5122   4.314   2.794   4.351
    1PA     H7S 5123   4.193   2.683   4.445
    1PA     C16 5124   4.399   2.662   4.499
    1PA     H6R 5125   4.367   2.684   4.601
    1PA     H6S 5126   4.413   2.555   4.517
    1PA     C15 5127   4.531   2.732   4.467
    1PA     H5R 5128   4.553   2.704   4.364
    1PA     H5S 5129   4.538   2.840   4.479
    1PA     C14 5130   4.648   2.677   4.550
    1PA     H4R 5131   4.654   2.569   4.543
    1PA     H4S 5132   4.736   2.712   4.494
    1PA     C13 5133   4.651   2.724   4.696
    1PA     H3R 5134   4.637   2.832   4.690
    1PA     H3S 5135   4.565   2.686   4.750
    1PA     C12 5136   4.780   2.682   4.767
    1PA     H2R 5137   4.785   2.576   4.740
    1PA     H2S 5138   4.870   2.737   4.740
    2PC     C11 5139   4.765   2.703   4.915
    2PC     O12 5140   4.663   2.731   4.975
    2PC     O11 5141   4.881   2.689   4.981
    2PC      C1 5142   4.891   2.709   5.123
    2PC      HR 5143   4.964   2.785   5.152
    2PC      HS 5144   4.795   2.740   5.166
    2PC      C2 5145   4.916   2.571   5.185
    2PC      HX 5146   4.847   2.495   5.148
    2PC      C3 5147   4.910   2.558   5.338
    2PC      HA 5148   4.975   2.641   5.365
    2PC      HB 5149   4.811   2.576   5.380
    2PC     O31 5150   4.961   2.432   5.386
    2PC     P31 5151   4.984   2.419   5.544
    2PC     O32 5152   5.071   2.285   5.560
    2PC     C31 5153   5.198   2.292   5.494
    2PC     H1A 5154   5.184   2.280   5.386
    2PC     H1B 5155   5.253   2.382   5.526
    2PC     C32 5156   5.277   2.166   5.534
    2PC     H2A 5157   5.201   2.088   5.527
    2PC     H2B 5158   5.358   2.151   5.463
    2PC     N31 5159   5.345   2.150   5.666
    2PC     C33 5160   5.471   2.232   5.665
    2PC     H3A 5161   5.523   2.214   5.760
    2PC     H3B 5162   5.536   2.195   5.586
    2PC     H3C 5163   5.444   2.336   5.645
    2PC     C34 5164   5.247   2.189   5.773
    2PC     H4A 5165   5.156   2.129   5.773
    2PC     H4B 5166   5.304   2.179   5.865
    2PC     H4C 5167   5.220   2.295   5.765
    2PC     C35 5168   5.382   2.006   5.683
    2PC     H5A 5169   5.449   1.977   5.601
    2PC     H5B 5170   5.294   1.941   5.674
    2PC     H5C 5171   5.423   1.988   5.782
    2PC     O33 5172   5.055   2.535   5.603
    2PC     O34 5173   4.856   2.411   5.618
    2PC     O21 5174   5.043   2.525   5.136
    2PC     C21 5175   5.162   2.583   5.160
    2PC     O22 5176   5.178   2.683   5.227
    3OL     C12 5177   5.270   2.497   5.099
    3OL     H2R 5178   5.233   2.397   5.078
    3OL     H2S 5179   5.356   2.486   5.165
    3OL     C13 5180   5.325   2.563   4.971
    3OL     H3R 5181   5.419   2.520   4.939
    3OL     H3S 5182   5.354   2.667   4.990
    3OL     C14 5183   5.221   2.560   4.858
    3OL     H4R 5184   5.132   2.616   4.886
    3OL     H4S 5185   5.192   2.456   4.844
    3OL     C15 5186   5.281   2.620   4.730
    3OL     H5R 5187   5.211   2.607   4.648
    3OL     H5S 5188   5.382   2.583   4.712
    3OL     C16 5189   5.293   2.773   4.717
    3OL     H6R 5190   5.319   2.824   4.810
    3OL     H6S 5191   5.198   2.815   4.682
    3OL     C17 5192   5.397   2.814   4.613
    3OL     H7R 5193   5.501   2.815   4.648
    3OL     H7S 5194   5.360   2.913   4.587
    3OL     C18 5195   5.400   2.741   4.478
    3OL     H8R 5196   5.308   2.683   4.462
    3OL     H8S 5197   5.485   2.673   4.471
    3OL     C19 5198   5.405   2.848   4.372
    3OL     H9R 5199   5.502   2.884   4.340
    3OL    C110 5200   5.297   2.895   4.309
    3OL    H10R 5201   5.314   2.969   4.231
    3OL    C111 5202   5.152   2.866   4.334
    3OL    H11R 5203   5.142   2.776   4.396
    3OL    H11S 5204   5.110   2.843   4.236
    3OL    C112 5205   5.080   2.984   4.402
    3OL    H12R 5206   5.068   3.071   4.338
    3OL    H12S 5207   5.134   3.008   4.494
    3OL    C113 5208   4.941   2.949   4.456
    3OL    H13R 5209   4.953   2.865   4.525
    3OL    H13S 5210   4.875   2.924   4.372
    3OL    C114 5211   4.873   3.067   4.527
    3OL    H14R 5212   4.771   3.047   4.559
    3OL    H14S 5213   4.877   3.148   4.454
    3OL    C115 5214   4.943   3.125   4.650
    3OL    H15R 5215   4.930   3.232   4.672
    3OL    H15S 5216   5.049   3.101   4.644
    3OL    C116 5217   4.898   3.061   4.782
    3OL    H16R 5218   4.933   2.957   4.780
    3OL    H16S 5219   4.790   3.047   4.788
    3OL    C117 5220   4.961   3.122   4.908
    3OL    H17R 5221   4.932   3.227   4.900
    3OL    H17S 5222   5.070   3.119   4.906
    3OL    C118 5223   4.904   3.055   5.033
    3OL    H18R 5224   4.797   3.037   5.023
    3OL    H18S 5225   4.910   3.126   5.116
    3OL    H18T 5226   4.961   2.965   5.059
    1PA    C116 5227   2.558   5.549   3.441
    1PA    H16R 5228   2.602   5.466   3.495
    1PA    H16S 5229   2.624   5.580   3.359
    1PA    H16T 5230   2.464   5.507   3.404
    1PA    C115 5231   2.515   5.671   3.523
    1PA    H15R 5232   2.602   5.726   3.559
    1PA    H15S 5233   2.462   5.746   3.464
    1PA    C114 5234   2.421   5.638   3.640
    1PA    H14R 5235   2.359   5.725   3.664
    1PA    H14S 5236   2.345   5.564   3.614
    1PA    C113 5237   2.495   5.588   3.765
    1PA    H13R 5238   2.548   5.500   3.727
    1PA    H13S 5239   2.578   5.653   3.791
    1PA    C112 5240   2.402   5.545   3.879
    1PA    H12R 5241   2.324   5.618   3.904
    1PA    H12S 5242   2.352   5.456   3.842
    1PA    C111 5243   2.491   5.514   4.000
    1PA    H11R 5244   2.557   5.431   3.975
    1PA    H11S 5245   2.545   5.607   4.017
    1PA    C110 5246   2.415   5.468   4.126
    1PA    H10R 5247   2.317   5.515   4.139
    1PA    H10S 5248   2.378   5.366   4.112
    1PA     C19 5249   2.504   5.479   4.250
    1PA     H9R 5250   2.596   5.420   4.242
    1PA     H9S 5251   2.550   5.578   4.258
    1PA     C18 5252   2.411   5.457   4.370
    1PA     H8R 5253   2.334   5.534   4.378
    1PA     H8S 5254   2.374   5.354   4.363
    1PA     C17 5255   2.503   5.461   4.493
    1PA     H7R 5256   2.565   5.372   4.478
    1PA     H7S 5257   2.567   5.549   4.491
    1PA     C16 5258   2.425   5.448   4.625
    1PA     H6R 5259   2.354   5.530   4.625
    1PA     H6S 5260   2.372   5.354   4.615
    1PA     C15 5261   2.517   5.457   4.748
    1PA     H5R 5262   2.571   5.363   4.758
    1PA     H5S 5263   2.593   5.536   4.740
    1PA     C14 5264   2.431   5.483   4.871
    1PA     H4R 5265   2.373   5.574   4.853
    1PA     H4S 5266   2.356   5.404   4.876
    1PA     C13 5267   2.521   5.477   4.996
    1PA     H3R 5268   2.553   5.373   5.004
    1PA     H3S 5269   2.608   5.542   4.994
    1PA     C12 5270   2.440   5.500   5.124
    1PA     H2R 5271   2.381   5.592   5.117
    1PA     H2S 5272   2.367   5.419   5.116
    2PC     C11 5273   2.522   5.497   5.250
    2PC     O12 5274   2.468   5.503   5.359
    2PC     O11 5275   2.655   5.501   5.238
    2PC      C1 5276   2.731   5.549   5.351
    2PC      HR 5277   2.706   5.653   5.373
    2PC      HS 5278   2.715   5.502   5.448
    2PC      C2 5279   2.878   5.543   5.306
    2PC      HX 5280   2.896   5.448   5.255
    2PC      C3 5281   2.976   5.545   5.425
    2PC      HA 5282   2.957   5.457   5.487
    2PC      HB 5283   3.081   5.537   5.395
    2PC     O31 5284   2.948   5.661   5.506
    2PC     P31 5285   2.919   5.648   5.663
    2PC     O32 5286   3.035   5.739   5.727
    2PC     C31 5287   3.170   5.693   5.710
    2PC     H1A 5288   3.189   5.593   5.751
    2PC     H1B 5289   3.196   5.704   5.605
    2PC     C32 5290   3.238   5.797   5.800
    2PC     H2A 5291   3.340   5.815   5.766
    2PC     H2B 5292   3.174   5.885   5.790
    2PC     N31 5293   3.245   5.772   5.947
    2PC     C33 5294   3.301   5.890   6.021
    2PC     H3A 5295   3.296   5.977   5.955
    2PC     H3B 5296   3.236   5.904   6.108
    2PC     H3C 5297   3.404   5.871   6.049
    2PC     C34 5298   3.113   5.738   6.009
    2PC     H4A 5299   3.131   5.715   6.114
    2PC     H4B 5300   3.062   5.834   6.002
    2PC     H4C 5301   3.055   5.661   5.958
    2PC     C35 5302   3.333   5.653   5.973
    2PC     H5A 5303   3.302   5.573   5.905
    2PC     H5B 5304   3.324   5.614   6.074
    2PC     H5C 5305   3.435   5.681   5.948
    2PC     O33 5306   2.786   5.711   5.683
    2PC     O34 5307   2.931   5.508   5.708
    2PC     O21 5308   2.904   5.651   5.215
    2PC     C21 5309   2.997   5.645   5.118
    2PC     O22 5310   3.065   5.545   5.109
    3OL     C12 5311   2.999   5.760   5.020
    3OL     H2R 5312   3.071   5.833   5.057
    3OL     H2S 5313   2.907   5.819   5.015
    3OL     C13 5314   3.049   5.724   4.880
    3OL     H3R 5315   3.136   5.659   4.892
    3OL     H3S 5316   3.085   5.811   4.825
    3OL     C14 5317   2.952   5.638   4.798
    3OL     H4R 5318   2.857   5.691   4.798
    3OL     H4S 5319   2.943   5.541   4.848
    3OL     C15 5320   2.982   5.617   4.649
    3OL     H5R 5321   3.091   5.617   4.637
    3OL     H5S 5322   2.947   5.695   4.580
    3OL     C16 5323   2.927   5.480   4.608
    3OL     H6R 5324   2.820   5.476   4.630
    3OL     H6S 5325   2.967   5.404   4.675
    3OL     C17 5326   2.943   5.440   4.460
    3OL     H7R 5327   3.045   5.432   4.421
    3OL     H7S 5328   2.872   5.491   4.395
    3OL     C18 5329   2.903   5.292   4.467
    3OL     H8R 5330   2.820   5.277   4.536
    3OL     H8S 5331   2.988   5.231   4.498
    3OL     C19 5332   2.861   5.248   4.329
    3OL     H9R 5333   2.774   5.293   4.282
    3OL    C110 5334   2.916   5.150   4.258
    3OL    H10R 5335   2.874   5.125   4.161
    3OL    C111 5336   3.041   5.072   4.289
    3OL    H11R 5337   3.055   4.980   4.232
    3OL    H11S 5338   3.034   5.028   4.388
    3OL    C112 5339   3.165   5.160   4.266
    3OL    H12R 5340   3.145   5.258   4.311
    3OL    H12S 5341   3.172   5.177   4.158
    3OL    C113 5342   3.288   5.092   4.326
    3OL    H13R 5343   3.366   5.150   4.276
    3OL    H13S 5344   3.305   4.987   4.301
    3OL    C114 5345   3.288   5.115   4.478
    3OL    H14R 5346   3.349   5.038   4.526
    3OL    H14S 5347   3.187   5.100   4.516
    3OL    C115 5348   3.343   5.255   4.511
    3OL    H15R 5349   3.290   5.326   4.448
    3OL    H15S 5350   3.446   5.264   4.475
    3OL    C116 5351   3.328   5.292   4.659
    3OL    H16R 5352   3.388   5.215   4.709
    3OL    H16S 5353   3.227   5.276   4.696
    3OL    C117 5354   3.377   5.430   4.703
    3OL    H17R 5355   3.329   5.510   4.646
    3OL    H17S 5356   3.486   5.434   4.691
    3OL    C118 5357   3.333   5.462   4.847
    3OL    H18R 5358   3.373   5.381   4.908
    3OL    H18S 5359   3.225   5.468   4.864
    3OL    H18T 5360   3.387   5.553   4.875
    1PA    C116 5361   3.174   2.257   5.000
    1PA    H16R 5362   3.146   2.166   5.053
    1PA    H16S 5363   3.139   2.255   4.897
    1PA    H16T 5364   3.121   2.346   5.034
    1PA    C115 5365   3.324   2.293   4.997
    1PA    H15R 5366   3.333   2.389   4.946
    1PA    H15S 5367   3.363   2.305   5.098
    1PA    C114 5368   3.408   2.191   4.920
    1PA    H14R 5369   3.390   2.093   4.964
    1PA    H14S 5370   3.382   2.198   4.814
    1PA    C113 5371   3.559   2.211   4.942
    1PA    H13R 5372   3.599   2.301   4.894
    1PA    H13S 5373   3.564   2.231   5.049
    1PA    C112 5374   3.638   2.088   4.896
    1PA    H12R 5375   3.734   2.089   4.948
    1PA    H12S 5376   3.586   1.995   4.921
    1PA    C111 5377   3.653   2.094   4.744
    1PA    H11R 5378   3.552   2.084   4.705
    1PA    H11S 5379   3.679   2.193   4.705
    1PA    C110 5380   3.752   1.987   4.696
    1PA    H10R 5381   3.753   1.989   4.587
    1PA    H10S 5382   3.847   2.017   4.742
    1PA     C19 5383   3.725   1.843   4.743
    1PA     H9R 5384   3.792   1.772   4.694
    1PA     H9S 5385   3.759   1.830   4.846
    1PA     C18 5386   3.583   1.792   4.714
    1PA     H8R 5387   3.509   1.827   4.786
    1PA     H8S 5388   3.553   1.817   4.612
    1PA     C17 5389   3.587   1.639   4.728
    1PA     H7R 5390   3.651   1.598   4.649
    1PA     H7S 5391   3.644   1.609   4.816
    1PA     C16 5392   3.458   1.559   4.712
    1PA     H6R 5393   3.403   1.593   4.623
    1PA     H6S 5394   3.490   1.456   4.699
    1PA     C15 5395   3.376   1.561   4.842
    1PA     H5R 5396   3.441   1.527   4.924
    1PA     H5S 5397   3.340   1.661   4.866
    1PA     C14 5398   3.254   1.469   4.833
    1PA     H4R 5399   3.207   1.486   4.736
    1PA     H4S 5400   3.283   1.364   4.848
    1PA     C13 5401   3.148   1.500   4.940
    1PA     H3R 5402   3.203   1.495   5.034
    1PA     H3S 5403   3.116   1.603   4.925
    1PA     C12 5404   3.022   1.413   4.929
    1PA     H2R 5405   2.984   1.396   4.828
    1PA     H2S 5406   3.056   1.314   4.959
    2PC     C11 5407   2.915   1.446   5.029
    2PC     O12 5408   2.926   1.441   5.150
    2PC     O11 5409   2.798   1.480   4.971
    2PC      C1 5410   2.689   1.532   5.049
    2PC      HR 5411   2.591   1.508   5.007
    2PC      HS 5412   2.694   1.482   5.145
    2PC      C2 5413   2.719   1.682   5.070
    2PC      HX 5414   2.824   1.687   5.099
    2PC      C3 5415   2.616   1.747   5.163
    2PC      HA 5416   2.530   1.764   5.097
    2PC      HB 5417   2.589   1.673   5.238
    2PC     O31 5418   2.659   1.872   5.220
    2PC     P31 5419   2.747   1.860   5.353
    2PC     O32 5420   2.788   2.014   5.373
    2PC     C31 5421   2.852   2.084   5.265
    2PC     H1A 5422   2.930   2.024   5.216
    2PC     H1B 5423   2.780   2.110   5.187
    2PC     C32 5424   2.917   2.214   5.315
    2PC     H2A 5425   2.980   2.247   5.232
    2PC     H2B 5426   2.844   2.290   5.343
    2PC     N31 5427   3.009   2.210   5.433
    2PC     C33 5428   2.944   2.150   5.554
    2PC     H3A 5429   2.851   2.204   5.572
    2PC     H3B 5430   2.945   2.041   5.543
    2PC     H3C 5431   3.017   2.169   5.633
    2PC     C34 5432   3.129   2.124   5.405
    2PC     H4A 5433   3.165   2.137   5.303
    2PC     H4B 5434   3.200   2.151   5.483
    2PC     H4C 5435   3.092   2.022   5.418
    2PC     C35 5436   3.047   2.353   5.457
    2PC     H5A 5437   3.091   2.358   5.557
    2PC     H5B 5438   2.955   2.411   5.464
    2PC     H5C 5439   3.118   2.393   5.384
    2PC     O33 5440   2.655   1.816   5.460
    2PC     O34 5441   2.870   1.777   5.345
    2PC     O21 5442   2.702   1.747   4.942
    2PC     C21 5443   2.768   1.857   4.906
    2PC     O22 5444   2.848   1.924   4.969
    3OL     C12 5445   2.733   1.906   4.767
    3OL     H2R 5446   2.729   2.015   4.768
    3OL     H2S 5447   2.637   1.858   4.746
    3OL     C13 5448   2.836   1.867   4.661
    3OL     H3R 5449   2.926   1.922   4.690
    3OL     H3S 5450   2.812   1.906   4.562
    3OL     C14 5451   2.863   1.716   4.658
    3OL     H4R 5452   2.896   1.683   4.757
    3OL     H4S 5453   2.946   1.695   4.590
    3OL     C15 5454   2.739   1.632   4.626
    3OL     H5R 5455   2.650   1.676   4.674
    3OL     H5S 5456   2.744   1.531   4.665
    3OL     C16 5457   2.711   1.617   4.476
    3OL     H6R 5458   2.784   1.558   4.420
    3OL     H6S 5459   2.721   1.716   4.429
    3OL     C17 5460   2.572   1.555   4.458
    3OL     H7R 5461   2.495   1.627   4.486
    3OL     H7S 5462   2.561   1.463   4.516
    3OL     C18 5463   2.543   1.530   4.309
    3OL     H8R 5464   2.452   1.471   4.313
    3OL     H8S 5465   2.618   1.464   4.266
    3OL     C19 5466   2.515   1.651   4.224
    3OL     H9R 5467   2.424   1.703   4.256
    3OL    C110 5468   2.586   1.703   4.125
    3OL    H10R 5469   2.549   1.783   4.062
    3OL    C111 5470   2.716   1.640   4.082
    3OL    H11R 5471   2.695   1.533   4.076
    3OL    H11S 5472   2.803   1.659   4.145
    3OL    C112 5473   2.753   1.695   3.944
    3OL    H12R 5474   2.775   1.802   3.952
    3OL    H12S 5475   2.683   1.670   3.864
    3OL    C113 5476   2.875   1.633   3.873
    3OL    H13R 5477   2.886   1.677   3.774
    3OL    H13S 5478   2.859   1.526   3.860
    3OL    C114 5479   3.002   1.647   3.959
    3OL    H14R 5480   2.986   1.595   4.053
    3OL    H14S 5481   3.029   1.751   3.976
    3OL    C115 5482   3.122   1.579   3.892
    3OL    H15R 5483   3.139   1.643   3.806
    3OL    H15S 5484   3.092   1.477   3.864
    3OL    C116 5485   3.242   1.593   3.986
    3OL    H16R 5486   3.242   1.529   4.075
    3OL    H16S 5487   3.232   1.695   4.026
    3OL    C117 5488   3.367   1.573   3.900
    3OL    H17R 5489   3.347   1.491   3.831
    3OL    H17S 5490   3.451   1.533   3.958
    3OL    C118 5491   3.413   1.703   3.832
    3OL    H18R 5492   3.428   1.776   3.911
    3OL    H18S 5493   3.341   1.733   3.756
    3OL    H18T 5494   3.508   1.698   3.777
    1PA    C116 5495  -0.037   1.664   4.039
    1PA    H16R 5496  -0.049   1.586   4.114
    1PA    H16S 5497  -0.122   1.658   3.970
    1PA    H16T 5498  -0.038   1.762   4.087
    1PA    C115 5499   0.093   1.662   3.958
    1PA    H15R 5500   0.107   1.561   3.917
    1PA    H15S 5501   0.081   1.722   3.868
    1PA    C114 5502   0.217   1.706   4.038
    1PA    H14R 5503   0.206   1.669   4.140
    1PA    H14S 5504   0.306   1.664   3.990
    1PA    C113 5505   0.222   1.859   4.044
    1PA    H13R 5506   0.228   1.897   3.942
    1PA    H13S 5507   0.130   1.896   4.089
    1PA    C112 5508   0.339   1.923   4.120
    1PA    H12R 5509   0.437   1.884   4.091
    1PA    H12S 5510   0.335   2.032   4.114
    1PA    C111 5511   0.324   1.886   4.268
    1PA    H11R 5512   0.234   1.914   4.322
    1PA    H11S 5513   0.318   1.777   4.262
    1PA    C110 5514   0.452   1.909   4.351
    1PA    H10R 5515   0.531   1.851   4.303
    1PA    H10S 5516   0.478   2.014   4.338
    1PA     C19 5517   0.448   1.856   4.495
    1PA     H9R 5518   0.401   1.757   4.495
    1PA     H9S 5519   0.548   1.855   4.539
    1PA     C18 5520   0.365   1.947   4.585
    1PA     H8R 5521   0.418   2.041   4.603
    1PA     H8S 5522   0.271   1.979   4.538
    1PA     C17 5523   0.332   1.896   4.726
    1PA     H7R 5524   0.230   1.857   4.728
    1PA     H7S 5525   0.394   1.811   4.756
    1PA     C16 5526   0.340   2.003   4.837
    1PA     H6R 5527   0.441   2.042   4.846
    1PA     H6S 5528   0.293   2.099   4.817
    1PA     C15 5529   0.283   1.961   4.973
    1PA     H5R 5530   0.285   2.036   5.052
    1PA     H5S 5531   0.180   1.931   4.957
    1PA     C14 5532   0.346   1.833   5.032
    1PA     H4R 5533   0.307   1.754   4.967
    1PA     H4S 5534   0.455   1.835   5.024
    1PA     C13 5535   0.305   1.804   5.177
    1PA     H3R 5536   0.325   1.890   5.241
    1PA     H3S 5537   0.202   1.778   5.203
    1PA     C12 5538   0.390   1.681   5.213
    1PA     H2R 5539   0.358   1.599   5.148
    1PA     H2S 5540   0.494   1.694   5.183
    2PC     C11 5541   0.398   1.642   5.358
    2PC     O12 5542   0.323   1.686   5.443
    2PC     O11 5543   0.484   1.542   5.384
    2PC      C1 5544   0.476   1.471   5.509
    2PC      HR 5545   0.567   1.410   5.517
    2PC      HS 5546   0.499   1.541   5.589
    2PC      C2 5547   0.355   1.381   5.540
    2PC      HX 5548   0.267   1.443   5.557
    2PC      C3 5549   0.379   1.288   5.660
    2PC      HA 5550   0.283   1.256   5.700
    2PC      HB 5551   0.432   1.197   5.633
    2PC     O31 5552   0.455   1.357   5.762
    2PC     P31 5553   0.470   1.283   5.903
    2PC     O32 5554   0.625   1.310   5.935
    2PC     C31 5555   0.658   1.448   5.956
    2PC     H1A 5556   0.652   1.505   5.863
    2PC     H1B 5557   0.607   1.503   6.035
    2PC     C32 5558   0.807   1.459   5.992
    2PC     H2A 5559   0.852   1.412   5.905
    2PC     H2B 5560   0.842   1.562   6.000
    2PC     N31 5561   0.862   1.385   6.110
    2PC     C33 5562   0.867   1.238   6.078
    2PC     H3A 5563   0.840   1.178   6.165
    2PC     H3B 5564   0.792   1.216   6.002
    2PC     H3C 5565   0.968   1.215   6.045
    2PC     C34 5566   1.002   1.422   6.148
    2PC     H4A 5567   0.998   1.531   6.137
    2PC     H4B 5568   1.016   1.377   6.247
    2PC     H4C 5569   1.066   1.377   6.073
    2PC     C35 5570   0.777   1.413   6.231
    2PC     H5A 5571   0.676   1.380   6.206
    2PC     H5B 5572   0.777   1.521   6.250
    2PC     H5C 5573   0.813   1.361   6.320
    2PC     O33 5574   0.383   1.345   6.006
    2PC     O34 5575   0.449   1.136   5.909
    2PC     O21 5576   0.346   1.307   5.417
    2PC     C21 5577   0.242   1.226   5.392
    2PC     O22 5578   0.166   1.202   5.483
    3OL     C12 5579   0.236   1.168   5.253
    3OL     H2R 5580   0.228   1.240   5.172
    3OL     H2S 5581   0.152   1.099   5.243
    3OL     C13 5582   0.359   1.084   5.213
    3OL     H3R 5583   0.337   1.016   5.131
    3OL     H3S 5584   0.386   1.023   5.299
    3OL     C14 5585   0.489   1.158   5.178
    3OL     H4R 5586   0.570   1.091   5.146
    3OL     H4S 5587   0.531   1.215   5.261
    3OL     C15 5588   0.461   1.258   5.065
    3OL     H5R 5589   0.388   1.336   5.089
    3OL     H5S 5590   0.414   1.198   4.988
    3OL     C16 5591   0.589   1.323   5.010
    3OL     H6R 5592   0.649   1.238   4.974
    3OL     H6S 5593   0.652   1.383   5.075
    3OL     C17 5594   0.552   1.415   4.893
    3OL     H7R 5595   0.486   1.493   4.932
    3OL     H7S 5596   0.494   1.366   4.814
    3OL     C18 5597   0.673   1.484   4.829
    3OL     H8R 5598   0.729   1.402   4.783
    3OL     H8S 5599   0.728   1.535   4.908
    3OL     C19 5600   0.628   1.585   4.727
    3OL     H9R 5601   0.606   1.686   4.760
    3OL    C110 5602   0.617   1.556   4.599
    3OL    H10R 5603   0.608   1.646   4.538
    3OL    C111 5604   0.646   1.424   4.533
    3OL    H11R 5605   0.644   1.350   4.613
    3OL    H11S 5606   0.744   1.425   4.486
    3OL    C112 5607   0.547   1.387   4.421
    3OL    H12R 5608   0.449   1.386   4.469
    3OL    H12S 5609   0.574   1.288   4.384
    3OL    C113 5610   0.558   1.482   4.301
    3OL    H13R 5611   0.653   1.475   4.248
    3OL    H13S 5612   0.543   1.584   4.340
    3OL    C114 5613   0.440   1.456   4.207
    3OL    H14R 5614   0.432   1.552   4.155
    3OL    H14S 5615   0.346   1.449   4.262
    3OL    C115 5616   0.471   1.344   4.107
    3OL    H15R 5617   0.485   1.246   4.153
    3OL    H15S 5618   0.557   1.369   4.044
    3OL    C116 5619   0.354   1.326   4.010
    3OL    H16R 5620   0.329   1.427   3.977
    3OL    H16S 5621   0.269   1.279   4.059
    3OL    C117 5622   0.397   1.231   3.897
    3OL    H17R 5623   0.452   1.147   3.939
    3OL    H17S 5624   0.449   1.292   3.823
    3OL    C118 5625   0.285   1.163   3.818
    3OL    H18R 5626   0.241   1.081   3.875
    3OL    H18S 5627   0.321   1.134   3.719
    3OL    H18T 5628   0.201   1.231   3.798
    1PA    C116 5629   0.387   0.684   3.933
    1PA    H16R 5630   0.400   0.655   3.828
    1PA    H16S 5631   0.419   0.608   4.005
    1PA    H16T 5632   0.453   0.770   3.943
    1PA    C115 5633   0.250   0.731   3.982
    1PA    H15R 5634   0.229   0.824   3.930
    1PA    H15S 5635   0.177   0.652   3.963
    1PA    C114 5636   0.250   0.776   4.129
    1PA    H14R 5637   0.146   0.804   4.148
    1PA    H14S 5638   0.268   0.694   4.198
    1PA    C113 5639   0.339   0.895   4.166
    1PA    H13R 5640   0.445   0.880   4.142
    1PA    H13S 5641   0.301   0.980   4.108
    1PA    C112 5642   0.326   0.930   4.314
    1PA    H12R 5643   0.220   0.953   4.326
    1PA    H12S 5644   0.358   0.852   4.384
    1PA    C111 5645   0.406   1.052   4.363
    1PA    H11R 5646   0.513   1.033   4.349
    1PA    H11S 5647   0.386   1.136   4.297
    1PA    C110 5648   0.381   1.091   4.509
    1PA    H10R 5649   0.457   1.158   4.548
    1PA    H10S 5650   0.288   1.146   4.498
    1PA     C19 5651   0.371   0.978   4.613
    1PA     H9R 5652   0.274   0.929   4.601
    1PA     H9S 5653   0.445   0.900   4.592
    1PA     C18 5654   0.393   1.036   4.753
    1PA     H8R 5655   0.480   1.101   4.745
    1PA     H8S 5656   0.305   1.097   4.775
    1PA     C17 5657   0.408   0.923   4.856
    1PA     H7R 5658   0.380   0.967   4.952
    1PA     H7S 5659   0.343   0.837   4.838
    1PA     C16 5660   0.554   0.878   4.864
    1PA     H6R 5661   0.575   0.828   4.770
    1PA     H6S 5662   0.621   0.965   4.867
    1PA     C15 5663   0.576   0.782   4.982
    1PA     H5R 5664   0.522   0.819   5.070
    1PA     H5S 5665   0.536   0.687   4.947
    1PA     C14 5666   0.726   0.763   5.009
    1PA     H4R 5667   0.770   0.731   4.914
    1PA     H4S 5668   0.772   0.859   5.034
    1PA     C13 5669   0.750   0.663   5.123
    1PA     H3R 5670   0.843   0.692   5.172
    1PA     H3S 5671   0.672   0.673   5.199
    1PA     C12 5672   0.771   0.518   5.077
    1PA     H2R 5673   0.689   0.476   5.019
    1PA     H2S 5674   0.856   0.519   5.009
    2PC     C11 5675   0.794   0.426   5.194
    2PC     O12 5676   0.906   0.384   5.218
    2PC     O11 5677   0.688   0.409   5.275
    2PC      C1 5678   0.706   0.340   5.401
    2PC      HR 5679   0.742   0.239   5.382
    2PC      HS 5680   0.782   0.393   5.459
    2PC      C2 5681   0.574   0.357   5.478
    2PC      HX 5682   0.544   0.461   5.462
    2PC      C3 5683   0.599   0.341   5.628
    2PC      HA 5684   0.642   0.434   5.667
    2PC      HB 5685   0.502   0.332   5.679
    2PC     O31 5686   0.680   0.226   5.658
    2PC     P31 5687   0.745   0.215   5.804
    2PC     O32 5688   0.848   0.336   5.789
    2PC     C31 5689   0.974   0.291   5.736
    2PC     H1A 5690   1.019   0.226   5.811
    2PC     H1B 5691   0.961   0.231   5.646
    2PC     C32 5692   1.062   0.413   5.703
    2PC     H2A 5693   1.167   0.382   5.697
    2PC     H2B 5694   1.060   0.455   5.602
    2PC     N31 5695   1.050   0.531   5.794
    2PC     C33 5696   1.166   0.626   5.778
    2PC     H3A 5697   1.142   0.718   5.831
    2PC     H3B 5698   1.259   0.573   5.801
    2PC     H3C 5699   1.173   0.655   5.674
    2PC     C34 5700   0.929   0.604   5.744
    2PC     H4A 5701   0.921   0.608   5.635
    2PC     H4B 5702   0.844   0.550   5.785
    2PC     H4C 5703   0.929   0.707   5.780
    2PC     C35 5704   1.032   0.504   5.940
    2PC     H5A 5705   1.134   0.487   5.975
    2PC     H5B 5706   0.971   0.414   5.950
    2PC     H5C 5707   0.988   0.588   5.994
    2PC     O33 5708   0.670   0.246   5.927
    2PC     O34 5709   0.809   0.083   5.829
    2PC     O21 5710   0.489   0.248   5.439
    2PC     C21 5711   0.359   0.270   5.411
    2PC     O22 5712   0.306   0.372   5.449
    3OL     C12 5713   0.288   0.163   5.333
    3OL     H2R 5714   0.208   0.129   5.399
    3OL     H2S 5715   0.355   0.082   5.303
    3OL     C13 5716   0.212   0.210   5.208
    3OL     H3R 5717   0.134   0.279   5.240
    3OL     H3S 5718   0.170   0.120   5.160
    3OL     C14 5719   0.306   0.268   5.102
    3OL     H4R 5720   0.356   0.358   5.140
    3OL     H4S 5721   0.242   0.286   5.016
    3OL     C15 5722   0.407   0.160   5.063
    3OL     H5R 5723   0.357   0.071   5.024
    3OL     H5S 5724   0.478   0.124   5.138
    3OL     C16 5725   0.518   0.214   4.971
    3OL     H6R 5726   0.542   0.316   4.997
    3OL     H6S 5727   0.473   0.236   4.874
    3OL     C17 5728   0.637   0.118   4.952
    3OL     H7R 5729   0.596   0.031   4.901
    3OL     H7S 5730   0.672   0.093   5.053
    3OL     C18 5731   0.743   0.194   4.870
    3OL     H8R 5732   0.796   0.259   4.940
    3OL     H8S 5733   0.704   0.265   4.798
    3OL     C19 5734   0.838   0.095   4.805
    3OL     H9R 5735   0.853   0.004   4.862
    3OL    C110 5736   0.905   0.119   4.694
    3OL    H10R 5737   0.983   0.048   4.665
    3OL    C111 5738   0.898   0.242   4.607
    3OL    H11R 5739   0.907   0.337   4.660
    3OL    H11S 5740   0.796   0.243   4.570
    3OL    C112 5741   0.986   0.235   4.482
    3OL    H12R 5742   1.001   0.130   4.457
    3OL    H12S 5743   1.083   0.279   4.507
    3OL    C113 5744   0.930   0.319   4.366
    3OL    H13R 5745   0.924   0.422   4.401
    3OL    H13S 5746   0.829   0.284   4.345
    3OL    C114 5747   1.019   0.314   4.242
    3OL    H14R 5748   1.126   0.325   4.260
    3OL    H14S 5749   0.996   0.406   4.188
    3OL    C115 5750   0.989   0.206   4.138
    3OL    H15R 5751   1.030   0.232   4.041
    3OL    H15S 5752   0.882   0.200   4.116
    3OL    C116 5753   1.051   0.071   4.179
    3OL    H16R 5754   1.048   0.046   4.285
    3OL    H16S 5755   1.154   0.069   4.143
    3OL    C117 5756   1.005  -0.051   4.099
    3OL    H17R 5757   1.079  -0.131   4.110
    3OL    H17S 5758   0.992  -0.022   3.995
    3OL    C118 5759   0.866  -0.107   4.135
    3OL    H18R 5760   0.788  -0.066   4.070
    3OL    H18S 5761   0.848  -0.084   4.240
    3OL    H18T 5762   0.863  -0.215   4.125
    1PA    C116 5763   4.535   4.612   3.979
    1PA    H16R 5764   4.468   4.698   3.985
    1PA    H16S 5765   4.474   4.521   3.981
    1PA    H16T 5766   4.591   4.625   3.887
    1PA    C115 5767   4.637   4.600   4.093
    1PA    H15R 5768   4.696   4.508   4.092
    1PA    H15S 5769   4.714   4.677   4.089
    1PA    C114 5770   4.568   4.598   4.230
    1PA    H14R 5771   4.520   4.696   4.236
    1PA    H14S 5772   4.488   4.523   4.238
    1PA    C113 5773   4.674   4.577   4.339
    1PA    H13R 5774   4.721   4.480   4.325
    1PA    H13S 5775   4.757   4.647   4.326
    1PA    C112 5776   4.612   4.578   4.480
    1PA    H12R 5777   4.513   4.531   4.478
    1PA    H12S 5778   4.682   4.518   4.539
    1PA    C111 5779   4.593   4.712   4.552
    1PA    H11R 5780   4.530   4.787   4.502
    1PA    H11S 5781   4.551   4.690   4.651
    1PA    C110 5782   4.728   4.778   4.579
    1PA    H10R 5783   4.781   4.717   4.653
    1PA    H10S 5784   4.790   4.782   4.490
    1PA     C19 5785   4.704   4.914   4.648
    1PA     H9R 5786   4.673   4.981   4.568
    1PA     H9S 5787   4.633   4.933   4.729
    1PA     C18 5788   4.838   4.968   4.699
    1PA     H8R 5789   4.878   4.897   4.772
    1PA     H8S 5790   4.909   4.967   4.617
    1PA     C17 5791   4.832   5.107   4.765
    1PA     H7R 5792   4.793   5.183   4.697
    1PA     H7S 5793   4.761   5.108   4.847
    1PA     C16 5794   4.966   5.158   4.818
    1PA     H6R 5795   5.013   5.075   4.872
    1PA     H6S 5796   5.026   5.181   4.729
    1PA     C15 5797   4.927   5.273   4.910
    1PA     H5R 5798   4.865   5.344   4.855
    1PA     H5S 5799   4.865   5.231   4.990
    1PA     C14 5800   5.045   5.347   4.975
    1PA     H4R 5801   5.089   5.395   4.888
    1PA     H4S 5802   5.011   5.417   5.053
    1PA     C13 5803   5.154   5.255   5.032
    1PA     H3R 5804   5.111   5.178   5.097
    1PA     H3S 5805   5.189   5.205   4.942
    1PA     C12 5806   5.274   5.320   5.103
    1PA     H2R 5807   5.357   5.250   5.101
    1PA     H2S 5808   5.314   5.406   5.049
    2PC     C11 5809   5.245   5.350   5.247
    2PC     O12 5810   5.221   5.458   5.297
    2PC     O11 5811   5.236   5.232   5.311
    2PC      C1 5812   5.166   5.224   5.436
    2PC      HR 5813   5.175   5.122   5.473
    2PC      HS 5814   5.213   5.299   5.502
    2PC      C2 5815   5.019   5.255   5.407
    2PC      HX 5816   5.002   5.352   5.358
    2PC      C3 5817   4.941   5.263   5.538
    2PC      HA 5818   4.926   5.165   5.585
    2PC      HB 5819   4.985   5.330   5.613
    2PC     O31 5820   4.808   5.317   5.527
    2PC     P31 5821   4.717   5.308   5.659
    2PC     O32 5822   4.610   5.202   5.604
    2PC     C31 5823   4.489   5.235   5.532
    2PC     H1A 5824   4.429   5.305   5.590
    2PC     H1B 5825   4.518   5.274   5.435
    2PC     C32 5826   4.399   5.116   5.496
    2PC     H2A 5827   4.313   5.139   5.434
    2PC     H2B 5828   4.463   5.052   5.435
    2PC     N31 5829   4.347   5.036   5.612
    2PC     C33 5830   4.287   5.110   5.728
    2PC     H3A 5831   4.204   5.051   5.767
    2PC     H3B 5832   4.366   5.143   5.795
    2PC     H3C 5833   4.246   5.201   5.684
    2PC     C34 5834   4.239   4.945   5.561
    2PC     H4A 5835   4.147   5.003   5.557
    2PC     H4B 5836   4.280   4.916   5.464
    2PC     H4C 5837   4.228   4.859   5.627
    2PC     C35 5838   4.457   4.947   5.660
    2PC     H5A 5839   4.421   4.874   5.733
    2PC     H5B 5840   4.532   5.015   5.701
    2PC     H5C 5841   4.494   4.891   5.574
    2PC     O33 5842   4.775   5.246   5.780
    2PC     O34 5843   4.655   5.437   5.695
    2PC     O21 5844   4.966   5.153   5.321
    2PC     C21 5845   4.842   5.160   5.270
    2PC     O22 5846   4.783   5.265   5.254
    3OL     C12 5847   4.767   5.034   5.235
    3OL     H2R 5848   4.692   5.061   5.161
    3OL     H2S 5849   4.718   4.994   5.324
    3OL     C13 5850   4.862   4.925   5.182
    3OL     H3R 5851   4.929   4.895   5.263
    3OL     H3S 5852   4.933   4.969   5.112
    3OL     C14 5853   4.789   4.811   5.110
    3OL     H4R 5854   4.746   4.846   5.017
    3OL     H4S 5855   4.711   4.768   5.174
    3OL     C15 5856   4.891   4.710   5.056
    3OL     H5R 5857   4.928   4.651   5.141
    3OL     H5S 5858   4.971   4.772   5.014
    3OL     C16 5859   4.829   4.622   4.947
    3OL     H6R 5860   4.776   4.675   4.868
    3OL     H6S 5861   4.743   4.571   4.991
    3OL     C17 5862   4.932   4.521   4.896
    3OL     H7R 5863   4.965   4.451   4.973
    3OL     H7S 5864   5.013   4.580   4.852
    3OL     C18 5865   4.865   4.436   4.787
    3OL     H8R 5866   4.826   4.495   4.705
    3OL     H8S 5867   4.782   4.388   4.839
    3OL     C19 5868   4.967   4.332   4.747
    3OL     H9R 5869   4.998   4.274   4.834
    3OL    C110 5870   5.010   4.303   4.626
    3OL    H10R 5871   5.080   4.221   4.611
    3OL    C111 5872   4.998   4.388   4.502
    3OL    H11R 5873   4.992   4.494   4.530
    3OL    H11S 5874   4.904   4.359   4.454
    3OL    C112 5875   5.104   4.369   4.393
    3OL    H12R 5876   5.205   4.358   4.435
    3OL    H12S 5877   5.100   4.445   4.314
    3OL    C113 5878   5.079   4.239   4.317
    3OL    H13R 5879   5.077   4.152   4.383
    3OL    H13S 5880   5.162   4.216   4.249
    3OL    C114 5881   4.962   4.252   4.218
    3OL    H14R 5882   4.980   4.335   4.151
    3OL    H14S 5883   4.868   4.286   4.263
    3OL    C115 5884   4.927   4.134   4.127
    3OL    H15R 5885   4.823   4.149   4.097
    3OL    H15S 5886   4.937   4.043   4.187
    3OL    C116 5887   5.018   4.129   4.003
    3OL    H16R 5888   5.018   4.030   3.956
    3OL    H16S 5889   5.122   4.152   4.027
    3OL    C117 5890   4.966   4.231   3.901
    3OL    H17R 5891   4.979   4.333   3.937
    3OL    H17S 5892   4.860   4.209   3.886
    3OL    C118 5893   5.051   4.215   3.774
    3OL    H18R 5894   5.020   4.116   3.737
    3OL    H18S 5895   5.156   4.218   3.802
    3OL    H18T 5896   5.028   4.285   3.694
    1PA    C116 5897   1.156   1.190   3.114
    1PA    H16R 5898   1.129   1.277   3.054
    1PA    H16S 5899   1.082   1.111   3.097
    1PA    H16T 5900   1.248   1.161   3.063
    1PA    C115 5901   1.173   1.225   3.262
    1PA    H15R 5902   1.217   1.139   3.312
    1PA    H15S 5903   1.245   1.306   3.274
    1PA    C114 5904   1.038   1.248   3.330
    1PA    H14R 5905   0.987   1.326   3.274
    1PA    H14S 5906   0.978   1.156   3.329
    1PA    C113 5907   1.056   1.264   3.482
    1PA    H13R 5908   1.088   1.165   3.516
    1PA    H13S 5909   1.132   1.337   3.511
    1PA    C112 5910   0.923   1.299   3.550
    1PA    H12R 5911   0.912   1.408   3.551
    1PA    H12S 5912   0.842   1.244   3.502
    1PA    C111 5913   0.928   1.252   3.696
    1PA    H11R 5914   0.939   1.143   3.693
    1PA    H11S 5915   1.019   1.287   3.745
    1PA    C110 5916   0.814   1.299   3.787
    1PA    H10R 5917   0.799   1.408   3.785
    1PA    H10S 5918   0.725   1.252   3.744
    1PA     C19 5919   0.836   1.254   3.932
    1PA     H9R 5920   0.745   1.230   3.987
    1PA     H9S 5921   0.888   1.158   3.938
    1PA     C18 5922   0.919   1.357   4.009
    1PA     H8R 5923   1.019   1.370   3.967
    1PA     H8S 5924   0.859   1.448   4.013
    1PA     C17 5925   0.928   1.312   4.156
    1PA     H7R 5926   0.944   1.406   4.209
    1PA     H7S 5927   0.829   1.279   4.187
    1PA     C16 5928   1.032   1.201   4.175
    1PA     H6R 5929   1.014   1.116   4.109
    1PA     H6S 5930   1.132   1.241   4.158
    1PA     C15 5931   1.034   1.139   4.315
    1PA     H5R 5932   1.124   1.076   4.320
    1PA     H5S 5933   1.060   1.212   4.391
    1PA     C14 5934   0.895   1.080   4.345
    1PA     H4R 5935   0.822   1.161   4.348
    1PA     H4S 5936   0.873   1.003   4.271
    1PA     C13 5937   0.893   1.013   4.483
    1PA     H3R 5938   0.804   0.952   4.501
    1PA     H3S 5939   0.973   0.939   4.484
    1PA     C12 5940   0.918   1.110   4.599
    1PA     H2R 5941   1.007   1.173   4.589
    1PA     H2S 5942   0.832   1.177   4.594
    2PC     C11 5943   0.925   1.041   4.733
    2PC     O12 5944   0.851   0.948   4.757
    2PC     O11 5945   1.008   1.096   4.823
    2PC      C1 5946   1.022   1.044   4.956
    2PC      HR 5947   1.070   1.119   5.021
    2PC      HS 5948   0.925   1.016   4.997
    2PC      C2 5949   1.112   0.920   4.951
    2PC      HX 5950   1.064   0.838   4.895
    2PC      C3 5951   1.138   0.878   5.096
    2PC      HA 5952   1.042   0.859   5.145
    2PC      HB 5953   1.191   0.783   5.104
    2PC     O31 5954   1.205   0.984   5.167
    2PC     P31 5955   1.213   0.970   5.327
    2PC     O32 5956   1.293   1.100   5.374
    2PC     C31 5957   1.207   1.210   5.410
    2PC     H1A 5958   1.157   1.240   5.317
    2PC     H1B 5959   1.135   1.171   5.482
    2PC     C32 5960   1.291   1.329   5.459
    2PC     H2A 5961   1.368   1.341   5.383
    2PC     H2B 5962   1.230   1.419   5.467
    2PC     N31 5963   1.359   1.314   5.592
    2PC     C33 5964   1.446   1.192   5.598
    2PC     H3A 5965   1.498   1.179   5.693
    2PC     H3B 5966   1.377   1.109   5.582
    2PC     H3C 5967   1.508   1.196   5.508
    2PC     C34 5968   1.435   1.436   5.634
    2PC     H4A 5969   1.494   1.474   5.550
    2PC     H4B 5970   1.368   1.512   5.672
    2PC     H4C 5971   1.493   1.417   5.724
    2PC     C35 5972   1.253   1.292   5.696
    2PC     H5A 5973   1.294   1.280   5.796
    2PC     H5B 5974   1.197   1.205   5.663
    2PC     H5C 5975   1.193   1.383   5.705
    2PC     O33 5976   1.079   0.941   5.383
    2PC     O34 5977   1.288   0.846   5.358
    2PC     O21 5978   1.234   0.949   4.880
    2PC     C21 5979   1.243   0.933   4.747
    2PC     O22 5980   1.148   0.889   4.686
    3OL     C12 5981   1.374   0.981   4.690
    3OL     H2R 5982   1.429   0.890   4.667
    3OL     H2S 5983   1.427   1.038   4.767
    3OL     C13 5984   1.350   1.067   4.565
    3OL     H3R 5985   1.310   1.162   4.603
    3OL     H3S 5986   1.279   1.020   4.497
    3OL     C14 5987   1.476   1.102   4.484
    3OL     H4R 5988   1.446   1.168   4.403
    3OL     H4S 5989   1.516   1.011   4.440
    3OL     C15 5990   1.589   1.165   4.566
    3OL     H5R 5991   1.682   1.164   4.509
    3OL     H5S 5992   1.603   1.106   4.657
    3OL     C16 5993   1.556   1.309   4.607
    3OL     H6R 5994   1.480   1.313   4.685
    3OL     H6S 5995   1.521   1.349   4.512
    3OL     C17 5996   1.677   1.384   4.666
    3OL     H7R 5997   1.729   1.333   4.747
    3OL     H7S 5998   1.649   1.482   4.706
    3OL     C18 5999   1.781   1.427   4.561
    3OL     H8R 6000   1.736   1.499   4.491
    3OL     H8S 6001   1.800   1.331   4.513
    3OL     C19 6002   1.904   1.482   4.628
    3OL     H9R 6003   1.908   1.453   4.732
    3OL    C110 6004   1.988   1.576   4.586
    3OL    H10R 6005   2.054   1.618   4.661
    3OL    C111 6006   1.993   1.617   4.441
    3OL    H11R 6007   1.979   1.724   4.428
    3OL    H11S 6008   1.914   1.563   4.389
    3OL    C112 6009   2.124   1.571   4.375
    3OL    H12R 6010   2.202   1.634   4.419
    3OL    H12S 6011   2.121   1.599   4.270
    3OL    C113 6012   2.167   1.427   4.406
    3OL    H13R 6013   2.113   1.375   4.485
    3OL    H13S 6014   2.273   1.429   4.431
    3OL    C114 6015   2.147   1.329   4.289
    3OL    H14R 6016   2.174   1.226   4.314
    3OL    H14S 6017   2.217   1.357   4.210
    3OL    C115 6018   2.000   1.330   4.246
    3OL    H15R 6019   1.963   1.432   4.232
    3OL    H15S 6020   1.946   1.295   4.334
    3OL    C116 6021   1.967   1.249   4.120
    3OL    H16R 6022   2.009   1.151   4.144
    3OL    H16S 6023   2.023   1.293   4.037
    3OL    C117 6024   1.819   1.238   4.081
    3OL    H17R 6025   1.782   1.339   4.059
    3OL    H17S 6026   1.759   1.199   4.164
    3OL    C118 6027   1.803   1.137   3.966
    3OL    H18R 6028   1.871   1.053   3.981
    3OL    H18S 6029   1.831   1.185   3.872
    3OL    H18T 6030   1.704   1.092   3.962
    1PA    C116 6031   2.323   3.428   3.713
    1PA    H16R 6032   2.353   3.382   3.618
    1PA    H16S 6033   2.419   3.447   3.762
    1PA    H16T 6034   2.268   3.511   3.668
    1PA    C115 6035   2.229   3.351   3.806
    1PA    H15R 6036   2.181   3.414   3.882
    1PA    H15S 6037   2.151   3.298   3.752
    1PA    C114 6038   2.296   3.235   3.880
    1PA    H14R 6039   2.228   3.150   3.878
    1PA    H14S 6040   2.378   3.207   3.814
    1PA    C113 6041   2.353   3.263   4.020
    1PA    H13R 6042   2.445   3.321   4.010
    1PA    H13S 6043   2.284   3.325   4.078
    1PA    C112 6044   2.383   3.131   4.091
    1PA    H12R 6045   2.301   3.063   4.066
    1PA    H12S 6046   2.474   3.088   4.048
    1PA    C111 6047   2.390   3.155   4.242
    1PA    H11R 6048   2.468   3.227   4.266
    1PA    H11S 6049   2.293   3.199   4.266
    1PA    C110 6050   2.406   3.024   4.320
    1PA    H10R 6051   2.333   2.953   4.282
    1PA    H10S 6052   2.499   2.966   4.313
    1PA     C19 6053   2.385   3.053   4.470
    1PA     H9R 6054   2.479   3.103   4.496
    1PA     H9S 6055   2.311   3.125   4.504
    1PA     C18 6056   2.364   2.928   4.556
    1PA     H8R 6057   2.279   2.872   4.517
    1PA     H8S 6058   2.453   2.865   4.547
    1PA     C17 6059   2.332   2.962   4.702
    1PA     H7R 6060   2.413   3.016   4.752
    1PA     H7S 6061   2.241   3.022   4.696
    1PA     C16 6062   2.308   2.841   4.794
    1PA     H6R 6063   2.238   2.773   4.745
    1PA     H6S 6064   2.397   2.778   4.804
    1PA     C15 6065   2.256   2.889   4.930
    1PA     H5R 6066   2.337   2.948   4.974
    1PA     H5S 6067   2.165   2.947   4.914
    1PA     C14 6068   2.217   2.774   5.024
    1PA     H4R 6069   2.132   2.721   4.981
    1PA     H4S 6070   2.299   2.702   5.032
    1PA     C13 6071   2.202   2.824   5.168
    1PA     H3R 6072   2.300   2.861   5.201
    1PA     H3S 6073   2.125   2.901   5.173
    1PA     C12 6074   2.138   2.719   5.260
    1PA     H2R 6075   2.036   2.692   5.229
    1PA     H2S 6076   2.194   2.626   5.250
    2PC     C11 6077   2.147   2.767   5.402
    2PC     O12 6078   2.248   2.749   5.467
    2PC     O11 6079   2.029   2.794   5.459
    2PC      C1 6080   2.016   2.825   5.599
    2PC      HR 6081   1.917   2.832   5.643
    2PC      HS 6082   2.069   2.747   5.655
    2PC      C2 6083   2.099   2.950   5.634
    2PC      HX 6084   2.193   2.956   5.579
    2PC      C3 6085   2.125   2.963   5.784
    2PC      HA 6086   2.198   2.887   5.814
    2PC      HB 6087   2.154   3.067   5.802
    2PC     O31 6088   2.004   2.944   5.859
    2PC     P31 6089   2.002   2.925   6.018
    2PC     O32 6090   1.868   3.005   6.053
    2PC     C31 6091   1.743   2.953   6.002
    2PC     H1A 6092   1.681   3.043   5.993
    2PC     H1B 6093   1.749   2.908   5.903
    2PC     C32 6094   1.680   2.850   6.096
    2PC     H2A 6095   1.580   2.823   6.063
    2PC     H2B 6096   1.734   2.757   6.080
    2PC     N31 6097   1.675   2.862   6.246
    2PC     C33 6098   1.590   2.745   6.284
    2PC     H3A 6099   1.629   2.659   6.230
    2PC     H3B 6100   1.599   2.736   6.393
    2PC     H3C 6101   1.483   2.768   6.276
    2PC     C34 6102   1.811   2.840   6.305
    2PC     H4A 6103   1.843   2.737   6.296
    2PC     H4B 6104   1.888   2.898   6.254
    2PC     H4C 6105   1.802   2.871   6.410
    2PC     C35 6106   1.613   2.988   6.298
    2PC     H5A 6107   1.700   3.054   6.285
    2PC     H5B 6108   1.581   2.979   6.402
    2PC     H5C 6109   1.534   3.022   6.232
    2PC     O33 6110   1.983   2.784   6.056
    2PC     O34 6111   2.124   2.986   6.076
    2PC     O21 6112   2.020   3.063   5.594
    2PC     C21 6113   2.027   3.101   5.465
    2PC     O22 6114   2.099   3.058   5.377
    3OL     C12 6115   1.935   3.217   5.435
    3OL     H2R 6116   1.999   3.301   5.409
    3OL     H2S 6117   1.886   3.245   5.528
    3OL     C13 6118   1.831   3.192   5.324
    3OL     H3R 6119   1.770   3.112   5.368
    3OL     H3S 6120   1.873   3.146   5.234
    3OL     C14 6121   1.748   3.316   5.290
    3OL     H4R 6122   1.676   3.340   5.368
    3OL     H4S 6123   1.700   3.296   5.194
    3OL     C15 6124   1.825   3.444   5.254
    3OL     H5R 6125   1.883   3.424   5.164
    3OL     H5S 6126   1.886   3.488   5.334
    3OL     C16 6127   1.732   3.554   5.200
    3OL     H6R 6128   1.644   3.555   5.264
    3OL     H6S 6129   1.700   3.521   5.101
    3OL     C17 6130   1.795   3.693   5.183
    3OL     H7R 6131   1.854   3.725   5.269
    3OL     H7S 6132   1.723   3.775   5.171
    3OL     C18 6133   1.903   3.688   5.074
    3OL     H8R 6134   1.975   3.610   5.099
    3OL     H8S 6135   1.961   3.780   5.065
    3OL     C19 6136   1.830   3.682   4.942
    3OL     H9R 6137   1.762   3.598   4.932
    3OL    C110 6138   1.833   3.769   4.843
    3OL    H10R 6139   1.775   3.755   4.753
    3OL    C111 6140   1.917   3.894   4.853
    3OL    H11R 6141   2.014   3.879   4.900
    3OL    H11S 6142   1.860   3.975   4.900
    3OL    C112 6143   1.943   3.955   4.714
    3OL    H12R 6144   1.987   4.054   4.719
    3OL    H12S 6145   1.845   3.951   4.664
    3OL    C113 6146   2.035   3.862   4.635
    3OL    H13R 6147   2.015   3.860   4.527
    3OL    H13S 6148   2.021   3.766   4.685
    3OL    C114 6149   2.182   3.902   4.657
    3OL    H14R 6150   2.236   3.813   4.624
    3OL    H14S 6151   2.209   3.915   4.762
    3OL    C115 6152   2.241   4.012   4.569
    3OL    H15R 6153   2.208   4.115   4.585
    3OL    H15S 6154   2.248   3.981   4.464
    3OL    C116 6155   2.391   4.015   4.601
    3OL    H16R 6156   2.431   3.914   4.615
    3OL    H16S 6157   2.400   4.068   4.697
    3OL    C117 6158   2.477   4.093   4.501
    3OL    H17R 6159   2.436   4.194   4.506
    3OL    H17S 6160   2.463   4.068   4.395
    3OL    C118 6161   2.626   4.086   4.534
    3OL    H18R 6162   2.666   3.986   4.518
    3OL    H18S 6163   2.635   4.108   4.640
    3OL    H18T 6164   2.686   4.153   4.471
    1PA    C116 6165   3.411   0.690   3.928
    1PA    H16R 6166   3.400   0.794   3.960
    1PA    H16S 6167   3.390   0.684   3.821
    1PA    H16T 6168   3.514   0.671   3.961
    1PA    C115 6169   3.313   0.600   4.004
    1PA    H15R 6170   3.211   0.633   3.979
    1PA    H15S 6171   3.325   0.497   3.971
    1PA    C114 6172   3.326   0.608   4.157
    1PA    H14R 6173   3.333   0.707   4.202
    1PA    H14S 6174   3.244   0.547   4.194
    1PA    C113 6175   3.449   0.527   4.198
    1PA    H13R 6176   3.433   0.428   4.157
    1PA    H13S 6177   3.541   0.568   4.156
    1PA    C112 6178   3.471   0.519   4.350
    1PA    H12R 6179   3.435   0.614   4.389
    1PA    H12S 6180   3.406   0.442   4.394
    1PA    C111 6181   3.619   0.492   4.381
    1PA    H11R 6182   3.641   0.387   4.358
    1PA    H11S 6183   3.685   0.553   4.320
    1PA    C110 6184   3.650   0.518   4.529
    1PA    H10R 6185   3.758   0.527   4.547
    1PA    H10S 6186   3.600   0.605   4.573
    1PA     C19 6187   3.595   0.401   4.612
    1PA     H9R 6188   3.490   0.379   4.594
    1PA     H9S 6189   3.649   0.311   4.583
    1PA     C18 6190   3.611   0.410   4.765
    1PA     H8R 6191   3.602   0.309   4.805
    1PA     H8S 6192   3.713   0.443   4.787
    1PA     C17 6193   3.505   0.501   4.830
    1PA     H7R 6194   3.528   0.606   4.814
    1PA     H7S 6195   3.409   0.468   4.791
    1PA     C16 6196   3.501   0.482   4.982
    1PA     H6R 6197   3.438   0.555   5.034
    1PA     H6S 6198   3.455   0.388   5.013
    1PA     C15 6199   3.625   0.514   5.065
    1PA     H5R 6200   3.692   0.578   5.008
    1PA     H5S 6201   3.601   0.578   5.151
    1PA     C14 6202   3.713   0.394   5.102
    1PA     H4R 6203   3.665   0.336   5.181
    1PA     H4S 6204   3.733   0.326   5.019
    1PA     C13 6205   3.845   0.450   5.157
    1PA     H3R 6206   3.901   0.497   5.076
    1PA     H3S 6207   3.831   0.535   5.224
    1PA     C12 6208   3.925   0.337   5.221
    1PA     H2R 6209   3.858   0.259   5.258
    1PA     H2S 6210   3.992   0.291   5.148
    2PC     C11 6211   3.997   0.395   5.340
    2PC     O12 6212   3.941   0.419   5.445
    2PC     O11 6213   4.130   0.402   5.320
    2PC      C1 6214   4.217   0.421   5.433
    2PC      HR 6215   4.320   0.425   5.398
    2PC      HS 6216   4.178   0.503   5.493
    2PC      C2 6217   4.207   0.291   5.515
    2PC      HX 6218   4.106   0.267   5.548
    2PC      C3 6219   4.285   0.307   5.646
    2PC      HA 6220   4.389   0.319   5.615
    2PC      HB 6221   4.251   0.389   5.710
    2PC     O31 6222   4.265   0.194   5.732
    2PC     P31 6223   4.306   0.190   5.886
    2PC     O32 6224   4.226   0.055   5.924
    2PC     C31 6225   4.212   0.030   6.065
    2PC     H1A 6226   4.309   0.052   6.108
    2PC     H1B 6227   4.138   0.087   6.122
    2PC     C32 6228   4.187  -0.121   6.081
    2PC     H2A 6229   4.086  -0.147   6.050
    2PC     H2B 6230   4.253  -0.183   6.019
    2PC     N31 6231   4.188  -0.172   6.222
    2PC     C33 6232   4.112  -0.090   6.321
    2PC     H3A 6233   4.107  -0.136   6.420
    2PC     H3B 6234   4.161   0.006   6.337
    2PC     H3C 6235   4.018  -0.061   6.273
    2PC     C34 6236   4.123  -0.307   6.212
    2PC     H4A 6237   4.022  -0.298   6.174
    2PC     H4B 6238   4.172  -0.365   6.134
    2PC     H4C 6239   4.126  -0.364   6.305
    2PC     C35 6240   4.330  -0.194   6.265
    2PC     H5A 6241   4.387  -0.236   6.181
    2PC     H5B 6242   4.326  -0.263   6.349
    2PC     H5C 6243   4.375  -0.098   6.293
    2PC     O33 6244   4.446   0.154   5.920
    2PC     O34 6245   4.270   0.312   5.960
    2PC     O21 6246   4.262   0.184   5.437
    2PC     C21 6247   4.173   0.116   5.362
    2PC     O22 6248   4.053   0.125   5.374
    3OL     C12 6249   4.232   0.022   5.259
    3OL     H2R 6250   4.230  -0.078   5.302
    3OL     H2S 6251   4.338   0.049   5.248
    3OL     C13 6252   4.162   0.033   5.123
    3OL     H3R 6253   4.182   0.132   5.082
    3OL     H3S 6254   4.054   0.032   5.137
    3OL     C14 6255   4.217  -0.077   5.031
    3OL     H4R 6256   4.190  -0.180   5.056
    3OL     H4S 6257   4.326  -0.070   5.032
    3OL     C15 6258   4.178  -0.059   4.883
    3OL     H5R 6259   4.219   0.038   4.855
    3OL     H5S 6260   4.069  -0.046   4.877
    3OL     C16 6261   4.225  -0.174   4.793
    3OL     H6R 6262   4.182  -0.268   4.828
    3OL     H6S 6263   4.334  -0.178   4.799
    3OL     C17 6264   4.174  -0.148   4.651
    3OL     H7R 6265   4.246  -0.072   4.620
    3OL     H7S 6266   4.070  -0.115   4.658
    3OL     C18 6267   4.208  -0.263   4.555
    3OL     H8R 6268   4.175  -0.355   4.604
    3OL     H8S 6269   4.314  -0.277   4.537
    3OL     C19 6270   4.110  -0.254   4.440
    3OL     H9R 6271   4.015  -0.213   4.471
    3OL    C110 6272   4.136  -0.291   4.315
    3OL    H10R 6273   4.054  -0.280   4.245
    3OL    C111 6274   4.261  -0.348   4.252
    3OL    H11R 6275   4.235  -0.431   4.186
    3OL    H11S 6276   4.321  -0.388   4.334
    3OL    C112 6277   4.337  -0.242   4.172
    3OL    H12R 6278   4.344  -0.152   4.234
    3OL    H12S 6279   4.273  -0.216   4.088
    3OL    C113 6280   4.478  -0.285   4.127
    3OL    H13R 6281   4.508  -0.239   4.032
    3OL    H13S 6282   4.472  -0.393   4.112
    3OL    C114 6283   4.584  -0.250   4.232
    3OL    H14R 6284   4.568  -0.301   4.327
    3OL    H14S 6285   4.571  -0.143   4.249
    3OL    C115 6286   4.728  -0.273   4.181
    3OL    H15R 6287   4.729  -0.257   4.073
    3OL    H15S 6288   4.754  -0.379   4.188
    3OL    C116 6289   4.824  -0.196   4.272
    3OL    H16R 6290   4.817  -0.215   4.380
    3OL    H16S 6291   4.796  -0.091   4.266
    3OL    C117 6292   4.971  -0.214   4.231
    3OL    H17R 6293   4.981  -0.151   4.143
    3OL    H17S 6294   4.999  -0.317   4.209
    3OL    C118 6295   5.058  -0.154   4.343
    3OL    H18R 6296   5.061  -0.224   4.427
    3OL    H18S 6297   5.017  -0.058   4.373
    3OL    H18T 6298   5.164  -0.147   4.316
    1PA    C116 6299   5.920   5.273   4.019
    1PA    H16R 6300   6.015   5.234   4.056
    1PA    H16S 6301   5.911   5.264   3.911
    1PA    H16T 6302   5.836   5.214   4.055
    1PA    C115 6303   5.907   5.421   4.059
    1PA    H15R 6304   6.003   5.473   4.056
    1PA    H15S 6305   5.842   5.471   3.986
    1PA    C114 6306   5.841   5.424   4.197
    1PA    H14R 6307   5.748   5.369   4.179
    1PA    H14S 6308   5.903   5.374   4.272
    1PA    C113 6309   5.812   5.567   4.244
    1PA    H13R 6310   5.898   5.634   4.249
    1PA    H13S 6311   5.749   5.623   4.174
    1PA    C112 6312   5.744   5.568   4.381
    1PA    H12R 6313   5.707   5.667   4.406
    1PA    H12S 6314   5.656   5.504   4.393
    1PA    C111 6315   5.850   5.535   4.488
    1PA    H11R 6316   5.877   5.431   4.470
    1PA    H11S 6317   5.941   5.588   4.459
    1PA    C110 6318   5.819   5.565   4.635
    1PA    H10R 6319   5.727   5.512   4.663
    1PA    H10S 6320   5.899   5.535   4.703
    1PA     C19 6321   5.788   5.711   4.670
    1PA     H9R 6322   5.872   5.772   4.635
    1PA     H9S 6323   5.694   5.735   4.619
    1PA     C18 6324   5.767   5.733   4.820
    1PA     H8R 6325   5.715   5.650   4.869
    1PA     H8S 6326   5.867   5.738   4.864
    1PA     C17 6327   5.697   5.869   4.837
    1PA     H7R 6328   5.755   5.945   4.785
    1PA     H7S 6329   5.597   5.858   4.793
    1PA     C16 6330   5.697   5.909   4.985
    1PA     H6R 6331   5.647   5.822   5.028
    1PA     H6S 6332   5.801   5.919   5.016
    1PA     C15 6333   5.618   6.038   5.011
    1PA     H5R 6334   5.673   6.123   4.972
    1PA     H5S 6335   5.525   6.033   4.954
    1PA     C14 6336   5.599   6.053   5.162
    1PA     H4R 6337   5.571   5.960   5.212
    1PA     H4S 6338   5.686   6.088   5.218
    1PA     C13 6339   5.493   6.162   5.186
    1PA     H3R 6340   5.526   6.246   5.124
    1PA     H3S 6341   5.398   6.127   5.146
    1PA     C12 6342   5.480   6.188   5.337
    1PA     H2R 6343   5.572   6.227   5.381
    1PA     H2S 6344   5.395   6.248   5.371
    2PC     C11 6345   5.452   6.062   5.416
    2PC     O12 6346   5.530   6.013   5.494
    2PC     O11 6347   5.323   6.027   5.399
    2PC      C1 6348   5.262   5.935   5.491
    2PC      HR 6349   5.164   5.906   5.453
    2PC      HS 6350   5.337   5.856   5.504
    2PC      C2 6351   5.240   5.988   5.633
    2PC      HX 6352   5.324   6.048   5.669
    2PC      C3 6353   5.230   5.872   5.733
    2PC      HA 6354   5.147   5.801   5.718
    2PC      HB 6355   5.312   5.803   5.713
    2PC     O31 6356   5.224   5.909   5.872
    2PC     P31 6357   5.183   5.793   5.975
    2PC     O32 6358   5.046   5.834   6.046
    2PC     C31 6359   4.921   5.786   5.991
    2PC     H1A 6360   4.894   5.861   5.916
    2PC     H1B 6361   4.929   5.693   5.936
    2PC     C32 6362   4.821   5.759   6.104
    2PC     H2A 6363   4.862   5.687   6.174
    2PC     H2B 6364   4.792   5.852   6.154
    2PC     N31 6365   4.686   5.711   6.062
    2PC     C33 6366   4.592   5.705   6.179
    2PC     H3A 6367   4.488   5.710   6.146
    2PC     H3B 6368   4.617   5.618   6.240
    2PC     H3C 6369   4.614   5.800   6.227
    2PC     C34 6370   4.630   5.806   5.960
    2PC     H4A 6371   4.639   5.909   5.994
    2PC     H4B 6372   4.689   5.795   5.869
    2PC     H4C 6373   4.524   5.783   5.945
    2PC     C35 6374   4.700   5.574   6.002
    2PC     H5A 6375   4.745   5.509   6.076
    2PC     H5B 6376   4.756   5.572   5.908
    2PC     H5C 6377   4.598   5.539   5.984
    2PC     O33 6378   5.172   5.663   5.905
    2PC     O34 6379   5.297   5.784   6.070
    2PC     O21 6380   5.125   6.073   5.647
    2PC     C21 6381   5.000   6.041   5.610
    2PC     O22 6382   4.963   5.931   5.574
    3OL     C12 6383   4.910   6.159   5.586
    3OL     H2R 6384   4.961   6.255   5.582
    3OL     H2S 6385   4.838   6.170   5.667
    3OL     C13 6386   4.821   6.136   5.462
    3OL     H3R 6387   4.771   6.232   5.449
    3OL     H3S 6388   4.756   6.048   5.460
    3OL     C14 6389   4.912   6.137   5.338
    3OL     H4R 6390   4.997   6.069   5.343
    3OL     H4S 6391   4.962   6.233   5.329
    3OL     C15 6392   4.830   6.127   5.208
    3OL     H5R 6393   4.765   6.214   5.197
    3OL     H5S 6394   4.766   6.039   5.210
    3OL     C16 6395   4.915   6.117   5.081
    3OL     H6R 6396   4.980   6.030   5.093
    3OL     H6S 6397   4.966   6.214   5.079
    3OL     C17 6398   4.820   6.100   4.961
    3OL     H7R 6399   4.742   6.175   4.956
    3OL     H7S 6400   4.776   6.000   4.970
    3OL     C18 6401   4.898   6.116   4.830
    3OL     H8R 6402   4.926   6.221   4.822
    3OL     H8S 6403   4.826   6.099   4.749
    3OL     C19 6404   5.015   6.020   4.819
    3OL     H9R 6405   5.091   6.045   4.892
    3OL    C110 6406   5.033   5.933   4.721
    3OL    H10R 6407   5.125   5.876   4.727
    3OL    C111 6408   4.942   5.917   4.602
    3OL    H11R 6409   4.887   6.007   4.574
    3OL    H11S 6410   4.863   5.844   4.619
    3OL    C112 6411   5.031   5.881   4.483
    3OL    H12R 6412   5.078   5.783   4.490
    3OL    H12S 6413   5.108   5.956   4.466
    3OL    C113 6414   4.946   5.875   4.355
    3OL    H13R 6415   5.017   5.876   4.271
    3OL    H13S 6416   4.890   5.967   4.336
    3OL    C114 6417   4.847   5.759   4.346
    3OL    H14R 6418   4.809   5.760   4.244
    3OL    H14S 6419   4.760   5.768   4.412
    3OL    C115 6420   4.907   5.618   4.358
    3OL    H15R 6421   4.969   5.607   4.447
    3OL    H15S 6422   4.973   5.608   4.271
    3OL    C116 6423   4.802   5.507   4.356
    3OL    H16R 6424   4.764   5.489   4.255
    3OL    H16S 6425   4.723   5.532   4.426
    3OL    C117 6426   4.869   5.377   4.402
    3OL    H17R 6427   4.925   5.386   4.495
    3OL    H17S 6428   4.940   5.354   4.321
    3OL    C118 6429   4.762   5.268   4.416
    3OL    H18R 6430   4.693   5.249   4.333
    3OL    H18S 6431   4.705   5.280   4.509
    3OL    H18T 6432   4.816   5.173   4.426
    1PA    C116 6433   1.963   4.927   3.551
    1PA    H16R 6434   1.905   4.990   3.483
    1PA    H16S 6435   1.885   4.891   3.618
    1PA    H16T 6436   2.021   4.849   3.500
    1PA    C115 6437   2.061   5.025   3.618
    1PA    H15R 6438   2.119   4.979   3.697
    1PA    H15S 6439   2.139   5.064   3.552
    1PA    C114 6440   1.996   5.149   3.680
    1PA    H14R 6441   2.077   5.222   3.692
    1PA    H14S 6442   1.932   5.193   3.603
    1PA    C113 6443   1.914   5.115   3.805
    1PA    H13R 6444   1.826   5.179   3.811
    1PA    H13S 6445   1.865   5.017   3.802
    1PA    C112 6446   2.002   5.121   3.930
    1PA    H12R 6447   1.990   5.029   3.988
    1PA    H12S 6448   2.104   5.127   3.893
    1PA    C111 6449   1.969   5.245   4.015
    1PA    H11R 6450   2.012   5.336   3.972
    1PA    H11S 6451   1.863   5.268   4.004
    1PA    C110 6452   2.004   5.211   4.160
    1PA    H10R 6453   1.927   5.143   4.197
    1PA    H10S 6454   2.104   5.168   4.167
    1PA     C19 6455   1.996   5.334   4.253
    1PA     H9R 6456   2.078   5.398   4.219
    1PA     H9S 6457   1.900   5.384   4.244
    1PA     C18 6458   2.015   5.290   4.399
    1PA     H8R 6459   1.943   5.212   4.424
    1PA     H8S 6460   2.118   5.254   4.402
    1PA     C17 6461   2.000   5.403   4.501
    1PA     H7R 6462   2.070   5.484   4.480
    1PA     H7S 6463   1.900   5.447   4.492
    1PA     C16 6464   2.019   5.344   4.642
    1PA     H6R 6465   1.940   5.270   4.657
    1PA     H6S 6466   2.119   5.301   4.641
    1PA     C15 6467   2.008   5.452   4.750
    1PA     H5R 6468   2.080   5.532   4.730
    1PA     H5S 6469   1.907   5.494   4.751
    1PA     C14 6470   2.039   5.389   4.886
    1PA     H4R 6471   1.975   5.302   4.906
    1PA     H4S 6472   2.136   5.338   4.877
    1PA     C13 6473   2.039   5.485   5.006
    1PA     H3R 6474   2.107   5.570   5.017
    1PA     H3S 6475   1.936   5.522   5.001
    1PA     C12 6476   2.068   5.417   5.140
    1PA     H2R 6477   1.991   5.349   5.174
    1PA     H2S 6478   2.157   5.358   5.115
    2PC     C11 6479   2.092   5.504   5.260
    2PC     O12 6480   2.125   5.459   5.368
    2PC     O11 6481   2.049   5.631   5.246
    2PC      C1 6482   2.073   5.727   5.350
    2PC      HR 6483   2.009   5.813   5.329
    2PC      HS 6484   2.048   5.687   5.448
    2PC      C2 6485   2.222   5.765   5.349
    2PC      HX 6486   2.278   5.674   5.375
    2PC      C3 6487   2.243   5.877   5.451
    2PC      HA 6488   2.230   5.838   5.553
    2PC      HB 6489   2.345   5.915   5.447
    2PC     O31 6490   2.144   5.980   5.433
    2PC     P31 6491   2.164   6.106   5.529
    2PC     O32 6492   2.165   6.053   5.680
    2PC     C31 6493   2.037   6.006   5.725
    2PC     H1A 6494   1.954   6.060   5.679
    2PC     H1B 6495   2.031   5.909   5.674
    2PC     C32 6496   2.035   5.984   5.877
    2PC     H2A 6497   1.938   5.939   5.899
    2PC     H2B 6498   2.113   5.915   5.910
    2PC     N31 6499   2.035   6.105   5.964
    2PC     C33 6500   2.180   6.143   5.976
    2PC     H3A 6501   2.186   6.238   6.029
    2PC     H3B 6502   2.236   6.068   6.030
    2PC     H3C 6503   2.228   6.148   5.878
    2PC     C34 6504   1.953   6.226   5.929
    2PC     H4A 6505   1.850   6.192   5.912
    2PC     H4B 6506   1.962   6.310   5.997
    2PC     H4C 6507   2.000   6.255   5.836
    2PC     C35 6508   1.989   6.076   6.104
    2PC     H5A 6509   2.044   5.990   6.144
    2PC     H5B 6510   1.883   6.055   6.110
    2PC     H5C 6511   2.022   6.164   6.161
    2PC     O33 6512   2.290   6.178   5.499
    2PC     O34 6513   2.065   6.214   5.506
    2PC     O21 6514   2.258   5.827   5.224
    2PC     C21 6515   2.385   5.852   5.188
    2PC     O22 6516   2.480   5.793   5.235
    3OL     C12 6517   2.410   5.938   5.067
    3OL     H2R 6518   2.508   5.985   5.073
    3OL     H2S 6519   2.344   6.025   5.066
    3OL     C13 6520   2.401   5.855   4.938
    3OL     H3R 6521   2.330   5.772   4.945
    3OL     H3S 6522   2.500   5.810   4.923
    3OL     C14 6523   2.376   5.946   4.817
    3OL     H4R 6524   2.423   6.044   4.821
    3OL     H4S 6525   2.269   5.966   4.810
    3OL     C15 6526   2.420   5.863   4.696
    3OL     H5R 6527   2.360   5.772   4.689
    3OL     H5S 6528   2.526   5.843   4.713
    3OL     C16 6529   2.405   5.943   4.566
    3OL     H6R 6530   2.474   6.028   4.561
    3OL     H6S 6531   2.300   5.969   4.551
    3OL     C17 6532   2.432   5.857   4.441
    3OL     H7R 6533   2.375   5.764   4.446
    3OL     H7S 6534   2.535   5.820   4.436
    3OL     C18 6535   2.397   5.936   4.315
    3OL     H8R 6536   2.449   6.032   4.310
    3OL     H8S 6537   2.290   5.957   4.318
    3OL     C19 6538   2.419   5.853   4.191
    3OL     H9R 6539   2.395   5.747   4.192
    3OL    C110 6540   2.475   5.893   4.077
    3OL    H10R 6541   2.480   5.828   3.991
    3OL    C111 6542   2.536   6.029   4.054
    3OL    H11R 6543   2.638   6.016   4.015
    3OL    H11S 6544   2.552   6.090   4.143
    3OL    C112 6545   2.454   6.113   3.955
    3OL    H12R 6546   2.515   6.200   3.931
    3OL    H12S 6547   2.367   6.157   4.005
    3OL    C113 6548   2.418   6.049   3.820
    3OL    H13R 6549   2.489   5.969   3.797
    3OL    H13S 6550   2.429   6.122   3.740
    3OL    C114 6551   2.282   5.977   3.827
    3OL    H14R 6552   2.273   5.921   3.920
    3OL    H14S 6553   2.272   5.903   3.748
    3OL    C115 6554   2.171   6.084   3.817
    3OL    H15R 6555   2.182   6.149   3.730
    3OL    H15S 6556   2.188   6.153   3.899
    3OL    C116 6557   2.034   6.015   3.804
    3OL    H16R 6558   2.025   5.940   3.882
    3OL    H16S 6559   2.028   5.975   3.702
    3OL    C117 6560   1.927   6.124   3.812
    3OL    H17R 6561   1.828   6.095   3.776
    3OL    H17S 6562   1.951   6.220   3.766
    3OL    C118 6563   1.896   6.142   3.961
    3OL    H18R 6564   1.988   6.119   4.015
    3OL    H18S 6565   1.822   6.066   3.984
    3OL    H18T 6566   1.855   6.243   3.972
    1PA    C116 6567   4.637   3.154   3.627
    1PA    H16R 6568   4.582   3.153   3.533
    1PA    H16S 6569   4.574   3.097   3.695
    1PA    H16T 6570   4.736   3.107   3.626
    1PA    C115 6571   4.646   3.295   3.687
    1PA    H15R 6572   4.679   3.363   3.609
    1PA    H15S 6573   4.543   3.324   3.711
    1PA    C114 6574   4.732   3.304   3.813
    1PA    H14R 6575   4.834   3.266   3.805
    1PA    H14S 6576   4.728   3.410   3.839
    1PA    C113 6577   4.652   3.228   3.920
    1PA    H13R 6578   4.557   3.279   3.936
    1PA    H13S 6579   4.628   3.126   3.889
    1PA    C112 6580   4.733   3.229   4.051
    1PA    H12R 6581   4.823   3.170   4.033
    1PA    H12S 6582   4.762   3.334   4.064
    1PA    C111 6583   4.661   3.163   4.169
    1PA    H11R 6584   4.610   3.077   4.124
    1PA    H11S 6585   4.727   3.122   4.245
    1PA    C110 6586   4.545   3.250   4.219
    1PA    H10R 6587   4.573   3.355   4.230
    1PA    H10S 6588   4.463   3.245   4.147
    1PA     C19 6589   4.506   3.195   4.356
    1PA     H9R 6590   4.472   3.092   4.343
    1PA     H9S 6591   4.582   3.200   4.434
    1PA     C18 6592   4.379   3.277   4.388
    1PA     H8R 6593   4.406   3.382   4.393
    1PA     H8S 6594   4.300   3.269   4.313
    1PA     C17 6595   4.297   3.250   4.515
    1PA     H7R 6596   4.359   3.273   4.603
    1PA     H7S 6597   4.199   3.296   4.516
    1PA     C16 6598   4.276   3.099   4.532
    1PA     H6R 6599   4.228   3.071   4.438
    1PA     H6S 6600   4.370   3.045   4.549
    1PA     C15 6601   4.175   3.072   4.644
    1PA     H5R 6602   4.218   3.109   4.737
    1PA     H5S 6603   4.080   3.125   4.634
    1PA     C14 6604   4.144   2.921   4.644
    1PA     H4R 6605   4.085   2.896   4.556
    1PA     H4S 6606   4.229   2.853   4.655
    1PA     C13 6607   4.066   2.897   4.774
    1PA     H3R 6608   4.120   2.936   4.860
    1PA     H3S 6609   3.981   2.965   4.771
    1PA     C12 6610   4.010   2.755   4.795
    1PA     H2R 6611   3.955   2.727   4.706
    1PA     H2S 6612   4.099   2.692   4.799
    2PC     C11 6613   3.934   2.730   4.923
    2PC     O12 6614   3.902   2.813   5.006
    2PC     O11 6615   3.884   2.606   4.922
    2PC      C1 6616   3.796   2.552   5.023
    2PC      HR 6617   3.793   2.443   5.018
    2PC      HS 6618   3.838   2.578   5.120
    2PC      C2 6619   3.652   2.600   5.002
    2PC      HX 6620   3.659   2.709   4.997
    2PC      C3 6621   3.571   2.579   5.130
    2PC      HA 6622   3.601   2.646   5.212
    2PC      HB 6623   3.465   2.603   5.113
    2PC     O31 6624   3.590   2.442   5.169
    2PC     P31 6625   3.557   2.400   5.320
    2PC     O32 6626   3.614   2.250   5.328
    2PC     C31 6627   3.524   2.138   5.335
    2PC     H1A 6628   3.436   2.157   5.398
    2PC     H1B 6629   3.480   2.120   5.236
    2PC     C32 6630   3.594   2.012   5.385
    2PC     H2A 6631   3.540   1.930   5.337
    2PC     H2B 6632   3.701   2.012   5.362
    2PC     N31 6633   3.577   1.981   5.531
    2PC     C33 6634   3.620   2.100   5.612
    2PC     H3A 6635   3.729   2.098   5.614
    2PC     H3B 6636   3.568   2.189   5.578
    2PC     H3C 6637   3.595   2.060   5.710
    2PC     C34 6638   3.434   1.955   5.566
    2PC     H4A 6639   3.390   1.871   5.511
    2PC     H4B 6640   3.423   1.950   5.674
    2PC     H4C 6641   3.384   2.045   5.531
    2PC     C35 6642   3.663   1.862   5.566
    2PC     H5A 6643   3.640   1.773   5.508
    2PC     H5B 6644   3.672   1.852   5.674
    2PC     H5C 6645   3.765   1.884   5.536
    2PC     O33 6646   3.604   2.476   5.437
    2PC     O34 6647   3.410   2.413   5.338
    2PC     O21 6648   3.596   2.545   4.881
    2PC     C21 6649   3.497   2.603   4.810
    2PC     O22 6650   3.432   2.699   4.843
    3OL     C12 6651   3.465   2.520   4.689
    3OL     H2R 6652   3.396   2.578   4.627
    3OL     H2S 6653   3.406   2.436   4.728
    3OL     C13 6654   3.585   2.487   4.600
    3OL     H3R 6655   3.561   2.414   4.522
    3OL     H3S 6656   3.669   2.452   4.661
    3OL     C14 6657   3.636   2.617   4.536
    3OL     H4R 6658   3.717   2.664   4.593
    3OL     H4S 6659   3.560   2.695   4.540
    3OL     C15 6660   3.664   2.599   4.386
    3OL     H5R 6661   3.581   2.553   4.332
    3OL     H5S 6662   3.751   2.533   4.390
    3OL     C16 6663   3.695   2.740   4.334
    3OL     H6R 6664   3.790   2.767   4.381
    3OL     H6S 6665   3.619   2.813   4.362
    3OL     C17 6666   3.733   2.728   4.186
    3OL     H7R 6667   3.636   2.707   4.139
    3OL     H7S 6668   3.801   2.644   4.169
    3OL     C18 6669   3.792   2.852   4.116
    3OL     H8R 6670   3.834   2.821   4.020
    3OL     H8S 6671   3.884   2.884   4.165
    3OL     C19 6672   3.689   2.962   4.130
    3OL     H9R 6673   3.662   2.977   4.234
    3OL    C110 6674   3.621   3.026   4.036
    3OL    H10R 6675   3.541   3.095   4.063
    3OL    C111 6676   3.637   3.019   3.887
    3OL    H11R 6677   3.550   2.972   3.841
    3OL    H11S 6678   3.719   2.951   3.863
    3OL    C112 6679   3.660   3.149   3.808
    3OL    H12R 6680   3.626   3.232   3.870
    3OL    H12S 6681   3.597   3.148   3.719
    3OL    C113 6682   3.808   3.163   3.772
    3OL    H13R 6683   3.847   3.076   3.719
    3OL    H13S 6684   3.868   3.170   3.863
    3OL    C114 6685   3.833   3.281   3.676
    3OL    H14R 6686   3.787   3.369   3.722
    3OL    H14S 6687   3.777   3.266   3.583
    3OL    C115 6688   3.982   3.317   3.668
    3OL    H15R 6689   4.032   3.240   3.608
    3OL    H15S 6690   4.022   3.316   3.770
    3OL    C116 6691   4.017   3.451   3.602
    3OL    H16R 6692   4.124   3.465   3.588
    3OL    H16S 6693   3.975   3.534   3.660
    3OL    C117 6694   3.951   3.464   3.464
    3OL    H17R 6695   3.843   3.456   3.478
    3OL    H17S 6696   3.985   3.387   3.395
    3OL    C118 6697   3.982   3.604   3.408
    3OL    H18R 6698   3.931   3.603   3.311
    3OL    H18S 6699   4.088   3.617   3.386
    3OL    H18T 6700   3.940   3.681   3.473
    1PA    C116 6701   2.224   4.755   3.829
    1PA    H16R 6702   2.265   4.721   3.733
    1PA    H16S 6703   2.269   4.851   3.855
    1PA    H16T 6704   2.116   4.768   3.822
    1PA    C115 6705   2.254   4.655   3.941
    1PA    H15R 6706   2.194   4.565   3.925
    1PA    H15S 6707   2.360   4.631   3.931
    1PA    C114 6708   2.224   4.722   4.076
    1PA    H14R 6709   2.275   4.666   4.155
    1PA    H14S 6710   2.270   4.820   4.086
    1PA    C113 6711   2.076   4.746   4.107
    1PA    H13R 6712   2.016   4.778   4.022
    1PA    H13S 6713   2.031   4.650   4.135
    1PA    C112 6714   2.048   4.848   4.218
    1PA    H12R 6715   2.092   4.939   4.177
    1PA    H12S 6716   1.942   4.858   4.243
    1PA    C111 6717   2.119   4.818   4.351
    1PA    H11R 6718   2.096   4.718   4.389
    1PA    H11S 6719   2.225   4.825   4.325
    1PA    C110 6720   2.079   4.922   4.456
    1PA    H10R 6721   2.113   5.022   4.427
    1PA    H10S 6722   1.971   4.913   4.468
    1PA     C19 6723   2.139   4.882   4.591
    1PA     H9R 6724   2.121   4.778   4.619
    1PA     H9S 6725   2.247   4.882   4.574
    1PA     C18 6726   2.124   4.975   4.712
    1PA     H8R 6727   2.189   4.955   4.797
    1PA     H8S 6728   2.137   5.076   4.672
    1PA     C17 6729   1.984   4.968   4.776
    1PA     H7R 6730   1.975   5.059   4.836
    1PA     H7S 6731   1.910   4.968   4.696
    1PA     C16 6732   1.957   4.844   4.861
    1PA     H6R 6733   1.850   4.827   4.871
    1PA     H6S 6734   1.990   4.749   4.817
    1PA     C15 6735   2.019   4.853   5.001
    1PA     H5R 6736   2.128   4.863   5.007
    1PA     H5S 6737   1.990   4.947   5.048
    1PA     C14 6738   1.974   4.738   5.093
    1PA     H4R 6739   2.021   4.750   5.190
    1PA     H4S 6740   1.868   4.754   5.117
    1PA     C13 6741   1.997   4.594   5.043
    1PA     H3R 6742   1.977   4.587   4.936
    1PA     H3S 6743   2.101   4.564   5.056
    1PA     C12 6744   1.906   4.494   5.115
    1PA     H2R 6745   1.802   4.520   5.095
    1PA     H2S 6746   1.924   4.392   5.080
    2PC     C11 6747   1.925   4.492   5.264
    2PC     O12 6748   1.834   4.520   5.339
    2PC     O11 6749   2.051   4.474   5.307
    2PC      C1 6750   2.070   4.483   5.449
    2PC      HR 6751   2.022   4.568   5.498
    2PC      HS 6752   2.028   4.395   5.498
    2PC      C2 6753   2.221   4.505   5.470
    2PC      HX 6754   2.276   4.426   5.420
    2PC      C3 6755   2.258   4.514   5.619
    2PC      HA 6756   2.365   4.538   5.625
    2PC      HB 6757   2.204   4.590   5.676
    2PC     O31 6758   2.245   4.385   5.680
    2PC     P31 6759   2.280   4.367   5.835
    2PC     O32 6760   2.149   4.305   5.902
    2PC     C31 6761   2.041   4.400   5.913
    2PC     H1A 6762   2.070   4.479   5.983
    2PC     H1B 6763   2.015   4.447   5.818
    2PC     C32 6764   1.923   4.310   5.953
    2PC     H2A 6765   1.831   4.368   5.951
    2PC     H2B 6766   1.926   4.228   5.881
    2PC     N31 6767   1.925   4.247   6.089
    2PC     C33 6768   2.046   4.163   6.111
    2PC     H3A 6769   2.133   4.230   6.110
    2PC     H3B 6770   2.040   4.111   6.207
    2PC     H3C 6771   2.046   4.086   6.034
    2PC     C34 6772   1.917   4.347   6.200
    2PC     H4A 6773   1.995   4.422   6.180
    2PC     H4B 6774   1.822   4.401   6.198
    2PC     H4C 6775   1.927   4.289   6.291
    2PC     C35 6776   1.802   4.160   6.094
    2PC     H5A 6777   1.811   4.082   6.018
    2PC     H5B 6778   1.710   4.219   6.087
    2PC     H5C 6779   1.793   4.116   6.193
    2PC     O33 6780   2.398   4.279   5.849
    2PC     O34 6781   2.321   4.490   5.908
    2PC     O21 6782   2.256   4.634   5.415
    2PC     C21 6783   2.286   4.640   5.285
    2PC     O22 6784   2.292   4.545   5.209
    3OL     C12 6785   2.331   4.779   5.247
    3OL     H2R 6786   2.395   4.815   5.328
    3OL     H2S 6787   2.240   4.839   5.244
    3OL     C13 6788   2.389   4.776   5.105
    3OL     H3R 6789   2.314   4.724   5.045
    3OL     H3S 6790   2.484   4.721   5.101
    3OL     C14 6791   2.416   4.916   5.048
    3OL     H4R 6792   2.485   4.957   5.122
    3OL     H4S 6793   2.331   4.983   5.051
    3OL     C15 6794   2.485   4.904   4.911
    3OL     H5R 6795   2.408   4.859   4.847
    3OL     H5S 6796   2.576   4.846   4.924
    3OL     C16 6797   2.521   5.043   4.859
    3OL     H6R 6798   2.577   5.087   4.942
    3OL     H6S 6799   2.430   5.101   4.844
    3OL     C17 6800   2.614   5.041   4.736
    3OL     H7R 6801   2.713   4.999   4.757
    3OL     H7S 6802   2.642   5.141   4.702
    3OL     C18 6803   2.554   4.962   4.620
    3OL     H8R 6804   2.465   5.011   4.579
    3OL     H8S 6805   2.530   4.866   4.667
    3OL     C19 6806   2.660   4.933   4.516
    3OL     H9R 6807   2.760   4.936   4.557
    3OL    C110 6808   2.639   4.920   4.386
    3OL    H10R 6809   2.722   4.899   4.319
    3OL    C111 6810   2.505   4.931   4.317
    3OL    H11R 6811   2.432   4.898   4.392
    3OL    H11S 6812   2.496   4.850   4.244
    3OL    C112 6813   2.460   5.068   4.264
    3OL    H12R 6814   2.478   5.142   4.342
    3OL    H12S 6815   2.353   5.066   4.242
    3OL    C113 6816   2.536   5.103   4.135
    3OL    H13R 6817   2.638   5.065   4.147
    3OL    H13S 6818   2.534   5.211   4.122
    3OL    C114 6819   2.462   5.049   4.012
    3OL    H14R 6820   2.358   5.081   4.001
    3OL    H14S 6821   2.457   4.940   4.014
    3OL    C115 6822   2.529   5.097   3.883
    3OL    H15R 6823   2.633   5.065   3.894
    3OL    H15S 6824   2.538   5.206   3.876
    3OL    C116 6825   2.471   5.028   3.759
    3OL    H16R 6826   2.367   5.057   3.744
    3OL    H16S 6827   2.466   4.920   3.775
    3OL    C117 6828   2.554   5.050   3.632
    3OL    H17R 6829   2.512   4.986   3.555
    3OL    H17S 6830   2.660   5.026   3.648
    3OL    C118 6831   2.543   5.195   3.582
    3OL    H18R 6832   2.577   5.197   3.479
    3OL    H18S 6833   2.594   5.270   3.643
    3OL    H18T 6834   2.436   5.217   3.574
    1PA    C116 6835   1.651   6.856   4.238
    1PA    H16R 6836   1.732   6.797   4.283
    1PA    H16S 6837   1.568   6.880   4.305
    1PA    H16T 6838   1.696   6.953   4.218
    1PA    C115 6839   1.608   6.773   4.116
    1PA    H15R 6840   1.525   6.822   4.065
    1PA    H15S 6841   1.692   6.772   4.047
    1PA    C114 6842   1.575   6.629   4.153
    1PA    H14R 6843   1.564   6.577   4.057
    1PA    H14S 6844   1.654   6.573   4.205
    1PA    C113 6845   1.436   6.602   4.214
    1PA    H13R 6846   1.365   6.683   4.197
    1PA    H13S 6847   1.380   6.532   4.152
    1PA    C112 6848   1.443   6.576   4.365
    1PA    H12R 6849   1.461   6.468   4.365
    1PA    H12S 6850   1.518   6.632   4.423
    1PA    C111 6851   1.310   6.599   4.438
    1PA    H11R 6852   1.281   6.703   4.423
    1PA    H11S 6853   1.230   6.536   4.399
    1PA    C110 6854   1.315   6.555   4.585
    1PA    H10R 6855   1.213   6.545   4.622
    1PA    H10S 6856   1.375   6.466   4.603
    1PA     C19 6857   1.376   6.652   4.687
    1PA     H9R 6858   1.473   6.685   4.650
    1PA     H9S 6859   1.318   6.743   4.696
    1PA     C18 6860   1.408   6.589   4.824
    1PA     H8R 6861   1.472   6.505   4.798
    1PA     H8S 6862   1.464   6.659   4.888
    1PA     C17 6863   1.289   6.533   4.902
    1PA     H7R 6864   1.233   6.466   4.835
    1PA     H7S 6865   1.331   6.480   4.988
    1PA     C16 6866   1.204   6.651   4.952
    1PA     H6R 6867   1.266   6.716   5.013
    1PA     H6S 6868   1.165   6.718   4.876
    1PA     C15 6869   1.087   6.612   5.044
    1PA     H5R 6870   1.021   6.698   5.053
    1PA     H5S 6871   1.015   6.542   4.999
    1PA     C14 6872   1.138   6.571   5.183
    1PA     H4R 6873   1.230   6.516   5.160
    1PA     H4S 6874   1.172   6.666   5.228
    1PA     C13 6875   1.025   6.514   5.270
    1PA     H3R 6876   1.034   6.567   5.365
    1PA     H3S 6877   0.930   6.537   5.222
    1PA     C12 6878   1.034   6.362   5.288
    1PA     H2R 6879   1.014   6.303   5.198
    1PA     H2S 6880   1.135   6.341   5.322
    2PC     C11 6881   0.941   6.308   5.394
    2PC     O12 6882   0.972   6.210   5.460
    2PC     O11 6883   0.826   6.376   5.409
    2PC      C1 6884   0.735   6.335   5.511
    2PC      HR 6885   0.721   6.227   5.517
    2PC      HS 6886   0.769   6.364   5.611
    2PC      C2 6887   0.600   6.405   5.489
    2PC      HX 6888   0.628   6.510   5.503
    2PC      C3 6889   0.505   6.367   5.603
    2PC      HA 6890   0.468   6.268   5.577
    2PC      HB 6891   0.560   6.361   5.698
    2PC     O31 6892   0.402   6.467   5.613
    2PC     P31 6893   0.290   6.434   5.722
    2PC     O32 6894   0.346   6.464   5.869
    2PC     C31 6895   0.264   6.541   5.960
    2PC     H1A 6896   0.277   6.650   5.943
    2PC     H1B 6897   0.159   6.517   5.944
    2PC     C32 6898   0.305   6.507   6.104
    2PC     H2A 6899   0.413   6.519   6.118
    2PC     H2B 6900   0.244   6.581   6.156
    2PC     N31 6901   0.274   6.379   6.175
    2PC     C33 6902   0.133   6.385   6.225
    2PC     H3A 6903   0.068   6.408   6.141
    2PC     H3B 6904   0.110   6.286   6.264
    2PC     H3C 6905   0.127   6.466   6.298
    2PC     C34 6906   0.302   6.267   6.079
    2PC     H4A 6907   0.231   6.282   5.997
    2PC     H4B 6908   0.406   6.257   6.047
    2PC     H4C 6909   0.289   6.172   6.130
    2PC     C35 6910   0.367   6.374   6.293
    2PC     H5A 6911   0.469   6.388   6.257
    2PC     H5B 6912   0.354   6.282   6.349
    2PC     H5C 6913   0.344   6.454   6.364
    2PC     O33 6914   0.164   6.501   5.683
    2PC     O34 6915   0.263   6.289   5.714
    2PC     O21 6916   0.561   6.382   5.352
    2PC     C21 6917   0.533   6.257   5.311
    2PC     O22 6918   0.533   6.162   5.387
    3OL     C12 6919   0.499   6.253   5.164
    3OL     H2R 6920   0.585   6.206   5.116
    3OL     H2S 6921   0.492   6.353   5.123
    3OL     C13 6922   0.368   6.178   5.136
    3OL     H3R 6923   0.380   6.076   5.171
    3OL     H3S 6924   0.354   6.172   5.028
    3OL     C14 6925   0.252   6.266   5.186
    3OL     H4R 6926   0.250   6.357   5.127
    3OL     H4S 6927   0.261   6.282   5.294
    3OL     C15 6928   0.123   6.187   5.161
    3OL     H5R 6929   0.048   6.221   5.232
    3OL     H5S 6930   0.137   6.083   5.193
    3OL     C16 6931   0.065   6.192   5.019
    3OL     H6R 6932  -0.033   6.145   5.026
    3OL     H6S 6933   0.125   6.126   4.956
    3OL     C17 6934   0.041   6.323   4.943
    3OL     H7R 6935   0.132   6.383   4.942
    3OL     H7S 6936  -0.032   6.379   5.002
    3OL     C18 6937  -0.012   6.286   4.804
    3OL     H8R 6938  -0.087   6.207   4.808
    3OL     H8S 6939   0.065   6.238   4.744
    3OL     C19 6940  -0.073   6.405   4.734
    3OL     H9R 6941  -0.127   6.473   4.800
    3OL    C110 6942  -0.060   6.435   4.606
    3OL    H10R 6943  -0.091   6.535   4.577
    3OL    C111 6944   0.000   6.353   4.494
    3OL    H11R 6945   0.037   6.256   4.530
    3OL    H11S 6946   0.086   6.411   4.462
    3OL    C112 6947  -0.099   6.346   4.377
    3OL    H12R 6948  -0.127   6.448   4.349
    3OL    H12S 6949  -0.187   6.284   4.396
    3OL    C113 6950  -0.037   6.274   4.257
    3OL    H13R 6951  -0.108   6.270   4.174
    3OL    H13S 6952  -0.017   6.174   4.296
    3OL    C114 6953   0.081   6.347   4.192
    3OL    H14R 6954   0.116   6.277   4.116
    3OL    H14S 6955   0.160   6.362   4.265
    3OL    C115 6956   0.049   6.487   4.137
    3OL    H15R 6957   0.041   6.562   4.216
    3OL    H15S 6958  -0.048   6.486   4.086
    3OL    C116 6959   0.154   6.532   4.035
    3OL    H16R 6960   0.160   6.460   3.953
    3OL    H16S 6961   0.251   6.529   4.085
    3OL    C117 6962   0.132   6.673   3.975
    3OL    H17R 6963   0.036   6.696   3.928
    3OL    H17S 6964   0.197   6.680   3.888
    3OL    C118 6965   0.172   6.784   4.072
    3OL    H18R 6966   0.171   6.878   4.015
    3OL    H18S 6967   0.267   6.778   4.125
    3OL    H18T 6968   0.096   6.794   4.149
    1PA    C116 6969   1.365  -0.351   4.833
    1PA    H16R 6970   1.292  -0.300   4.770
    1PA    H16S 6971   1.327  -0.367   4.934
    1PA    H16T 6972   1.397  -0.447   4.791
    1PA    C115 6973   1.492  -0.266   4.850
    1PA    H15R 6974   1.465  -0.163   4.829
    1PA    H15S 6975   1.524  -0.278   4.953
    1PA    C114 6976   1.603  -0.306   4.751
    1PA    H14R 6977   1.697  -0.252   4.766
    1PA    H14S 6978   1.621  -0.409   4.782
    1PA    C113 6979   1.559  -0.291   4.605
    1PA    H13R 6980   1.459  -0.328   4.586
    1PA    H13S 6981   1.561  -0.182   4.598
    1PA    C112 6982   1.655  -0.346   4.499
    1PA    H12R 6983   1.685  -0.443   4.537
    1PA    H12S 6984   1.602  -0.362   4.404
    1PA    C111 6985   1.773  -0.255   4.460
    1PA    H11R 6986   1.733  -0.153   4.453
    1PA    H11S 6987   1.850  -0.263   4.537
    1PA    C110 6988   1.850  -0.287   4.331
    1PA    H10R 6989   1.881  -0.392   4.333
    1PA    H10S 6990   1.777  -0.281   4.250
    1PA     C19 6991   1.969  -0.192   4.311
    1PA     H9R 6992   1.996  -0.182   4.205
    1PA     H9S 6993   1.930  -0.093   4.335
    1PA     C18 6994   2.097  -0.231   4.386
    1PA     H8R 6995   2.071  -0.328   4.431
    1PA     H8S 6996   2.182  -0.245   4.319
    1PA     C17 6997   2.133  -0.135   4.500
    1PA     H7R 6998   2.154  -0.034   4.463
    1PA     H7S 6999   2.047  -0.135   4.567
    1PA     C16 7000   2.250  -0.185   4.584
    1PA     H6R 7001   2.227  -0.282   4.628
    1PA     H6S 7002   2.331  -0.205   4.514
    1PA     C15 7003   2.299  -0.086   4.691
    1PA     H5R 7004   2.403  -0.095   4.724
    1PA     H5S 7005   2.297   0.016   4.653
    1PA     C14 7006   2.210  -0.094   4.816
    1PA     H4R 7007   2.103  -0.109   4.803
    1PA     H4S 7008   2.235  -0.180   4.878
    1PA     C13 7009   2.229   0.034   4.898
    1PA     H3R 7010   2.335   0.043   4.921
    1PA     H3S 7011   2.193   0.118   4.837
    1PA     C12 7012   2.150   0.017   5.029
    1PA     H2R 7013   2.045  -0.004   5.004
    1PA     H2S 7014   2.180  -0.077   5.074
    2PC     C11 7015   2.155   0.138   5.119
    2PC     O12 7016   2.257   0.194   5.153
    2PC     O11 7017   2.034   0.189   5.152
    2PC      C1 7018   2.021   0.307   5.232
    2PC      HR 7019   1.916   0.333   5.247
    2PC      HS 7020   2.062   0.277   5.329
    2PC      C2 7021   2.092   0.428   5.170
    2PC      HX 7022   2.169   0.402   5.096
    2PC      C3 7023   2.142   0.515   5.286
    2PC      HA 7024   2.056   0.529   5.353
    2PC      HB 7025   2.211   0.465   5.354
    2PC     O31 7026   2.186   0.642   5.235
    2PC     P31 7027   2.207   0.763   5.337
    2PC     O32 7028   2.070   0.842   5.312
    2PC     C31 7029   1.946   0.804   5.373
    2PC     H1A 7030   1.922   0.704   5.336
    2PC     H1B 7031   1.953   0.806   5.482
    2PC     C32 7032   1.845   0.914   5.338
    2PC     H2A 7033   1.878   1.003   5.392
    2PC     H2B 7034   1.850   0.942   5.232
    2PC     N31 7035   1.701   0.878   5.359
    2PC     C33 7036   1.663   0.829   5.496
    2PC     H3A 7037   1.559   0.797   5.496
    2PC     H3B 7038   1.739   0.752   5.512
    2PC     H3C 7039   1.678   0.910   5.568
    2PC     C34 7040   1.615   0.995   5.325
    2PC     H4A 7041   1.634   1.021   5.221
    2PC     H4B 7042   1.510   0.970   5.343
    2PC     H4C 7043   1.643   1.080   5.388
    2PC     C35 7044   1.655   0.769   5.267
    2PC     H5A 7045   1.691   0.809   5.172
    2PC     H5B 7046   1.546   0.765   5.273
    2PC     H5C 7047   1.705   0.677   5.298
    2PC     O33 7048   2.222   0.732   5.481
    2PC     O34 7049   2.320   0.854   5.308
    2PC     O21 7050   1.992   0.504   5.099
    2PC     C21 7051   1.981   0.488   4.966
    2PC     O22 7052   2.059   0.433   4.891
    3OL     C12 7053   1.867   0.571   4.914
    3OL     H2R 7054   1.857   0.659   4.978
    3OL     H2S 7055   1.777   0.509   4.921
    3OL     C13 7056   1.896   0.612   4.768
    3OL     H3R 7057   1.865   0.522   4.714
    3OL     H3S 7058   2.001   0.640   4.771
    3OL     C14 7059   1.803   0.729   4.733
    3OL     H4R 7060   1.838   0.819   4.786
    3OL     H4S 7061   1.701   0.701   4.760
    3OL     C15 7062   1.793   0.758   4.583
    3OL     H5R 7063   1.710   0.827   4.568
    3OL     H5S 7064   1.764   0.664   4.536
    3OL     C16 7065   1.924   0.805   4.518
    3OL     H6R 7066   2.009   0.759   4.570
    3OL     H6S 7067   1.932   0.912   4.539
    3OL     C17 7068   1.940   0.789   4.366
    3OL     H7R 7069   1.860   0.841   4.313
    3OL     H7S 7070   1.933   0.682   4.346
    3OL     C18 7071   2.078   0.841   4.324
    3OL     H8R 7072   2.102   0.937   4.370
    3OL     H8S 7073   2.076   0.864   4.217
    3OL     C19 7074   2.189   0.744   4.356
    3OL     H9R 7075   2.210   0.721   4.460
    3OL    C110 7076   2.281   0.694   4.275
    3OL    H10R 7077   2.352   0.623   4.317
    3OL    C111 7078   2.275   0.710   4.126
    3OL    H11R 7079   2.182   0.748   4.083
    3OL    H11S 7080   2.293   0.619   4.069
    3OL    C112 7081   2.386   0.807   4.084
    3OL    H12R 7082   2.399   0.814   3.975
    3OL    H12S 7083   2.481   0.780   4.131
    3OL    C113 7084   2.370   0.950   4.137
    3OL    H13R 7085   2.312   0.945   4.229
    3OL    H13S 7086   2.314   1.011   4.065
    3OL    C114 7087   2.506   1.020   4.148
    3OL    H14R 7088   2.565   0.986   4.234
    3OL    H14S 7089   2.474   1.123   4.162
    3OL    C115 7090   2.590   1.010   4.020
    3OL    H15R 7091   2.535   1.059   3.940
    3OL    H15S 7092   2.599   0.905   3.989
    3OL    C116 7093   2.729   1.075   4.033
    3OL    H16R 7094   2.775   1.047   3.938
    3OL    H16S 7095   2.789   1.034   4.114
    3OL    C117 7096   2.740   1.228   4.038
    3OL    H17R 7097   2.694   1.268   4.129
    3OL    H17S 7098   2.691   1.269   3.949
    3OL    C118 7099   2.889   1.261   4.030
    3OL    H18R 7100   2.883   1.370   4.036
    3OL    H18S 7101   2.933   1.210   3.944
    3OL    H18T 7102   2.938   1.224   4.120
    1PA    C116 7103   1.494   5.783   3.551
    1PA    H16R 7104   1.458   5.887   3.553
    1PA    H16S 7105   1.412   5.711   3.553
    1PA    H16T 7106   1.544   5.793   3.455
    1PA    C115 7107   1.589   5.761   3.670
    1PA    H15R 7108   1.613   5.655   3.669
    1PA    H15S 7109   1.685   5.810   3.652
    1PA    C114 7110   1.521   5.796   3.803
    1PA    H14R 7111   1.466   5.891   3.807
    1PA    H14S 7112   1.449   5.716   3.818
    1PA    C113 7113   1.619   5.796   3.921
    1PA    H13R 7114   1.675   5.702   3.914
    1PA    H13S 7115   1.680   5.886   3.919
    1PA    C112 7116   1.540   5.790   4.052
    1PA    H12R 7117   1.495   5.889   4.051
    1PA    H12S 7118   1.471   5.705   4.049
    1PA    C111 7119   1.632   5.758   4.171
    1PA    H11R 7120   1.681   5.661   4.158
    1PA    H11S 7121   1.716   5.829   4.171
    1PA    C110 7122   1.547   5.757   4.298
    1PA    H10R 7123   1.513   5.861   4.303
    1PA    H10S 7124   1.463   5.689   4.278
    1PA     C19 7125   1.632   5.735   4.424
    1PA     H9R 7126   1.661   5.631   4.409
    1PA     H9S 7127   1.723   5.796   4.427
    1PA     C18 7128   1.550   5.732   4.553
    1PA     H8R 7129   1.502   5.829   4.568
    1PA     H8S 7130   1.477   5.652   4.542
    1PA     C17 7131   1.628   5.696   4.680
    1PA     H7R 7132   1.686   5.606   4.658
    1PA     H7S 7133   1.700   5.776   4.698
    1PA     C16 7134   1.536   5.660   4.797
    1PA     H6R 7135   1.462   5.737   4.822
    1PA     H6S 7136   1.473   5.574   4.772
    1PA     C15 7137   1.602   5.630   4.932
    1PA     H5R 7138   1.546   5.551   4.983
    1PA     H5S 7139   1.702   5.588   4.920
    1PA     C14 7140   1.592   5.750   5.028
    1PA     H4R 7141   1.632   5.833   4.970
    1PA     H4S 7142   1.485   5.764   5.045
    1PA     C13 7143   1.669   5.718   5.156
    1PA     H3R 7144   1.771   5.701   5.123
    1PA     H3S 7145   1.657   5.807   5.218
    1PA     C12 7146   1.618   5.594   5.232
    1PA     H2R 7147   1.510   5.582   5.231
    1PA     H2S 7148   1.668   5.513   5.177
    2PC     C11 7149   1.675   5.594   5.371
    2PC     O12 7150   1.787   5.557   5.399
    2PC     O11 7151   1.583   5.629   5.463
    2PC      C1 7152   1.609   5.620   5.604
    2PC      HR 7153   1.661   5.527   5.627
    2PC      HS 7154   1.679   5.701   5.627
    2PC      C2 7155   1.472   5.626   5.673
    2PC      HX 7156   1.430   5.727   5.670
    2PC      C3 7157   1.506   5.599   5.821
    2PC      HA 7158   1.553   5.501   5.826
    2PC      HB 7159   1.583   5.670   5.853
    2PC     O31 7160   1.387   5.599   5.902
    2PC     P31 7161   1.417   5.595   6.059
    2PC     O32 7162   1.433   5.440   6.094
    2PC     C31 7163   1.320   5.361   6.052
    2PC     H1A 7164   1.225   5.414   6.057
    2PC     H1B 7165   1.334   5.348   5.944
    2PC     C32 7166   1.327   5.228   6.128
    2PC     H2A 7167   1.301   5.149   6.057
    2PC     H2B 7168   1.424   5.212   6.176
    2PC     N31 7169   1.226   5.212   6.238
    2PC     C33 7170   1.274   5.103   6.329
    2PC     H3A 7171   1.194   5.075   6.397
    2PC     H3B 7172   1.296   5.016   6.267
    2PC     H3C 7173   1.361   5.139   6.384
    2PC     C34 7174   1.207   5.337   6.318
    2PC     H4A 7175   1.167   5.410   6.248
    2PC     H4B 7176   1.138   5.312   6.399
    2PC     H4C 7177   1.307   5.368   6.351
    2PC     C35 7178   1.095   5.171   6.178
    2PC     H5A 7179   1.097   5.069   6.139
    2PC     H5B 7180   1.065   5.235   6.095
    2PC     H5C 7181   1.020   5.177   6.257
    2PC     O33 7182   1.541   5.654   6.115
    2PC     O34 7183   1.303   5.668   6.121
    2PC     O21 7184   1.401   5.515   5.617
    2PC     C21 7185   1.267   5.512   5.625
    2PC     O22 7186   1.206   5.606   5.672
    3OL     C12 7187   1.201   5.388   5.570
    3OL     H2R 7188   1.179   5.322   5.654
    3OL     H2S 7189   1.268   5.325   5.512
    3OL     C13 7190   1.070   5.403   5.492
    3OL     H3R 7191   1.002   5.449   5.564
    3OL     H3S 7192   1.040   5.300   5.472
    3OL     C14 7193   1.065   5.482   5.361
    3OL     H4R 7194   1.121   5.574   5.379
    3OL     H4S 7195   0.964   5.509   5.330
    3OL     C15 7196   1.132   5.400   5.250
    3OL     H5R 7197   1.101   5.296   5.236
    3OL     H5S 7198   1.238   5.393   5.276
    3OL     C16 7199   1.117   5.471   5.115
    3OL     H6R 7200   1.143   5.577   5.116
    3OL     H6S 7201   1.012   5.462   5.087
    3OL     C17 7202   1.197   5.401   5.004
    3OL     H7R 7203   1.160   5.298   4.993
    3OL     H7S 7204   1.297   5.394   5.047
    3OL     C18 7205   1.180   5.470   4.869
    3OL     H8R 7206   1.079   5.438   4.843
    3OL     H8S 7207   1.240   5.424   4.791
    3OL     C19 7208   1.219   5.616   4.861
    3OL     H9R 7209   1.268   5.649   4.952
    3OL    C110 7210   1.186   5.704   4.767
    3OL    H10R 7211   1.233   5.802   4.776
    3OL    C111 7212   1.104   5.682   4.643
    3OL    H11R 7213   1.007   5.726   4.668
    3OL    H11S 7214   1.087   5.578   4.617
    3OL    C112 7215   1.169   5.754   4.524
    3OL    H12R 7216   1.276   5.738   4.517
    3OL    H12S 7217   1.150   5.862   4.526
    3OL    C113 7218   1.101   5.710   4.394
    3OL    H13R 7219   1.125   5.778   4.313
    3OL    H13S 7220   0.993   5.712   4.410
    3OL    C114 7221   1.147   5.570   4.351
    3OL    H14R 7222   1.114   5.494   4.422
    3OL    H14S 7223   1.256   5.576   4.355
    3OL    C115 7224   1.085   5.520   4.220
    3OL    H15R 7225   0.979   5.547   4.222
    3OL    H15S 7226   1.087   5.411   4.205
    3OL    C116 7227   1.146   5.584   4.094
    3OL    H16R 7228   1.253   5.572   4.110
    3OL    H16S 7229   1.121   5.690   4.090
    3OL    C117 7230   1.093   5.521   3.964
    3OL    H17R 7231   0.984   5.528   3.964
    3OL    H17S 7232   1.115   5.415   3.950
    3OL    C118 7233   1.155   5.580   3.837
    3OL    H18R 7234   1.130   5.685   3.826
    3OL    H18S 7235   1.118   5.528   3.748
    3OL    H18T 7236   1.264   5.574   3.827
    1PA    C116 7237   1.410   1.243   3.513
    1PA    H16R 7238   1.350   1.334   3.503
    1PA    H16S 7239   1.370   1.149   3.475
    1PA    H16T 7240   1.505   1.256   3.462
    1PA    C115 7241   1.444   1.222   3.661
    1PA    H15R 7242   1.508   1.136   3.680
    1PA    H15S 7243   1.498   1.310   3.698
    1PA    C114 7244   1.314   1.183   3.733
    1PA    H14R 7245   1.237   1.253   3.697
    1PA    H14S 7246   1.284   1.088   3.690
    1PA    C113 7247   1.314   1.175   3.886
    1PA    H13R 7248   1.379   1.258   3.916
    1PA    H13S 7249   1.213   1.175   3.928
    1PA    C112 7250   1.376   1.047   3.942
    1PA    H12R 7251   1.312   0.960   3.923
    1PA    H12S 7252   1.469   1.022   3.889
    1PA    C111 7253   1.403   1.062   4.092
    1PA    H11R 7254   1.477   1.139   4.112
    1PA    H11S 7255   1.309   1.085   4.143
    1PA    C110 7256   1.463   0.928   4.139
    1PA    H10R 7257   1.525   0.879   4.065
    1PA    H10S 7258   1.533   0.947   4.221
    1PA     C19 7259   1.364   0.826   4.198
    1PA     H9R 7260   1.332   0.850   4.299
    1PA     H9S 7261   1.274   0.836   4.137
    1PA     C18 7262   1.416   0.682   4.207
    1PA     H8R 7263   1.455   0.655   4.109
    1PA     H8S 7264   1.496   0.676   4.282
    1PA     C17 7265   1.315   0.570   4.236
    1PA     H7R 7266   1.230   0.576   4.168
    1PA     H7S 7267   1.354   0.469   4.225
    1PA     C16 7268   1.266   0.577   4.382
    1PA     H6R 7269   1.206   0.666   4.402
    1PA     H6S 7270   1.189   0.500   4.389
    1PA     C15 7271   1.372   0.563   4.493
    1PA     H5R 7272   1.423   0.467   4.494
    1PA     H5S 7273   1.448   0.641   4.481
    1PA     C14 7274   1.307   0.587   4.629
    1PA     H4R 7275   1.253   0.681   4.637
    1PA     H4S 7276   1.229   0.515   4.657
    1PA     C13 7277   1.417   0.582   4.736
    1PA     H3R 7278   1.474   0.491   4.720
    1PA     H3S 7279   1.484   0.667   4.720
    1PA     C12 7280   1.355   0.588   4.877
    1PA     H2R 7281   1.291   0.676   4.878
    1PA     H2S 7282   1.290   0.503   4.899
    2PC     C11 7283   1.458   0.593   4.987
    2PC     O12 7284   1.552   0.670   4.988
    2PC     O11 7285   1.447   0.490   5.074
    2PC      C1 7286   1.557   0.480   5.166
    2PC      HR 7287   1.652   0.497   5.114
    2PC      HS 7288   1.542   0.549   5.249
    2PC      C2 7289   1.550   0.337   5.221
    2PC      HX 7290   1.445   0.307   5.225
    2PC      C3 7291   1.618   0.336   5.358
    2PC      HA 7292   1.532   0.361   5.421
    2PC      HB 7293   1.657   0.239   5.388
    2PC     O31 7294   1.724   0.432   5.371
    2PC     P31 7295   1.797   0.447   5.513
    2PC     O32 7296   1.895   0.320   5.502
    2PC     C31 7297   1.941   0.256   5.623
    2PC     H1A 7298   1.972   0.335   5.692
    2PC     H1B 7299   1.859   0.201   5.668
    2PC     C32 7300   2.065   0.169   5.597
    2PC     H2A 7301   2.046   0.085   5.530
    2PC     H2B 7302   2.147   0.228   5.554
    2PC     N31 7303   2.131   0.124   5.724
    2PC     C33 7304   2.040   0.078   5.834
    2PC     H3A 7305   2.096   0.042   5.920
    2PC     H3B 7306   1.977   0.163   5.862
    2PC     H3C 7307   1.978  -0.002   5.793
    2PC     C34 7308   2.221   0.006   5.702
    2PC     H4A 7309   2.157  -0.082   5.701
    2PC     H4B 7310   2.267   0.008   5.603
    2PC     H4C 7311   2.291   0.006   5.786
    2PC     C35 7312   2.220   0.235   5.771
    2PC     H5A 7313   2.266   0.211   5.867
    2PC     H5B 7314   2.178   0.334   5.791
    2PC     H5C 7315   2.302   0.248   5.701
    2PC     O33 7316   1.867   0.572   5.549
    2PC     O34 7317   1.691   0.433   5.615
    2PC     O21 7318   1.626   0.259   5.126
    2PC     C21 7319   1.620   0.125   5.135
    2PC     O22 7320   1.577   0.061   5.229
    3OL     C12 7321   1.676   0.056   5.013
    3OL     H2R 7322   1.598   0.007   4.955
    3OL     H2S 7323   1.749  -0.015   5.051
    3OL     C13 7324   1.746   0.146   4.910
    3OL     H3R 7325   1.830   0.201   4.954
    3OL     H3S 7326   1.679   0.221   4.866
    3OL     C14 7327   1.805   0.064   4.795
    3OL     H4R 7328   1.750  -0.030   4.786
    3OL     H4S 7329   1.905   0.029   4.824
    3OL     C15 7330   1.816   0.130   4.656
    3OL     H5R 7331   1.725   0.182   4.622
    3OL     H5S 7332   1.856   0.062   4.580
    3OL     C16 7333   1.912   0.250   4.662
    3OL     H6R 7334   2.013   0.212   4.672
    3OL     H6S 7335   1.888   0.319   4.742
    3OL     C17 7336   1.925   0.331   4.532
    3OL     H7R 7337   1.963   0.432   4.548
    3OL     H7S 7338   1.825   0.345   4.491
    3OL     C18 7339   2.005   0.256   4.424
    3OL     H8R 7340   1.943   0.178   4.381
    3OL     H8S 7341   2.083   0.196   4.468
    3OL     C19 7342   2.051   0.357   4.321
    3OL     H9R 7343   2.069   0.458   4.355
    3OL    C110 7344   2.047   0.329   4.192
    3OL    H10R 7345   2.072   0.413   4.127
    3OL    C111 7346   2.057   0.196   4.124
    3OL    H11R 7347   1.965   0.170   4.071
    3OL    H11S 7348   2.072   0.114   4.196
    3OL    C112 7349   2.167   0.198   4.018
    3OL    H12R 7350   2.266   0.213   4.061
    3OL    H12S 7351   2.154   0.287   3.957
    3OL    C113 7352   2.158   0.068   3.935
    3OL    H13R 7353   2.059   0.069   3.888
    3OL    H13S 7354   2.168  -0.022   3.996
    3OL    C114 7355   2.259   0.066   3.820
    3OL    H14R 7356   2.235   0.153   3.758
    3OL    H14S 7357   2.230  -0.014   3.751
    3OL    C115 7358   2.406   0.064   3.866
    3OL    H15R 7359   2.419  -0.015   3.940
    3OL    H15S 7360   2.438   0.158   3.912
    3OL    C116 7361   2.498   0.038   3.746
    3OL    H16R 7362   2.469   0.113   3.672
    3OL    H16S 7363   2.489  -0.063   3.705
    3OL    C117 7364   2.647   0.060   3.777
    3OL    H17R 7365   2.682  -0.022   3.841
    3OL    H17S 7366   2.654   0.149   3.840
    3OL    C118 7367   2.729   0.055   3.647
    3OL    H18R 7368   2.740   0.150   3.593
    3OL    H18S 7369   2.701  -0.031   3.587
    3OL    H18T 7370   2.833   0.032   3.673
    1PA    C116 7371   4.013   4.492   3.454
    1PA    H16R 7372   4.115   4.528   3.444
    1PA    H16S 7373   3.964   4.579   3.497
    1PA    H16T 7374   3.974   4.478   3.352
    1PA    C115 7375   3.996   4.376   3.553
    1PA    H15R 7376   3.890   4.372   3.580
    1PA    H15S 7377   4.029   4.291   3.491
    1PA    C114 7378   4.082   4.383   3.679
    1PA    H14R 7379   4.108   4.280   3.706
    1PA    H14S 7380   4.179   4.431   3.663
    1PA    C113 7381   4.017   4.463   3.793
    1PA    H13R 7382   3.984   4.561   3.758
    1PA    H13S 7383   3.931   4.408   3.833
    1PA    C112 7384   4.118   4.485   3.907
    1PA    H12R 7385   4.159   4.392   3.947
    1PA    H12S 7386   4.197   4.546   3.861
    1PA    C111 7387   4.055   4.555   4.027
    1PA    H11R 7388   4.027   4.657   4.000
    1PA    H11S 7389   3.965   4.506   4.067
    1PA    C110 7390   4.155   4.572   4.142
    1PA    H10R 7391   4.197   4.475   4.168
    1PA    H10S 7392   4.239   4.635   4.111
    1PA     C19 7393   4.085   4.641   4.261
    1PA     H9R 7394   4.028   4.728   4.232
    1PA     H9S 7395   4.018   4.560   4.290
    1PA     C18 7396   4.184   4.681   4.371
    1PA     H8R 7397   4.261   4.742   4.324
    1PA     H8S 7398   4.119   4.730   4.444
    1PA     C17 7399   4.246   4.564   4.449
    1PA     H7R 7400   4.299   4.494   4.384
    1PA     H7S 7401   4.309   4.599   4.531
    1PA     C16 7402   4.145   4.478   4.526
    1PA     H6R 7403   4.080   4.419   4.461
    1PA     H6S 7404   4.197   4.396   4.576
    1PA     C15 7405   4.059   4.554   4.627
    1PA     H5R 7406   4.120   4.623   4.686
    1PA     H5S 7407   3.985   4.618   4.578
    1PA     C14 7408   4.009   4.453   4.732
    1PA     H4R 7409   3.939   4.380   4.690
    1PA     H4S 7410   4.089   4.396   4.779
    1PA     C13 7411   3.934   4.531   4.841
    1PA     H3R 7412   4.007   4.602   4.877
    1PA     H3S 7413   3.857   4.585   4.784
    1PA     C12 7414   3.868   4.447   4.952
    1PA     H2R 7415   3.788   4.387   4.909
    1PA     H2S 7416   3.948   4.382   4.989
    2PC     C11 7417   3.812   4.539   5.057
    2PC     O12 7418   3.739   4.636   5.044
    2PC     O11 7419   3.849   4.495   5.179
    2PC      C1 7420   3.805   4.566   5.296
    2PC      HR 7421   3.704   4.606   5.285
    2PC      HS 7422   3.815   4.505   5.385
    2PC      C2 7423   3.908   4.677   5.321
    2PC      HX 7424   4.008   4.644   5.292
    2PC      C3 7425   3.908   4.723   5.467
    2PC      HA 7426   3.930   4.638   5.533
    2PC      HB 7427   3.981   4.801   5.488
    2PC     O31 7428   3.776   4.774   5.496
    2PC     P31 7429   3.756   4.874   5.620
    2PC     O32 7430   3.698   5.004   5.546
    2PC     C31 7431   3.570   4.991   5.482
    2PC     H1A 7432   3.567   4.925   5.395
    2PC     H1B 7433   3.501   4.956   5.559
    2PC     C32 7434   3.531   5.134   5.442
    2PC     H2A 7435   3.618   5.180   5.394
    2PC     H2B 7436   3.440   5.123   5.382
    2PC     N31 7437   3.492   5.225   5.554
    2PC     C33 7438   3.605   5.270   5.641
    2PC     H3A 7439   3.690   5.301   5.580
    2PC     H3B 7440   3.561   5.347   5.704
    2PC     H3C 7441   3.647   5.186   5.698
    2PC     C34 7442   3.446   5.355   5.493
    2PC     H4A 7443   3.421   5.431   5.568
    2PC     H4B 7444   3.520   5.388   5.420
    2PC     H4C 7445   3.348   5.349   5.446
    2PC     C35 7446   3.381   5.174   5.641
    2PC     H5A 7447   3.406   5.072   5.670
    2PC     H5B 7448   3.284   5.175   5.590
    2PC     H5C 7449   3.390   5.240   5.727
    2PC     O33 7450   3.659   4.819   5.718
    2PC     O34 7451   3.869   4.909   5.709
    2PC     O21 7452   3.867   4.795   5.248
    2PC     C21 7453   3.961   4.883   5.210
    2PC     O22 7454   4.076   4.873   5.247
    3OL     C12 7455   3.918   4.997   5.121
    3OL     H2R 7456   3.996   5.073   5.115
    3OL     H2S 7457   3.833   5.050   5.164
    3OL     C13 7458   3.878   4.947   4.981
    3OL     H3R 7459   3.801   4.870   4.982
    3OL     H3S 7460   3.969   4.903   4.939
    3OL     C14 7461   3.831   5.067   4.897
    3OL     H4R 7462   3.911   5.140   4.912
    3OL     H4S 7463   3.749   5.113   4.952
    3OL     C15 7464   3.808   5.033   4.749
    3OL     H5R 7465   3.894   4.987   4.699
    3OL     H5S 7466   3.794   5.132   4.706
    3OL     C16 7467   3.684   4.945   4.726
    3OL     H6R 7468   3.607   4.990   4.789
    3OL     H6S 7469   3.693   4.838   4.745
    3OL     C17 7470   3.641   4.956   4.579
    3OL     H7R 7471   3.649   5.062   4.551
    3OL     H7S 7472   3.533   4.943   4.579
    3OL     C18 7473   3.724   4.870   4.484
    3OL     H8R 7474   3.754   4.785   4.545
    3OL     H8S 7475   3.813   4.919   4.443
    3OL     C19 7476   3.643   4.831   4.363
    3OL     H9R 7477   3.583   4.745   4.389
    3OL    C110 7478   3.659   4.871   4.238
    3OL    H10R 7479   3.598   4.841   4.153
    3OL    C111 7480   3.741   4.994   4.205
    3OL    H11R 7481   3.735   5.065   4.288
    3OL    H11S 7482   3.681   5.035   4.125
    3OL    C112 7483   3.882   4.955   4.159
    3OL    H12R 7484   3.875   4.879   4.080
    3OL    H12S 7485   3.945   4.913   4.238
    3OL    C113 7486   3.946   5.086   4.112
    3OL    H13R 7487   3.958   5.160   4.192
    3OL    H13S 7488   3.886   5.141   4.039
    3OL    C114 7489   4.075   5.045   4.040
    3OL    H14R 7490   4.062   4.976   3.955
    3OL    H14S 7491   4.130   4.971   4.099
    3OL    C115 7492   4.182   5.152   4.018
    3OL    H15R 7493   4.281   5.106   4.016
    3OL    H15S 7494   4.192   5.222   4.101
    3OL    C116 7495   4.161   5.223   3.884
    3OL    H16R 7496   4.069   5.282   3.883
    3OL    H16S 7497   4.148   5.157   3.798
    3OL    C117 7498   4.275   5.321   3.851
    3OL    H17R 7499   4.372   5.272   3.856
    3OL    H17S 7500   4.265   5.406   3.918
    3OL    C118 7501   4.249   5.387   3.714
    3OL    H18R 7502   4.165   5.455   3.727
    3OL    H18S 7503   4.233   5.316   3.633
    3OL    H18T 7504   4.334   5.450   3.691
    1PA    C116 7505   3.586   1.013   4.121
    1PA    H16R 7506   3.482   1.042   4.104
    1PA    H16S 7507   3.600   0.911   4.084
    1PA    H16T 7508   3.650   1.070   4.053
    1PA    C115 7509   3.625   1.039   4.267
    1PA    H15R 7510   3.584   1.137   4.294
    1PA    H15S 7511   3.573   0.974   4.338
    1PA    C114 7512   3.775   1.023   4.293
    1PA    H14R 7513   3.833   1.100   4.240
    1PA    H14S 7514   3.794   1.033   4.400
    1PA    C113 7515   3.827   0.882   4.259
    1PA    H13R 7516   3.782   0.803   4.319
    1PA    H13S 7517   3.794   0.876   4.155
    1PA    C112 7518   3.979   0.868   4.277
    1PA    H12R 7519   4.012   0.788   4.210
    1PA    H12S 7520   4.028   0.959   4.242
    1PA    C111 7521   4.027   0.838   4.420
    1PA    H11R 7522   3.994   0.932   4.465
    1PA    H11S 7523   3.961   0.763   4.466
    1PA    C110 7524   4.177   0.814   4.436
    1PA    H10R 7525   4.194   0.715   4.393
    1PA    H10S 7526   4.239   0.886   4.383
    1PA     C19 7527   4.205   0.794   4.585
    1PA     H9R 7528   4.184   0.887   4.638
    1PA     H9S 7529   4.142   0.716   4.629
    1PA     C18 7530   4.356   0.771   4.606
    1PA     H8R 7531   4.392   0.684   4.552
    1PA     H8S 7532   4.397   0.860   4.558
    1PA     C17 7533   4.388   0.752   4.755
    1PA     H7R 7534   4.324   0.688   4.816
    1PA     H7S 7535   4.490   0.712   4.764
    1PA     C16 7536   4.411   0.883   4.832
    1PA     H6R 7537   4.505   0.929   4.800
    1PA     H6S 7538   4.332   0.947   4.793
    1PA     C15 7539   4.401   0.854   4.982
    1PA     H5R 7540   4.307   0.805   5.008
    1PA     H5S 7541   4.484   0.787   5.006
    1PA     C14 7542   4.426   0.982   5.064
    1PA     H4R 7543   4.512   1.047   5.049
    1PA     H4S 7544   4.341   1.048   5.045
    1PA     C13 7545   4.410   0.945   5.212
    1PA     H3R 7546   4.307   0.909   5.219
    1PA     H3S 7547   4.473   0.869   5.259
    1PA     C12 7548   4.425   1.063   5.308
    1PA     H2R 7549   4.361   1.143   5.271
    1PA     H2S 7550   4.382   1.038   5.405
    2PC     C11 7551   4.566   1.110   5.337
    2PC     O12 7552   4.622   1.176   5.252
    2PC     O11 7553   4.622   1.066   5.450
    2PC      C1 7554   4.754   1.115   5.482
    2PC      HR 7555   4.800   1.038   5.544
    2PC      HS 7556   4.811   1.117   5.389
    2PC      C2 7557   4.752   1.247   5.559
    2PC      HX 7558   4.851   1.288   5.581
    2PC      C3 7559   4.672   1.216   5.687
    2PC      HA 7560   4.573   1.182   5.657
    2PC      HB 7561   4.721   1.135   5.741
    2PC     O31 7562   4.673   1.332   5.772
    2PC     P31 7563   4.636   1.317   5.927
    2PC     O32 7564   4.477   1.303   5.919
    2PC     C31 7565   4.416   1.259   6.042
    2PC     H1A 7566   4.438   1.153   6.056
    2PC     H1B 7567   4.448   1.310   6.134
    2PC     C32 7568   4.267   1.264   6.005
    2PC     H2A 7569   4.262   1.211   5.910
    2PC     H2B 7570   4.207   1.206   6.075
    2PC     N31 7571   4.199   1.397   5.996
    2PC     C33 7572   4.214   1.476   6.123
    2PC     H3A 7573   4.322   1.488   6.128
    2PC     H3B 7574   4.172   1.574   6.101
    2PC     H3C 7575   4.171   1.430   6.212
    2PC     C34 7576   4.247   1.481   5.882
    2PC     H4A 7577   4.347   1.506   5.918
    2PC     H4B 7578   4.264   1.426   5.789
    2PC     H4C 7579   4.178   1.562   5.858
    2PC     C35 7580   4.053   1.367   5.981
    2PC     H5A 7581   4.049   1.332   5.878
    2PC     H5B 7582   3.991   1.457   5.984
    2PC     H5C 7583   4.025   1.294   6.057
    2PC     O33 7584   4.683   1.184   5.973
    2PC     O34 7585   4.689   1.440   5.991
    2PC     O21 7586   4.683   1.352   5.489
    2PC     C21 7587   4.748   1.422   5.394
    2PC     O22 7588   4.868   1.433   5.381
    3OL     C12 7589   4.649   1.504   5.314
    3OL     H2R 7590   4.563   1.520   5.378
    3OL     H2S 7591   4.612   1.446   5.229
    3OL     C13 7592   4.712   1.636   5.268
    3OL     H3R 7593   4.807   1.619   5.217
    3OL     H3S 7594   4.742   1.710   5.343
    3OL     C14 7595   4.614   1.693   5.164
    3OL     H4R 7596   4.519   1.704   5.216
    3OL     H4S 7597   4.603   1.625   5.079
    3OL     C15 7598   4.656   1.827   5.103
    3OL     H5R 7599   4.710   1.879   5.183
    3OL     H5S 7600   4.562   1.874   5.073
    3OL     C16 7601   4.746   1.803   4.981
    3OL     H6R 7602   4.702   1.717   4.929
    3OL     H6S 7603   4.845   1.777   5.020
    3OL     C17 7604   4.748   1.918   4.880
    3OL     H7R 7605   4.781   2.007   4.932
    3OL     H7S 7606   4.647   1.939   4.842
    3OL     C18 7607   4.840   1.888   4.760
    3OL     H8R 7608   4.825   1.784   4.732
    3OL     H8S 7609   4.948   1.898   4.774
    3OL     C19 7610   4.795   1.976   4.647
    3OL     H9R 7611   4.709   1.936   4.594
    3OL    C110 7612   4.849   2.092   4.611
    3OL    H10R 7613   4.820   2.154   4.527
    3OL    C111 7614   4.958   2.156   4.692
    3OL    H11R 7615   5.056   2.132   4.650
    3OL    H11S 7616   4.949   2.119   4.794
    3OL    C112 7617   4.941   2.309   4.690
    3OL    H12R 7618   4.993   2.338   4.782
    3OL    H12S 7619   4.838   2.334   4.713
    3OL    C113 7620   5.001   2.387   4.572
    3OL    H13R 7621   5.104   2.353   4.563
    3OL    H13S 7622   4.999   2.492   4.602
    3OL    C114 7623   4.925   2.367   4.440
    3OL    H14R 7624   4.820   2.392   4.456
    3OL    H14S 7625   4.929   2.263   4.404
    3OL    C115 7626   4.980   2.451   4.324
    3OL    H15R 7627   4.981   2.555   4.356
    3OL    H15S 7628   4.919   2.446   4.233
    3OL    C116 7629   5.117   2.400   4.278
    3OL    H16R 7630   5.111   2.299   4.236
    3OL    H16S 7631   5.187   2.387   4.361
    3OL    C117 7632   5.183   2.490   4.172
    3OL    H17R 7633   5.178   2.593   4.208
    3OL    H17S 7634   5.128   2.484   4.078
    3OL    C118 7635   5.320   2.435   4.134
    3OL    H18R 7636   5.372   2.506   4.069
    3OL    H18S 7637   5.333   2.344   4.074
    3OL    H18T 7638   5.387   2.430   4.220
    1PA    C116 7639   4.638   7.293   4.048
    1PA    H16R 7640   4.745   7.287   4.070
    1PA    H16S 7641   4.606   7.396   4.034
    1PA    H16T 7642   4.603   7.241   3.959
    1PA    C115 7643   4.556   7.244   4.169
    1PA    H15R 7644   4.581   7.294   4.263
    1PA    H15S 7645   4.450   7.263   4.150
    1PA    C114 7646   4.584   7.095   4.191
    1PA    H14R 7647   4.541   7.043   4.106
    1PA    H14S 7648   4.692   7.078   4.200
    1PA    C113 7649   4.505   7.046   4.313
    1PA    H13R 7650   4.542   7.100   4.401
    1PA    H13S 7651   4.405   7.080   4.287
    1PA    C112 7652   4.501   6.893   4.312
    1PA    H12R 7653   4.444   6.852   4.395
    1PA    H12S 7654   4.452   6.850   4.224
    1PA    C111 7655   4.643   6.835   4.320
    1PA    H11R 7656   4.692   6.839   4.222
    1PA    H11S 7657   4.705   6.890   4.392
    1PA    C110 7658   4.646   6.683   4.341
    1PA    H10R 7659   4.573   6.641   4.272
    1PA    H10S 7660   4.749   6.652   4.322
    1PA     C19 7661   4.612   6.640   4.484
    1PA     H9R 7662   4.679   6.675   4.563
    1PA     H9S 7663   4.511   6.673   4.510
    1PA     C18 7664   4.625   6.486   4.495
    1PA     H8R 7665   4.563   6.451   4.412
    1PA     H8S 7666   4.728   6.453   4.482
    1PA     C17 7667   4.570   6.430   4.627
    1PA     H7R 7668   4.470   6.466   4.653
    1PA     H7S 7669   4.566   6.321   4.629
    1PA     C16 7670   4.662   6.465   4.745
    1PA     H6R 7671   4.762   6.424   4.734
    1PA     H6S 7672   4.671   6.574   4.751
    1PA     C15 7673   4.608   6.423   4.883
    1PA     H5R 7674   4.505   6.456   4.895
    1PA     H5S 7675   4.610   6.315   4.868
    1PA     C14 7676   4.692   6.470   5.003
    1PA     H4R 7677   4.790   6.422   5.004
    1PA     H4S 7678   4.721   6.574   4.988
    1PA     C13 7679   4.619   6.464   5.137
    1PA     H3R 7680   4.534   6.531   5.123
    1PA     H3S 7681   4.584   6.362   5.151
    1PA     C12 7682   4.704   6.512   5.256
    1PA     H2R 7683   4.778   6.434   5.278
    1PA     H2S 7684   4.755   6.604   5.229
    2PC     C11 7685   4.610   6.545   5.369
    2PC     O12 7686   4.546   6.648   5.359
    2PC     O11 7687   4.596   6.458   5.471
    2PC      C1 7688   4.522   6.494   5.589
    2PC      HR 7689   4.546   6.593   5.627
    2PC      HS 7690   4.418   6.503   5.557
    2PC      C2 7691   4.543   6.383   5.692
    2PC      HX 7692   4.475   6.392   5.777
    2PC      C3 7693   4.689   6.399   5.738
    2PC      HA 7694   4.762   6.366   5.664
    2PC      HB 7695   4.708   6.506   5.747
    2PC     O31 7696   4.707   6.341   5.869
    2PC     P31 7697   4.830   6.386   5.961
    2PC     O32 7698   4.956   6.293   5.928
    2PC     C31 7699   5.063   6.286   6.024
    2PC     H1A 7700   5.085   6.391   6.049
    2PC     H1B 7701   5.035   6.223   6.109
    2PC     C32 7702   5.177   6.201   5.967
    2PC     H2A 7703   5.156   6.097   5.989
    2PC     H2B 7704   5.173   6.220   5.860
    2PC     N31 7705   5.311   6.228   6.029
    2PC     C33 7706   5.412   6.133   5.973
    2PC     H3A 7707   5.400   6.039   6.028
    2PC     H3B 7708   5.373   6.114   5.873
    2PC     H3C 7709   5.510   6.180   5.966
    2PC     C34 7710   5.354   6.371   6.017
    2PC     H4A 7711   5.352   6.402   5.912
    2PC     H4B 7712   5.294   6.428   6.088
    2PC     H4C 7713   5.455   6.354   6.054
    2PC     C35 7714   5.308   6.202   6.177
    2PC     H5A 7715   5.234   6.261   6.229
    2PC     H5B 7716   5.408   6.222   6.216
    2PC     H5C 7717   5.273   6.101   6.199
    2PC     O33 7718   4.880   6.521   5.924
    2PC     O34 7719   4.782   6.389   6.101
    2PC     O21 7720   4.528   6.253   5.631
    2PC     C21 7721   4.408   6.220   5.580
    2PC     O22 7722   4.303   6.262   5.622
    3OL     C12 7723   4.423   6.105   5.483
    3OL     H2R 7724   4.349   6.028   5.509
    3OL     H2S 7725   4.522   6.060   5.492
    3OL     C13 7726   4.399   6.143   5.336
    3OL     H3R 7727   4.464   6.227   5.310
    3OL     H3S 7728   4.295   6.174   5.323
    3OL     C14 7729   4.425   6.029   5.237
    3OL     H4R 7730   4.344   5.957   5.251
    3OL     H4S 7731   4.521   5.981   5.253
    3OL     C15 7732   4.422   6.078   5.091
    3OL     H5R 7733   4.486   6.164   5.072
    3OL     H5S 7734   4.320   6.102   5.062
    3OL     C16 7735   4.461   5.972   4.987
    3OL     H6R 7736   4.401   5.881   4.991
    3OL     H6S 7737   4.565   5.944   5.007
    3OL     C17 7738   4.451   6.023   4.843
    3OL     H7R 7739   4.483   6.127   4.844
    3OL     H7S 7740   4.345   6.024   4.819
    3OL     C18 7741   4.543   5.940   4.752
    3OL     H8R 7742   4.512   5.835   4.755
    3OL     H8S 7743   4.643   5.941   4.798
    3OL     C19 7744   4.553   5.994   4.612
    3OL     H9R 7745   4.587   6.096   4.598
    3OL    C110 7746   4.524   5.923   4.504
    3OL    H10R 7747   4.520   5.974   4.408
    3OL    C111 7748   4.466   5.784   4.502
    3OL    H11R 7749   4.400   5.772   4.588
    3OL    H11S 7750   4.546   5.709   4.506
    3OL    C112 7751   4.374   5.761   4.381
    3OL    H12R 7752   4.307   5.847   4.377
    3OL    H12S 7753   4.322   5.665   4.386
    3OL    C113 7754   4.465   5.756   4.257
    3OL    H13R 7755   4.551   5.689   4.268
    3OL    H13S 7756   4.514   5.852   4.239
    3OL    C114 7757   4.387   5.712   4.133
    3OL    H14R 7758   4.307   5.784   4.117
    3OL    H14S 7759   4.340   5.616   4.157
    3OL    C115 7760   4.473   5.693   4.007
    3OL    H15R 7761   4.541   5.779   4.001
    3OL    H15S 7762   4.414   5.701   3.916
    3OL    C116 7763   4.565   5.570   4.012
    3OL    H16R 7764   4.518   5.471   4.022
    3OL    H16S 7765   4.619   5.578   4.106
    3OL    C117 7766   4.668   5.573   3.899
    3OL    H17R 7767   4.703   5.676   3.887
    3OL    H17S 7768   4.624   5.525   3.812
    3OL    C118 7769   4.789   5.481   3.922
    3OL    H18R 7770   4.847   5.487   3.829
    3OL    H18S 7771   4.750   5.383   3.950
    3OL    H18T 7772   4.847   5.521   4.006
    1PA    C116 7773   4.047   1.613   3.787
    1PA    H16R 7774   3.957   1.575   3.736
    1PA    H16S 7775   4.135   1.587   3.729
    1PA    H16T 7776   4.046   1.722   3.782
    1PA    C115 7777   4.045   1.541   3.923
    1PA    H15R 7778   3.988   1.604   3.992
    1PA    H15S 7779   3.987   1.450   3.901
    1PA    C114 7780   4.180   1.507   3.985
    1PA    H14R 7781   4.170   1.466   4.086
    1PA    H14S 7782   4.230   1.435   3.921
    1PA    C113 7783   4.278   1.625   3.988
    1PA    H13R 7784   4.324   1.627   3.888
    1PA    H13S 7785   4.228   1.715   4.025
    1PA    C112 7786   4.393   1.598   4.086
    1PA    H12R 7787   4.390   1.490   4.105
    1PA    H12S 7788   4.486   1.617   4.033
    1PA    C111 7789   4.394   1.680   4.216
    1PA    H11R 7790   4.436   1.778   4.194
    1PA    H11S 7791   4.293   1.673   4.257
    1PA    C110 7792   4.485   1.613   4.320
    1PA    H10R 7793   4.496   1.507   4.296
    1PA    H10S 7794   4.579   1.668   4.316
    1PA     C19 7795   4.431   1.622   4.463
    1PA     H9R 7796   4.323   1.607   4.455
    1PA     H9S 7797   4.486   1.550   4.523
    1PA     C18 7798   4.463   1.764   4.513
    1PA     H8R 7799   4.568   1.777   4.543
    1PA     H8S 7800   4.448   1.837   4.433
    1PA     C17 7801   4.369   1.799   4.629
    1PA     H7R 7802   4.393   1.902   4.656
    1PA     H7S 7803   4.267   1.791   4.593
    1PA     C16 7804   4.382   1.700   4.746
    1PA     H6R 7805   4.350   1.601   4.715
    1PA     H6S 7806   4.484   1.681   4.781
    1PA     C15 7807   4.300   1.751   4.865
    1PA     H5R 7808   4.333   1.698   4.955
    1PA     H5S 7809   4.322   1.854   4.894
    1PA     C14 7810   4.149   1.729   4.850
    1PA     H4R 7811   4.128   1.793   4.764
    1PA     H4S 7812   4.117   1.628   4.826
    1PA     C13 7813   4.069   1.784   4.969
    1PA     H3R 7814   3.970   1.739   4.964
    1PA     H3S 7815   4.112   1.744   5.061
    1PA     C12 7816   4.070   1.937   4.975
    1PA     H2R 7817   4.165   1.971   5.017
    1PA     H2S 7818   4.060   1.987   4.879
    2PC     C11 7819   3.972   1.985   5.080
    2PC     O12 7820   3.864   1.933   5.095
    2PC     O11 7821   4.025   2.087   5.149
    2PC      C1 7822   3.947   2.143   5.257
    2PC      HR 7823   3.858   2.198   5.224
    2PC      HS 7824   3.904   2.069   5.326
    2PC      C2 7825   4.042   2.242   5.327
    2PC      HX 7826   4.130   2.188   5.358
    2PC      C3 7827   3.959   2.311   5.438
    2PC      HA 7828   3.899   2.389   5.390
    2PC      HB 7829   3.895   2.245   5.497
    2PC     O31 7830   4.052   2.380   5.524
    2PC     P31 7831   4.007   2.444   5.663
    2PC     O32 7832   4.016   2.309   5.750
    2PC     C31 7833   4.115   2.306   5.854
    2PC     H1A 7834   4.215   2.294   5.813
    2PC     H1B 7835   4.112   2.396   5.916
    2PC     C32 7836   4.079   2.184   5.941
    2PC     H2A 7837   4.065   2.097   5.877
    2PC     H2B 7838   4.162   2.165   6.009
    2PC     N31 7839   3.961   2.202   6.031
    2PC     C33 7840   3.980   2.326   6.112
    2PC     H3A 7841   3.900   2.336   6.186
    2PC     H3B 7842   4.077   2.318   6.162
    2PC     H3C 7843   3.976   2.417   6.051
    2PC     C34 7844   3.830   2.212   5.959
    2PC     H4A 7845   3.745   2.227   6.027
    2PC     H4B 7846   3.838   2.296   5.890
    2PC     H4C 7847   3.821   2.118   5.905
    2PC     C35 7848   3.953   2.086   6.125
    2PC     H5A 7849   4.050   2.083   6.175
    2PC     H5B 7850   3.942   1.991   6.071
    2PC     H5C 7851   3.877   2.109   6.199
    2PC     O33 7852   4.121   2.526   5.710
    2PC     O34 7853   3.884   2.526   5.669
    2PC     O21 7854   4.083   2.353   5.245
    2PC     C21 7855   4.179   2.331   5.154
    2PC     O22 7856   4.251   2.234   5.158
    3OL     C12 7857   4.180   2.447   5.058
    3OL     H2R 7858   4.260   2.517   5.083
    3OL     H2S 7859   4.086   2.502   5.073
    3OL     C13 7860   4.185   2.402   4.911
    3OL     H3R 7861   4.272   2.337   4.897
    3OL     H3S 7862   4.198   2.489   4.846
    3OL     C14 7863   4.063   2.319   4.867
    3OL     H4R 7864   3.975   2.378   4.894
    3OL     H4S 7865   4.066   2.226   4.924
    3OL     C15 7866   4.069   2.294   4.716
    3OL     H5R 7867   4.009   2.204   4.699
    3OL     H5S 7868   4.174   2.284   4.687
    3OL     C16 7869   4.007   2.415   4.645
    3OL     H6R 7870   4.071   2.498   4.674
    3OL     H6S 7871   3.902   2.421   4.677
    3OL     C17 7872   4.005   2.399   4.492
    3OL     H7R 7873   4.104   2.380   4.452
    3OL     H7S 7874   3.972   2.489   4.439
    3OL     C18 7875   3.921   2.280   4.444
    3OL     H8R 7876   3.834   2.259   4.507
    3OL     H8S 7877   3.984   2.190   4.446
    3OL     C19 7878   3.871   2.309   4.304
    3OL     H9R 7879   3.911   2.397   4.255
    3OL    C110 7880   3.786   2.237   4.233
    3OL    H10R 7881   3.761   2.267   4.132
    3OL    C111 7882   3.730   2.101   4.270
    3OL    H11R 7883   3.766   2.072   4.369
    3OL    H11S 7884   3.765   2.027   4.198
    3OL    C112 7885   3.577   2.108   4.268
    3OL    H12R 7886   3.542   2.094   4.166
    3OL    H12S 7887   3.542   2.206   4.299
    3OL    C113 7888   3.508   2.005   4.359
    3OL    H13R 7889   3.548   2.034   4.456
    3OL    H13S 7890   3.540   1.907   4.325
    3OL    C114 7891   3.357   2.030   4.356
    3OL    H14R 7892   3.318   2.005   4.257
    3OL    H14S 7893   3.335   2.136   4.373
    3OL    C115 7894   3.289   1.925   4.444
    3OL    H15R 7895   3.328   1.826   4.422
    3OL    H15S 7896   3.189   1.918   4.400
    3OL    C116 7897   3.274   1.962   4.593
    3OL    H16R 7898   3.218   2.056   4.599
    3OL    H16S 7899   3.372   1.975   4.640
    3OL    C117 7900   3.205   1.845   4.664
    3OL    H17R 7901   3.271   1.758   4.670
    3OL    H17S 7902   3.110   1.832   4.613
    3OL    C118 7903   3.164   1.900   4.802
    3OL    H18R 7904   3.258   1.912   4.857
    3OL    H18S 7905   3.113   1.828   4.866
    3OL    H18T 7906   3.117   1.998   4.801
    1PA    C116 7907   2.879  -0.707   4.020
    1PA    H16R 7908   2.809  -0.770   4.074
    1PA    H16S 7909   2.948  -0.755   3.950
    1PA    H16T 7910   2.838  -0.617   3.973
    1PA    C115 7911   2.958  -0.655   4.141
    1PA    H15R 7912   3.029  -0.730   4.177
    1PA    H15S 7913   3.022  -0.571   4.113
    1PA    C114 7914   2.872  -0.614   4.261
    1PA    H14R 7915   2.790  -0.546   4.237
    1PA    H14S 7916   2.829  -0.703   4.307
    1PA    C113 7917   2.957  -0.545   4.368
    1PA    H13R 7918   3.052  -0.594   4.392
    1PA    H13S 7919   2.986  -0.451   4.319
    1PA    C112 7920   2.880  -0.492   4.490
    1PA    H12R 7921   2.799  -0.557   4.525
    1PA    H12S 7922   2.941  -0.474   4.579
    1PA    C111 7923   2.811  -0.361   4.452
    1PA    H11R 7924   2.876  -0.282   4.414
    1PA    H11S 7925   2.733  -0.379   4.377
    1PA    C110 7926   2.737  -0.297   4.571
    1PA    H10R 7927   2.638  -0.266   4.538
    1PA    H10S 7928   2.707  -0.374   4.643
    1PA     C19 7929   2.822  -0.188   4.638
    1PA     H9R 7930   2.921  -0.225   4.668
    1PA     H9S 7931   2.838  -0.109   4.564
    1PA     C18 7932   2.752  -0.133   4.763
    1PA     H8R 7933   2.810  -0.048   4.799
    1PA     H8S 7934   2.654  -0.096   4.734
    1PA     C17 7935   2.744  -0.232   4.880
    1PA     H7R 7936   2.711  -0.330   4.846
    1PA     H7S 7937   2.845  -0.244   4.922
    1PA     C16 7938   2.648  -0.190   4.992
    1PA     H6R 7939   2.545  -0.179   4.957
    1PA     H6S 7940   2.645  -0.273   5.063
    1PA     C15 7941   2.697  -0.060   5.057
    1PA     H5R 7942   2.702   0.018   4.981
    1PA     H5S 7943   2.623  -0.026   5.130
    1PA     C14 7944   2.830  -0.084   5.130
    1PA     H4R 7945   2.829  -0.162   5.206
    1PA     H4S 7946   2.912  -0.106   5.060
    1PA     C13 7947   2.871   0.050   5.193
    1PA     H3R 7948   2.979   0.034   5.198
    1PA     H3S 7949   2.850   0.131   5.122
    1PA     C12 7950   2.807   0.071   5.330
    1PA     H2R 7951   2.700   0.085   5.311
    1PA     H2S 7952   2.821  -0.019   5.392
    2PC     C11 7953   2.847   0.195   5.407
    2PC     O12 7954   2.836   0.208   5.527
    2PC     O11 7955   2.881   0.295   5.325
    2PC      C1 7956   2.945   0.406   5.390
    2PC      HR 7957   2.946   0.492   5.323
    2PC      HS 7958   2.878   0.431   5.473
    2PC      C2 7959   3.084   0.373   5.447
    2PC      HX 7960   3.097   0.280   5.503
    2PC      C3 7961   3.149   0.486   5.529
    2PC      HA 7962   3.152   0.454   5.633
    2PC      HB 7963   3.248   0.506   5.488
    2PC     O31 7964   3.076   0.610   5.523
    2PC     P31 7965   3.125   0.751   5.581
    2PC     O32 7966   3.068   0.842   5.462
    2PC     C31 7967   2.925   0.854   5.461
    2PC     H1A 7968   2.873   0.759   5.450
    2PC     H1B 7969   2.895   0.909   5.550
    2PC     C32 7970   2.876   0.938   5.342
    2PC     H2A 7971   2.900   0.879   5.253
    2PC     H2B 7972   2.767   0.940   5.341
    2PC     N31 7973   2.934   1.075   5.327
    2PC     C33 7974   2.881   1.124   5.196
    2PC     H3A 7975   2.920   1.053   5.122
    2PC     H3B 7976   2.773   1.120   5.205
    2PC     H3C 7977   2.908   1.223   5.159
    2PC     C34 7978   2.872   1.173   5.422
    2PC     H4A 7979   2.897   1.275   5.394
    2PC     H4B 7980   2.765   1.149   5.430
    2PC     H4C 7981   2.913   1.155   5.522
    2PC     C35 7982   3.083   1.090   5.326
    2PC     H5A 7983   3.116   1.083   5.430
    2PC     H5B 7984   3.118   1.183   5.280
    2PC     H5C 7985   3.111   1.009   5.260
    2PC     O33 7986   3.075   0.786   5.716
    2PC     O34 7987   3.272   0.768   5.585
    2PC     O21 7988   3.172   0.364   5.334
    2PC     C21 7989   3.200   0.240   5.291
    2PC     O22 7990   3.171   0.136   5.344
    3OL     C12 7991   3.285   0.241   5.166
    3OL     H2R 7992   3.389   0.228   5.195
    3OL     H2S 7993   3.268   0.339   5.122
    3OL     C13 7994   3.237   0.131   5.070
    3OL     H3R 7995   3.128   0.131   5.068
    3OL     H3S 7996   3.246   0.029   5.109
    3OL     C14 7997   3.309   0.132   4.934
    3OL     H4R 7998   3.404   0.080   4.942
    3OL     H4S 7999   3.321   0.232   4.893
    3OL     C15 8000   3.244   0.045   4.826
    3OL     H5R 8001   3.283   0.078   4.729
    3OL     H5S 8002   3.139   0.074   4.829
    3OL     C16 8003   3.266  -0.106   4.845
    3OL     H6R 8004   3.227  -0.142   4.941
    3OL     H6S 8005   3.373  -0.125   4.850
    3OL     C17 8006   3.207  -0.183   4.726
    3OL     H7R 8007   3.273  -0.172   4.640
    3OL     H7S 8008   3.106  -0.149   4.700
    3OL     C18 8009   3.194  -0.331   4.762
    3OL     H8R 8010   3.184  -0.390   4.670
    3OL     H8S 8011   3.102  -0.332   4.820
    3OL     C19 8012   3.300  -0.385   4.855
    3OL     H9R 8013   3.286  -0.351   4.958
    3OL    C110 8014   3.407  -0.451   4.817
    3OL    H10R 8015   3.486  -0.468   4.891
    3OL    C111 8016   3.436  -0.506   4.680
    3OL    H11R 8017   3.544  -0.510   4.666
    3OL    H11S 8018   3.400  -0.436   4.604
    3OL    C112 8019   3.383  -0.648   4.656
    3OL    H12R 8020   3.275  -0.656   4.668
    3OL    H12S 8021   3.430  -0.720   4.724
    3OL    C113 8022   3.409  -0.696   4.512
    3OL    H13R 8023   3.399  -0.612   4.443
    3OL    H13S 8024   3.331  -0.767   4.487
    3OL    C114 8025   3.545  -0.766   4.505
    3OL    H14R 8026   3.563  -0.821   4.598
    3OL    H14S 8027   3.624  -0.691   4.495
    3OL    C115 8028   3.560  -0.857   4.382
    3OL    H15R 8029   3.561  -0.784   4.300
    3OL    H15S 8030   3.478  -0.926   4.362
    3OL    C116 8031   3.691  -0.933   4.360
    3OL    H16R 8032   3.767  -0.858   4.383
    3OL    H16S 8033   3.709  -0.963   4.257
    3OL    C117 8034   3.712  -1.062   4.441
    3OL    H17R 8035   3.647  -1.137   4.396
    3OL    H17S 8036   3.684  -1.043   4.545
    3OL    C118 8037   3.858  -1.108   4.436
    3OL    H18R 8038   3.900  -1.130   4.338
    3OL    H18S 8039   3.873  -1.199   4.495
    3OL    H18T 8040   3.911  -1.030   4.490
    1PA    C116 8041   2.028   5.483   3.471
    1PA    H16R 8042   2.065   5.567   3.412
    1PA    H16S 8043   1.979   5.409   3.408
    1PA    H16T 8044   2.118   5.432   3.507
    1PA    C115 8045   1.943   5.528   3.590
    1PA    H15R 8046   1.889   5.621   3.569
    1PA    H15S 8047   1.885   5.442   3.623
    1PA    C114 8048   2.035   5.553   3.711
    1PA    H14R 8049   2.079   5.454   3.722
    1PA    H14S 8050   2.126   5.608   3.689
    1PA    C113 8051   1.954   5.607   3.830
    1PA    H13R 8052   1.906   5.700   3.800
    1PA    H13S 8053   1.877   5.535   3.857
    1PA    C112 8054   2.048   5.644   3.946
    1PA    H12R 8055   2.097   5.555   3.985
    1PA    H12S 8056   2.123   5.715   3.910
    1PA    C111 8057   1.963   5.699   4.061
    1PA    H11R 8058   1.921   5.795   4.027
    1PA    H11S 8059   1.886   5.625   4.081
    1PA    C110 8060   2.049   5.726   4.185
    1PA    H10R 8061   2.107   5.639   4.215
    1PA    H10S 8062   2.116   5.812   4.178
    1PA     C19 8063   1.956   5.761   4.302
    1PA     H9R 8064   1.894   5.847   4.275
    1PA     H9S 8065   1.898   5.670   4.317
    1PA     C18 8066   2.045   5.786   4.425
    1PA     H8R 8067   2.110   5.701   4.444
    1PA     H8S 8068   2.114   5.868   4.404
    1PA     C17 8069   1.959   5.820   4.547
    1PA     H7R 8070   1.895   5.905   4.522
    1PA     H7S 8071   1.894   5.733   4.562
    1PA     C16 8072   2.035   5.860   4.675
    1PA     H6R 8073   2.098   5.778   4.707
    1PA     H6S 8074   2.096   5.949   4.654
    1PA     C15 8075   1.936   5.888   4.789
    1PA     H5R 8076   1.858   5.950   4.742
    1PA     H5S 8077   1.890   5.794   4.818
    1PA     C14 8078   1.994   5.972   4.903
    1PA     H4R 8079   2.091   5.934   4.935
    1PA     H4S 8080   2.018   6.073   4.868
    1PA     C13 8081   1.898   5.994   5.021
    1PA     H3R 8082   1.815   6.046   4.974
    1PA     H3S 8083   1.874   5.894   5.060
    1PA     C12 8084   1.951   6.088   5.131
    1PA     H2R 8085   2.039   6.034   5.165
    1PA     H2S 8086   1.986   6.181   5.087
    2PC     C11 8087   1.860   6.103   5.250
    2PC     O12 8088   1.833   6.213   5.293
    2PC     O11 8089   1.811   5.987   5.296
    2PC      C1 8090   1.744   5.991   5.423
    2PC      HR 8091   1.727   5.890   5.461
    2PC      HS 8092   1.803   6.055   5.490
    2PC      C2 8093   1.608   6.061   5.407
    2PC      HX 8094   1.605   6.138   5.330
    2PC      C3 8095   1.576   6.115   5.547
    2PC      HA 8096   1.643   6.197   5.573
    2PC      HB 8097   1.475   6.157   5.558
    2PC     O31 8098   1.605   6.015   5.646
    2PC     P31 8099   1.565   6.046   5.798
    2PC     O32 8100   1.474   5.916   5.824
    2PC     C31 8101   1.340   5.935   5.875
    2PC     H1A 8102   1.301   6.021   5.821
    2PC     H1B 8103   1.276   5.854   5.840
    2PC     C32 8104   1.340   5.970   6.024
    2PC     H2A 8105   1.375   5.884   6.082
    2PC     H2B 8106   1.403   6.057   6.045
    2PC     N31 8107   1.211   6.019   6.083
    2PC     C33 8108   1.102   5.923   6.045
    2PC     H3A 8109   1.010   5.933   6.103
    2PC     H3B 8110   1.076   5.938   5.940
    2PC     H3C 8111   1.142   5.823   6.058
    2PC     C34 8112   1.229   6.026   6.231
    2PC     H4A 8113   1.334   6.052   6.243
    2PC     H4B 8114   1.161   6.107   6.259
    2PC     H4C 8115   1.203   5.936   6.287
    2PC     C35 8116   1.164   6.155   6.040
    2PC     H5A 8117   1.159   6.149   5.932
    2PC     H5B 8118   1.237   6.232   6.062
    2PC     H5C 8119   1.073   6.193   6.086
    2PC     O33 8120   1.681   6.037   5.889
    2PC     O34 8121   1.492   6.172   5.824
    2PC     O21 8122   1.508   5.959   5.397
    2PC     C21 8123   1.393   5.992   5.336
    2PC     O22 8124   1.374   6.090   5.267
    3OL     C12 8125   1.297   5.877   5.352
    3OL     H2R 8126   1.237   5.888   5.442
    3OL     H2S 8127   1.358   5.788   5.369
    3OL     C13 8128   1.210   5.849   5.229
    3OL     H3R 8129   1.182   5.743   5.232
    3OL     H3S 8130   1.264   5.866   5.135
    3OL     C14 8131   1.082   5.933   5.235
    3OL     H4R 8132   1.115   6.037   5.233
    3OL     H4S 8133   1.033   5.907   5.329
    3OL     C15 8134   0.980   5.893   5.127
    3OL     H5R 8135   0.880   5.928   5.155
    3OL     H5S 8136   0.963   5.786   5.116
    3OL     C16 8137   1.028   5.954   4.995
    3OL     H6R 8138   1.123   5.909   4.963
    3OL     H6S 8139   1.053   6.059   5.010
    3OL     C17 8140   0.911   5.946   4.896
    3OL     H7R 8141   0.833   6.011   4.937
    3OL     H7S 8142   0.873   5.843   4.899
    3OL     C18 8143   0.936   5.995   4.753
    3OL     H8R 8144   0.845   5.972   4.695
    3OL     H8S 8145   1.021   5.938   4.714
    3OL     C19 8146   0.967   6.142   4.738
    3OL     H9R 8147   1.031   6.174   4.819
    3OL    C110 8148   0.968   6.207   4.622
    3OL    H10R 8149   1.012   6.306   4.614
    3OL    C111 8150   0.899   6.168   4.494
    3OL    H11R 8151   0.855   6.254   4.443
    3OL    H11S 8152   0.814   6.104   4.516
    3OL    C112 8153   1.001   6.114   4.393
    3OL    H12R 8154   0.961   6.140   4.295
    3OL    H12S 8155   1.020   6.007   4.391
    3OL    C113 8156   1.141   6.176   4.403
    3OL    H13R 8157   1.183   6.155   4.501
    3OL    H13S 8158   1.125   6.284   4.410
    3OL    C114 8159   1.232   6.135   4.286
    3OL    H14R 8160   1.173   6.128   4.194
    3OL    H14S 8161   1.264   6.033   4.308
    3OL    C115 8162   1.357   6.224   4.277
    3OL    H15R 8163   1.422   6.213   4.365
    3OL    H15S 8164   1.331   6.329   4.263
    3OL    C116 8165   1.455   6.173   4.170
    3OL    H16R 8166   1.489   6.070   4.183
    3OL    H16S 8167   1.542   6.236   4.186
    3OL    C117 8168   1.405   6.187   4.026
    3OL    H17R 8169   1.369   6.290   4.025
    3OL    H17S 8170   1.324   6.113   4.017
    3OL    C118 8171   1.515   6.171   3.920
    3OL    H18R 8172   1.487   6.232   3.834
    3OL    H18S 8173   1.522   6.067   3.888
    3OL    H18T 8174   1.603   6.216   3.966
    1PA    C116 8175   5.170   0.754   4.158
    1PA    H16R 8176   5.238   0.740   4.074
    1PA    H16S 8177   5.096   0.673   4.158
    1PA    H16T 8178   5.219   0.746   4.256
    1PA    C115 8179   5.093   0.887   4.147
    1PA    H15R 8180   5.160   0.965   4.184
    1PA    H15S 8181   5.072   0.913   4.043
    1PA    C114 8182   4.974   0.902   4.242
    1PA    H14R 8183   4.897   0.827   4.222
    1PA    H14S 8184   5.015   0.893   4.343
    1PA    C113 8185   4.902   1.037   4.230
    1PA    H13R 8186   4.973   1.120   4.226
    1PA    H13S 8187   4.846   1.037   4.136
    1PA    C112 8188   4.814   1.072   4.350
    1PA    H12R 8189   4.728   1.006   4.337
    1PA    H12S 8190   4.861   1.042   4.444
    1PA    C111 8191   4.763   1.217   4.356
    1PA    H11R 8192   4.731   1.258   4.260
    1PA    H11S 8193   4.675   1.213   4.420
    1PA    C110 8194   4.863   1.318   4.414
    1PA    H10R 8195   4.962   1.306   4.369
    1PA    H10S 8196   4.820   1.414   4.382
    1PA     C19 8197   4.889   1.305   4.564
    1PA     H9R 8198   4.931   1.206   4.583
    1PA     H9S 8199   4.970   1.374   4.589
    1PA     C18 8200   4.763   1.339   4.644
    1PA     H8R 8201   4.791   1.386   4.739
    1PA     H8S 8202   4.705   1.420   4.598
    1PA     C17 8203   4.681   1.215   4.683
    1PA     H7R 8204   4.693   1.133   4.613
    1PA     H7S 8205   4.719   1.175   4.777
    1PA     C16 8206   4.536   1.255   4.715
    1PA     H6R 8207   4.504   1.343   4.659
    1PA     H6S 8208   4.470   1.178   4.675
    1PA     C15 8209   4.509   1.289   4.862
    1PA     H5R 8210   4.544   1.210   4.929
    1PA     H5S 8211   4.563   1.378   4.894
    1PA     C14 8212   4.361   1.316   4.889
    1PA     H4R 8213   4.329   1.398   4.825
    1PA     H4S 8214   4.305   1.228   4.855
    1PA     C13 8215   4.338   1.355   5.036
    1PA     H3R 8216   4.370   1.278   5.107
    1PA     H3S 8217   4.394   1.446   5.058
    1PA     C12 8218   4.189   1.381   5.064
    1PA     H2R 8219   4.146   1.460   5.002
    1PA     H2S 8220   4.140   1.284   5.057
    2PC     C11 8221   4.155   1.407   5.208
    2PC     O12 8222   4.092   1.502   5.249
    2PC     O11 8223   4.210   1.314   5.288
    2PC      C1 8224   4.193   1.307   5.430
    2PC      HR 8225   4.286   1.275   5.478
    2PC      HS 8226   4.172   1.411   5.458
    2PC      C2 8227   4.068   1.224   5.463
    2PC      HX 8228   3.989   1.271   5.404
    2PC      C3 8229   4.021   1.250   5.606
    2PC      HA 8230   4.018   1.357   5.625
    2PC      HB 8231   3.916   1.223   5.626
    2PC     O31 8232   4.104   1.189   5.706
    2PC     P31 8233   4.103   1.032   5.736
    2PC     O32 8234   4.246   0.995   5.674
    2PC     C31 8235   4.350   0.973   5.771
    2PC     H1A 8236   4.378   1.065   5.823
    2PC     H1B 8237   4.320   0.894   5.840
    2PC     C32 8238   4.470   0.912   5.698
    2PC     H2A 8239   4.488   0.990   5.624
    2PC     H2B 8240   4.561   0.910   5.759
    2PC     N31 8241   4.457   0.779   5.631
    2PC     C33 8242   4.351   0.783   5.524
    2PC     H3A 8243   4.255   0.797   5.573
    2PC     H3B 8244   4.377   0.866   5.458
    2PC     H3C 8245   4.353   0.687   5.473
    2PC     C34 8246   4.587   0.759   5.559
    2PC     H4A 8247   4.668   0.753   5.632
    2PC     H4B 8248   4.580   0.669   5.498
    2PC     H4C 8249   4.600   0.848   5.498
    2PC     C35 8250   4.430   0.665   5.725
    2PC     H5A 8251   4.431   0.574   5.666
    2PC     H5B 8252   4.347   0.678   5.795
    2PC     H5C 8253   4.520   0.656   5.786
    2PC     O33 8254   4.100   1.011   5.882
    2PC     O34 8255   3.993   0.950   5.679
    2PC     O21 8256   4.093   1.086   5.427
    2PC     C21 8257   3.984   1.011   5.406
    2PC     O22 8258   3.869   1.050   5.416
    3OL     C12 8259   4.018   0.873   5.355
    3OL     H2R 8260   3.989   0.800   5.431
    3OL     H2S 8261   4.126   0.857   5.363
    3OL     C13 8262   3.970   0.855   5.211
    3OL     H3R 8263   3.861   0.845   5.212
    3OL     H3S 8264   4.008   0.762   5.167
    3OL     C14 8265   4.032   0.951   5.108
    3OL     H4R 8266   4.135   0.978   5.129
    3OL     H4S 8267   3.978   1.045   5.126
    3OL     C15 8268   4.034   0.898   4.964
    3OL     H5R 8269   4.055   0.791   4.962
    3OL     H5S 8270   4.111   0.947   4.906
    3OL     C16 8271   3.896   0.924   4.900
    3OL     H6R 8272   3.889   1.033   4.900
    3OL     H6S 8273   3.813   0.883   4.957
    3OL     C17 8274   3.892   0.873   4.756
    3OL     H7R 8275   3.915   0.766   4.753
    3OL     H7S 8276   3.969   0.920   4.695
    3OL     C18 8277   3.755   0.889   4.687
    3OL     H8R 8278   3.678   0.827   4.734
    3OL     H8S 8279   3.767   0.855   4.584
    3OL     C19 8280   3.715   1.034   4.675
    3OL     H9R 8281   3.786   1.088   4.613
    3OL    C110 8282   3.616   1.090   4.742
    3OL    H10R 8283   3.595   1.195   4.723
    3OL    C111 8284   3.519   1.025   4.837
    3OL    H11R 8285   3.493   1.091   4.920
    3OL    H11S 8286   3.556   0.928   4.871
    3OL    C112 8287   3.392   0.993   4.758
    3OL    H12R 8288   3.366   1.078   4.694
    3OL    H12S 8289   3.301   0.979   4.816
    3OL    C113 8290   3.405   0.860   4.681
    3OL    H13R 8291   3.407   0.777   4.752
    3OL    H13S 8292   3.499   0.861   4.625
    3OL    C114 8293   3.289   0.851   4.582
    3OL    H14R 8294   3.198   0.884   4.632
    3OL    H14S 8295   3.280   0.746   4.554
    3OL    C115 8296   3.300   0.937   4.455
    3OL    H15R 8297   3.380   0.892   4.395
    3OL    H15S 8298   3.329   1.041   4.473
    3OL    C116 8299   3.174   0.920   4.369
    3OL    H16R 8300   3.096   0.986   4.408
    3OL    H16S 8301   3.152   0.813   4.371
    3OL    C117 8302   3.202   0.971   4.227
    3OL    H17R 8303   3.289   0.917   4.188
    3OL    H17S 8304   3.219   1.079   4.229
    3OL    C118 8305   3.088   0.944   4.129
    3OL    H18R 8306   3.048   0.842   4.125
    3OL    H18S 8307   3.099   0.973   4.024
    3OL    H18T 8308   2.999   1.001   4.155
    1PA    C116 8309   3.363  -0.024   3.678
    1PA    H16R 8310   3.394  -0.100   3.607
    1PA    H16S 8311   3.421  -0.046   3.768
    1PA    H16T 8312   3.401   0.068   3.633
    1PA    C115 8313   3.212  -0.033   3.707
    1PA    H15R 8314   3.156  -0.051   3.615
    1PA    H15S 8315   3.198  -0.114   3.779
    1PA    C114 8316   3.149   0.096   3.760
    1PA    H14R 8317   3.186   0.172   3.691
    1PA    H14S 8318   3.041   0.082   3.749
    1PA    C113 8319   3.190   0.132   3.904
    1PA    H13R 8320   3.162   0.055   3.977
    1PA    H13S 8321   3.297   0.154   3.908
    1PA    C112 8322   3.111   0.258   3.941
    1PA    H12R 8323   3.164   0.306   4.024
    1PA    H12S 8324   3.118   0.334   3.863
    1PA    C111 8325   2.966   0.241   3.988
    1PA    H11R 8326   2.896   0.250   3.904
    1PA    H11S 8327   2.960   0.138   4.024
    1PA    C110 8328   2.914   0.335   4.097
    1PA    H10R 8329   2.810   0.313   4.122
    1PA    H10S 8330   2.968   0.321   4.191
    1PA     C19 8331   2.938   0.481   4.056
    1PA     H9R 8332   3.041   0.516   4.060
    1PA     H9S 8333   2.903   0.485   3.953
    1PA     C18 8334   2.850   0.578   4.137
    1PA     H8R 8335   2.848   0.675   4.086
    1PA     H8S 8336   2.754   0.531   4.156
    1PA     C17 8337   2.916   0.603   4.273
    1PA     H7R 8338   2.927   0.515   4.336
    1PA     H7S 8339   3.019   0.637   4.257
    1PA     C16 8340   2.826   0.689   4.362
    1PA     H6R 8341   2.814   0.790   4.321
    1PA     H6S 8342   2.721   0.658   4.367
    1PA     C15 8343   2.872   0.697   4.508
    1PA     H5R 8344   2.879   0.594   4.544
    1PA     H5S 8345   2.975   0.734   4.512
    1PA     C14 8346   2.776   0.779   4.594
    1PA     H4R 8347   2.797   0.882   4.565
    1PA     H4S 8348   2.671   0.754   4.574
    1PA     C13 8349   2.813   0.771   4.743
    1PA     H3R 8350   2.821   0.663   4.756
    1PA     H3S 8351   2.914   0.809   4.756
    1PA     C12 8352   2.706   0.835   4.833
    1PA     H2R 8353   2.705   0.942   4.810
    1PA     H2S 8354   2.605   0.797   4.818
    2PC     C11 8355   2.731   0.824   4.981
    2PC     O12 8356   2.816   0.889   5.038
    2PC     O11 8357   2.647   0.738   5.041
    2PC      C1 8358   2.658   0.708   5.181
    2PC      HR 8359   2.753   0.656   5.198
    2PC      HS 8360   2.646   0.804   5.232
    2PC      C2 8361   2.542   0.615   5.220
    2PC      HX 8362   2.453   0.652   5.170
    2PC      C3 8363   2.516   0.626   5.371
    2PC      HA 8364   2.480   0.726   5.396
    2PC      HB 8365   2.433   0.561   5.400
    2PC     O31 8366   2.630   0.594   5.453
    2PC     P31 8367   2.640   0.630   5.609
    2PC     O32 8368   2.732   0.508   5.659
    2PC     C31 8369   2.810   0.515   5.779
    2PC     H1A 8370   2.871   0.425   5.775
    2PC     H1B 8371   2.880   0.599   5.782
    2PC     C32 8372   2.716   0.509   5.901
    2PC     H2A 8373   2.777   0.535   5.988
    2PC     H2B 8374   2.644   0.590   5.889
    2PC     N31 8375   2.648   0.382   5.941
    2PC     C33 8376   2.563   0.330   5.829
    2PC     H3A 8377   2.638   0.298   5.757
    2PC     H3B 8378   2.511   0.244   5.871
    2PC     H3C 8379   2.502   0.408   5.782
    2PC     C34 8380   2.746   0.280   5.992
    2PC     H4A 8381   2.700   0.184   6.008
    2PC     H4B 8382   2.821   0.282   5.913
    2PC     H4C 8383   2.789   0.315   6.086
    2PC     C35 8384   2.560   0.419   6.056
    2PC     H5A 8385   2.491   0.335   6.071
    2PC     H5B 8386   2.507   0.510   6.029
    2PC     H5C 8387   2.617   0.443   6.146
    2PC     O33 8388   2.700   0.762   5.636
    2PC     O34 8389   2.507   0.622   5.673
    2PC     O21 8390   2.567   0.480   5.176
    2PC     C21 8391   2.506   0.427   5.069
    2PC     O22 8392   2.415   0.478   5.006
    3OL     C12 8393   2.578   0.302   5.025
    3OL     H2R 8394   2.502   0.231   4.991
    3OL     H2S 8395   2.617   0.246   5.110
    3OL     C13 8396   2.683   0.329   4.916
    3OL     H3R 8397   2.744   0.245   4.882
    3OL     H3S 8398   2.752   0.404   4.953
    3OL     C14 8399   2.627   0.390   4.787
    3OL     H4R 8400   2.710   0.412   4.720
    3OL     H4S 8401   2.580   0.484   4.816
    3OL     C15 8402   2.532   0.295   4.711
    3OL     H5R 8403   2.459   0.356   4.658
    3OL     H5S 8404   2.470   0.238   4.780
    3OL     C16 8405   2.610   0.199   4.622
    3OL     H6R 8406   2.548   0.109   4.605
    3OL     H6S 8407   2.697   0.167   4.679
    3OL     C17 8408   2.652   0.259   4.487
    3OL     H7R 8409   2.715   0.190   4.432
    3OL     H7S 8410   2.701   0.356   4.493
    3OL     C18 8411   2.533   0.295   4.397
    3OL     H8R 8412   2.495   0.396   4.415
    3OL     H8S 8413   2.451   0.226   4.420
    3OL     C19 8414   2.570   0.285   4.251
    3OL     H9R 8415   2.608   0.377   4.207
    3OL    C110 8416   2.588   0.170   4.189
    3OL    H10R 8417   2.615   0.173   4.083
    3OL    C111 8418   2.535   0.037   4.236
    3OL    H11R 8419   2.462  -0.002   4.165
    3OL    H11S 8420   2.490   0.040   4.335
    3OL    C112 8421   2.642  -0.073   4.243
    3OL    H12R 8422   2.612  -0.173   4.276
    3OL    H12S 8423   2.719  -0.041   4.313
    3OL    C113 8424   2.715  -0.093   4.110
    3OL    H13R 8425   2.760   0.004   4.087
    3OL    H13S 8426   2.641  -0.116   4.032
    3OL    C114 8427   2.817  -0.207   4.117
    3OL    H14R 8428   2.766  -0.300   4.144
    3OL    H14S 8429   2.884  -0.191   4.201
    3OL    C115 8430   2.904  -0.208   3.991
    3OL    H15R 8431   2.995  -0.264   4.011
    3OL    H15S 8432   2.931  -0.105   3.965
    3OL    C116 8433   2.836  -0.271   3.868
    3OL    H16R 8434   2.740  -0.223   3.849
    3OL    H16S 8435   2.826  -0.379   3.878
    3OL    C117 8436   2.926  -0.245   3.747
    3OL    H17R 8437   3.022  -0.298   3.742
    3OL    H17S 8438   2.948  -0.138   3.756
    3OL    C118 8439   2.852  -0.270   3.615
    3OL    H18R 8440   2.907  -0.212   3.541
    3OL    H18S 8441   2.745  -0.246   3.621
    3OL    H18T 8442   2.873  -0.371   3.580
    1PA    C116 8443   3.366  -0.240   4.321
    1PA    H16R 8444   3.444  -0.250   4.245
    1PA    H16S 8445   3.319  -0.339   4.318
    1PA    H16T 8446   3.406  -0.211   4.418
    1PA    C115 8447   3.272  -0.131   4.267
    1PA    H15R 8448   3.329  -0.052   4.218
    1PA    H15S 8449   3.204  -0.170   4.191
    1PA    C114 8450   3.194  -0.058   4.377
    1PA    H14R 8451   3.141  -0.129   4.440
    1PA    H14S 8452   3.265  -0.003   4.439
    1PA    C113 8453   3.097   0.044   4.316
    1PA    H13R 8454   3.150   0.117   4.255
    1PA    H13S 8455   3.027  -0.003   4.247
    1PA    C112 8456   3.006   0.118   4.415
    1PA    H12R 8457   2.922   0.163   4.360
    1PA    H12S 8458   2.970   0.050   4.493
    1PA    C111 8459   3.084   0.232   4.482
    1PA    H11R 8460   3.172   0.190   4.531
    1PA    H11S 8461   3.116   0.314   4.418
    1PA    C110 8462   2.999   0.285   4.599
    1PA    H10R 8463   2.905   0.329   4.565
    1PA    H10S 8464   2.964   0.213   4.671
    1PA     C19 8465   3.089   0.386   4.672
    1PA     H9R 8466   3.185   0.339   4.694
    1PA     H9S 8467   3.104   0.465   4.597
    1PA     C18 8468   3.018   0.431   4.801
    1PA     H8R 8469   2.940   0.503   4.778
    1PA     H8S 8470   2.968   0.352   4.857
    1PA     C17 8471   3.118   0.499   4.896
    1PA     H7R 8472   3.198   0.428   4.920
    1PA     H7S 8473   3.152   0.590   4.847
    1PA     C16 8474   3.051   0.528   5.031
    1PA     H6R 8475   2.956   0.580   5.016
    1PA     H6S 8476   3.018   0.431   5.068
    1PA     C15 8477   3.133   0.608   5.133
    1PA     H5R 8478   3.080   0.634   5.225
    1PA     H5S 8479   3.218   0.549   5.167
    1PA     C14 8480   3.185   0.734   5.062
    1PA     H4R 8481   3.252   0.714   4.978
    1PA     H4S 8482   3.105   0.803   5.035
    1PA     C13 8483   3.280   0.805   5.159
    1PA     H3R 8484   3.221   0.830   5.247
    1PA     H3S 8485   3.361   0.738   5.190
    1PA     C12 8486   3.328   0.937   5.098
    1PA     H2R 8487   3.399   0.906   5.021
    1PA     H2S 8488   3.247   1.001   5.062
    2PC     C11 8489   3.425   1.005   5.191
    2PC     O12 8490   3.511   0.943   5.250
    2PC     O11 8491   3.405   1.138   5.202
    2PC      C1 8492   3.463   1.224   5.301
    2PC      HR 8493   3.422   1.325   5.288
    2PC      HS 8494   3.445   1.184   5.401
    2PC      C2 8495   3.614   1.242   5.276
    2PC      HX 8496   3.659   1.142   5.268
    2PC      C3 8497   3.688   1.308   5.393
    2PC      HA 8498   3.717   1.236   5.469
    2PC      HB 8499   3.771   1.369   5.355
    2PC     O31 8500   3.600   1.386   5.475
    2PC     P31 8501   3.664   1.464   5.599
    2PC     O32 8502   3.665   1.361   5.722
    2PC     C31 8503   3.559   1.351   5.819
    2PC     H1A 8504   3.539   1.453   5.852
    2PC     H1B 8505   3.470   1.304   5.776
    2PC     C32 8506   3.617   1.265   5.931
    2PC     H2A 8507   3.714   1.302   5.965
    2PC     H2B 8508   3.546   1.281   6.013
    2PC     N31 8509   3.626   1.117   5.909
    2PC     C33 8510   3.745   1.083   5.824
    2PC     H3A 8511   3.733   0.979   5.795
    2PC     H3B 8512   3.744   1.151   5.739
    2PC     H3C 8513   3.837   1.101   5.881
    2PC     C34 8514   3.646   1.056   6.045
    2PC     H4A 8515   3.747   1.072   6.083
    2PC     H4B 8516   3.577   1.097   6.119
    2PC     H4C 8517   3.633   0.949   6.027
    2PC     C35 8518   3.500   1.065   5.847
    2PC     H5A 8519   3.503   0.956   5.854
    2PC     H5B 8520   3.493   1.098   5.744
    2PC     H5C 8521   3.407   1.096   5.896
    2PC     O33 8522   3.797   1.523   5.570
    2PC     O34 8523   3.585   1.586   5.629
    2PC     O21 8524   3.636   1.325   5.161
    2PC     C21 8525   3.753   1.349   5.100
    2PC     O22 8526   3.857   1.289   5.120
    3OL     C12 8527   3.737   1.458   4.997
    3OL     H2R 8528   3.698   1.551   5.039
    3OL     H2S 8529   3.662   1.421   4.926
    3OL     C13 8530   3.864   1.485   4.916
    3OL     H3R 8531   3.950   1.508   4.979
    3OL     H3S 8532   3.831   1.573   4.860
    3OL     C14 8533   3.887   1.368   4.820
    3OL     H4R 8534   3.793   1.358   4.764
    3OL     H4S 8535   3.905   1.279   4.880
    3OL     C15 8536   3.998   1.385   4.715
    3OL     H5R 8537   4.080   1.428   4.773
    3OL     H5S 8538   3.969   1.458   4.639
    3OL     C16 8539   4.046   1.254   4.650
    3OL     H6R 8540   3.962   1.199   4.606
    3OL     H6S 8541   4.095   1.188   4.721
    3OL     C17 8542   4.143   1.287   4.536
    3OL     H7R 8543   4.224   1.344   4.582
    3OL     H7S 8544   4.103   1.363   4.468
    3OL     C18 8545   4.203   1.169   4.460
    3OL     H8R 8546   4.128   1.155   4.382
    3OL     H8S 8547   4.210   1.080   4.523
    3OL     C19 8548   4.344   1.195   4.415
    3OL     H9R 8549   4.391   1.256   4.491
    3OL    C110 8550   4.397   1.174   4.295
    3OL    H10R 8551   4.500   1.200   4.273
    3OL    C111 8552   4.323   1.105   4.183
    3OL    H11R 8553   4.245   1.041   4.225
    3OL    H11S 8554   4.395   1.037   4.140
    3OL    C112 8555   4.260   1.206   4.085
    3OL    H12R 8556   4.340   1.274   4.055
    3OL    H12S 8557   4.193   1.268   4.145
    3OL    C113 8558   4.204   1.149   3.954
    3OL    H13R 8559   4.270   1.074   3.910
    3OL    H13S 8560   4.183   1.228   3.882
    3OL    C114 8561   4.071   1.077   3.978
    3OL    H14R 8562   3.995   1.143   4.021
    3OL    H14S 8563   4.087   0.994   4.047
    3OL    C115 8564   4.025   1.012   3.847
    3OL    H15R 8565   4.103   0.942   3.818
    3OL    H15S 8566   4.015   1.088   3.770
    3OL    C116 8567   3.898   0.927   3.867
    3OL    H16R 8568   3.825   0.986   3.922
    3OL    H16S 8569   3.926   0.838   3.925
    3OL    C117 8570   3.853   0.864   3.734
    3OL    H17R 8571   3.928   0.801   3.686
    3OL    H17S 8572   3.817   0.940   3.665
    3OL    C118 8573   3.740   0.765   3.763
    3OL    H18R 8574   3.652   0.824   3.788
    3OL    H18S 8575   3.737   0.698   3.850
    3OL    H18T 8576   3.732   0.707   3.671
    1PA    C116 8577   6.529   2.642   3.493
    1PA    H16R 8578   6.602   2.562   3.482
    1PA    H16S 8579   6.535   2.679   3.596
    1PA    H16T 8580   6.551   2.715   3.415
    1PA    C115 8581   6.387   2.588   3.472
    1PA    H15R 8582   6.364   2.529   3.561
    1PA    H15S 8583   6.305   2.660   3.479
    1PA    C114 8584   6.374   2.501   3.346
    1PA    H14R 8585   6.419   2.561   3.266
    1PA    H14S 8586   6.437   2.412   3.350
    1PA    C113 8587   6.233   2.450   3.316
    1PA    H13R 8588   6.231   2.394   3.222
    1PA    H13S 8589   6.202   2.382   3.396
    1PA    C112 8590   6.133   2.565   3.301
    1PA    H12R 8591   6.119   2.616   3.397
    1PA    H12S 8592   6.176   2.635   3.229
    1PA    C111 8593   5.994   2.509   3.265
    1PA    H11R 8594   5.993   2.464   3.166
    1PA    H11S 8595   5.970   2.428   3.334
    1PA    C110 8596   5.900   2.630   3.261
    1PA    H10R 8597   5.801   2.587   3.280
    1PA    H10S 8598   5.915   2.695   3.348
    1PA     C19 8599   5.900   2.711   3.131
    1PA     H9R 8600   5.987   2.778   3.136
    1PA     H9S 8601   5.903   2.630   3.057
    1PA     C18 8602   5.779   2.805   3.125
    1PA     H8R 8603   5.695   2.735   3.116
    1PA     H8S 8604   5.772   2.869   3.214
    1PA     C17 8605   5.773   2.894   3.001
    1PA     H7R 8606   5.697   2.972   3.011
    1PA     H7S 8607   5.870   2.943   2.991
    1PA     C16 8608   5.765   2.817   2.868
    1PA     H6R 8609   5.860   2.767   2.850
    1PA     H6S 8610   5.688   2.740   2.879
    1PA     C15 8611   5.726   2.913   2.755
    1PA     H5R 8612   5.622   2.947   2.754
    1PA     H5S 8613   5.781   3.006   2.771
    1PA     C14 8614   5.757   2.848   2.620
    1PA     H4R 8615   5.864   2.828   2.608
    1PA     H4S 8616   5.703   2.754   2.619
    1PA     C13 8617   5.706   2.918   2.492
    1PA     H3R 8618   5.756   3.013   2.474
    1PA     H3S 8619   5.739   2.853   2.411
    1PA     C12 8620   5.555   2.944   2.484
    1PA     H2R 8621   5.497   2.851   2.491
    1PA     H2S 8622   5.515   3.006   2.564
    2PC     C11 8623   5.535   3.009   2.350
    2PC     O12 8624   5.496   2.940   2.258
    2PC     O11 8625   5.563   3.140   2.349
    2PC      C1 8626   5.558   3.218   2.228
    2PC      HR 8627   5.591   3.321   2.244
    2PC      HS 8628   5.626   3.174   2.155
    2PC      C2 8629   5.415   3.223   2.173
    2PC      HX 8630   5.383   3.120   2.155
    2PC      C3 8631   5.420   3.305   2.042
    2PC      HA 8632   5.319   3.301   2.000
    2PC      HB 8633   5.488   3.251   1.976
    2PC     O31 8634   5.475   3.437   2.052
    2PC     P31 8635   5.445   3.544   1.936
    2PC     O32 8636   5.483   3.682   2.010
    2PC     C31 8637   5.379   3.730   2.097
    2PC     H1A 8638   5.307   3.772   2.027
    2PC     H1B 8639   5.333   3.640   2.139
    2PC     C32 8640   5.441   3.826   2.200
    2PC     H2A 8641   5.472   3.917   2.148
    2PC     H2B 8642   5.362   3.865   2.265
    2PC     N31 8643   5.562   3.775   2.271
    2PC     C33 8644   5.687   3.795   2.191
    2PC     H3A 8645   5.710   3.900   2.171
    2PC     H3B 8646   5.773   3.749   2.239
    2PC     H3C 8647   5.682   3.737   2.098
    2PC     C34 8648   5.577   3.866   2.389
    2PC     H4A 8649   5.496   3.852   2.461
    2PC     H4B 8650   5.671   3.843   2.441
    2PC     H4C 8651   5.573   3.971   2.360
    2PC     C35 8652   5.541   3.643   2.338
    2PC     H5A 8653   5.532   3.563   2.263
    2PC     H5B 8654   5.450   3.660   2.395
    2PC     H5C 8655   5.628   3.624   2.401
    2PC     O33 8656   5.550   3.527   1.833
    2PC     O34 8657   5.315   3.529   1.867
    2PC     O21 8658   5.324   3.291   2.262
    2PC     C21 8659   5.269   3.232   2.370
    2PC     O22 8660   5.276   3.115   2.401
    3OL     C12 8661   5.198   3.331   2.459
    3OL     H2R 8662   5.094   3.341   2.428
    3OL     H2S 8663   5.251   3.424   2.436
    3OL     C13 8664   5.210   3.297   2.608
    3OL     H3R 8665   5.313   3.288   2.644
    3OL     H3S 8666   5.162   3.201   2.630
    3OL     C14 8667   5.135   3.409   2.681
    3OL     H4R 8668   5.033   3.417   2.643
    3OL     H4S 8669   5.185   3.503   2.658
    3OL     C15 8670   5.141   3.388   2.832
    3OL     H5R 8671   5.239   3.365   2.876
    3OL     H5S 8672   5.082   3.301   2.860
    3OL     C16 8673   5.082   3.509   2.905
    3OL     H6R 8674   4.981   3.533   2.869
    3OL     H6S 8675   5.144   3.592   2.871
    3OL     C17 8676   5.069   3.495   3.058
    3OL     H7R 8677   5.169   3.468   3.094
    3OL     H7S 8678   4.997   3.415   3.074
    3OL     C18 8679   5.030   3.621   3.136
    3OL     H8R 8680   4.923   3.644   3.130
    3OL     H8S 8681   5.068   3.709   3.083
    3OL     C19 8682   5.086   3.613   3.276
    3OL     H9R 8683   5.026   3.555   3.346
    3OL    C110 8684   5.203   3.661   3.315
    3OL    H10R 8685   5.240   3.632   3.413
    3OL    C111 8686   5.312   3.732   3.238
    3OL    H11R 8687   5.326   3.827   3.289
    3OL    H11S 8688   5.279   3.751   3.135
    3OL    C112 8689   5.450   3.665   3.239
    3OL    H12R 8690   5.433   3.567   3.195
    3OL    H12S 8691   5.489   3.661   3.341
    3OL    C113 8692   5.548   3.732   3.142
    3OL    H13R 8693   5.567   3.831   3.185
    3OL    H13S 8694   5.506   3.748   3.043
    3OL    C114 8695   5.685   3.663   3.127
    3OL    H14R 8696   5.665   3.564   3.086
    3OL    H14S 8697   5.729   3.647   3.226
    3OL    C115 8698   5.778   3.750   3.041
    3OL    H15R 8699   5.832   3.816   3.109
    3OL    H15S 8700   5.724   3.804   2.963
    3OL    C116 8701   5.889   3.662   2.981
    3OL    H16R 8702   5.850   3.570   2.937
    3OL    H16S 8703   5.962   3.632   3.055
    3OL    C117 8704   5.965   3.752   2.882
    3OL    H17R 8705   5.989   3.845   2.934
    3OL    H17S 8706   5.884   3.766   2.811
    3OL    C118 8707   6.089   3.688   2.817
    3OL    H18R 8708   6.064   3.602   2.755
    3OL    H18S 8709   6.165   3.660   2.890
    3OL    H18T 8710   6.131   3.771   2.760
    1PA    C116 8711   1.178   3.328   3.660
    1PA    H16R 8712   1.201   3.351   3.555
    1PA    H16S 8713   1.262   3.341   3.728
    1PA    H16T 8714   1.092   3.388   3.690
    1PA    C115 8715   1.133   3.181   3.654
    1PA    H15R 8716   1.222   3.117   3.648
    1PA    H15S 8717   1.087   3.151   3.748
    1PA    C114 8718   1.043   3.144   3.535
    1PA    H14R 8719   1.065   3.201   3.444
    1PA    H14S 8720   1.067   3.040   3.512
    1PA    C113 8721   0.897   3.170   3.574
    1PA    H13R 8722   0.873   3.125   3.671
    1PA    H13S 8723   0.885   3.278   3.583
    1PA    C112 8724   0.801   3.104   3.475
    1PA    H12R 8725   0.847   3.096   3.376
    1PA    H12S 8726   0.785   2.999   3.502
    1PA    C111 8727   0.666   3.176   3.471
    1PA    H11R 8728   0.613   3.175   3.566
    1PA    H11S 8729   0.685   3.283   3.461
    1PA    C110 8730   0.583   3.119   3.355
    1PA    H10R 8731   0.502   3.187   3.327
    1PA    H10S 8732   0.643   3.100   3.266
    1PA     C19 8733   0.506   2.991   3.392
    1PA     H9R 8734   0.574   2.916   3.434
    1PA     H9S 8735   0.428   3.005   3.467
    1PA     C18 8736   0.447   2.915   3.273
    1PA     H8R 8737   0.530   2.901   3.202
    1PA     H8S 8738   0.425   2.813   3.306
    1PA     C17 8739   0.331   2.985   3.201
    1PA     H7R 8740   0.253   3.009   3.273
    1PA     H7S 8741   0.365   3.083   3.165
    1PA     C16 8742   0.269   2.914   3.080
    1PA     H6R 8743   0.217   2.828   3.124
    1PA     H6S 8744   0.189   2.978   3.041
    1PA     C15 8745   0.374   2.878   2.975
    1PA     H5R 8746   0.418   2.973   2.943
    1PA     H5S 8747   0.451   2.826   3.032
    1PA     C14 8748   0.305   2.800   2.862
    1PA     H4R 8749   0.245   2.719   2.906
    1PA     H4S 8750   0.241   2.867   2.804
    1PA     C13 8751   0.409   2.749   2.761
    1PA     H3R 8752   0.467   2.834   2.724
    1PA     H3S 8753   0.462   2.671   2.816
    1PA     C12 8754   0.337   2.677   2.646
    1PA     H2R 8755   0.311   2.580   2.690
    1PA     H2S 8756   0.250   2.730   2.608
    2PC     C11 8757   0.443   2.661   2.540
    2PC     O12 8758   0.519   2.567   2.534
    2PC     O11 8759   0.437   2.757   2.446
    2PC      C1 8760   0.509   2.765   2.322
    2PC      HR 8761   0.613   2.771   2.352
    2PC      HS 8762   0.506   2.669   2.269
    2PC      C2 8763   0.456   2.882   2.238
    2PC      HX 8764   0.347   2.895   2.241
    2PC      C3 8765   0.502   2.869   2.092
    2PC      HA 8766   0.484   2.767   2.058
    2PC      HB 8767   0.448   2.940   2.029
    2PC     O31 8768   0.641   2.904   2.080
    2PC     P31 8769   0.695   2.954   1.938
    2PC     O32 8770   0.702   3.108   1.979
    2PC     C31 8771   0.746   3.204   1.881
    2PC     H1A 8772   0.775   3.302   1.921
    2PC     H1B 8773   0.835   3.167   1.829
    2PC     C32 8774   0.633   3.239   1.783
    2PC     H2A 8775   0.676   3.269   1.688
    2PC     H2B 8776   0.565   3.155   1.766
    2PC     N31 8777   0.541   3.349   1.827
    2PC     C33 8778   0.512   3.349   1.974
    2PC     H3A 8779   0.438   3.428   1.988
    2PC     H3B 8780   0.457   3.257   1.992
    2PC     H3C 8781   0.602   3.362   2.034
    2PC     C34 8782   0.604   3.478   1.784
    2PC     H4A 8783   0.706   3.478   1.823
    2PC     H4B 8784   0.614   3.488   1.676
    2PC     H4C 8785   0.553   3.567   1.820
    2PC     C35 8786   0.411   3.324   1.757
    2PC     H5A 8787   0.369   3.225   1.776
    2PC     H5B 8788   0.426   3.329   1.649
    2PC     H5C 8789   0.344   3.399   1.802
    2PC     O33 8790   0.831   2.898   1.914
    2PC     O34 8791   0.615   2.912   1.820
    2PC     O21 8792   0.509   3.002   2.297
    2PC     C21 8793   0.467   3.126   2.267
    2PC     O22 8794   0.389   3.154   2.178
    3OL     C12 8795   0.525   3.233   2.356
    3OL     H2R 8796   0.449   3.310   2.365
    3OL     H2S 8797   0.608   3.274   2.297
    3OL     C13 8798   0.576   3.178   2.490
    3OL     H3R 8799   0.673   3.129   2.484
    3OL     H3S 8800   0.508   3.099   2.522
    3OL     C14 8801   0.584   3.288   2.597
    3OL     H4R 8802   0.490   3.342   2.588
    3OL     H4S 8803   0.667   3.358   2.582
    3OL     C15 8804   0.616   3.240   2.740
    3OL     H5R 8805   0.719   3.205   2.732
    3OL     H5S 8806   0.548   3.156   2.760
    3OL     C16 8807   0.593   3.355   2.839
    3OL     H6R 8808   0.487   3.381   2.838
    3OL     H6S 8809   0.648   3.443   2.805
    3OL     C17 8810   0.633   3.313   2.981
    3OL     H7R 8811   0.601   3.210   3.001
    3OL     H7S 8812   0.582   3.375   3.055
    3OL     C18 8813   0.784   3.332   3.000
    3OL     H8R 8814   0.817   3.436   2.989
    3OL     H8S 8815   0.840   3.275   2.925
    3OL     C19 8816   0.838   3.266   3.124
    3OL     H9R 8817   0.812   3.161   3.130
    3OL    C110 8818   0.920   3.315   3.216
    3OL    H10R 8819   0.954   3.249   3.295
    3OL    C111 8820   0.961   3.460   3.230
    3OL    H11R 8821   0.945   3.521   3.141
    3OL    H11S 8822   1.069   3.460   3.242
    3OL    C112 8823   0.882   3.525   3.345
    3OL    H12R 8824   0.924   3.625   3.356
    3OL    H12S 8825   0.899   3.472   3.438
    3OL    C113 8826   0.732   3.540   3.313
    3OL    H13R 8827   0.695   3.437   3.305
    3OL    H13S 8828   0.713   3.587   3.216
    3OL    C114 8829   0.656   3.613   3.424
    3OL    H14R 8830   0.684   3.568   3.520
    3OL    H14S 8831   0.548   3.606   3.409
    3OL    C115 8832   0.681   3.762   3.446
    3OL    H15R 8833   0.649   3.833   3.370
    3OL    H15S 8834   0.787   3.787   3.446
    3OL    C116 8835   0.617   3.818   3.574
    3OL    H16R 8836   0.651   3.766   3.664
    3OL    H16S 8837   0.508   3.823   3.566
    3OL    C117 8838   0.655   3.963   3.605
    3OL    H17R 8839   0.640   4.028   3.518
    3OL    H17S 8840   0.763   3.972   3.618
    3OL    C118 8841   0.595   4.013   3.737
    3OL    H18R 8842   0.642   3.971   3.826
    3OL    H18S 8843   0.492   3.980   3.749
    3OL    H18T 8844   0.606   4.122   3.744
    1PA    C116 8845   0.258   4.374   4.385
    1PA    H16R 8846   0.205   4.286   4.420
    1PA    H16S 8847   0.179   4.446   4.363
    1PA    H16T 8848   0.325   4.407   4.466
    1PA    C115 8849   0.338   4.343   4.258
    1PA    H15R 8850   0.381   4.243   4.249
    1PA    H15S 8851   0.254   4.342   4.189
    1PA    C114 8852   0.423   4.462   4.211
    1PA    H14R 8853   0.362   4.552   4.205
    1PA    H14S 8854   0.495   4.476   4.292
    1PA    C113 8855   0.493   4.430   4.078
    1PA    H13R 8856   0.566   4.509   4.059
    1PA    H13S 8857   0.549   4.336   4.084
    1PA    C112 8858   0.400   4.423   3.956
    1PA    H12R 8859   0.338   4.334   3.971
    1PA    H12S 8860   0.330   4.507   3.954
    1PA    C111 8861   0.473   4.417   3.821
    1PA    H11R 8862   0.551   4.494   3.813
    1PA    H11S 8863   0.514   4.319   3.797
    1PA    C110 8864   0.372   4.467   3.717
    1PA    H10R 8865   0.288   4.398   3.712
    1PA    H10S 8866   0.335   4.567   3.744
    1PA     C19 8867   0.439   4.468   3.579
    1PA     H9R 8868   0.526   4.534   3.576
    1PA     H9S 8869   0.463   4.363   3.564
    1PA     C18 8870   0.336   4.514   3.474
    1PA     H8R 8871   0.362   4.474   3.376
    1PA     H8S 8872   0.239   4.477   3.507
    1PA     C17 8873   0.314   4.666   3.464
    1PA     H7R 8874   0.217   4.685   3.418
    1PA     H7S 8875   0.309   4.716   3.561
    1PA     C16 8876   0.419   4.727   3.370
    1PA     H6R 8877   0.408   4.835   3.376
    1PA     H6S 8878   0.515   4.699   3.414
    1PA     C15 8879   0.418   4.689   3.222
    1PA     H5R 8880   0.417   4.580   3.211
    1PA     H5S 8881   0.322   4.729   3.189
    1PA     C14 8882   0.536   4.756   3.150
    1PA     H4R 8883   0.526   4.864   3.166
    1PA     H4S 8884   0.632   4.730   3.194
    1PA     C13 8885   0.521   4.726   3.000
    1PA     H3R 8886   0.503   4.618   2.996
    1PA     H3S 8887   0.433   4.776   2.960
    1PA     C12 8888   0.640   4.778   2.918
    1PA     H2R 8889   0.642   4.887   2.926
    1PA     H2S 8890   0.734   4.738   2.956
    2PC     C11 8891   0.643   4.755   2.769
    2PC     O12 8892   0.606   4.838   2.690
    2PC     O11 8893   0.678   4.629   2.736
    2PC      C1 8894   0.654   4.595   2.598
    2PC      HR 8895   0.556   4.635   2.570
    2PC      HS 8896   0.736   4.640   2.544
    2PC      C2 8897   0.654   4.442   2.582
    2PC      HX 8898   0.741   4.423   2.645
    2PC      C3 8899   0.658   4.398   2.435
    2PC      HA 8900   0.761   4.385   2.401
    2PC      HB 8901   0.611   4.300   2.440
    2PC     O31 8902   0.579   4.479   2.346
    2PC     P31 8903   0.531   4.426   2.203
    2PC     O32 8904   0.490   4.556   2.118
    2PC     C31 8905   0.394   4.647   2.174
    2PC     H1A 8906   0.313   4.594   2.224
    2PC     H1B 8907   0.447   4.701   2.254
    2PC     C32 8908   0.346   4.746   2.067
    2PC     H2A 8909   0.256   4.788   2.112
    2PC     H2B 8910   0.418   4.824   2.045
    2PC     N31 8911   0.302   4.683   1.937
    2PC     C33 8912   0.215   4.778   1.861
    2PC     H3A 8913   0.120   4.801   1.909
    2PC     H3B 8914   0.270   4.871   1.842
    2PC     H3C 8915   0.188   4.722   1.772
    2PC     C34 8916   0.413   4.641   1.845
    2PC     H4A 8917   0.478   4.727   1.827
    2PC     H4B 8918   0.468   4.562   1.897
    2PC     H4C 8919   0.371   4.617   1.748
    2PC     C35 8920   0.207   4.570   1.958
    2PC     H5A 8921   0.111   4.607   1.996
    2PC     H5B 8922   0.249   4.503   2.033
    2PC     H5C 8923   0.187   4.524   1.860
    2PC     O33 8924   0.649   4.364   2.138
    2PC     O34 8925   0.440   4.310   2.210
    2PC     O21 8926   0.527   4.393   2.628
    2PC     C21 8927   0.521   4.280   2.700
    2PC     O22 8928   0.623   4.243   2.755
    3OL     C12 8929   0.381   4.224   2.708
    3OL     H2R 8930   0.386   4.116   2.726
    3OL     H2S 8931   0.330   4.229   2.611
    3OL     C13 8932   0.294   4.306   2.803
    3OL     H3R 8933   0.192   4.275   2.781
    3OL     H3S 8934   0.307   4.407   2.763
    3OL     C14 8935   0.322   4.281   2.952
    3OL     H4R 8936   0.423   4.318   2.967
    3OL     H4S 8937   0.307   4.179   2.988
    3OL     C15 8938   0.240   4.372   3.045
    3OL     H5R 8939   0.242   4.473   3.002
    3OL     H5S 8940   0.283   4.380   3.145
    3OL     C16 8941   0.098   4.318   3.068
    3OL     H6R 8942   0.092   4.222   3.118
    3OL     H6S 8943   0.057   4.304   2.968
    3OL     C17 8944   0.017   4.422   3.147
    3OL     H7R 8945  -0.086   4.410   3.113
    3OL     H7S 8946   0.054   4.522   3.124
    3OL     C18 8947   0.043   4.403   3.297
    3OL     H8R 8948   0.033   4.491   3.362
    3OL     H8S 8949   0.147   4.372   3.311
    3OL     C19 8950  -0.045   4.294   3.352
    3OL     H9R 8951  -0.150   4.312   3.329
    3OL    C110 8952  -0.009   4.179   3.407
    3OL    H10R 8953  -0.089   4.109   3.431
    3OL    C111 8954   0.128   4.131   3.447
    3OL    H11R 8955   0.199   4.198   3.397
    3OL    H11S 8956   0.134   4.024   3.429
    3OL    C112 8957   0.163   4.158   3.594
    3OL    H12R 8958   0.148   4.262   3.623
    3OL    H12S 8959   0.266   4.130   3.617
    3OL    C113 8960   0.074   4.080   3.692
    3OL    H13R 8961  -0.028   4.093   3.655
    3OL    H13S 8962   0.090   4.117   3.794
    3OL    C114 8963   0.105   3.930   3.682
    3OL    H14R 8964   0.213   3.921   3.689
    3OL    H14S 8965   0.081   3.893   3.582
    3OL    C115 8966   0.041   3.828   3.778
    3OL    H15R 8967   0.076   3.846   3.880
    3OL    H15S 8968   0.079   3.728   3.758
    3OL    C116 8969  -0.112   3.829   3.778
    3OL    H16R 8970  -0.156   3.828   3.678
    3OL    H16S 8971  -0.153   3.919   3.825
    3OL    C117 8972  -0.163   3.702   3.847
    3OL    H17R 8973  -0.145   3.612   3.787
    3OL    H17S 8974  -0.271   3.723   3.847
    3OL    C118 8975  -0.119   3.684   3.993
    3OL    H18R 8976  -0.015   3.653   3.995
    3OL    H18S 8977  -0.183   3.611   4.045
    3OL    H18T 8978  -0.129   3.776   4.051
    1PA    C116 8979   6.469   3.274   4.105
    1PA    H16R 8980   6.578   3.269   4.098
    1PA    H16S 8981   6.430   3.209   4.183
    1PA    H16T 8982   6.440   3.376   4.131
    1PA    C115 8983   6.398   3.213   3.983
    1PA    H15R 8984   6.412   3.105   3.974
    1PA    H15S 8985   6.291   3.224   4.000
    1PA    C114 8986   6.436   3.301   3.863
    1PA    H14R 8987   6.359   3.302   3.785
    1PA    H14S 8988   6.457   3.402   3.897
    1PA    C113 8989   6.565   3.251   3.798
    1PA    H13R 8990   6.638   3.263   3.878
    1PA    H13S 8991   6.554   3.145   3.772
    1PA    C112 8992   6.596   3.330   3.670
    1PA    H12R 8993   6.530   3.298   3.590
    1PA    H12S 8994   6.579   3.435   3.697
    1PA    C111 8995   6.738   3.307   3.616
    1PA    H11R 8996   6.811   3.300   3.698
    1PA    H11S 8997   6.743   3.209   3.568
    1PA    C110 8998   6.781   3.410   3.510
    1PA    H10R 8999   6.765   3.511   3.550
    1PA    H10S 9000   6.885   3.404   3.478
    1PA     C19 9001   6.695   3.409   3.384
    1PA     H9R 9002   6.679   3.309   3.342
    1PA     H9S 9003   6.597   3.452   3.408
    1PA     C18 9004   6.750   3.502   3.274
    1PA     H8R 9005   6.749   3.606   3.306
    1PA     H8S 9006   6.854   3.483   3.250
    1PA     C17 9007   6.660   3.497   3.150
    1PA     H7R 9008   6.565   3.545   3.174
    1PA     H7S 9009   6.717   3.566   3.087
    1PA     C16 9010   6.658   3.363   3.076
    1PA     H6R 9011   6.754   3.314   3.090
    1PA     H6S 9012   6.590   3.299   3.132
    1PA     C15 9013   6.621   3.370   2.927
    1PA     H5R 9014   6.521   3.412   2.916
    1PA     H5S 9015   6.696   3.435   2.881
    1PA     C14 9016   6.620   3.230   2.864
    1PA     H4R 9017   6.718   3.185   2.854
    1PA     H4S 9018   6.551   3.166   2.920
    1PA     C13 9019   6.582   3.247   2.716
    1PA     H3R 9020   6.475   3.229   2.706
    1PA     H3S 9021   6.587   3.347   2.671
    1PA     C12 9022   6.653   3.146   2.624
    1PA     H2R 9023   6.760   3.166   2.632
    1PA     H2S 9024   6.638   3.047   2.668
    2PC     C11 9025   6.617   3.156   2.478
    2PC     O12 9026   6.647   3.065   2.403
    2PC     O11 9027   6.560   3.272   2.442
    2PC      C1 9028   6.522   3.291   2.305
    2PC      HR 9029   6.525   3.399   2.288
    2PC      HS 9030   6.596   3.241   2.243
    2PC      C2 9031   6.385   3.226   2.277
    2PC      HX 9032   6.383   3.120   2.301
    2PC      C3 9033   6.354   3.223   2.127
    2PC      HA 9034   6.334   3.320   2.080
    2PC      HB 9035   6.417   3.155   2.070
    2PC     O31 9036   6.228   3.154   2.115
    2PC     P31 9037   6.104   3.237   2.059
    2PC     O32 9038   6.001   3.116   2.038
    2PC     C31 9039   5.970   3.031   2.150
    2PC     H1A 9040   6.059   3.001   2.208
    2PC     H1B 9041   5.901   3.076   2.221
    2PC     C32 9042   5.913   2.895   2.108
    2PC     H2A 9043   5.916   2.833   2.198
    2PC     H2B 9044   5.807   2.916   2.101
    2PC     N31 9045   5.968   2.817   1.992
    2PC     C33 9046   6.112   2.795   2.026
    2PC     H3A 9047   6.173   2.880   1.996
    2PC     H3B 9048   6.129   2.757   2.127
    2PC     H3C 9049   6.144   2.706   1.972
    2PC     C34 9050   5.900   2.684   1.982
    2PC     H4A 9051   5.920   2.655   1.879
    2PC     H4B 9052   5.933   2.613   2.057
    2PC     H4C 9053   5.791   2.685   1.992
    2PC     C35 9054   5.950   2.894   1.864
    2PC     H5A 9055   5.843   2.908   1.848
    2PC     H5B 9056   5.987   2.834   1.780
    2PC     H5C 9057   6.007   2.987   1.864
    2PC     O33 9058   6.033   3.347   2.128
    2PC     O34 9059   6.146   3.285   1.925
    2PC     O21 9060   6.280   3.300   2.341
    2PC     C21 9061   6.206   3.254   2.444
    2PC     O22 9062   6.232   3.150   2.501
    3OL     C12 9063   6.083   3.338   2.467
    3OL     H2R 9064   6.040   3.360   2.369
    3OL     H2S 9065   6.112   3.434   2.512
    3OL     C13 9066   5.976   3.277   2.558
    3OL     H3R 9067   6.025   3.255   2.654
    3OL     H3S 9068   5.956   3.177   2.519
    3OL     C14 9069   5.857   3.371   2.581
    3OL     H4R 9070   5.819   3.401   2.483
    3OL     H4S 9071   5.891   3.457   2.639
    3OL     C15 9072   5.741   3.297   2.649
    3OL     H5R 9073   5.774   3.258   2.745
    3OL     H5S 9074   5.725   3.211   2.585
    3OL     C16 9075   5.607   3.371   2.664
    3OL     H6R 9076   5.537   3.301   2.711
    3OL     H6S 9077   5.574   3.392   2.562
    3OL     C17 9078   5.626   3.506   2.735
    3OL     H7R 9079   5.717   3.561   2.709
    3OL     H7S 9080   5.645   3.499   2.842
    3OL     C18 9081   5.504   3.593   2.705
    3OL     H8R 9082   5.430   3.561   2.779
    3OL     H8S 9083   5.457   3.580   2.607
    3OL     C19 9084   5.530   3.741   2.711
    3OL     H9R 9085   5.618   3.778   2.659
    3OL    C110 9086   5.453   3.828   2.773
    3OL    H10R 9087   5.486   3.932   2.772
    3OL    C111 9088   5.320   3.800   2.838
    3OL    H11R 9089   5.325   3.730   2.922
    3OL    H11S 9090   5.262   3.757   2.757
    3OL    C112 9091   5.247   3.929   2.879
    3OL    H12R 9092   5.308   3.975   2.957
    3OL    H12S 9093   5.154   3.889   2.922
    3OL    C113 9094   5.219   4.021   2.760
    3OL    H13R 9095   5.137   3.989   2.695
    3OL    H13S 9096   5.305   4.034   2.695
    3OL    C114 9097   5.164   4.158   2.805
    3OL    H14R 9098   5.083   4.137   2.875
    3OL    H14S 9099   5.113   4.204   2.721
    3OL    C115 9100   5.271   4.253   2.861
    3OL    H15R 9101   5.347   4.269   2.784
    3OL    H15S 9102   5.321   4.211   2.950
    3OL    C116 9103   5.212   4.387   2.905
    3OL    H16R 9104   5.128   4.384   2.975
    3OL    H16S 9105   5.163   4.442   2.824
    3OL    C117 9106   5.323   4.479   2.957
    3OL    H17R 9107   5.399   4.494   2.881
    3OL    H17S 9108   5.364   4.437   3.049
    3OL    C118 9109   5.253   4.602   3.017
    3OL    H18R 9110   5.192   4.560   3.097
    3OL    H18S 9111   5.181   4.635   2.941
    3OL    H18T 9112   5.322   4.676   3.056
    1PA    C116 9113   6.592   2.837   3.881
    1PA    H16R 9114   6.499   2.841   3.823
    1PA    H16S 9115   6.671   2.851   3.807
    1PA    H16T 9116   6.588   2.917   3.955
    1PA    C115 9117   6.608   2.707   3.962
    1PA    H15R 9118   6.706   2.721   4.006
    1PA    H15S 9119   6.534   2.703   4.042
    1PA    C114 9120   6.613   2.585   3.869
    1PA    H14R 9121   6.527   2.578   3.802
    1PA    H14S 9122   6.699   2.590   3.801
    1PA    C113 9123   6.649   2.457   3.944
    1PA    H13R 9124   6.744   2.458   3.998
    1PA    H13S 9125   6.574   2.432   4.019
    1PA    C112 9126   6.642   2.330   3.858
    1PA    H12R 9127   6.730   2.326   3.793
    1PA    H12S 9128   6.644   2.242   3.922
    1PA    C111 9129   6.517   2.317   3.770
    1PA    H11R 9130   6.427   2.338   3.828
    1PA    H11S 9131   6.531   2.389   3.689
    1PA    C110 9132   6.499   2.179   3.704
    1PA    H10R 9133   6.582   2.167   3.634
    1PA    H10S 9134   6.500   2.101   3.781
    1PA     C19 9135   6.372   2.164   3.620
    1PA     H9R 9136   6.291   2.187   3.690
    1PA     H9S 9137   6.388   2.240   3.544
    1PA     C18 9138   6.348   2.029   3.552
    1PA     H8R 9139   6.434   1.969   3.584
    1PA     H8S 9140   6.255   1.985   3.588
    1PA     C17 9141   6.334   2.034   3.399
    1PA     H7R 9142   6.304   1.936   3.360
    1PA     H7S 9143   6.264   2.112   3.371
    1PA     C16 9144   6.459   2.080   3.323
    1PA     H6R 9145   6.508   2.160   3.379
    1PA     H6S 9146   6.534   2.000   3.320
    1PA     C15 9147   6.419   2.111   3.178
    1PA     H5R 9148   6.413   2.013   3.132
    1PA     H5S 9149   6.319   2.153   3.163
    1PA     C14 9150   6.529   2.200   3.118
    1PA     H4R 9151   6.542   2.293   3.173
    1PA     H4S 9152   6.624   2.147   3.123
    1PA     C13 9153   6.501   2.237   2.971
    1PA     H3R 9154   6.394   2.256   2.962
    1PA     H3S 9155   6.559   2.326   2.944
    1PA     C12 9156   6.540   2.125   2.874
    1PA     H2R 9157   6.647   2.106   2.886
    1PA     H2S 9158   6.492   2.030   2.895
    2PC     C11 9159   6.508   2.171   2.734
    2PC     O12 9160   6.409   2.146   2.669
    2PC     O11 9161   6.611   2.239   2.681
    2PC      C1 9162   6.608   2.294   2.548
    2PC      HR 9163   6.695   2.360   2.538
    2PC      HS 9164   6.627   2.223   2.467
    2PC      C2 9165   6.491   2.391   2.527
    2PC      HX 9166   6.398   2.334   2.532
    2PC      C3 9167   6.485   2.460   2.390
    2PC      HA 9168   6.466   2.380   2.318
    2PC      HB 9169   6.409   2.538   2.395
    2PC     O31 9170   6.614   2.511   2.350
    2PC     P31 9171   6.625   2.559   2.197
    2PC     O32 9172   6.780   2.525   2.176
    2PC     C31 9173   6.819   2.476   2.047
    2PC     H1A 9174   6.784   2.374   2.029
    2PC     H1B 9175   6.767   2.536   1.971
    2PC     C32 9176   6.972   2.463   2.047
    2PC     H2A 9177   7.002   2.426   1.949
    2PC     H2B 9178   7.018   2.562   2.054
    2PC     N31 9179   7.032   2.370   2.147
    2PC     C33 9180   7.181   2.368   2.130
    2PC     H3A 9181   7.196   2.371   2.022
    2PC     H3B 9182   7.208   2.454   2.191
    2PC     H3C 9183   7.227   2.276   2.166
    2PC     C34 9184   7.011   2.406   2.291
    2PC     H4A 9185   7.057   2.324   2.345
    2PC     H4B 9186   7.058   2.503   2.307
    2PC     H4C 9187   6.902   2.409   2.305
    2PC     C35 9188   6.984   2.228   2.151
    2PC     H5A 9189   7.008   2.183   2.054
    2PC     H5B 9190   6.877   2.234   2.169
    2PC     H5C 9191   7.038   2.163   2.221
    2PC     O33 9192   6.538   2.481   2.107
    2PC     O34 9193   6.605   2.706   2.199
    2PC     O21 9194   6.497   2.490   2.631
    2PC     C21 9195   6.389   2.566   2.655
    2PC     O22 9196   6.280   2.547   2.604
    3OL     C12 9197   6.403   2.668   2.765
    3OL     H2R 9198   6.458   2.752   2.723
    3OL     H2S 9199   6.459   2.625   2.849
    3OL     C13 9200   6.270   2.727   2.814
    3OL     H3R 9201   6.208   2.757   2.729
    3OL     H3S 9202   6.216   2.656   2.876
    3OL     C14 9203   6.286   2.845   2.911
    3OL     H4R 9204   6.185   2.885   2.925
    3OL     H4S 9205   6.355   2.911   2.859
    3OL     C15 9206   6.351   2.810   3.046
    3OL     H5R 9207   6.455   2.783   3.024
    3OL     H5S 9208   6.299   2.719   3.078
    3OL     C16 9209   6.339   2.932   3.138
    3OL     H6R 9210   6.232   2.952   3.139
    3OL     H6S 9211   6.391   3.018   3.095
    3OL     C17 9212   6.383   2.908   3.283
    3OL     H7R 9213   6.488   2.883   3.297
    3OL     H7S 9214   6.314   2.835   3.327
    3OL     C18 9215   6.355   3.033   3.367
    3OL     H8R 9216   6.257   3.074   3.342
    3OL     H8S 9217   6.423   3.116   3.343
    3OL     C19 9218   6.378   3.001   3.513
    3OL     H9R 9219   6.479   2.985   3.549
    3OL    C110 9220   6.276   2.983   3.595
    3OL    H10R 9221   6.292   2.945   3.696
    3OL    C111 9222   6.130   3.002   3.563
    3OL    H11R 9223   6.096   2.932   3.486
    3OL    H11S 9224   6.110   3.102   3.524
    3OL    C112 9225   6.041   2.965   3.682
    3OL    H12R 9226   6.078   2.995   3.780
    3OL    H12S 9227   6.050   2.857   3.689
    3OL    C113 9228   5.895   3.010   3.663
    3OL    H13R 9229   5.894   3.115   3.635
    3OL    H13S 9230   5.850   2.997   3.762
    3OL    C114 9231   5.813   2.922   3.567
    3OL    H14R 9232   5.855   2.922   3.466
    3OL    H14S 9233   5.708   2.954   3.567
    3OL    C115 9234   5.811   2.776   3.614
    3OL    H15R 9235   5.795   2.773   3.722
    3OL    H15S 9236   5.902   2.727   3.578
    3OL    C116 9237   5.697   2.704   3.540
    3OL    H16R 9238   5.733   2.706   3.437
    3OL    H16S 9239   5.601   2.756   3.536
    3OL    C117 9240   5.677   2.563   3.596
    3OL    H17R 9241   5.769   2.505   3.609
    3OL    H17S 9242   5.621   2.501   3.525
    3OL    C118 9243   5.609   2.562   3.734
    3OL    H18R 9244   5.583   2.462   3.767
    3OL    H18S 9245   5.512   2.611   3.727
    3OL    H18T 9246   5.670   2.609   3.811
    1PA    C116 9247   4.790   2.732   4.110
    1PA    H16R 9248   4.733   2.679   4.186
    1PA    H16S 9249   4.806   2.838   4.129
    1PA    H16T 9250   4.888   2.685   4.102
    1PA    C115 9251   4.715   2.729   3.975
    1PA    H15R 9252   4.694   2.623   3.962
    1PA    H15S 9253   4.622   2.786   3.978
    1PA    C114 9254   4.802   2.783   3.861
    1PA    H14R 9255   4.836   2.885   3.883
    1PA    H14S 9256   4.894   2.726   3.848
    1PA    C113 9257   4.723   2.797   3.730
    1PA    H13R 9258   4.655   2.715   3.704
    1PA    H13S 9259   4.666   2.890   3.740
    1PA    C112 9260   4.817   2.806   3.609
    1PA    H12R 9261   4.758   2.837   3.523
    1PA    H12S 9262   4.889   2.888   3.612
    1PA    C111 9263   4.879   2.672   3.567
    1PA    H11R 9264   4.966   2.655   3.631
    1PA    H11S 9265   4.805   2.594   3.582
    1PA    C110 9266   4.930   2.695   3.424
    1PA    H10R 9267   4.847   2.718   3.357
    1PA    H10S 9268   5.001   2.777   3.422
    1PA     C19 9269   4.997   2.564   3.378
    1PA     H9R 9270   5.083   2.543   3.441
    1PA     H9S 9271   4.926   2.485   3.400
    1PA     C18 9272   5.024   2.558   3.227
    1PA     H8R 9273   5.021   2.454   3.195
    1PA     H8S 9274   4.936   2.606   3.185
    1PA     C17 9275   5.146   2.640   3.180
    1PA     H7R 9276   5.125   2.664   3.076
    1PA     H7S 9277   5.142   2.743   3.215
    1PA     C16 9278   5.282   2.570   3.187
    1PA     H6R 9279   5.343   2.619   3.111
    1PA     H6S 9280   5.333   2.577   3.284
    1PA     C15 9281   5.287   2.428   3.130
    1PA     H5R 9282   5.238   2.361   3.201
    1PA     H5S 9283   5.227   2.416   3.040
    1PA     C14 9284   5.436   2.391   3.118
    1PA     H4R 9285   5.486   2.458   3.188
    1PA     H4S 9286   5.455   2.289   3.151
    1PA     C13 9287   5.499   2.414   2.980
    1PA     H3R 9288   5.476   2.345   2.900
    1PA     H3S 9289   5.491   2.517   2.944
    1PA     C12 9290   5.652   2.405   2.994
    1PA     H2R 9291   5.679   2.467   3.080
    1PA     H2S 9292   5.684   2.304   3.022
    2PC     C11 9293   5.727   2.441   2.869
    2PC     O12 9294   5.684   2.449   2.755
    2PC     O11 9295   5.856   2.455   2.903
    2PC      C1 9296   5.956   2.479   2.803
    2PC      HR 9297   5.928   2.559   2.733
    2PC      HS 9298   6.051   2.509   2.848
    2PC      C2 9299   5.982   2.354   2.718
    2PC      HX 9300   6.080   2.374   2.676
    2PC      C3 9301   5.886   2.333   2.600
    2PC      HA 9302   5.807   2.261   2.626
    2PC      HB 9303   5.842   2.422   2.555
    2PC     O31 9304   5.957   2.266   2.494
    2PC     P31 9305   5.887   2.257   2.350
    2PC     O32 9306   5.734   2.232   2.389
    2PC     C31 9307   5.636   2.332   2.353
    2PC     H1A 9308   5.654   2.413   2.425
    2PC     H1B 9309   5.648   2.355   2.247
    2PC     C32 9310   5.499   2.268   2.381
    2PC     H2A 9311   5.466   2.213   2.293
    2PC     H2B 9312   5.505   2.188   2.455
    2PC     N31 9313   5.390   2.356   2.435
    2PC     C33 9314   5.274   2.262   2.453
    2PC     H3A 9315   5.202   2.325   2.504
    2PC     H3B 9316   5.232   2.231   2.357
    2PC     H3C 9317   5.315   2.177   2.509
    2PC     C34 9318   5.425   2.408   2.571
    2PC     H4A 9319   5.341   2.470   2.601
    2PC     H4B 9320   5.444   2.326   2.640
    2PC     H4C 9321   5.516   2.467   2.556
    2PC     C35 9322   5.363   2.466   2.337
    2PC     H5A 9323   5.444   2.540   2.333
    2PC     H5B 9324   5.267   2.513   2.360
    2PC     H5C 9325   5.353   2.409   2.245
    2PC     O33 9326   5.910   2.389   2.286
    2PC     O34 9327   5.946   2.153   2.263
    2PC     O21 9328   5.972   2.235   2.798
    2PC     C21 9329   6.064   2.205   2.891
    2PC     O22 9330   6.153   2.281   2.923
    3OL     C12 9331   6.053   2.061   2.933
    3OL     H2R 9332   6.151   2.028   2.969
    3OL     H2S 9333   6.029   2.001   2.845
    3OL     C13 9334   5.950   2.042   3.045
    3OL     H3R 9335   5.927   1.940   3.078
    3OL     H3S 9336   5.852   2.066   3.004
    3OL     C14 9337   5.984   2.136   3.162
    3OL     H4R 9338   5.945   2.238   3.149
    3OL     H4S 9339   6.093   2.144   3.169
    3OL     C15 9340   5.944   2.088   3.302
    3OL     H5R 9341   5.993   2.144   3.382
    3OL     H5S 9342   5.979   1.985   3.308
    3OL     C16 9343   5.792   2.107   3.307
    3OL     H6R 9344   5.739   2.060   3.224
    3OL     H6S 9345   5.782   2.216   3.305
    3OL     C17 9346   5.734   2.046   3.436
    3OL     H7R 9347   5.806   2.059   3.517
    3OL     H7S 9348   5.728   1.938   3.426
    3OL     C18 9349   5.596   2.102   3.471
    3OL     H8R 9350   5.522   2.085   3.393
    3OL     H8S 9351   5.598   2.210   3.485
    3OL     C19 9352   5.535   2.051   3.600
    3OL     H9R 9353   5.444   1.992   3.589
    3OL    C110 9354   5.582   2.066   3.723
    3OL    H10R 9355   5.517   2.023   3.798
    3OL    C111 9356   5.702   2.147   3.766
    3OL    H11R 9357   5.666   2.225   3.834
    3OL    H11S 9358   5.757   2.186   3.680
    3OL    C112 9359   5.798   2.056   3.842
    3OL    H12R 9360   5.812   1.959   3.793
    3OL    H12S 9361   5.751   2.040   3.940
    3OL    C113 9362   5.931   2.128   3.866
    3OL    H13R 9363   5.926   2.232   3.898
    3OL    H13S 9364   5.978   2.135   3.767
    3OL    C114 9365   6.017   2.050   3.966
    3OL    H14R 9366   6.036   1.949   3.928
    3OL    H14S 9367   5.964   2.041   4.061
    3OL    C115 9368   6.155   2.117   3.974
    3OL    H15R 9369   6.135   2.217   4.014
    3OL    H15S 9370   6.199   2.138   3.876
    3OL    C116 9371   6.242   2.041   4.075
    3OL    H16R 9372   6.253   1.936   4.047
    3OL    H16S 9373   6.182   2.027   4.166
    3OL    C117 9374   6.381   2.093   4.112
    3OL    H17R 9375   6.434   2.089   4.017
    3OL    H17S 9376   6.437   2.042   4.190
    3OL    C118 9377   6.385   2.239   4.160
    3OL    H18R 9378   6.331   2.264   4.252
    3OL    H18S 9379   6.326   2.304   4.095
    3OL    H18T 9380   6.488   2.267   4.181
    1PA    C116 9381   1.294   3.618   3.924
    1PA    H16R 9382   1.368   3.561   3.981
    1PA    H16S 9383   1.198   3.567   3.920
    1PA    H16T 9384   1.282   3.714   3.975
    1PA    C115 9385   1.350   3.639   3.783
    1PA    H15R 9386   1.439   3.702   3.796
    1PA    H15S 9387   1.374   3.543   3.737
    1PA    C114 9388   1.255   3.726   3.700
    1PA    H14R 9389   1.152   3.688   3.704
    1PA    H14S 9390   1.266   3.824   3.747
    1PA    C113 9391   1.298   3.744   3.554
    1PA    H13R 9392   1.404   3.720   3.542
    1PA    H13S 9393   1.242   3.677   3.488
    1PA    C112 9394   1.280   3.887   3.501
    1PA    H12R 9395   1.347   3.958   3.550
    1PA    H12S 9396   1.305   3.878   3.395
    1PA    C111 9397   1.135   3.936   3.502
    1PA    H11R 9398   1.070   3.852   3.479
    1PA    H11S 9399   1.112   3.960   3.606
    1PA    C110 9400   1.123   4.048   3.398
    1PA    H10R 9401   1.028   4.099   3.414
    1PA    H10S 9402   1.196   4.129   3.397
    1PA     C19 9403   1.113   3.987   3.257
    1PA     H9R 9404   1.174   4.045   3.188
    1PA     H9S 9405   1.158   3.887   3.255
    1PA     C18 9406   0.968   3.970   3.210
    1PA     H8R 9407   0.922   3.893   3.272
    1PA     H8S 9408   0.913   4.064   3.225
    1PA     C17 9409   0.967   3.931   3.061
    1PA     H7R 9410   1.015   4.006   2.998
    1PA     H7S 9411   1.030   3.844   3.041
    1PA     C16 9412   0.826   3.916   3.003
    1PA     H6R 9413   0.759   3.997   3.036
    1PA     H6S 9414   0.841   3.917   2.895
    1PA     C15 9415   0.767   3.778   3.036
    1PA     H5R 9416   0.841   3.698   3.045
    1PA     H5S 9417   0.732   3.803   3.136
    1PA     C14 9418   0.654   3.733   2.943
    1PA     H4R 9419   0.691   3.745   2.841
    1PA     H4S 9420   0.622   3.629   2.952
    1PA     C13 9421   0.524   3.812   2.962
    1PA     H3R 9422   0.481   3.805   3.062
    1PA     H3S 9423   0.544   3.917   2.942
    1PA     C12 9424   0.423   3.748   2.866
    1PA     H2R 9425   0.418   3.640   2.880
    1PA     H2S 9426   0.320   3.777   2.891
    2PC     C11 9427   0.458   3.781   2.723
    2PC     O12 9428   0.516   3.883   2.693
    2PC     O11 9429   0.406   3.691   2.637
    2PC      C1 9430   0.431   3.720   2.499
    2PC      HR 9431   0.401   3.819   2.464
    2PC      HS 9432   0.538   3.706   2.482
    2PC      C2 9433   0.356   3.616   2.414
    2PC      HX 9434   0.414   3.524   2.428
    2PC      C3 9435   0.347   3.656   2.266
    2PC      HA 9436   0.316   3.761   2.259
    2PC      HB 9437   0.446   3.648   2.222
    2PC     O31 9438   0.254   3.572   2.195
    2PC     P31 9439   0.229   3.602   2.040
    2PC     O32 9440   0.135   3.732   2.042
    2PC     C31 9441   0.153   3.840   1.948
    2PC     H1A 9442   0.255   3.877   1.957
    2PC     H1B 9443   0.141   3.808   1.844
    2PC     C32 9444   0.048   3.949   1.972
    2PC     H2A 9445   0.059   3.997   2.070
    2PC     H2B 9446   0.065   4.027   1.897
    2PC     N31 9447  -0.097   3.914   1.961
    2PC     C33 9448  -0.114   3.831   1.837
    2PC     H3A 9449  -0.217   3.840   1.803
    2PC     H3B 9450  -0.058   3.870   1.751
    2PC     H3C 9451  -0.091   3.728   1.862
    2PC     C34 9452  -0.141   3.844   2.086
    2PC     H4A 9453  -0.139   3.912   2.171
    2PC     H4B 9454  -0.241   3.812   2.059
    2PC     H4C 9455  -0.084   3.752   2.100
    2PC     C35 9456  -0.168   4.045   1.948
    2PC     H5A 9457  -0.152   4.116   2.029
    2PC     H5B 9458  -0.275   4.026   1.945
    2PC     H5C 9459  -0.138   4.089   1.852
    2PC     O33 9460   0.358   3.636   1.975
    2PC     O34 9461   0.173   3.492   1.958
    2PC     O21 9462   0.224   3.606   2.470
    2PC     C21 9463   0.141   3.711   2.459
    2PC     O22 9464   0.169   3.823   2.420
    3OL     C12 9465   0.003   3.675   2.506
    3OL     H2R 9466  -0.025   3.574   2.475
    3OL     H2S 9467  -0.073   3.740   2.464
    3OL     C13 9468  -0.008   3.655   2.658
    3OL     H3R 9469   0.062   3.580   2.695
    3OL     H3S 9470  -0.111   3.631   2.688
    3OL     C14 9471   0.007   3.790   2.730
    3OL     H4R 9472  -0.088   3.841   2.712
    3OL     H4S 9473   0.096   3.844   2.696
    3OL     C15 9474   0.010   3.774   2.882
    3OL     H5R 9475   0.097   3.715   2.913
    3OL     H5S 9476  -0.082   3.730   2.920
    3OL     C16 9477   0.025   3.905   2.962
    3OL     H6R 9478  -0.058   3.974   2.944
    3OL     H6S 9479   0.115   3.952   2.924
    3OL     C17 9480   0.040   3.877   3.112
    3OL     H7R 9481   0.060   3.963   3.176
    3OL     H7S 9482   0.118   3.803   3.131
    3OL     C18 9483  -0.073   3.808   3.189
    3OL     H8R 9484  -0.086   3.711   3.140
    3OL     H8S 9485  -0.164   3.867   3.173
    3OL     C19 9486  -0.043   3.804   3.336
    3OL     H9R 9487   0.012   3.891   3.370
    3OL    C110 9488  -0.069   3.697   3.410
    3OL    H10R 9489  -0.033   3.705   3.513
    3OL    C111 9490  -0.166   3.585   3.385
    3OL    H11R 9491  -0.111   3.492   3.400
    3OL    H11S 9492  -0.203   3.580   3.282
    3OL    C112 9493  -0.283   3.585   3.485
    3OL    H12R 9494  -0.334   3.681   3.472
    3OL    H12S 9495  -0.247   3.595   3.587
    3OL    C113 9496  -0.378   3.466   3.471
    3OL    H13R 9497  -0.335   3.368   3.450
    3OL    H13S 9498  -0.442   3.485   3.385
    3OL    C114 9499  -0.474   3.459   3.590
    3OL    H14R 9500  -0.551   3.386   3.564
    3OL    H14S 9501  -0.516   3.559   3.602
    3OL    C115 9502  -0.403   3.407   3.716
    3OL    H15R 9503  -0.322   3.473   3.749
    3OL    H15S 9504  -0.372   3.304   3.692
    3OL    C116 9505  -0.494   3.395   3.839
    3OL    H16R 9506  -0.430   3.330   3.899
    3OL    H16S 9507  -0.591   3.347   3.831
    3OL    C117 9508  -0.515   3.529   3.912
    3OL    H17R 9509  -0.541   3.599   3.832
    3OL    H17S 9510  -0.417   3.567   3.943
    3OL    C118 9511  -0.618   3.543   4.024
    3OL    H18R 9512  -0.625   3.646   4.062
    3OL    H18S 9513  -0.584   3.490   4.113
    3OL    H18T 9514  -0.711   3.502   3.983
    1PA    C116 9515   2.691   2.965   3.413
    1PA    H16R 9516   2.729   3.008   3.506
    1PA    H16S 9517   2.756   3.003   3.333
    1PA    H16T 9518   2.720   2.861   3.429
    1PA    C115 9519   2.544   2.988   3.377
    1PA    H15R 9520   2.478   2.974   3.463
    1PA    H15S 9521   2.527   3.092   3.347
    1PA    C114 9522   2.501   2.895   3.262
    1PA    H14R 9523   2.562   2.908   3.172
    1PA    H14S 9524   2.526   2.792   3.288
    1PA    C113 9525   2.350   2.905   3.237
    1PA    H13R 9526   2.289   2.901   3.328
    1PA    H13S 9527   2.332   3.006   3.201
    1PA    C112 9528   2.305   2.796   3.138
    1PA    H12R 9529   2.373   2.807   3.053
    1PA    H12S 9530   2.317   2.694   3.176
    1PA    C111 9531   2.162   2.818   3.087
    1PA    H11R 9532   2.134   2.728   3.033
    1PA    H11S 9533   2.098   2.826   3.175
    1PA    C110 9534   2.147   2.950   3.010
    1PA    H10R 9535   2.152   3.044   3.065
    1PA    H10S 9536   2.213   2.951   2.923
    1PA     C19 9537   2.000   2.949   2.967
    1PA     H9R 9538   1.984   2.868   2.896
    1PA     H9S 9539   1.944   2.937   3.060
    1PA     C18 9540   1.958   3.077   2.894
    1PA     H8R 9541   1.969   3.165   2.958
    1PA     H8S 9542   2.021   3.095   2.806
    1PA     C17 9543   1.812   3.062   2.846
    1PA     H7R 9544   1.801   2.979   2.777
    1PA     H7S 9545   1.754   3.045   2.936
    1PA     C16 9546   1.765   3.186   2.768
    1PA     H6R 9547   1.785   3.266   2.839
    1PA     H6S 9548   1.834   3.204   2.684
    1PA     C15 9549   1.617   3.177   2.728
    1PA     H5R 9550   1.586   3.078   2.694
    1PA     H5S 9551   1.564   3.198   2.822
    1PA     C14 9552   1.557   3.278   2.630
    1PA     H4R 9553   1.609   3.273   2.535
    1PA     H4S 9554   1.459   3.244   2.596
    1PA     C13 9555   1.526   3.419   2.684
    1PA     H3R 9556   1.448   3.467   2.624
    1PA     H3S 9557   1.497   3.410   2.789
    1PA     C12 9558   1.652   3.505   2.697
    1PA     H2R 9559   1.634   3.607   2.733
    1PA     H2S 9560   1.729   3.472   2.766
    2PC     C11 9561   1.716   3.526   2.562
    2PC     O12 9562   1.817   3.467   2.528
    2PC     O11 9563   1.649   3.608   2.479
    2PC      C1 9564   1.691   3.615   2.342
    2PC      HR 9565   1.798   3.631   2.326
    2PC      HS 9566   1.680   3.518   2.293
    2PC      C2 9567   1.601   3.725   2.283
    2PC      HX 9568   1.495   3.700   2.286
    2PC      C3 9569   1.648   3.757   2.141
    2PC      HA 9570   1.620   3.677   2.073
    2PC      HB 9571   1.583   3.832   2.094
    2PC     O31 9572   1.790   3.782   2.131
    2PC     P31 9573   1.842   3.799   1.981
    2PC     O32 9574   1.914   3.941   1.995
    2PC     C31 9575   1.856   4.052   2.065
    2PC     H1A 9576   1.747   4.048   2.056
    2PC     H1B 9577   1.895   4.048   2.167
    2PC     C32 9578   1.919   4.181   2.009
    2PC     H2A 9579   1.884   4.259   2.078
    2PC     H2B 9580   2.025   4.162   2.021
    2PC     N31 9581   1.889   4.219   1.867
    2PC     C33 9582   1.949   4.123   1.768
    2PC     H3A 9583   2.053   4.099   1.793
    2PC     H3B 9584   1.889   4.032   1.769
    2PC     H3C 9585   1.946   4.167   1.669
    2PC     C34 9586   1.747   4.255   1.834
    2PC     H4A 9587   1.751   4.251   1.725
    2PC     H4B 9588   1.691   4.170   1.871
    2PC     H4C 9589   1.717   4.350   1.877
    2PC     C35 9590   1.951   4.354   1.849
    2PC     H5A 9591   1.891   4.425   1.908
    2PC     H5B 9592   1.946   4.382   1.744
    2PC     H5C 9593   2.053   4.349   1.886
    2PC     O33 9594   1.945   3.698   1.945
    2PC     O34 9595   1.748   3.793   1.866
    2PC     O21 9596   1.630   3.834   2.373
    2PC     C21 9597   1.552   3.942   2.364
    2PC     O22 9598   1.465   3.956   2.280
    3OL     C12 9599   1.600   4.048   2.460
    3OL     H2R 9600   1.698   4.087   2.432
    3OL     H2S 9601   1.610   3.999   2.557
    3OL     C13 9602   1.503   4.167   2.470
    3OL     H3R 9603   1.400   4.136   2.493
    3OL     H3S 9604   1.492   4.222   2.376
    3OL     C14 9605   1.559   4.252   2.584
    3OL     H4R 9606   1.513   4.351   2.573
    3OL     H4S 9607   1.666   4.271   2.583
    3OL     C15 9608   1.528   4.201   2.726
    3OL     H5R 9609   1.596   4.254   2.794
    3OL     H5S 9610   1.540   4.093   2.738
    3OL     C16 9611   1.388   4.247   2.769
    3OL     H6R 9612   1.317   4.218   2.691
    3OL     H6S 9613   1.389   4.355   2.787
    3OL     C17 9614   1.336   4.167   2.889
    3OL     H7R 9615   1.359   4.062   2.870
    3OL     H7S 9616   1.228   4.183   2.897
    3OL     C18 9617   1.405   4.211   3.019
    3OL     H8R 9618   1.513   4.213   3.003
    3OL     H8S 9619   1.376   4.131   3.088
    3OL     C19 9620   1.364   4.350   3.060
    3OL     H9R 9621   1.324   4.401   2.973
    3OL    C110 9622   1.358   4.401   3.182
    3OL    H10R 9623   1.311   4.498   3.192
    3OL    C111 9624   1.418   4.346   3.309
    3OL    H11R 9625   1.515   4.393   3.327
    3OL    H11S 9626   1.429   4.238   3.308
    3OL    C112 9627   1.335   4.393   3.429
    3OL    H12R 9628   1.232   4.357   3.427
    3OL    H12S 9629   1.324   4.501   3.441
    3OL    C113 9630   1.393   4.345   3.563
    3OL    H13R 9631   1.488   4.395   3.581
    3OL    H13S 9632   1.423   4.240   3.554
    3OL    C114 9633   1.306   4.360   3.689
    3OL    H14R 9634   1.235   4.277   3.682
    3OL    H14S 9635   1.254   4.455   3.682
    3OL    C115 9636   1.387   4.341   3.818
    3OL    H15R 9637   1.454   4.427   3.829
    3OL    H15S 9638   1.444   4.248   3.807
    3OL    C116 9639   1.301   4.321   3.944
    3OL    H16R 9640   1.374   4.310   4.025
    3OL    H16S 9641   1.245   4.228   3.947
    3OL    C117 9642   1.210   4.440   3.979
    3OL    H17R 9643   1.142   4.459   3.897
    3OL    H17S 9644   1.261   4.532   4.005
    3OL    C118 9645   1.133   4.404   4.107
    3OL    H18R 9646   1.207   4.391   4.186
    3OL    H18S 9647   1.082   4.308   4.090
    3OL    H18T 9648   1.057   4.481   4.116
    1PA    C116 9649   5.948   4.694   3.968
    1PA    H16R 9650   5.958   4.690   4.076
    1PA    H16S 9651   5.843   4.711   3.943
    1PA    H16T 9652   6.013   4.772   3.927
    1PA    C115 9653   5.995   4.558   3.915
    1PA    H15R 9654   6.092   4.541   3.962
    1PA    H15S 9655   5.930   4.475   3.942
    1PA    C114 9656   6.002   4.554   3.762
    1PA    H14R 9657   5.904   4.575   3.719
    1PA    H14S 9658   6.072   4.632   3.733
    1PA    C113 9659   6.056   4.416   3.719
    1PA    H13R 9660   6.148   4.398   3.775
    1PA    H13S 9661   5.974   4.347   3.738
    1PA    C112 9662   6.089   4.418   3.569
    1PA    H12R 9663   6.161   4.499   3.560
    1PA    H12S 9664   6.128   4.318   3.545
    1PA    C111 9665   5.973   4.459   3.478
    1PA    H11R 9666   5.890   4.392   3.499
    1PA    H11S 9667   5.940   4.560   3.503
    1PA    C110 9668   6.007   4.447   3.328
    1PA    H10R 9669   6.092   4.509   3.299
    1PA    H10S 9670   6.025   4.340   3.315
    1PA     C19 9671   5.893   4.508   3.246
    1PA     H9R 9672   5.806   4.449   3.278
    1PA     H9S 9673   5.873   4.613   3.268
    1PA     C18 9674   5.926   4.484   3.098
    1PA     H8R 9675   6.008   4.550   3.069
    1PA     H8S 9676   5.940   4.377   3.081
    1PA     C17 9677   5.805   4.533   3.017
    1PA     H7R 9678   5.715   4.485   3.055
    1PA     H7S 9679   5.803   4.642   3.025
    1PA     C16 9680   5.828   4.493   2.870
    1PA     H6R 9681   5.927   4.528   2.840
    1PA     H6S 9682   5.842   4.385   2.862
    1PA     C15 9683   5.716   4.542   2.777
    1PA     H5R 9684   5.627   4.485   2.804
    1PA     H5S 9685   5.696   4.646   2.803
    1PA     C14 9686   5.758   4.528   2.630
    1PA     H4R 9687   5.812   4.433   2.621
    1PA     H4S 9688   5.668   4.521   2.568
    1PA     C13 9689   5.838   4.643   2.568
    1PA     H3R 9690   5.781   4.734   2.586
    1PA     H3S 9691   5.927   4.660   2.629
    1PA     C12 9692   5.865   4.619   2.419
    1PA     H2R 9693   5.768   4.609   2.369
    1PA     H2S 9694   5.924   4.702   2.379
    2PC     C11 9695   5.942   4.492   2.394
    2PC     O12 9696   6.063   4.482   2.389
    2PC     O11 9697   5.852   4.392   2.386
    2PC      C1 9698   5.899   4.258   2.362
    2PC      HR 9699   5.956   4.262   2.269
    2PC      HS 9700   5.969   4.213   2.434
    2PC      C2 9701   5.781   4.164   2.336
    2PC      HX 9702   5.809   4.058   2.339
    2PC      C3 9703   5.719   4.213   2.204
    2PC      HA 9704   5.655   4.295   2.234
    2PC      HB 9705   5.795   4.255   2.138
    2PC     O31 9706   5.655   4.104   2.136
    2PC     P31 9707   5.565   4.147   2.010
    2PC     O32 9708   5.545   4.002   1.946
    2PC     C31 9709   5.609   3.959   1.824
    2PC     H1A 9710   5.717   3.961   1.842
    2PC     H1B 9711   5.574   3.855   1.821
    2PC     C32 9712   5.551   4.025   1.699
    2PC     H2A 9713   5.445   4.002   1.713
    2PC     H2B 9714   5.571   4.132   1.693
    2PC     N31 9715   5.598   3.989   1.561
    2PC     C33 9716   5.551   4.088   1.460
    2PC     H3A 9717   5.559   4.040   1.363
    2PC     H3B 9718   5.442   4.096   1.471
    2PC     H3C 9719   5.604   4.183   1.471
    2PC     C34 9720   5.747   4.000   1.559
    2PC     H4A 9721   5.794   3.918   1.613
    2PC     H4B 9722   5.775   4.003   1.454
    2PC     H4C 9723   5.769   4.097   1.603
    2PC     C35 9724   5.562   3.849   1.519
    2PC     H5A 9725   5.455   3.843   1.501
    2PC     H5B 9726   5.588   3.786   1.604
    2PC     H5C 9727   5.626   3.832   1.432
    2PC     O33 9728   5.427   4.192   2.042
    2PC     O34 9729   5.617   4.250   1.918
    2PC     O21 9730   5.694   4.187   2.448
    2PC     C21 9731   5.734   4.137   2.566
    2PC     O22 9732   5.823   4.056   2.585
    3OL     C12 9733   5.650   4.194   2.677
    3OL     H2R 9734   5.548   4.158   2.658
    3OL     H2S 9735   5.658   4.303   2.686
    3OL     C13 9736   5.704   4.140   2.810
    3OL     H3R 9737   5.800   4.176   2.846
    3OL     H3S 9738   5.702   4.031   2.806
    3OL     C14 9739   5.607   4.179   2.923
    3OL     H4R 9740   5.520   4.114   2.913
    3OL     H4S 9741   5.576   4.284   2.925
    3OL     C15 9742   5.670   4.160   3.062
    3OL     H5R 9743   5.758   4.223   3.079
    3OL     H5S 9744   5.715   4.061   3.063
    3OL     C16 9745   5.573   4.188   3.178
    3OL     H6R 9746   5.484   4.128   3.156
    3OL     H6S 9747   5.542   4.292   3.185
    3OL     C17 9748   5.620   4.137   3.315
    3OL     H7R 9749   5.676   4.220   3.360
    3OL     H7S 9750   5.688   4.052   3.324
    3OL     C18 9751   5.496   4.095   3.397
    3OL     H8R 9752   5.519   4.053   3.495
    3OL     H8S 9753   5.459   4.013   3.335
    3OL     C19 9754   5.397   4.207   3.417
    3OL     H9R 9755   5.441   4.296   3.461
    3OL    C110 9756   5.268   4.204   3.386
    3OL    H10R 9757   5.204   4.291   3.400
    3OL    C111 9758   5.202   4.081   3.331
    3OL    H11R 9759   5.212   4.009   3.413
    3OL    H11S 9760   5.249   4.032   3.245
    3OL    C112 9761   5.054   4.112   3.306
    3OL    H12R 9762   5.010   4.053   3.226
    3OL    H12S 9763   5.040   4.218   3.282
    3OL    C113 9764   4.967   4.094   3.431
    3OL    H13R 9765   4.869   4.117   3.389
    3OL    H13S 9766   4.988   4.170   3.507
    3OL    C114 9767   4.970   3.955   3.496
    3OL    H14R 9768   4.923   3.955   3.594
    3OL    H14S 9769   5.070   3.912   3.508
    3OL    C115 9770   4.903   3.837   3.425
    3OL    H15R 9771   4.937   3.747   3.475
    3OL    H15S 9772   4.925   3.837   3.318
    3OL    C116 9773   4.752   3.836   3.456
    3OL    H16R 9774   4.706   3.931   3.430
    3OL    H16S 9775   4.734   3.819   3.562
    3OL    C117 9776   4.688   3.723   3.375
    3OL    H17R 9777   4.731   3.727   3.275
    3OL    H17S 9778   4.580   3.738   3.366
    3OL    C118 9779   4.704   3.583   3.437
    3OL    H18R 9780   4.807   3.553   3.456
    3OL    H18S 9781   4.652   3.505   3.381
    3OL    H18T 9782   4.666   3.575   3.539
    1PA    C116 9783   4.950   5.909   3.951
    1PA    H16R 9784   4.926   5.928   4.055
    1PA    H16S 9785   4.866   5.866   3.896
    1PA    H16T 9786   4.980   6.010   3.922
    1PA    C115 9787   5.075   5.819   3.957
    1PA    H15R 9788   5.144   5.875   4.021
    1PA    H15S 9789   5.035   5.731   4.008
    1PA    C114 9790   5.134   5.789   3.818
    1PA    H14R 9791   5.112   5.875   3.753
    1PA    H14S 9792   5.240   5.764   3.822
    1PA    C113 9793   5.084   5.663   3.747
    1PA    H13R 9794   5.106   5.569   3.799
    1PA    H13S 9795   4.975   5.668   3.752
    1PA    C112 9796   5.137   5.651   3.604
    1PA    H12R 9797   5.122   5.549   3.567
    1PA    H12S 9798   5.092   5.717   3.529
    1PA    C111 9799   5.287   5.680   3.595
    1PA    H11R 9800   5.299   5.786   3.615
    1PA    H11S 9801   5.341   5.617   3.666
    1PA    C110 9802   5.343   5.653   3.454
    1PA    H10R 9803   5.301   5.718   3.377
    1PA    H10S 9804   5.444   5.694   3.446
    1PA     C19 9805   5.336   5.506   3.410
    1PA     H9R 9806   5.388   5.442   3.482
    1PA     H9S 9807   5.240   5.454   3.407
    1PA     C18 9808   5.415   5.492   3.279
    1PA     H8R 9809   5.360   5.546   3.203
    1PA     H8S 9810   5.513   5.538   3.292
    1PA     C17 9811   5.444   5.349   3.231
    1PA     H7R 9812   5.458   5.280   3.314
    1PA     H7S 9813   5.354   5.310   3.182
    1PA     C16 9814   5.564   5.340   3.137
    1PA     H6R 9815   5.653   5.393   3.173
    1PA     H6S 9816   5.590   5.234   3.143
    1PA     C15 9817   5.525   5.388   2.996
    1PA     H5R 9818   5.444   5.325   2.959
    1PA     H5S 9819   5.502   5.494   3.011
    1PA     C14 9820   5.641   5.390   2.896
    1PA     H4R 9821   5.727   5.440   2.942
    1PA     H4S 9822   5.675   5.286   2.896
    1PA     C13 9823   5.599   5.451   2.762
    1PA     H3R 9824   5.519   5.381   2.736
    1PA     H3S 9825   5.555   5.549   2.779
    1PA     C12 9826   5.713   5.447   2.659
    1PA     H2R 9827   5.789   5.514   2.700
    1PA     H2S 9828   5.752   5.346   2.646
    2PC     C11 9829   5.682   5.501   2.522
    2PC     O12 9830   5.736   5.465   2.419
    2PC     O11 9831   5.573   5.580   2.527
    2PC      C1 9832   5.516   5.627   2.403
    2PC      HR 9833   5.439   5.700   2.429
    2PC      HS 9834   5.587   5.689   2.348
    2PC      C2 9835   5.459   5.517   2.313
    2PC      HX 9836   5.535   5.440   2.298
    2PC      C3 9837   5.421   5.580   2.178
    2PC      HA 9838   5.337   5.649   2.188
    2PC      HB 9839   5.506   5.634   2.138
    2PC     O31 9840   5.377   5.485   2.079
    2PC     P31 9841   5.480   5.377   2.020
    2PC     O32 9842   5.482   5.421   1.865
    2PC     C31 9843   5.582   5.516   1.825
    2PC     H1A 9844   5.563   5.611   1.876
    2PC     H1B 9845   5.685   5.483   1.841
    2PC     C32 9846   5.557   5.535   1.675
    2PC     H2A 9847   5.604   5.455   1.618
    2PC     H2B 9848   5.451   5.532   1.650
    2PC     N31 9849   5.607   5.666   1.622
    2PC     C33 9850   5.743   5.700   1.674
    2PC     H3A 9851   5.728   5.707   1.782
    2PC     H3B 9852   5.810   5.619   1.646
    2PC     H3C 9853   5.777   5.793   1.629
    2PC     C34 9854   5.617   5.644   1.474
    2PC     H4A 9855   5.535   5.586   1.432
    2PC     H4B 9856   5.623   5.744   1.429
    2PC     H4C 9857   5.710   5.591   1.455
    2PC     C35 9858   5.518   5.778   1.668
    2PC     H5A 9859   5.499   5.770   1.775
    2PC     H5B 9860   5.417   5.749   1.640
    2PC     H5C 9861   5.547   5.873   1.622
    2PC     O33 9862   5.618   5.394   2.071
    2PC     O34 9863   5.443   5.236   2.042
    2PC     O21 9864   5.339   5.462   2.370
    2PC     C21 9865   5.361   5.367   2.463
    2PC     O22 9866   5.467   5.315   2.493
    3OL     C12 9867   5.233   5.332   2.534
    3OL     H2R 9868   5.188   5.239   2.498
    3OL     H2S 9869   5.157   5.406   2.507
    3OL     C13 9870   5.250   5.334   2.686
    3OL     H3R 9871   5.279   5.432   2.725
    3OL     H3S 9872   5.329   5.264   2.713
    3OL     C14 9873   5.126   5.279   2.758
    3OL     H4R 9874   5.086   5.186   2.716
    3OL     H4S 9875   5.048   5.355   2.751
    3OL     C15 9876   5.150   5.261   2.909
    3OL     H5R 9877   5.191   5.353   2.952
    3OL     H5S 9878   5.235   5.194   2.920
    3OL     C16 9879   5.027   5.225   2.993
    3OL     H6R 9880   4.997   5.123   2.968
    3OL     H6S 9881   4.949   5.292   2.957
    3OL     C17 9882   5.048   5.237   3.144
    3OL     H7R 9883   5.124   5.313   3.166
    3OL     H7S 9884   5.074   5.145   3.197
    3OL     C18 9885   4.923   5.278   3.223
    3OL     H8R 9886   4.853   5.196   3.213
    3OL     H8S 9887   4.875   5.370   3.188
    3OL     C19 9888   4.960   5.290   3.369
    3OL     H9R 9889   5.045   5.228   3.398
    3OL    C110 9890   4.900   5.357   3.466
    3OL    H10R 9891   4.938   5.344   3.568
    3OL    C111 9892   4.757   5.405   3.467
    3OL    H11R 9893   4.733   5.430   3.363
    3OL    H11S 9894   4.739   5.491   3.531
    3OL    C112 9895   4.669   5.285   3.505
    3OL    H12R 9896   4.682   5.200   3.437
    3OL    H12S 9897   4.568   5.323   3.491
    3OL    C113 9898   4.701   5.234   3.646
    3OL    H13R 9899   4.607   5.204   3.693
    3OL    H13S 9900   4.742   5.313   3.708
    3OL    C114 9901   4.795   5.113   3.649
    3OL    H14R 9902   4.846   5.101   3.745
    3OL    H14S 9903   4.878   5.124   3.579
    3OL    C115 9904   4.719   4.982   3.623
    3OL    H15R 9905   4.670   4.987   3.526
    3OL    H15S 9906   4.644   4.979   3.703
    3OL    C116 9907   4.799   4.852   3.614
    3OL    H16R 9908   4.834   4.829   3.715
    3OL    H16S 9909   4.882   4.861   3.544
    3OL    C117 9910   4.711   4.739   3.559
    3OL    H17R 9911   4.658   4.764   3.467
    3OL    H17S 9912   4.638   4.717   3.639
    3OL    C118 9913   4.793   4.612   3.532
    3OL    H18R 9914   4.853   4.632   3.444
    3OL    H18S 9915   4.730   4.524   3.519
    3OL    H18T 9916   4.872   4.590   3.605
    1PA    C116 9917   0.297   5.316   3.981
    1PA    H16R 9918   0.339   5.398   4.040
    1PA    H16S 9919   0.347   5.227   4.019
    1PA    H16T 9920   0.192   5.303   4.009
    1PA    C115 9921   0.313   5.349   3.832
    1PA    H15R 9922   0.293   5.456   3.823
    1PA    H15S 9923   0.417   5.323   3.812
    1PA    C114 9924   0.206   5.275   3.750
    1PA    H14R 9925   0.218   5.168   3.763
    1PA    H14S 9926   0.110   5.300   3.796
    1PA    C113 9927   0.204   5.303   3.599
    1PA    H13R 9928   0.115   5.261   3.552
    1PA    H13S 9929   0.198   5.411   3.581
    1PA    C112 9930   0.330   5.263   3.521
    1PA    H12R 9931   0.366   5.169   3.565
    1PA    H12S 9932   0.297   5.234   3.421
    1PA    C111 9933   0.438   5.371   3.511
    1PA    H11R 9934   0.422   5.434   3.599
    1PA    H11S 9935   0.540   5.333   3.518
    1PA    C110 9936   0.428   5.455   3.383
    1PA    H10R 9937   0.495   5.541   3.393
    1PA    H10S 9938   0.451   5.403   3.290
    1PA     C19 9939   0.288   5.511   3.358
    1PA     H9R 9940   0.211   5.434   3.350
    1PA     H9S 9941   0.277   5.577   3.444
    1PA     C18 9942   0.276   5.605   3.237
    1PA     H8R 9943   0.197   5.678   3.253
    1PA     H8S 9944   0.362   5.671   3.232
    1PA     C17 9945   0.263   5.534   3.101
    1PA     H7R 9946   0.353   5.474   3.083
    1PA     H7S 9947   0.172   5.474   3.104
    1PA     C16 9948   0.262   5.635   2.986
    1PA     H6R 9949   0.321   5.726   2.996
    1PA     H6S 9950   0.304   5.577   2.903
    1PA     C15 9951   0.120   5.673   2.943
    1PA     H5R 9952   0.074   5.580   2.910
    1PA     H5S 9953   0.075   5.702   3.039
    1PA     C14 9954   0.108   5.782   2.836
    1PA     H4R 9955   0.001   5.803   2.821
    1PA     H4S 9956   0.143   5.878   2.873
    1PA     C13 9957   0.182   5.762   2.703
    1PA     H3R 9958   0.235   5.854   2.675
    1PA     H3S 9959   0.267   5.694   2.715
    1PA     C12 9960   0.088   5.720   2.589
    1PA     H2R 9961   0.010   5.654   2.628
    1PA     H2S 9962   0.040   5.814   2.562
    2PC     C11 9963   0.152   5.657   2.467
    2PC     O12 9964   0.219   5.721   2.389
    2PC     O11 9965   0.127   5.525   2.468
    2PC      C1 9966   0.172   5.432   2.368
    2PC      HR 9967   0.125   5.335   2.382
    2PC      HS 9968   0.137   5.472   2.273
    2PC      C2 9969   0.325   5.417   2.377
    2PC      HX 9970   0.363   5.516   2.350
    2PC      C3 9971   0.372   5.304   2.285
    2PC      HA 9972   0.334   5.314   2.182
    2PC      HB 9973   0.480   5.287   2.292
    2PC     O31 9974   0.317   5.180   2.333
    2PC     P31 9975   0.312   5.047   2.244
    2PC     O32 9976   0.467   5.007   2.241
    2PC     C31 9977   0.534   4.960   2.359
    2PC     H1A 9978   0.515   5.034   2.438
    2PC     H1B 9979   0.492   4.866   2.395
    2PC     C32 9980   0.682   4.939   2.324
    2PC     H2A 9981   0.737   4.923   2.417
    2PC     H2B 9982   0.698   4.848   2.265
    2PC     N31 9983   0.760   5.044   2.251
    2PC     C33 9984   0.766   5.160   2.346
    2PC     H3A 9985   0.820   5.242   2.298
    2PC     H3B 9986   0.663   5.193   2.364
    2PC     H3C 9987   0.805   5.124   2.441
    2PC     C34 9988   0.900   4.996   2.227
    2PC     H4A 9989   0.951   5.061   2.157
    2PC     H4B 9990   0.959   4.983   2.318
    2PC     H4C 9991   0.891   4.904   2.169
    2PC     C35 9992   0.706   5.080   2.116
    2PC     H5A 9993   0.609   5.115   2.152
    2PC     H5B 9994   0.707   4.996   2.045
    2PC     H5C 9995   0.772   5.156   2.074
    2PC     O33 9996   0.213   4.947   2.291
    2PC     O34 9997   0.264   5.075   2.107
    2PC     O21 9998   0.355   5.374   2.511
    2PC     C21 9999   0.481   5.377   2.556
    2PC     O2210000   0.578   5.412   2.492
    3OL     C1210001   0.494   5.332   2.700
    3OL     H2R10002   0.417   5.385   2.757
    3OL     H2S10003   0.593   5.359   2.738
    3OL     C1310004   0.465   5.182   2.708
    3OL     H3R10005   0.534   5.126   2.646
    3OL     H3S10006   0.361   5.165   2.678
    3OL     C1410007   0.482   5.117   2.846
    3OL     H4R10008   0.573   5.150   2.898
    3OL     H4S10009   0.475   5.009   2.837
    3OL     C1510010   0.362   5.160   2.932
    3OL     H5R10011   0.269   5.128   2.884
    3OL     H5S10012   0.360   5.267   2.953
    3OL     C1610013   0.360   5.082   3.064
    3OL     H6R10014   0.457   5.077   3.113
    3OL     H6S10015   0.336   4.976   3.053
    3OL     C1710016   0.271   5.142   3.174
    3OL     H7R10017   0.298   5.246   3.193
    3OL     H7S10018   0.290   5.086   3.266
    3OL     C1810019   0.125   5.111   3.136
    3OL     H8R10020   0.075   5.101   3.233
    3OL     H8S10021   0.112   5.010   3.095
    3OL     C1910022   0.056   5.206   3.042
    3OL     H9R10023   0.058   5.173   2.938
    3OL    C11010024  -0.018   5.310   3.075
    3OL    H10R10025  -0.076   5.363   2.999
    3OL    C11110026  -0.046   5.339   3.220
    3OL    H11R10027  -0.045   5.447   3.239
    3OL    H11S10028   0.014   5.292   3.298
    3OL    C11210029  -0.187   5.290   3.258
    3OL    H12R10030  -0.199   5.186   3.229
    3OL    H12S10031  -0.256   5.355   3.205
    3OL    C11310032  -0.212   5.311   3.408
    3OL    H13R10033  -0.144   5.258   3.476
    3OL    H13S10034  -0.313   5.277   3.428
    3OL    C11410035  -0.202   5.460   3.446
    3OL    H14R10036  -0.263   5.524   3.382
    3OL    H14S10037  -0.103   5.500   3.425
    3OL    C11510038  -0.247   5.500   3.587
    3OL    H15R10039  -0.340   5.448   3.608
    3OL    H15S10040  -0.271   5.607   3.587
    3OL    C11610041  -0.146   5.473   3.699
    3OL    H16R10042  -0.053   5.531   3.691
    3OL    H16S10043  -0.109   5.370   3.695
    3OL    C11710044  -0.211   5.497   3.836
    3OL    H17R10045  -0.279   5.414   3.854
    3OL    H17S10046  -0.270   5.589   3.829
    3OL    C11810047  -0.107   5.486   3.948
    3OL    H18R10048  -0.153   5.505   4.045
    3OL    H18S10049  -0.085   5.380   3.958
    3OL    H18T10050  -0.012   5.536   3.927
    1PA    C11610051   1.704   2.854   3.611
    1PA    H16R10052   1.683   2.786   3.694
    1PA    H16S10053   1.810   2.860   3.587
    1PA    H16T10054   1.652   2.947   3.632
    1PA    C11510055   1.656   2.787   3.481
    1PA    H15R10056   1.700   2.688   3.467
    1PA    H15S10057   1.550   2.762   3.489
    1PA    C11410058   1.693   2.864   3.353
    1PA    H14R10059   1.802   2.871   3.353
    1PA    H14S10060   1.671   2.788   3.277
    1PA    C11310061   1.629   3.000   3.327
    1PA    H13R10062   1.680   3.074   3.388
    1PA    H13S10063   1.637   3.034   3.223
    1PA    C11210064   1.482   3.009   3.371
    1PA    H12R10065   1.426   2.940   3.308
    1PA    H12S10066   1.477   2.972   3.473
    1PA    C11110067   1.428   3.153   3.368
    1PA    H11R10068   1.331   3.154   3.419
    1PA    H11S10069   1.497   3.214   3.426
    1PA    C11010070   1.407   3.203   3.225
    1PA    H10R10071   1.507   3.222   3.185
    1PA    H10S10072   1.368   3.130   3.154
    1PA     C1910073   1.325   3.332   3.221
    1PA     H9R10074   1.227   3.322   3.268
    1PA     H9S10075   1.367   3.409   3.285
    1PA     C1810076   1.300   3.380   3.077
    1PA     H8R10077   1.233   3.466   3.084
    1PA     H8S10078   1.390   3.427   3.036
    1PA     C1710079   1.230   3.281   2.983
    1PA     H7R10080   1.298   3.214   2.931
    1PA     H7S10081   1.153   3.215   3.023
    1PA     C1610082   1.164   3.359   2.868
    1PA     H6R10083   1.090   3.425   2.913
    1PA     H6S10084   1.240   3.420   2.818
    1PA     C1510085   1.098   3.269   2.763
    1PA     H5R10086   1.168   3.198   2.718
    1PA     H5S10087   1.025   3.211   2.821
    1PA     C1410088   1.022   3.356   2.662
    1PA     H4R10089   0.938   3.313   2.606
    1PA     H4S10090   0.963   3.431   2.715
    1PA     C1310091   1.106   3.422   2.552
    1PA     H3R10092   1.036   3.490   2.501
    1PA     H3S10093   1.181   3.485   2.600
    1PA     C1210094   1.166   3.322   2.452
    1PA     H2R10095   1.225   3.245   2.502
    1PA     H2S10096   1.083   3.270   2.403
    2PC     C1110097   1.253   3.394   2.352
    2PC     O1210098   1.345   3.467   2.382
    2PC     O1110099   1.215   3.364   2.226
    2PC      C110100   1.282   3.421   2.113
    2PC      HR10101   1.387   3.447   2.129
    2PC      HS10102   1.279   3.339   2.041
    2PC      C210103   1.190   3.529   2.055
    2PC      HX10104   1.087   3.496   2.038
    2PC      C310105   1.239   3.589   1.922
    2PC      HA10106   1.335   3.642   1.930
    2PC      HB10107   1.252   3.510   1.848
    2PC     O3110108   1.133   3.675   1.878
    2PC     P3110109   1.146   3.725   1.727
    2PC     O3210110   1.022   3.824   1.708
    2PC     C3110111   0.889   3.785   1.670
    2PC     H1A10112   0.884   3.761   1.563
    2PC     H1B10113   0.862   3.697   1.728
    2PC     C3210114   0.794   3.905   1.687
    2PC     H2A10115   0.691   3.870   1.693
    2PC     H2B10116   0.811   3.959   1.780
    2PC     N3110117   0.802   4.010   1.580
    2PC     C3310118   0.719   4.130   1.615
    2PC     H3A10119   0.614   4.103   1.622
    2PC     H3B10120   0.749   4.186   1.704
    2PC     H3C10121   0.730   4.199   1.531
    2PC     C3410122   0.946   4.047   1.560
    2PC     H4A10123   0.990   4.100   1.645
    2PC     H4B10124   1.009   3.963   1.533
    2PC     H4C10125   0.956   4.117   1.477
    2PC     C3510126   0.753   3.950   1.451
    2PC     H5A10127   0.655   3.903   1.462
    2PC     H5B10128   0.825   3.876   1.416
    2PC     H5C10129   0.737   4.028   1.376
    2PC     O3310130   1.276   3.791   1.701
    2PC     O3410131   1.114   3.614   1.634
    2PC     O2110132   1.199   3.645   2.140
    2PC     C2110133   1.102   3.667   2.230
    2PC     O2210134   1.016   3.587   2.260
    3OL     C1210135   1.119   3.794   2.309
    3OL     H2R10136   1.102   3.874   2.236
    3OL     H2S10137   1.226   3.795   2.333
    3OL     C1310138   1.028   3.806   2.432
    3OL     H3R10139   1.053   3.734   2.510
    3OL     H3S10140   0.925   3.784   2.403
    3OL     C1410141   1.023   3.946   2.496
    3OL     H4R10142   0.946   4.015   2.462
    3OL     H4S10143   1.117   3.991   2.464
    3OL     C1510144   1.028   3.938   2.649
    3OL     H5R10145   0.955   3.863   2.680
    3OL     H5S10146   0.997   4.032   2.696
    3OL     C1610147   1.169   3.907   2.701
    3OL     H6R10148   1.171   3.921   2.809
    3OL     H6S10149   1.243   3.970   2.652
    3OL     C1710150   1.211   3.759   2.695
    3OL     H7R10151   1.245   3.732   2.595
    3OL     H7S10152   1.125   3.696   2.717
    3OL     C1810153   1.326   3.720   2.788
    3OL     H8R10154   1.412   3.785   2.767
    3OL     H8S10155   1.367   3.620   2.771
    3OL     C1910156   1.296   3.726   2.936
    3OL     H9R10157   1.192   3.720   2.965
    3OL    C11010158   1.382   3.734   3.036
    3OL    H10R10159   1.342   3.730   3.137
    3OL    C11110160   1.531   3.726   3.015
    3OL    H11R10161   1.578   3.820   3.047
    3OL    H11S10162   1.549   3.708   2.909
    3OL    C11210163   1.592   3.616   3.104
    3OL    H12R10164   1.700   3.616   3.087
    3OL    H12S10165   1.570   3.519   3.060
    3OL    C11310166   1.556   3.616   3.253
    3OL    H13R10167   1.449   3.609   3.273
    3OL    H13S10168   1.577   3.719   3.283
    3OL    C11410169   1.629   3.515   3.342
    3OL    H14R10170   1.735   3.540   3.343
    3OL    H14S10171   1.608   3.417   3.298
    3OL    C11510172   1.569   3.522   3.483
    3OL    H15R10173   1.467   3.485   3.471
    3OL    H15S10174   1.569   3.627   3.513
    3OL    C11610175   1.627   3.439   3.599
    3OL    H16R10176   1.628   3.332   3.581
    3OL    H16S10177   1.571   3.459   3.690
    3OL    C11710178   1.775   3.470   3.624
    3OL    H17R10179   1.791   3.576   3.645
    3OL    H17S10180   1.842   3.451   3.540
    3OL    C11810181   1.832   3.402   3.749
    3OL    H18R10182   1.798   3.459   3.835
    3OL    H18S10183   1.941   3.399   3.748
    3OL    H18T10184   1.800   3.298   3.759
    1PA    C11610185   6.235   3.204   2.856
    1PA    H16R10186   6.282   3.248   2.768
    1PA    H16S10187   6.146   3.151   2.822
    1PA    H16T10188   6.301   3.148   2.923
    1PA    C11510189   6.176   3.322   2.936
    1PA    H15R10190   6.263   3.384   2.957
    1PA    H15S10191   6.108   3.383   2.876
    1PA    C11410192   6.113   3.283   3.070
    1PA    H14R10193   6.182   3.230   3.136
    1PA    H14S10194   6.092   3.379   3.118
    1PA    C11310195   5.992   3.192   3.044
    1PA    H13R10196   5.936   3.229   2.958
    1PA    H13S10197   6.023   3.088   3.028
    1PA    C11210198   5.900   3.187   3.167
    1PA    H12R10199   5.855   3.088   3.178
    1PA    H12S10200   5.966   3.198   3.254
    1PA    C11110201   5.792   3.295   3.160
    1PA    H11R10202   5.839   3.392   3.140
    1PA    H11S10203   5.727   3.265   3.078
    1PA    C11010204   5.725   3.312   3.297
    1PA    H10R10205   5.802   3.330   3.373
    1PA    H10S10206   5.662   3.401   3.294
    1PA     C1910207   5.630   3.208   3.360
    1PA     H9R10208   5.675   3.111   3.337
    1PA     H9S10209   5.617   3.233   3.465
    1PA     C1810210   5.488   3.204   3.302
    1PA     H8R10211   5.433   3.135   3.366
    1PA     H8S10212   5.446   3.305   3.309
    1PA     C1710213   5.475   3.152   3.158
    1PA     H7R10214   5.523   3.212   3.081
    1PA     H7S10215   5.511   3.049   3.152
    1PA     C1610216   5.326   3.165   3.121
    1PA     H6R10217   5.268   3.112   3.197
    1PA     H6S10218   5.293   3.269   3.129
    1PA     C1510219   5.292   3.117   2.980
    1PA     H5R10220   5.187   3.145   2.970
    1PA     H5S10221   5.348   3.175   2.906
    1PA     C1410222   5.306   2.967   2.948
    1PA     H4R10223   5.407   2.930   2.967
    1PA     H4S10224   5.242   2.913   3.018
    1PA     C1310225   5.276   2.931   2.802
    1PA     H3R10226   5.178   2.972   2.776
    1PA     H3S10227   5.353   2.980   2.741
    1PA     C1210228   5.282   2.782   2.769
    1PA     H2R10229   5.388   2.753   2.763
    1PA     H2S10230   5.229   2.725   2.845
    2PC     C1110231   5.219   2.749   2.636
    2PC     O1210232   5.283   2.707   2.541
    2PC     O1110233   5.085   2.761   2.639
    2PC      C110234   5.009   2.722   2.523
    2PC      HR10235   4.904   2.751   2.536
    2PC      HS10236   5.047   2.771   2.433
    2PC      C210237   5.009   2.570   2.500
    2PC      HX10238   5.113   2.538   2.510
    2PC      C310239   4.939   2.533   2.368
    2PC      HA10240   4.830   2.540   2.374
    2PC      HB10241   4.968   2.596   2.284
    2PC     O3110242   4.987   2.403   2.332
    2PC     P3110243   5.025   2.372   2.180
    2PC     O3210244   4.881   2.379   2.109
    2PC     C3110245   4.810   2.254   2.097
    2PC     H1A10246   4.878   2.170   2.115
    2PC     H1B10247   4.734   2.254   2.175
    2PC     C3210248   4.727   2.235   1.970
    2PC     H2A10249   4.687   2.133   1.976
    2PC     H2B10250   4.651   2.313   1.957
    2PC     N3110251   4.800   2.219   1.840
    2PC     C3310252   4.873   2.088   1.841
    2PC     H3A10253   4.966   2.105   1.896
    2PC     H3B10254   4.814   2.010   1.890
    2PC     H3C10255   4.894   2.056   1.739
    2PC     C3410256   4.691   2.218   1.736
    2PC     H4A10257   4.637   2.124   1.733
    2PC     H4B10258   4.620   2.297   1.761
    2PC     H4C10259   4.737   2.246   1.641
    2PC     C3510260   4.895   2.331   1.815
    2PC     H5A10261   4.847   2.428   1.827
    2PC     H5B10262   4.914   2.334   1.707
    2PC     H5C10263   4.986   2.330   1.876
    2PC     O3310264   5.102   2.482   2.118
    2PC     O3410265   5.111   2.254   2.151
    2PC     O2110266   4.944   2.509   2.613
    2PC     C2110267   5.005   2.484   2.730
    2PC     O2210268   5.122   2.506   2.756
    3OL     C1210269   4.912   2.414   2.826
    3OL     H2R10270   4.825   2.372   2.775
    3OL     H2S10271   4.868   2.487   2.895
    3OL     C1310272   4.975   2.297   2.901
    3OL     H3R10273   5.036   2.330   2.986
    3OL     H3S10274   5.028   2.238   2.826
    3OL     C1410275   4.867   2.201   2.952
    3OL     H4R10276   4.901   2.127   3.026
    3OL     H4S10277   4.821   2.146   2.870
    3OL     C1510278   4.755   2.280   3.022
    3OL     H5R10279   4.712   2.354   2.954
    3OL     H5S10280   4.789   2.329   3.113
    3OL     C1610281   4.649   2.180   3.069
    3OL     H6R10282   4.578   2.227   3.138
    3OL     H6S10283   4.694   2.102   3.131
    3OL     C1710284   4.561   2.112   2.963
    3OL     H7R10285   4.617   2.036   2.909
    3OL     H7S10286   4.513   2.183   2.896
    3OL     C1810287   4.449   2.040   3.041
    3OL     H8R10288   4.400   2.119   3.098
    3OL     H8S10289   4.500   1.972   3.109
    3OL     C1910290   4.346   1.981   2.948
    3OL     H9R10291   4.317   2.041   2.863
    3OL    C11010292   4.325   1.851   2.936
    3OL    H10R10293   4.255   1.817   2.860
    3OL    C11110294   4.385   1.748   3.029
    3OL    H11R10295   4.378   1.791   3.129
    3OL    H11S10296   4.491   1.723   3.014
    3OL    C11210297   4.299   1.622   3.040
    3OL    H12R10298   4.293   1.590   2.936
    3OL    H12S10299   4.197   1.652   3.067
    3OL    C11310300   4.358   1.508   3.124
    3OL    H13R10301   4.445   1.470   3.069
    3OL    H13S10302   4.276   1.436   3.119
    3OL    C11410303   4.392   1.544   3.269
    3OL    H14R10304   4.303   1.580   3.319
    3OL    H14S10305   4.463   1.627   3.278
    3OL    C11510306   4.450   1.420   3.338
    3OL    H15R10307   4.512   1.359   3.272
    3OL    H15S10308   4.358   1.365   3.361
    3OL    C11610309   4.504   1.432   3.481
    3OL    H16R10310   4.419   1.461   3.543
    3OL    H16S10311   4.565   1.522   3.488
    3OL    C11710312   4.565   1.312   3.555
    3OL    H17R10313   4.596   1.347   3.654
    3OL    H17S10314   4.655   1.277   3.505
    3OL    C11810315   4.468   1.193   3.557
    3OL    H18R10316   4.526   1.117   3.610
    3OL    H18S10317   4.464   1.153   3.456
    3OL    H18T10318   4.378   1.214   3.615
    1PA    C11610319   5.312   1.476   4.169
    1PA    H16R10320   5.364   1.415   4.243
    1PA    H16S10321   5.224   1.518   4.219
    1PA    H16T10322   5.383   1.555   4.142
    1PA    C11510323   5.250   1.390   4.058
    1PA    H15R10324   5.176   1.318   4.093
    1PA    H15S10325   5.201   1.463   3.993
    1PA    C11410326   5.356   1.324   3.970
    1PA    H14R10327   5.450   1.300   4.020
    1PA    H14S10328   5.311   1.229   3.938
    1PA    C11310329   5.387   1.389   3.834
    1PA    H13R10330   5.300   1.410   3.771
    1PA    H13S10331   5.430   1.485   3.865
    1PA    C11210332   5.497   1.316   3.755
    1PA    H12R10333   5.558   1.384   3.695
    1PA    H12S10334   5.576   1.292   3.826
    1PA    C11110335   5.454   1.192   3.676
    1PA    H11R10336   5.537   1.123   3.668
    1PA    H11S10337   5.380   1.135   3.733
    1PA    C11010338   5.404   1.237   3.538
    1PA    H10R10339   5.327   1.166   3.507
    1PA    H10S10340   5.345   1.328   3.548
    1PA     C1910341   5.504   1.242   3.421
    1PA     H9R10342   5.453   1.290   3.338
    1PA     H9S10343   5.588   1.310   3.441
    1PA     C1810344   5.548   1.103   3.373
    1PA     H8R10345   5.599   1.041   3.447
    1PA     H8S10346   5.460   1.048   3.339
    1PA     C1710347   5.634   1.117   3.246
    1PA     H7R10348   5.702   1.202   3.245
    1PA     H7S10349   5.702   1.033   3.232
    1PA     C1610350   5.546   1.124   3.121
    1PA     H6R10351   5.474   1.043   3.110
    1PA     H6S10352   5.488   1.216   3.124
    1PA     C1510353   5.623   1.134   2.988
    1PA     H5R10354   5.556   1.184   2.919
    1PA     H5S10355   5.719   1.184   3.007
    1PA     C1410356   5.654   0.997   2.927
    1PA     H4R10357   5.747   0.955   2.968
    1PA     H4S10358   5.584   0.919   2.959
    1PA     C1310359   5.683   1.017   2.778
    1PA     H3R10360   5.592   1.056   2.730
    1PA     H3S10361   5.767   1.085   2.761
    1PA     C1210362   5.718   0.878   2.722
    1PA     H2R10363   5.809   0.847   2.774
    1PA     H2S10364   5.632   0.812   2.726
    2PC     C1110365   5.746   0.893   2.574
    2PC     O1210366   5.708   0.990   2.513
    2PC     O1110367   5.816   0.792   2.521
    2PC      C110368   5.824   0.777   2.378
    2PC      HR10369   5.873   0.680   2.372
    2PC      HS10370   5.730   0.753   2.328
    2PC      C210371   5.911   0.883   2.309
    2PC      HX10372   5.857   0.977   2.319
    2PC      C310373   5.934   0.849   2.161
    2PC      HA10374   5.835   0.858   2.117
    2PC      HB10375   5.991   0.932   2.118
    2PC     O3110376   5.993   0.720   2.141
    2PC     P3110377   5.959   0.636   2.008
    2PC     O3210378   6.094   0.591   1.936
    2PC     C3110379   6.125   0.626   1.800
    2PC     H1A10380   6.060   0.579   1.726
    2PC     H1B10381   6.128   0.735   1.790
    2PC     C3210382   6.269   0.586   1.763
    2PC     H2A10383   6.300   0.645   1.677
    2PC     H2B10384   6.325   0.612   1.853
    2PC     N3110385   6.300   0.445   1.725
    2PC     C3310386   6.449   0.437   1.710
    2PC     H3A10387   6.486   0.499   1.629
    2PC     H3B10388   6.490   0.478   1.803
    2PC     H3C10389   6.466   0.331   1.693
    2PC     C3410390   6.237   0.347   1.819
    2PC     H4A10391   6.265   0.375   1.921
    2PC     H4B10392   6.129   0.352   1.810
    2PC     H4C10393   6.270   0.248   1.788
    2PC     C3510394   6.245   0.420   1.588
    2PC     H5A10395   6.287   0.492   1.518
    2PC     H5B10396   6.138   0.442   1.587
    2PC     H5C10397   6.269   0.318   1.556
    2PC     O3310398   5.890   0.516   2.062
    2PC     O3410399   5.870   0.714   1.919
    2PC     O2110400   6.033   0.887   2.386
    2PC     C2110401   6.096   1.004   2.372
    2PC     O2210402   6.073   1.095   2.295
    3OL     C1210403   6.211   1.000   2.470
    3OL     H2R10404   6.291   0.943   2.424
    3OL     H2S10405   6.162   0.947   2.552
    3OL     C1310406   6.240   1.141   2.524
    3OL     H3R10407   6.156   1.210   2.531
    3OL     H3S10408   6.307   1.199   2.461
    3OL     C1410409   6.296   1.141   2.667
    3OL     H4R10410   6.382   1.074   2.669
    3OL     H4S10411   6.230   1.105   2.746
    3OL     C1510412   6.340   1.285   2.701
    3OL     H5R10413   6.258   1.356   2.684
    3OL     H5S10414   6.416   1.312   2.628
    3OL     C1610415   6.381   1.290   2.849
    3OL     H6R10416   6.310   1.245   2.918
    3OL     H6S10417   6.391   1.396   2.875
    3OL     C1710418   6.516   1.226   2.885
    3OL     H7R10419   6.594   1.254   2.815
    3OL     H7S10420   6.508   1.117   2.880
    3OL     C1810421   6.559   1.269   3.026
    3OL     H8R10422   6.474   1.274   3.094
    3OL     H8S10423   6.594   1.371   3.008
    3OL     C1910424   6.668   1.181   3.081
    3OL     H9R10425   6.757   1.179   3.019
    3OL    C11010426   6.672   1.117   3.197
    3OL    H10R10427   6.762   1.063   3.225
    3OL    C11110428   6.562   1.128   3.299
    3OL    H11R10429   6.594   1.066   3.384
    3OL    H11S10430   6.467   1.091   3.260
    3OL    C11210431   6.541   1.264   3.367
    3OL    H12R10432   6.553   1.345   3.296
    3OL    H12S10433   6.619   1.277   3.443
    3OL    C11310434   6.404   1.271   3.437
    3OL    H13R10435   6.395   1.216   3.531
    3OL    H13S10436   6.324   1.244   3.368
    3OL    C11410437   6.374   1.412   3.487
    3OL    H14R10438   6.365   1.479   3.401
    3OL    H14S10439   6.462   1.449   3.541
    3OL    C11510440   6.248   1.418   3.574
    3OL    H15R10441   6.257   1.360   3.666
    3OL    H15S10442   6.160   1.397   3.512
    3OL    C11610443   6.232   1.565   3.616
    3OL    H16R10444   6.208   1.636   3.536
    3OL    H16S10445   6.316   1.604   3.673
    3OL    C11710446   6.119   1.569   3.720
    3OL    H17R10447   6.149   1.524   3.815
    3OL    H17S10448   6.034   1.505   3.697
    3OL    C11810449   6.083   1.715   3.752
    3OL    H18R10450   6.065   1.783   3.669
    3OL    H18S10451   6.161   1.760   3.813
    3OL    H18T10452   5.985   1.710   3.799
    1PA    C11610453   5.590   3.365   3.703
    1PA    H16R10454   5.622   3.277   3.758
    1PA    H16S10455   5.627   3.448   3.764
    1PA    H16T10456   5.650   3.371   3.612
    1PA    C11510457   5.438   3.358   3.682
    1PA    H15R10458   5.429   3.277   3.609
    1PA    H15S10459   5.392   3.324   3.775
    1PA    C11410460   5.367   3.481   3.624
    1PA    H14R10461   5.379   3.569   3.689
    1PA    H14S10462   5.412   3.521   3.532
    1PA    C11310463   5.216   3.458   3.616
    1PA    H13R10464   5.187   3.432   3.718
    1PA    H13S10465   5.166   3.551   3.587
    1PA    C11210466   5.176   3.354   3.510
    1PA    H12R10467   5.161   3.394   3.409
    1PA    H12S10468   5.242   3.268   3.497
    1PA    C11110469   5.034   3.313   3.551
    1PA    H11R10470   5.018   3.301   3.659
    1PA    H11S10471   4.960   3.386   3.521
    1PA    C11010472   5.003   3.177   3.487
    1PA    H10R10473   5.078   3.102   3.511
    1PA    H10S10474   4.907   3.146   3.529
    1PA     C1910475   5.002   3.178   3.334
    1PA     H9R10476   4.951   3.268   3.297
    1PA     H9S10477   5.106   3.180   3.300
    1PA     C1810478   4.938   3.052   3.275
    1PA     H8R10479   5.000   2.970   3.311
    1PA     H8S10480   4.838   3.031   3.315
    1PA     C1710481   4.944   3.069   3.122
    1PA     H7R10482   5.032   3.130   3.100
    1PA     H7S10483   4.953   2.970   3.076
    1PA     C1610484   4.813   3.139   3.083
    1PA     H6R10485   4.724   3.076   3.099
    1PA     H6S10486   4.789   3.231   3.138
    1PA     C1510487   4.817   3.188   2.938
    1PA     H5R10488   4.723   3.238   2.915
    1PA     H5S10489   4.901   3.257   2.935
    1PA     C1410490   4.838   3.080   2.830
    1PA     H4R10491   4.927   3.020   2.852
    1PA     H4S10492   4.746   3.023   2.843
    1PA     C1310493   4.848   3.150   2.694
    1PA     H3R10494   4.768   3.221   2.671
    1PA     H3S10495   4.945   3.199   2.685
    1PA     C1210496   4.853   3.040   2.587
    1PA     H2R10497   4.927   2.964   2.613
    1PA     H2S10498   4.755   2.992   2.591
    2PC     C1110499   4.881   3.097   2.450
    2PC     O1210500   4.833   3.203   2.416
    2PC     O1110501   4.971   3.024   2.382
    2PC      C110502   5.019   3.057   2.250
    2PC      HR10503   5.016   3.165   2.237
    2PC      HS10504   5.121   3.024   2.228
    2PC      C210505   4.916   3.004   2.149
    2PC      HX10506   4.906   2.899   2.177
    2PC      C310507   4.959   3.015   2.002
    2PC      HA10508   5.066   2.990   2.006
    2PC      HB10509   4.896   2.955   1.936
    2PC     O3110510   4.957   3.155   1.968
    2PC     P3110511   5.008   3.202   1.823
    2PC     O3210512   4.886   3.144   1.738
    2PC     C3110513   4.882   3.183   1.600
    2PC     H1A10514   4.872   3.291   1.591
    2PC     H1B10515   4.979   3.149   1.563
    2PC     C3210516   4.761   3.118   1.531
    2PC     H2A10517   4.679   3.129   1.603
    2PC     H2B10518   4.753   3.167   1.434
    2PC     N3110519   4.776   2.971   1.504
    2PC     C3310520   4.642   2.917   1.463
    2PC     H3A10521   4.600   2.981   1.386
    2PC     H3B10522   4.653   2.814   1.428
    2PC     H3C10523   4.578   2.926   1.551
    2PC     C3410524   4.877   2.942   1.397
    2PC     H4A10525   4.878   2.833   1.389
    2PC     H4B10526   4.837   2.993   1.309
    2PC     H4C10527   4.978   2.977   1.416
    2PC     C3510528   4.819   2.902   1.630
    2PC     H5A10529   4.919   2.935   1.658
    2PC     H5B10530   4.815   2.798   1.597
    2PC     H5C10531   4.750   2.916   1.714
    2PC     O3310532   4.996   3.349   1.824
    2PC     O3410533   5.149   3.170   1.788
    2PC     O2110534   4.787   3.064   2.171
    2PC     C2110535   4.676   2.996   2.140
    2PC     O2210536   4.674   2.900   2.065
    3OL     C1210537   4.542   3.039   2.194
    3OL     H2R10538   4.459   2.981   2.153
    3OL     H2S10539   4.517   3.140   2.163
    3OL     C1310540   4.538   3.043   2.348
    3OL     H3R10541   4.626   3.095   2.388
    3OL     H3S10542   4.548   2.938   2.376
    3OL     C1410543   4.406   3.102   2.401
    3OL     H4R10544   4.331   3.023   2.390
    3OL     H4S10545   4.373   3.186   2.340
    3OL     C1510546   4.403   3.144   2.548
    3OL     H5R10547   4.299   3.173   2.570
    3OL     H5S10548   4.458   3.236   2.569
    3OL     C1610549   4.447   3.032   2.644
    3OL     H6R10550   4.556   3.017   2.643
    3OL     H6S10551   4.397   2.940   2.614
    3OL     C1710552   4.405   3.063   2.788
    3OL     H7R10553   4.296   3.067   2.792
    3OL     H7S10554   4.443   3.160   2.821
    3OL     C1810555   4.446   2.951   2.884
    3OL     H8R10556   4.552   2.927   2.869
    3OL     H8S10557   4.387   2.863   2.857
    3OL     C1910558   4.417   2.988   3.027
    3OL     H9R10559   4.363   3.081   3.040
    3OL    C11010560   4.463   2.928   3.136
    3OL    H10R10561   4.447   2.968   3.235
    3OL    C11110562   4.529   2.792   3.126
    3OL    H11R10563   4.621   2.802   3.183
    3OL    H11S10564   4.541   2.761   3.022
    3OL    C11210565   4.431   2.694   3.191
    3OL    H12R10566   4.339   2.687   3.132
    3OL    H12S10567   4.406   2.740   3.288
    3OL    C11310568   4.503   2.563   3.226
    3OL    H13R10569   4.598   2.589   3.272
    3OL    H13S10570   4.532   2.514   3.133
    3OL    C11410571   4.420   2.464   3.309
    3OL    H14R10572   4.458   2.362   3.296
    3OL    H14S10573   4.318   2.453   3.270
    3OL    C11510574   4.414   2.507   3.456
    3OL    H15R10575   4.344   2.591   3.464
    3OL    H15S10576   4.513   2.532   3.497
    3OL    C11610577   4.357   2.404   3.554
    3OL    H16R10578   4.274   2.359   3.499
    3OL    H16S10579   4.320   2.435   3.652
    3OL    C11710580   4.464   2.296   3.578
    3OL    H17R10581   4.505   2.261   3.483
    3OL    H17S10582   4.412   2.217   3.633
    3OL    C11810583   4.575   2.338   3.675
    3OL    H18R10584   4.657   2.386   3.622
    3OL    H18S10585   4.612   2.240   3.708
    3OL    H18T10586   4.540   2.387   3.767
    1PA    C11610587   1.458   2.495   3.320
    1PA    H16R10588   1.416   2.547   3.407
    1PA    H16S10589   1.549   2.549   3.293
    1PA    H16T10590   1.482   2.397   3.360
    1PA    C11510591   1.363   2.494   3.200
    1PA    H15R10592   1.414   2.438   3.121
    1PA    H15S10593   1.281   2.427   3.226
    1PA    C11410594   1.318   2.635   3.158
    1PA    H14R10595   1.397   2.710   3.150
    1PA    H14S10596   1.276   2.629   3.057
    1PA    C11310597   1.209   2.688   3.251
    1PA    H13R10598   1.128   2.616   3.267
    1PA    H13S10599   1.249   2.706   3.351
    1PA    C11210600   1.152   2.825   3.211
    1PA    H12R10601   1.109   2.864   3.303
    1PA    H12S10602   1.238   2.880   3.173
    1PA    C11110603   1.053   2.810   3.095
    1PA    H11R10604   1.111   2.764   3.015
    1PA    H11S10605   0.969   2.743   3.119
    1PA    C11010606   1.000   2.947   3.051
    1PA    H10R10607   0.968   3.010   3.135
    1PA    H10S10608   1.075   3.010   3.003
    1PA     C1910609   0.881   2.928   2.956
    1PA     H9R10610   0.804   2.878   3.014
    1PA     H9S10611   0.839   3.027   2.937
    1PA     C1810612   0.923   2.849   2.831
    1PA     H8R10613   1.024   2.881   2.806
    1PA     H8S10614   0.940   2.742   2.848
    1PA     C1710615   0.818   2.868   2.721
    1PA     H7R10616   0.721   2.858   2.770
    1PA     H7S10617   0.822   2.968   2.676
    1PA     C1610618   0.837   2.763   2.612
    1PA     H6R10619   0.811   2.662   2.644
    1PA     H6S10620   0.758   2.785   2.539
    1PA     C1510621   0.973   2.776   2.542
    1PA     H5R10622   1.058   2.755   2.607
    1PA     H5S10623   0.978   2.703   2.461
    1PA     C1410624   0.989   2.908   2.466
    1PA     H4R10625   0.973   2.997   2.527
    1PA     H4S10626   1.093   2.910   2.433
    1PA     C1310627   0.903   2.909   2.339
    1PA     H3R10628   0.922   2.821   2.278
    1PA     H3S10629   0.797   2.901   2.363
    1PA     C1210630   0.918   3.043   2.265
    1PA     H2R10631   0.822   3.057   2.215
    1PA     H2S10632   0.928   3.123   2.339
    2PC     C1110633   1.035   3.045   2.170
    2PC     O1210634   1.066   3.150   2.118
    2PC     O1110635   1.089   2.927   2.136
    2PC      C110636   1.198   2.919   2.042
    2PC      HR10637   1.219   2.812   2.033
    2PC      HS10638   1.163   2.958   1.946
    2PC      C210639   1.324   2.992   2.088
    2PC      HX10640   1.303   3.100   2.089
    2PC      C310641   1.446   2.955   2.003
    2PC      HA10642   1.520   3.032   2.021
    2PC      HB10643   1.493   2.858   2.022
    2PC     O3110644   1.405   2.949   1.865
    2PC     P3110645   1.492   2.896   1.741
    2PC     O3210646   1.482   3.033   1.660
    2PC     C3110647   1.369   3.052   1.572
    2PC     H1A10648   1.368   2.966   1.504
    2PC     H1B10649   1.271   3.057   1.621
    2PC     C3210650   1.402   3.169   1.478
    2PC     H2A10651   1.505   3.165   1.444
    2PC     H2B10652   1.344   3.175   1.386
    2PC     N3110653   1.401   3.307   1.536
    2PC     C3310654   1.265   3.347   1.584
    2PC     H3A10655   1.267   3.455   1.595
    2PC     H3B10656   1.188   3.320   1.511
    2PC     H3C10657   1.257   3.288   1.676
    2PC     C3410658   1.498   3.310   1.650
    2PC     H4A10659   1.515   3.409   1.692
    2PC     H4B10660   1.460   3.241   1.725
    2PC     H4C10661   1.593   3.274   1.610
    2PC     C3510662   1.456   3.400   1.432
    2PC     H5A10663   1.565   3.388   1.433
    2PC     H5B10664   1.424   3.502   1.453
    2PC     H5C10665   1.410   3.384   1.334
    2PC     O3310666   1.632   2.865   1.779
    2PC     O3410667   1.438   2.787   1.658
    2PC     O2110668   1.352   2.941   2.220
    2PC     C2110669   1.414   3.019   2.310
    2PC     O2210670   1.428   3.140   2.305
    3OL     C1210671   1.460   2.947   2.434
    3OL     H2R10672   1.515   3.018   2.497
    3OL     H2S10673   1.541   2.881   2.402
    3OL     C1310674   1.344   2.873   2.501
    3OL     H3R10675   1.301   2.808   2.424
    3OL     H3S10676   1.272   2.950   2.527
    3OL     C1410677   1.377   2.796   2.630
    3OL     H4R10678   1.296   2.733   2.668
    3OL     H4S10679   1.385   2.880   2.700
    3OL     C1510680   1.507   2.714   2.624
    3OL     H5R10681   1.594   2.778   2.606
    3OL     H5S10682   1.493   2.644   2.542
    3OL     C1610683   1.532   2.646   2.759
    3OL     H6R10684   1.443   2.601   2.804
    3OL     H6S10685   1.571   2.716   2.833
    3OL     C1710686   1.617   2.520   2.737
    3OL     H7R10687   1.719   2.539   2.702
    3OL     H7S10688   1.575   2.449   2.666
    3OL     C1810689   1.629   2.451   2.874
    3OL     H8R10690   1.530   2.414   2.902
    3OL     H8S10691   1.666   2.532   2.938
    3OL     C1910692   1.740   2.351   2.857
    3OL     H9R10693   1.741   2.304   2.759
    3OL    C11010694   1.828   2.325   2.953
    3OL    H10R10695   1.897   2.242   2.942
    3OL    C11110696   1.828   2.376   3.095
    3OL    H11R10697   1.862   2.291   3.154
    3OL    H11S10698   1.727   2.394   3.133
    3OL    C11210699   1.894   2.514   3.109
    3OL    H12R10700   1.832   2.598   3.077
    3OL    H12S10701   1.978   2.529   3.041
    3OL    C11310702   1.934   2.555   3.252
    3OL    H13R10703   1.852   2.546   3.323
    3OL    H13S10704   1.964   2.660   3.246
    3OL    C11410705   2.053   2.471   3.299
    3OL    H14R10706   2.128   2.469   3.220
    3OL    H14S10707   2.022   2.372   3.331
    3OL    C11510708   2.117   2.530   3.426
    3OL    H15R10709   2.041   2.543   3.504
    3OL    H15S10710   2.164   2.625   3.400
    3OL    C11610711   2.232   2.443   3.479
    3OL    H16R10712   2.202   2.338   3.482
    3OL    H16S10713   2.250   2.460   3.585
    3OL    C11710714   2.360   2.442   3.394
    3OL    H17R10715   2.405   2.540   3.382
    3OL    H17S10716   2.339   2.403   3.294
    3OL    C11810717   2.479   2.364   3.451
    3OL    H18R10718   2.502   2.399   3.552
    3OL    H18S10719   2.571   2.381   3.395
    3OL    H18T10720   2.452   2.258   3.460
    1PA    C11610721   5.231   5.520   4.211
    1PA    H16R10722   5.311   5.531   4.283
    1PA    H16S10723   5.153   5.459   4.257
    1PA    H16T10724   5.194   5.621   4.190
    1PA    C11510725   5.279   5.442   4.088
    1PA    H15R10726   5.316   5.340   4.105
    1PA    H15S10727   5.201   5.450   4.012
    1PA    C11410728   5.404   5.514   4.036
    1PA    H14R10729   5.370   5.611   3.999
    1PA    H14S10730   5.480   5.527   4.113
    1PA    C11310731   5.466   5.433   3.921
    1PA    H13R10732   5.524   5.353   3.968
    1PA    H13S10733   5.392   5.391   3.853
    1PA    C11210734   5.557   5.526   3.840
    1PA    H12R10735   5.508   5.614   3.798
    1PA    H12S10736   5.639   5.562   3.903
    1PA    C11110737   5.618   5.452   3.719
    1PA    H11R10738   5.683   5.374   3.759
    1PA    H11S10739   5.543   5.412   3.650
    1PA    C11010740   5.705   5.560   3.653
    1PA    H10R10741   5.634   5.635   3.617
    1PA    H10S10742   5.773   5.612   3.721
    1PA     C1910743   5.774   5.517   3.523
    1PA     H9R10744   5.840   5.431   3.536
    1PA     H9S10745   5.690   5.493   3.457
    1PA     C1810746   5.852   5.636   3.466
    1PA     H8R10747   5.797   5.731   3.473
    1PA     H8S10748   5.950   5.642   3.513
    1PA     C1710749   5.870   5.619   3.315
    1PA     H7R10750   5.909   5.525   3.278
    1PA     H7S10751   5.769   5.618   3.275
    1PA     C1610752   5.937   5.739   3.247
    1PA     H6R10753   5.876   5.825   3.275
    1PA     H6S10754   6.038   5.744   3.288
    1PA     C1510755   5.942   5.719   3.094
    1PA     H5R10756   5.840   5.704   3.059
    1PA     H5S10757   5.958   5.813   3.041
    1PA     C1410758   6.051   5.623   3.044
    1PA     H4R10759   6.145   5.667   3.078
    1PA     H4S10760   6.025   5.522   3.078
    1PA     C1310761   6.042   5.629   2.891
    1PA     H3R10762   5.943   5.594   2.861
    1PA     H3S10763   6.053   5.728   2.848
    1PA     C1210764   6.155   5.540   2.838
    1PA     H2R10765   6.249   5.565   2.887
    1PA     H2S10766   6.124   5.441   2.873
    2PC     C1110767   6.150   5.549   2.688
    2PC     O1210768   6.221   5.623   2.623
    2PC     O1110769   6.048   5.483   2.631
    2PC      C110770   6.064   5.451   2.491
    2PC      HR10771   5.971   5.414   2.447
    2PC      HS10772   6.098   5.540   2.437
    2PC      C210773   6.179   5.352   2.468
    2PC      HX10774   6.274   5.377   2.517
    2PC      C310775   6.219   5.351   2.320
    2PC      HA10776   6.273   5.445   2.307
    2PC      HB10777   6.294   5.276   2.293
    2PC     O3110778   6.103   5.340   2.236
    2PC     P3110779   6.124   5.326   2.078
    2PC     O3210780   6.120   5.169   2.048
    2PC     C3110781   6.222   5.117   1.960
    2PC     H1A10782   6.227   5.177   1.869
    2PC     H1B10783   6.311   5.124   2.023
    2PC     C3210784   6.179   4.973   1.929
    2PC     H2A10785   6.265   4.910   1.906
    2PC     H2B10786   6.135   4.918   2.013
    2PC     N3110787   6.081   4.952   1.818
    2PC     C3310788   6.060   4.804   1.802
    2PC     H3A10789   5.992   4.786   1.719
    2PC     H3B10790   6.148   4.739   1.802
    2PC     H3C10791   6.004   4.765   1.887
    2PC     C3410792   5.942   5.002   1.847
    2PC     H4A10793   5.908   4.961   1.942
    2PC     H4B10794   5.951   5.111   1.846
    2PC     H4C10795   5.870   4.972   1.772
    2PC     C3510796   6.134   5.011   1.691
    2PC     H5A10797   6.069   4.979   1.609
    2PC     H5B10798   6.229   4.959   1.671
    2PC     H5C10799   6.134   5.119   1.696
    2PC     O3310800   6.019   5.390   1.994
    2PC     O3410801   6.244   5.400   2.033
    2PC     O2110802   6.135   5.224   2.515
    2PC     C2110803   6.184   5.178   2.632
    2PC     O2210804   6.266   5.237   2.699
    3OL     C1210805   6.118   5.047   2.666
    3OL     H2R10806   6.153   4.973   2.594
    3OL     H2S10807   6.010   5.049   2.647
    3OL     C1310808   6.145   5.001   2.810
    3OL     H3R10809   6.254   4.997   2.814
    3OL     H3S10810   6.108   4.899   2.820
    3OL     C1410811   6.098   5.093   2.923
    3OL     H4R10812   6.096   5.199   2.895
    3OL     H4S10813   6.159   5.076   3.012
    3OL     C1510814   5.957   5.051   2.968
    3OL     H5R10815   5.898   4.998   2.893
    3OL     H5S10816   5.899   5.143   2.980
    3OL     C1610817   5.953   4.976   3.102
    3OL     H6R10818   6.035   4.907   3.126
    3OL     H6S10819   5.863   4.916   3.107
    3OL     C1710820   5.918   5.082   3.207
    3OL     H7R10821   5.824   5.135   3.189
    3OL     H7S10822   5.993   5.161   3.210
    3OL     C1810823   5.929   5.021   3.348
    3OL     H8R10824   6.024   4.970   3.361
    3OL     H8S10825   5.857   4.942   3.373
    3OL     C1910826   5.920   5.123   3.458
    3OL     H9R10827   5.961   5.221   3.432
    3OL    C11010828   5.864   5.102   3.576
    3OL    H10R10829   5.853   5.178   3.652
    3OL    C11110830   5.820   4.971   3.637
    3OL    H11R10831   5.866   4.963   3.736
    3OL    H11S10832   5.839   4.884   3.574
    3OL    C11210833   5.667   4.974   3.650
    3OL    H12R10834   5.615   4.973   3.554
    3OL    H12S10835   5.646   5.074   3.688
    3OL    C11310836   5.615   4.873   3.753
    3OL    H13R10837   5.517   4.907   3.788
    3OL    H13S10838   5.684   4.891   3.836
    3OL    C11410839   5.624   4.728   3.705
    3OL    H14R10840   5.605   4.660   3.788
    3OL    H14S10841   5.729   4.707   3.683
    3OL    C11510842   5.550   4.711   3.571
    3OL    H15R10843   5.598   4.769   3.492
    3OL    H15S10844   5.450   4.752   3.584
    3OL    C11610845   5.542   4.565   3.523
    3OL    H16R10846   5.507   4.499   3.602
    3OL    H16S10847   5.642   4.535   3.494
    3OL    C11710848   5.444   4.548   3.406
    3OL    H17R10849   5.459   4.459   3.344
    3OL    H17S10850   5.454   4.634   3.339
    3OL    C11810851   5.297   4.556   3.450
    3OL    H18R10852   5.280   4.486   3.532
    3OL    H18S10853   5.238   4.515   3.368
    3OL    H18T10854   5.268   4.654   3.490
    1PA    C11610855   4.277   1.997   3.931
    1PA    H16R10856   4.308   1.938   4.018
    1PA    H16S10857   4.170   1.980   3.922
    1PA    H16T10858   4.286   2.106   3.936
    1PA    C11510859   4.329   1.946   3.796
    1PA    H15R10860   4.275   1.853   3.782
    1PA    H15S10861   4.304   2.013   3.713
    1PA    C11410862   4.478   1.911   3.791
    1PA    H14R10863   4.535   2.000   3.817
    1PA    H14S10864   4.504   1.837   3.866
    1PA    C11310865   4.512   1.847   3.656
    1PA    H13R10866   4.600   1.782   3.660
    1PA    H13S10867   4.434   1.774   3.632
    1PA    C11210868   4.528   1.951   3.544
    1PA    H12R10869   4.501   1.907   3.448
    1PA    H12S10870   4.455   2.032   3.546
    1PA    C11110871   4.671   2.009   3.538
    1PA    H11R10872   4.652   2.116   3.533
    1PA    H11S10873   4.730   1.985   3.627
    1PA    C11010874   4.756   1.982   3.414
    1PA    H10R10875   4.789   1.878   3.420
    1PA    H10S10876   4.711   1.991   3.315
    1PA     C1910877   4.886   2.064   3.423
    1PA     H9R10878   4.874   2.172   3.426
    1PA     H9S10879   4.929   2.045   3.521
    1PA     C1810880   4.990   2.038   3.312
    1PA     H8R10881   5.012   1.932   3.325
    1PA     H8S10882   4.955   2.048   3.209
    1PA     C1710883   5.118   2.116   3.341
    1PA     H7R10884   5.106   2.223   3.320
    1PA     H7S10885   5.144   2.100   3.446
    1PA     C1610886   5.241   2.066   3.264
    1PA     H6R10887   5.318   2.134   3.303
    1PA     H6S10888   5.276   1.969   3.298
    1PA     C1510889   5.242   2.062   3.110
    1PA     H5R10890   5.168   1.999   3.061
    1PA     H5S10891   5.222   2.166   3.083
    1PA     C1410892   5.385   2.021   3.069
    1PA     H4R10893   5.447   2.098   3.117
    1PA     H4S10894   5.413   1.925   3.111
    1PA     C1310895   5.399   2.021   2.917
    1PA     H3R10896   5.354   2.114   2.882
    1PA     H3S10897   5.504   2.016   2.888
    1PA     C1210898   5.323   1.907   2.847
    1PA     H2R10899   5.333   1.808   2.892
    1PA     H2S10900   5.217   1.928   2.863
    2PC     C1110901   5.342   1.900   2.697
    2PC     O1210902   5.274   1.973   2.629
    2PC     O1110903   5.423   1.804   2.650
    2PC      C110904   5.438   1.771   2.511
    2PC      HR10905   5.492   1.676   2.512
    2PC      HS10906   5.338   1.755   2.470
    2PC      C210907   5.504   1.894   2.447
    2PC      HX10908   5.442   1.982   2.463
    2PC      C310909   5.507   1.870   2.295
    2PC      HA10910   5.593   1.812   2.262
    2PC      HB10911   5.425   1.801   2.273
    2PC     O3110912   5.497   1.991   2.218
    2PC     P3110913   5.510   1.967   2.060
    2PC     O3210914   5.669   1.967   2.040
    2PC     C3110915   5.722   2.097   2.008
    2PC     H1A10916   5.674   2.138   1.918
    2PC     H1B10917   5.719   2.174   2.085
    2PC     C3210918   5.868   2.077   1.966
    2PC     H2A10919   5.923   2.171   1.955
    2PC     H2B10920   5.920   2.042   2.056
    2PC     N3110921   5.896   1.975   1.860
    2PC     C3310922   6.035   2.006   1.815
    2PC     H3A10923   6.023   2.089   1.746
    2PC     H3B10924   6.102   2.026   1.898
    2PC     H3C10925   6.070   1.916   1.763
    2PC     C3410926   5.889   1.838   1.920
    2PC     H4A10927   5.943   1.783   1.843
    2PC     H4B10928   5.944   1.831   2.014
    2PC     H4C10929   5.784   1.809   1.928
    2PC     C3510930   5.796   1.982   1.748
    2PC     H5A10931   5.695   1.989   1.789
    2PC     H5B10932   5.798   1.894   1.684
    2PC     H5C10933   5.812   2.075   1.694
    2PC     O3310934   5.458   1.833   2.023
    2PC     O3410935   5.439   2.062   1.972
    2PC     O2110936   5.641   1.909   2.489
    2PC     C2110937   5.660   1.980   2.601
    2PC     O2210938   5.576   2.056   2.643
    3OL     C1210939   5.794   1.949   2.662
    3OL     H2R10940   5.804   2.008   2.753
    3OL     H2S10941   5.879   1.979   2.601
    3OL     C1310942   5.812   1.804   2.709
    3OL     H3R10943   5.913   1.800   2.751
    3OL     H3S10944   5.793   1.745   2.619
    3OL     C1410945   5.704   1.770   2.813
    3OL     H4R10946   5.605   1.766   2.769
    3OL     H4S10947   5.691   1.839   2.897
    3OL     C1510948   5.738   1.635   2.877
    3OL     H5R10949   5.750   1.553   2.807
    3OL     H5S10950   5.652   1.607   2.939
    3OL     C1610951   5.862   1.636   2.968
    3OL     H6R10952   5.866   1.729   3.025
    3OL     H6S10953   5.953   1.629   2.910
    3OL     C1710954   5.864   1.516   3.064
    3OL     H7R10955   5.873   1.428   3.000
    3OL     H7S10956   5.770   1.511   3.119
    3OL     C1810957   5.975   1.523   3.170
    3OL     H8R10958   5.939   1.462   3.253
    3OL     H8S10959   5.987   1.627   3.201
    3OL     C1910960   6.107   1.465   3.127
    3OL     H9R10961   6.097   1.363   3.093
    3OL    C11010962   6.230   1.515   3.133
    3OL    H10R10963   6.313   1.456   3.096
    3OL    C11110964   6.266   1.653   3.182
    3OL    H11R10965   6.368   1.645   3.220
    3OL    H11S10966   6.194   1.689   3.255
    3OL    C11210967   6.254   1.757   3.069
    3OL    H12R10968   6.284   1.861   3.087
    3OL    H12S10969   6.146   1.772   3.058
    3OL    C11310970   6.309   1.714   2.933
    3OL    H13R10971   6.272   1.788   2.861
    3OL    H13S10972   6.272   1.620   2.891
    3OL    C11410973   6.462   1.715   2.943
    3OL    H14R10974   6.489   1.634   3.010
    3OL    H14S10975   6.502   1.807   2.986
    3OL    C11510976   6.531   1.691   2.808
    3OL    H15R10977   6.496   1.760   2.731
    3OL    H15S10978   6.503   1.591   2.774
    3OL    C11610979   6.684   1.708   2.812
    3OL    H16R10980   6.727   1.639   2.885
    3OL    H16S10981   6.706   1.810   2.841
    3OL    C11710982   6.742   1.673   2.674
    3OL    H17R10983   6.726   1.761   2.611
    3OL    H17S10984   6.684   1.586   2.644
    3OL    C11810985   6.892   1.641   2.682
    3OL    H18R10986   6.913   1.544   2.728
    3OL    H18S10987   6.949   1.709   2.747
    3OL    H18T10988   6.929   1.639   2.579
    1PA    C11610989   5.931   4.047   4.120
    1PA    H16R10990   5.939   4.148   4.079
    1PA    H16S10991   5.982   4.044   4.217
    1PA    H16T10992   5.824   4.032   4.131
    1PA    C11510993   6.003   3.942   4.034
    1PA    H15R10994   6.109   3.966   4.038
    1PA    H15S10995   5.987   3.844   4.078
    1PA    C11410996   5.949   3.925   3.891
    1PA    H14R10997   5.982   3.835   3.840
    1PA    H14S10998   5.840   3.918   3.895
    1PA    C11310999   6.002   4.037   3.800
    1PA    H13R11000   5.982   4.132   3.850
    1PA    H13S11001   6.111   4.031   3.804
    1PA    C11211002   5.945   4.046   3.658
    1PA    H12R11003   5.836   4.058   3.663
    1PA    H12S11004   5.975   4.141   3.615
    1PA    C11111005   6.000   3.936   3.566
    1PA    H11R11006   6.108   3.928   3.581
    1PA    H11S11007   5.955   3.844   3.603
    1PA    C11011008   5.960   3.948   3.418
    1PA    H10R11009   5.952   3.848   3.375
    1PA    H10S11010   5.863   3.996   3.401
    1PA     C1911011   6.070   4.029   3.347
    1PA     H9R11012   6.065   4.131   3.387
    1PA     H9S11013   6.169   3.986   3.362
    1PA     C1811014   6.034   4.026   3.198
    1PA     H8R11015   6.052   3.925   3.161
    1PA     H8S11016   5.929   4.044   3.175
    1PA     C1711017   6.118   4.129   3.121
    1PA     H7R11018   6.085   4.228   3.153
    1PA     H7S11019   6.224   4.110   3.139
    1PA     C1611020   6.086   4.115   2.971
    1PA     H6R11021   6.110   4.013   2.941
    1PA     H6S11022   5.979   4.127   2.956
    1PA     C1511023   6.166   4.231   2.910
    1PA     H5R11024   6.126   4.324   2.950
    1PA     H5S11025   6.273   4.231   2.934
    1PA     C1411026   6.139   4.227   2.759
    1PA     H4R11027   6.034   4.201   2.749
    1PA     H4S11028   6.149   4.328   2.719
    1PA     C1311029   6.230   4.134   2.676
    1PA     H3R11030   6.209   4.033   2.713
    1PA     H3S11031   6.204   4.140   2.571
    1PA     C1211032   6.381   4.161   2.683
    1PA     H2R11033   6.409   4.192   2.784
    1PA     H2S11034   6.443   4.077   2.652
    2PC     C1111035   6.419   4.278   2.596
    2PC     O1211036   6.429   4.260   2.476
    2PC     O1111037   6.447   4.392   2.661
    2PC      C111038   6.451   4.516   2.589
    2PC      HR11039   6.509   4.589   2.646
    2PC      HS11040   6.503   4.512   2.494
    2PC      C211041   6.312   4.578   2.566
    2PC      HX11042   6.249   4.505   2.515
    2PC      C311043   6.309   4.706   2.482
    2PC      HA11044   6.373   4.784   2.525
    2PC      HB11045   6.352   4.675   2.387
    2PC     O3111046   6.173   4.746   2.460
    2PC     P3111047   6.142   4.845   2.338
    2PC     O3211048   6.014   4.932   2.380
    2PC     C3111049   5.990   5.044   2.293
    2PC     H1A11050   6.079   5.108   2.298
    2PC     H1B11051   5.990   4.994   2.195
    2PC     C3211052   5.862   5.122   2.323
    2PC     H2A11053   5.876   5.162   2.423
    2PC     H2B11054   5.861   5.207   2.254
    2PC     N3111055   5.728   5.055   2.319
    2PC     C3311056   5.707   4.983   2.449
    2PC     H3A11057   5.769   4.895   2.431
    2PC     H3B11058   5.735   5.047   2.532
    2PC     H3C11059   5.599   4.970   2.450
    2PC     C3411060   5.629   5.167   2.309
    2PC     H4A11061   5.638   5.221   2.215
    2PC     H4B11062   5.530   5.129   2.334
    2PC     H4C11063   5.660   5.247   2.377
    2PC     C3511064   5.714   4.961   2.204
    2PC     H5A11065   5.787   4.882   2.220
    2PC     H5B11066   5.722   5.013   2.109
    2PC     H5C11067   5.615   4.915   2.208
    2PC     O3311068   6.262   4.924   2.302
    2PC     O3411069   6.117   4.768   2.214
    2PC     O2111070   6.254   4.595   2.697
    2PC     C2111071   6.310   4.681   2.783
    2PC     O2211072   6.410   4.747   2.764
    3OL     C1211073   6.228   4.670   2.909
    3OL     H2R11074   6.223   4.568   2.948
    3OL     H2S11075   6.123   4.693   2.887
    3OL     C1311076   6.283   4.761   3.020
    3OL     H3R11077   6.263   4.868   3.011
    3OL     H3S11078   6.391   4.745   3.025
    3OL     C1411079   6.229   4.709   3.154
    3OL     H4R11080   6.256   4.604   3.166
    3OL     H4S11081   6.120   4.708   3.143
    3OL     C1511082   6.292   4.782   3.273
    3OL     H5R11083   6.280   4.890   3.259
    3OL     H5S11084   6.399   4.764   3.279
    3OL     C1611085   6.217   4.740   3.400
    3OL     H6R11086   6.210   4.632   3.414
    3OL     H6S11087   6.115   4.774   3.383
    3OL     C1711088   6.273   4.810   3.526
    3OL     H7R11089   6.213   4.782   3.613
    3OL     H7S11090   6.255   4.917   3.515
    3OL     C1811091   6.418   4.773   3.559
    3OL     H8R11092   6.481   4.838   3.497
    3OL     H8S11093   6.438   4.669   3.532
    3OL     C1911094   6.439   4.800   3.706
    3OL     H9R11095   6.465   4.904   3.727
    3OL    C11011096   6.445   4.714   3.806
    3OL    H10R11097   6.481   4.753   3.900
    3OL    C11111098   6.406   4.568   3.804
    3OL    H11R11099   6.420   4.514   3.711
    3OL    H11S11100   6.301   4.564   3.835
    3OL    C11211101   6.470   4.496   3.924
    3OL    H12R11102   6.440   4.547   4.016
    3OL    H12S11103   6.577   4.511   3.914
    3OL    C11311104   6.436   4.347   3.919
    3OL    H13R11105   6.525   4.288   3.945
    3OL    H13S11106   6.424   4.322   3.813
    3OL    C11411107   6.304   4.304   3.985
    3OL    H14R11108   6.276   4.207   3.944
    3OL    H14S11109   6.230   4.379   3.955
    3OL    C11511110   6.321   4.288   4.137
    3OL    H15R11111   6.233   4.314   4.195
    3OL    H15S11112   6.395   4.361   4.171
    3OL    C11611113   6.361   4.145   4.175
    3OL    H16R11114   6.453   4.126   4.119
    3OL    H16S11115   6.287   4.073   4.138
    3OL    C11711116   6.389   4.101   4.319
    3OL    H17R11117   6.472   4.160   4.359
    3OL    H17S11118   6.417   3.996   4.331
    3OL    C11811119   6.270   4.134   4.410
    3OL    H18R11120   6.283   4.085   4.507
    3OL    H18S11121   6.173   4.102   4.372
    3OL    H18T11122   6.265   4.243   4.422
    1PA    C11611123   1.481   2.451   4.220
    1PA    H16R11124   1.585   2.472   4.242
    1PA    H16S11125   1.457   2.345   4.232
    1PA    H16T11126   1.432   2.487   4.311
    1PA    C11511127   1.434   2.499   4.083
    1PA    H15R11128   1.332   2.460   4.077
    1PA    H15S11129   1.419   2.608   4.087
    1PA    C11411130   1.532   2.447   3.977
    1PA    H14R11131   1.629   2.484   4.011
    1PA    H14S11132   1.545   2.339   3.986
    1PA    C11311133   1.488   2.484   3.835
    1PA    H13R11134   1.403   2.420   3.809
    1PA    H13S11135   1.464   2.591   3.838
    1PA    C11211136   1.606   2.468   3.739
    1PA    H12R11137   1.595   2.543   3.661
    1PA    H12S11138   1.704   2.480   3.785
    1PA    C11111139   1.591   2.330   3.673
    1PA    H11R11140   1.622   2.264   3.755
    1PA    H11S11141   1.488   2.323   3.639
    1PA    C11011142   1.697   2.309   3.564
    1PA    H10R11143   1.680   2.370   3.475
    1PA    H10S11144   1.799   2.335   3.594
    1PA     C1911145   1.705   2.161   3.525
    1PA     H9R11146   1.794   2.135   3.466
    1PA     H9S11147   1.724   2.101   3.614
    1PA     C1811148   1.578   2.104   3.460
    1PA     H8R11149   1.579   1.997   3.483
    1PA     H8S11150   1.486   2.156   3.486
    1PA     C1711151   1.598   2.105   3.307
    1PA     H7R11152   1.634   2.200   3.266
    1PA     H7S11153   1.670   2.024   3.293
    1PA     C1611154   1.471   2.056   3.238
    1PA     H6R11155   1.444   1.953   3.262
    1PA     H6S11156   1.384   2.105   3.283
    1PA     C1511157   1.482   2.081   3.087
    1PA     H5R11158   1.520   2.182   3.070
    1PA     H5S11159   1.560   2.015   3.049
    1PA     C1411160   1.362   2.080   2.991
    1PA     H4R11161   1.303   1.988   3.000
    1PA     H4S11162   1.284   2.145   3.032
    1PA     C1311163   1.386   2.117   2.844
    1PA     H3R11164   1.305   2.089   2.775
    1PA     H3S11165   1.382   2.225   2.837
    1PA     C1211166   1.524   2.079   2.790
    1PA     H2R11167   1.602   2.149   2.821
    1PA     H2S11168   1.551   1.982   2.831
    2PC     C1111169   1.530   2.073   2.639
    2PC     O1211170   1.461   2.010   2.561
    2PC     O1111171   1.631   2.151   2.599
    2PC      C111172   1.657   2.170   2.458
    2PC      HR11173   1.707   2.084   2.413
    2PC      HS11174   1.566   2.186   2.400
    2PC      C211175   1.766   2.275   2.436
    2PC      HX11176   1.746   2.363   2.498
    2PC      C311177   1.779   2.318   2.289
    2PC      HA11178   1.688   2.370   2.258
    2PC      HB11179   1.860   2.390   2.278
    2PC     O3111180   1.795   2.209   2.196
    2PC     P3111181   1.835   2.241   2.045
    2PC     O3211182   1.844   2.092   1.988
    2PC     C3111183   1.786   2.065   1.859
    2PC     H1A11184   1.677   2.059   1.870
    2PC     H1B11185   1.811   2.145   1.789
    2PC     C3211186   1.840   1.934   1.801
    2PC     H2A11187   1.806   1.857   1.870
    2PC     H2B11188   1.795   1.910   1.705
    2PC     N3111189   1.989   1.918   1.786
    2PC     C3311190   2.074   1.946   1.906
    2PC     H3A11191   2.042   1.877   1.984
    2PC     H3B11192   2.178   1.925   1.879
    2PC     H3C11193   2.067   2.051   1.932
    2PC     C3411194   2.010   1.779   1.733
    2PC     H4A11195   1.979   1.703   1.804
    2PC     H4B11196   1.953   1.775   1.640
    2PC     H4C11197   2.112   1.763   1.696
    2PC     C3511198   2.035   2.008   1.675
    2PC     H5A11199   2.048   2.111   1.709
    2PC     H5B11200   1.949   2.003   1.609
    2PC     H5C11201   2.127   1.964   1.637
    2PC     O3311202   1.736   2.326   1.973
    2PC     O3411203   1.968   2.305   2.032
    2PC     O2111204   1.886   2.215   2.489
    2PC     C2111205   1.997   2.289   2.506
    2PC     O2211206   2.006   2.404   2.470
    3OL     C1211207   2.101   2.204   2.574
    3OL     H2R11208   2.190   2.199   2.512
    3OL     H2S11209   2.062   2.102   2.584
    3OL     C1311210   2.133   2.267   2.710
    3OL     H3R11211   2.160   2.190   2.783
    3OL     H3S11212   2.044   2.314   2.754
    3OL     C1411213   2.239   2.377   2.696
    3OL     H4R11214   2.189   2.468   2.662
    3OL     H4S11215   2.305   2.342   2.617
    3OL     C1511216   2.309   2.399   2.830
    3OL     H5R11217   2.357   2.308   2.866
    3OL     H5S11218   2.235   2.429   2.905
    3OL     C1611219   2.423   2.502   2.824
    3OL     H6R11220   2.375   2.597   2.797
    3OL     H6S11221   2.494   2.481   2.744
    3OL     C1711222   2.489   2.507   2.963
    3OL     H7R11223   2.520   2.406   2.990
    3OL     H7S11224   2.413   2.540   3.034
    3OL     C1811225   2.614   2.596   2.957
    3OL     H8R11226   2.577   2.697   2.938
    3OL     H8S11227   2.673   2.562   2.872
    3OL     C1911228   2.681   2.578   3.091
    3OL     H9R11229   2.616   2.532   3.164
    3OL    C11011230   2.788   2.642   3.135
    3OL    H10R11231   2.817   2.650   3.240
    3OL    C11111232   2.870   2.740   3.054
    3OL    H11R11233   2.851   2.843   3.086
    3OL    H11S11234   2.852   2.740   2.947
    3OL    C11211235   3.021   2.717   3.071
    3OL    H12R11236   3.048   2.721   3.177
    3OL    H12S11237   3.075   2.794   3.016
    3OL    C11311238   3.070   2.578   3.028
    3OL    H13R11239   3.062   2.576   2.919
    3OL    H13S11240   3.016   2.489   3.061
    3OL    C11411241   3.215   2.552   3.070
    3OL    H14R11242   3.279   2.635   3.039
    3OL    H14S11243   3.237   2.466   3.006
    3OL    C11511244   3.231   2.492   3.210
    3OL    H15R11245   3.162   2.412   3.234
    3OL    H15S11246   3.220   2.573   3.282
    3OL    C11611247   3.374   2.442   3.237
    3OL    H16R11248   3.444   2.526   3.234
    3OL    H16S11249   3.395   2.377   3.152
    3OL    C11711250   3.399   2.356   3.361
    3OL    H17R11251   3.365   2.253   3.344
    3OL    H17S11252   3.335   2.388   3.444
    3OL    C11811253   3.545   2.364   3.407
    3OL    H18R11254   3.560   2.326   3.508
    3OL    H18S11255   3.572   2.469   3.394
    3OL    H18T11256   3.611   2.302   3.346
    1PA    C11611257   1.950   1.231   3.599
    1PA    H16R11258   2.039   1.245   3.662
    1PA    H16S11259   1.942   1.128   3.564
    1PA    H16T11260   1.866   1.243   3.668
    1PA    C11511261   1.939   1.331   3.483
    1PA    H15R11262   1.845   1.307   3.434
    1PA    H15S11263   1.926   1.433   3.519
    1PA    C11411264   2.060   1.333   3.388
    1PA    H14R11265   2.145   1.377   3.439
    1PA    H14S11266   2.096   1.231   3.373
    1PA    C11311267   2.018   1.402   3.258
    1PA    H13R11268   1.929   1.347   3.226
    1PA    H13S11269   1.990   1.507   3.267
    1PA    C11211270   2.115   1.384   3.140
    1PA    H12R11271   2.212   1.416   3.179
    1PA    H12S11272   2.132   1.279   3.116
    1PA    C11111273   2.075   1.454   3.010
    1PA    H11R11274   1.971   1.433   2.984
    1PA    H11S11275   2.084   1.562   3.025
    1PA    C11011276   2.176   1.405   2.906
    1PA    H10R11277   2.273   1.412   2.956
    1PA    H10S11278   2.136   1.308   2.878
    1PA     C1911279   2.176   1.490   2.778
    1PA     H9R11280   2.226   1.432   2.700
    1PA     H9S11281   2.073   1.506   2.745
    1PA     C1811282   2.251   1.622   2.796
    1PA     H8R11283   2.184   1.678   2.862
    1PA     H8S11284   2.351   1.610   2.838
    1PA     C1711285   2.270   1.702   2.666
    1PA     H7R11286   2.317   1.646   2.585
    1PA     H7S11287   2.175   1.732   2.621
    1PA     C1611288   2.344   1.833   2.696
    1PA     H6R11289   2.281   1.900   2.754
    1PA     H6S11290   2.436   1.804   2.748
    1PA     C1511291   2.383   1.921   2.576
    1PA     H5R11292   2.452   1.856   2.521
    1PA     H5S11293   2.297   1.935   2.510
    1PA     C1411294   2.438   2.055   2.626
    1PA     H4R11295   2.448   2.114   2.534
    1PA     H4S11296   2.369   2.103   2.695
    1PA     C1311297   2.577   2.046   2.690
    1PA     H3R11298   2.573   1.990   2.784
    1PA     H3S11299   2.649   1.991   2.629
    1PA     C1211300   2.632   2.186   2.718
    1PA     H2R11301   2.547   2.248   2.748
    1PA     H2S11302   2.711   2.177   2.793
    2PC     C1111303   2.691   2.252   2.595
    2PC     O1211304   2.722   2.189   2.496
    2PC     O1111305   2.708   2.384   2.611
    2PC      C111306   2.756   2.457   2.496
    2PC      HR11307   2.813   2.546   2.523
    2PC      HS11308   2.826   2.402   2.433
    2PC      C211309   2.634   2.520   2.427
    2PC      HX11310   2.556   2.445   2.415
    2PC      C311311   2.662   2.572   2.285
    2PC      HA11312   2.729   2.658   2.294
    2PC      HB11313   2.727   2.499   2.237
    2PC     O3111314   2.544   2.598   2.207
    2PC     P3111315   2.557   2.675   2.066
    2PC     O3211316   2.537   2.828   2.110
    2PC     C3111317   2.410   2.879   2.155
    2PC     H1A11318   2.324   2.874   2.088
    2PC     H1B11319   2.390   2.837   2.254
    2PC     C3211320   2.429   3.030   2.177
    2PC     H2A11321   2.336   3.066   2.221
    2PC     H2B11322   2.520   3.044   2.235
    2PC     N3111323   2.461   3.121   2.062
    2PC     C3311324   2.457   3.262   2.113
    2PC     H3A11325   2.552   3.277   2.165
    2PC     H3B11326   2.451   3.332   2.030
    2PC     H3C11327   2.369   3.270   2.176
    2PC     C3411328   2.597   3.096   2.004
    2PC     H4A11329   2.599   2.989   1.987
    2PC     H4B11330   2.607   3.158   1.914
    2PC     H4C11331   2.672   3.125   2.078
    2PC     C3511332   2.359   3.113   1.952
    2PC     H5A11333   2.339   3.007   1.935
    2PC     H5B11334   2.394   3.155   1.858
    2PC     H5C11335   2.264   3.156   1.986
    2PC     O3311336   2.672   2.640   1.980
    2PC     O3411337   2.451   2.638   1.969
    2PC     O2111338   2.584   2.623   2.513
    2PC     C2111339   2.458   2.667   2.494
    2PC     O2211340   2.370   2.621   2.424
    3OL     C1211341   2.443   2.797   2.569
    3OL     H2R11342   2.524   2.860   2.531
    3OL     H2S11343   2.472   2.774   2.672
    3OL     C1311344   2.298   2.842   2.549
    3OL     H3R11345   2.233   2.770   2.600
    3OL     H3S11346   2.278   2.838   2.441
    3OL     C1411347   2.275   2.982   2.606
    3OL     H4R11348   2.300   2.980   2.713
    3OL     H4S11349   2.169   2.991   2.582
    3OL     C1511350   2.353   3.084   2.521
    3OL     H5R11351   2.307   3.101   2.423
    3OL     H5S11352   2.451   3.040   2.505
    3OL     C1611353   2.358   3.222   2.588
    3OL     H6R11354   2.430   3.286   2.536
    3OL     H6S11355   2.392   3.214   2.691
    3OL     C1711356   2.218   3.283   2.575
    3OL     H7R11357   2.142   3.214   2.613
    3OL     H7S11358   2.202   3.307   2.470
    3OL     C1811359   2.201   3.418   2.646
    3OL     H8R11360   2.248   3.409   2.745
    3OL     H8S11361   2.093   3.425   2.655
    3OL     C1911362   2.258   3.531   2.565
    3OL     H9R11363   2.181   3.574   2.501
    3OL    C11011364   2.375   3.591   2.582
    3OL    H10R11365   2.395   3.681   2.524
    3OL    C11111366   2.483   3.539   2.673
    3OL    H11R11367   2.476   3.431   2.688
    3OL    H11S11368   2.467   3.597   2.764
    3OL    C11211369   2.623   3.567   2.618
    3OL    H12R11370   2.636   3.675   2.609
    3OL    H12S11371   2.657   3.516   2.527
    3OL    C11311372   2.735   3.522   2.712
    3OL    H13R11373   2.833   3.524   2.664
    3OL    H13S11374   2.715   3.421   2.747
    3OL    C11411375   2.754   3.615   2.833
    3OL    H14R11376   2.661   3.620   2.891
    3OL    H14S11377   2.763   3.715   2.789
    3OL    C11511378   2.867   3.576   2.929
    3OL    H15R11379   2.931   3.511   2.870
    3OL    H15S11380   2.832   3.504   3.003
    3OL    C11611381   2.945   3.698   2.981
    3OL    H16R11382   2.998   3.744   2.896
    3OL    H16S11383   3.022   3.658   3.047
    3OL    C11711384   2.861   3.808   3.046
    3OL    H17R11385   2.788   3.860   2.982
    3OL    H17S11386   2.918   3.895   3.078
    3OL    C11811387   2.759   3.764   3.153
    3OL    H18R11388   2.709   3.852   3.194
    3OL    H18S11389   2.804   3.724   3.244
    3OL    H18T11390   2.694   3.693   3.103
    1PA    C11611391   3.440   4.054   3.843
    1PA    H16R11392   3.484   4.054   3.743
    1PA    H16S11393   3.332   4.069   3.834
    1PA    H16T11394   3.456   3.956   3.886
    1PA    C11511395   3.470   4.181   3.924
    1PA    H15R11396   3.431   4.268   3.870
    1PA    H15S11397   3.410   4.168   4.014
    1PA    C11411398   3.619   4.185   3.959
    1PA    H14R11399   3.649   4.106   4.029
    1PA    H14S11400   3.678   4.164   3.869
    1PA    C11311401   3.665   4.322   4.010
    1PA    H13R11402   3.607   4.333   4.101
    1PA    H13S11403   3.773   4.323   4.028
    1PA    C11211404   3.632   4.439   3.916
    1PA    H12R11405   3.659   4.412   3.814
    1PA    H12S11406   3.524   4.453   3.916
    1PA    C11111407   3.692   4.572   3.962
    1PA    H11R11408   3.657   4.587   4.064
    1PA    H11S11409   3.801   4.578   3.963
    1PA    C11011410   3.642   4.682   3.867
    1PA    H10R11411   3.540   4.658   3.834
    1PA    H10S11412   3.654   4.781   3.911
    1PA     C1911413   3.722   4.691   3.736
    1PA     H9R11414   3.821   4.737   3.741
    1PA     H9S11415   3.736   4.598   3.682
    1PA     C1811416   3.644   4.764   3.626
    1PA     H8R11417   3.549   4.709   3.622
    1PA     H8S11418   3.617   4.861   3.667
    1PA     C1711419   3.722   4.765   3.493
    1PA     H7R11420   3.809   4.829   3.505
    1PA     H7S11421   3.747   4.661   3.471
    1PA     C1611422   3.638   4.832   3.383
    1PA     H6R11423   3.552   4.766   3.373
    1PA     H6S11424   3.606   4.931   3.416
    1PA     C1511425   3.724   4.830   3.256
    1PA     H5R11426   3.809   4.897   3.272
    1PA     H5S11427   3.761   4.731   3.229
    1PA     C1411428   3.651   4.904   3.143
    1PA     H4R11429   3.551   4.863   3.128
    1PA     H4S11430   3.640   5.008   3.174
    1PA     C1311431   3.726   4.903   3.009
    1PA     H3R11432   3.829   4.938   3.021
    1PA     H3S11433   3.724   4.801   2.969
    1PA     C1211434   3.646   4.993   2.914
    1PA     H2R11435   3.544   4.956   2.907
    1PA     H2S11436   3.654   5.096   2.948
    2PC     C1111437   3.700   4.981   2.774
    2PC     O1211438   3.635   4.975   2.672
    2PC     O1111439   3.835   4.986   2.770
    2PC      C111440   3.899   4.963   2.644
    2PC      HR11441   3.862   5.030   2.566
    2PC      HS11442   4.004   4.985   2.664
    2PC      C211443   3.896   4.818   2.593
    2PC      HX11444   3.946   4.745   2.658
    2PC      C311445   3.975   4.818   2.461
    2PC      HA11446   3.937   4.893   2.391
    2PC      HB11447   4.081   4.837   2.480
    2PC     O3111448   3.960   4.690   2.396
    2PC     P3111449   4.048   4.652   2.267
    2PC     O3211450   4.001   4.500   2.249
    2PC     C3111451   3.864   4.466   2.219
    2PC     H1A11452   3.789   4.515   2.282
    2PC     H1B11453   3.844   4.502   2.117
    2PC     C3211454   3.847   4.314   2.229
    2PC     H2A11455   3.900   4.292   2.322
    2PC     H2B11456   3.739   4.298   2.237
    2PC     N3111457   3.901   4.225   2.122
    2PC     C3311458   3.848   4.256   1.985
    2PC     H3A11459   3.820   4.154   1.958
    2PC     H3B11460   3.752   4.307   1.994
    2PC     H3C11461   3.918   4.304   1.916
    2PC     C3411462   4.051   4.226   2.122
    2PC     H4A11463   4.101   4.172   2.041
    2PC     H4B11464   4.091   4.327   2.117
    2PC     H4C11465   4.089   4.179   2.212
    2PC     C3511466   3.848   4.090   2.162
    2PC     H5A11467   3.895   4.017   2.096
    2PC     H5B11468   3.741   4.093   2.146
    2PC     H5C11469   3.894   4.077   2.260
    2PC     O3311470   4.038   4.748   2.154
    2PC     O3411471   4.189   4.649   2.311
    2PC     O2111472   3.764   4.776   2.554
    2PC     C2111473   3.711   4.657   2.587
    2PC     O2211474   3.765   4.580   2.664
    3OL     C1211475   3.577   4.636   2.522
    3OL     H2R11476   3.589   4.574   2.434
    3OL     H2S11477   3.546   4.738   2.496
    3OL     C1311478   3.469   4.572   2.611
    3OL     H3R11479   3.515   4.481   2.650
    3OL     H3S11480   3.388   4.547   2.543
    3OL     C1411481   3.428   4.655   2.733
    3OL     H4R11482   3.369   4.742   2.704
    3OL     H4S11483   3.522   4.693   2.776
    3OL     C1511484   3.352   4.574   2.839
    3OL     H5R11485   3.416   4.493   2.873
    3OL     H5S11486   3.254   4.546   2.799
    3OL     C1611487   3.311   4.669   2.953
    3OL     H6R11488   3.239   4.745   2.923
    3OL     H6S11489   3.405   4.720   2.975
    3OL     C1711490   3.253   4.597   3.076
    3OL     H7R11491   3.329   4.536   3.126
    3OL     H7S11492   3.175   4.529   3.041
    3OL     C1811493   3.201   4.689   3.187
    3OL     H8R11494   3.125   4.751   3.139
    3OL     H8S11495   3.287   4.748   3.221
    3OL     C1911496   3.127   4.606   3.288
    3OL     H9R11497   3.081   4.518   3.245
    3OL    C11011498   3.140   4.612   3.420
    3OL    H10R11499   3.085   4.543   3.482
    3OL    C11111500   3.217   4.725   3.486
    3OL    H11R11501   3.252   4.799   3.414
    3OL    H11S11502   3.305   4.684   3.536
    3OL    C11211503   3.132   4.791   3.596
    3OL    H12R11504   3.162   4.741   3.688
    3OL    H12S11505   3.025   4.788   3.576
    3OL    C11311506   3.173   4.938   3.617
    3OL    H13R11507   3.170   4.990   3.521
    3OL    H13S11508   3.277   4.946   3.650
    3OL    C11411509   3.080   5.013   3.712
    3OL    H14R11510   3.068   4.975   3.814
    3OL    H14S11511   2.983   5.010   3.663
    3OL    C11511512   3.132   5.158   3.718
    3OL    H15R11513   3.127   5.194   3.615
    3OL    H15S11514   3.237   5.166   3.748
    3OL    C11611515   3.041   5.241   3.809
    3OL    H16R11516   3.084   5.339   3.832
    3OL    H16S11517   3.028   5.177   3.897
    3OL    C11711518   2.915   5.285   3.733
    3OL    H17R11519   2.837   5.212   3.714
    3OL    H17S11520   2.938   5.338   3.641
    3OL    C11811521   2.843   5.390   3.819
    3OL    H18R11522   2.903   5.473   3.856
    3OL    H18S11523   2.798   5.340   3.906
    3OL    H18T11524   2.771   5.438   3.753
    1PA    C11611525   2.124   2.939   3.629
    1PA    H16R11526   2.233   2.946   3.622
    1PA    H16S11527   2.097   2.833   3.633
    1PA    H16T11528   2.095   2.983   3.724
    1PA    C11511529   2.058   3.010   3.510
    1PA    H15R11530   2.085   2.948   3.424
    1PA    H15S11531   1.951   2.995   3.520
    1PA    C11411532   2.101   3.157   3.498
    1PA    H14R11533   2.056   3.215   3.579
    1PA    H14S11534   2.205   3.174   3.526
    1PA    C11311535   2.080   3.217   3.358
    1PA    H13R11536   2.114   3.161   3.270
    1PA    H13S11537   1.972   3.227   3.345
    1PA    C11211538   2.131   3.361   3.342
    1PA    H12R11539   2.069   3.417   3.412
    1PA    H12S11540   2.231   3.357   3.384
    1PA    C11111541   2.135   3.412   3.197
    1PA    H11R11542   2.161   3.518   3.202
    1PA    H11S11543   2.210   3.363   3.134
    1PA    C11011544   1.995   3.403   3.134
    1PA    H10R11545   1.949   3.305   3.143
    1PA    H10S11546   1.940   3.478   3.190
    1PA     C1911547   2.003   3.447   2.987
    1PA     H9R11548   2.078   3.386   2.935
    1PA     H9S11549   1.910   3.412   2.943
    1PA     C1811550   2.006   3.599   2.970
    1PA     H8R11551   1.905   3.627   3.001
    1PA     H8S11552   2.077   3.638   3.043
    1PA     C1711553   2.016   3.642   2.823
    1PA     H7R11554   2.115   3.610   2.789
    1PA     H7S11555   1.935   3.589   2.774
    1PA     C1611556   1.995   3.793   2.809
    1PA     H6R11557   1.886   3.803   2.799
    1PA     H6S11558   2.030   3.845   2.898
    1PA     C1511559   2.059   3.837   2.676
    1PA     H5R11560   2.062   3.946   2.670
    1PA     H5S11561   2.164   3.808   2.669
    1PA     C1411562   1.990   3.781   2.551
    1PA     H4R11563   2.022   3.677   2.540
    1PA     H4S11564   1.884   3.796   2.571
    1PA     C1311565   2.025   3.868   2.430
    1PA     H3R11566   1.954   3.852   2.348
    1PA     H3S11567   2.030   3.969   2.471
    1PA     C1211568   2.163   3.830   2.375
    1PA     H2R11569   2.233   3.805   2.454
    1PA     H2S11570   2.155   3.741   2.311
    2PC     C1111571   2.207   3.936   2.277
    2PC     O1211572   2.174   3.942   2.160
    2PC     O1111573   2.289   4.027   2.331
    2PC      C111574   2.325   4.145   2.257
    2PC      HR11575   2.389   4.202   2.324
    2PC      HS11576   2.376   4.119   2.164
    2PC      C211577   2.200   4.231   2.231
    2PC      HX11578   2.117   4.166   2.203
    2PC      C311579   2.237   4.345   2.134
    2PC      HA11580   2.303   4.418   2.182
    2PC      HB11581   2.287   4.301   2.047
    2PC     O3111582   2.114   4.407   2.095
    2PC     P3111583   2.116   4.566   2.075
    2PC     O3211584   2.258   4.589   2.005
    2PC     C3111585   2.284   4.721   1.954
    2PC     H1A11586   2.199   4.761   1.898
    2PC     H1B11587   2.302   4.788   2.039
    2PC     C3211588   2.413   4.709   1.871
    2PC     H2A11589   2.417   4.805   1.819
    2PC     H2B11590   2.503   4.699   1.932
    2PC     N3111591   2.430   4.598   1.772
    2PC     C3311592   2.292   4.568   1.719
    2PC     H3A11593   2.247   4.654   1.669
    2PC     H3B11594   2.282   4.488   1.646
    2PC     H3C11595   2.223   4.539   1.798
    2PC     C3411596   2.527   4.642   1.667
    2PC     H4A11597   2.518   4.751   1.667
    2PC     H4B11598   2.627   4.608   1.694
    2PC     H4C11599   2.496   4.605   1.569
    2PC     C3511600   2.489   4.479   1.840
    2PC     H5A11601   2.440   4.453   1.934
    2PC     H5B11602   2.590   4.512   1.867
    2PC     H5C11603   2.511   4.402   1.766
    2PC     O3311604   2.012   4.612   1.980
    2PC     O3411605   2.116   4.655   2.193
    2PC     O2111606   2.171   4.297   2.355
    2PC     C2111607   2.051   4.284   2.414
    2PC     O2211608   1.953   4.231   2.365
    3OL     C1211609   2.051   4.339   2.554
    3OL     H2R11610   2.037   4.446   2.534
    3OL     H2S11611   2.150   4.329   2.599
    3OL     C1311612   1.944   4.277   2.644
    3OL     H3R11613   1.905   4.191   2.589
    3OL     H3S11614   1.866   4.351   2.666
    3OL     C1411615   2.009   4.233   2.776
    3OL     H4R11616   2.073   4.315   2.810
    3OL     H4S11617   2.070   4.144   2.759
    3OL     C1511618   1.903   4.209   2.884
    3OL     H5R11619   1.837   4.123   2.869
    3OL     H5S11620   1.841   4.299   2.884
    3OL     C1611621   1.978   4.197   3.018
    3OL     H6R11622   2.048   4.279   3.038
    3OL     H6S11623   2.045   4.112   3.004
    3OL     C1711624   1.869   4.192   3.126
    3OL     H7R11625   1.817   4.287   3.113
    3OL     H7S11626   1.918   4.191   3.224
    3OL     C1811627   1.768   4.077   3.120
    3OL     H8R11628   1.828   3.991   3.090
    3OL     H8S11629   1.701   4.094   3.036
    3OL     C1911630   1.697   4.056   3.251
    3OL     H9R11631   1.613   4.125   3.263
    3OL    C11011632   1.730   3.954   3.329
    3OL    H10R11633   1.672   3.938   3.419
    3OL    C11111634   1.841   3.855   3.305
    3OL    H11R11635   1.937   3.905   3.286
    3OL    H11S11636   1.830   3.779   3.227
    3OL    C11211637   1.864   3.777   3.435
    3OL    H12R11638   1.934   3.700   3.403
    3OL    H12S11639   1.775   3.731   3.477
    3OL    C11311640   1.935   3.860   3.543
    3OL    H13R11641   1.873   3.943   3.579
    3OL    H13S11642   2.022   3.908   3.497
    3OL    C11411643   1.974   3.776   3.665
    3OL    H14R11644   2.036   3.689   3.643
    3OL    H14S11645   1.882   3.742   3.711
    3OL    C11511646   2.050   3.866   3.763
    3OL    H15R11647   1.981   3.941   3.802
    3OL    H15S11648   2.135   3.921   3.722
    3OL    C11611649   2.106   3.785   3.881
    3OL    H16R11650   2.168   3.853   3.939
    3OL    H16S11651   2.166   3.704   3.838
    3OL    C11711652   1.996   3.735   3.975
    3OL    H17R11653   1.927   3.665   3.929
    3OL    H17S11654   1.944   3.827   4.005
    3OL    C11811655   2.050   3.670   4.103
    3OL    H18R11656   2.132   3.726   4.148
    3OL    H18S11657   2.087   3.569   4.085
    3OL    H18T11658   1.970   3.650   4.174
    1PA    C11611659   4.936   5.153   4.021
    1PA    H16R11660   4.859   5.168   3.945
    1PA    H16S11661   4.960   5.245   4.074
    1PA    H16T11662   4.903   5.089   4.103
    1PA    C11511663   5.055   5.087   3.952
    1PA    H15R11664   5.119   5.047   4.031
    1PA    H15S11665   5.015   4.997   3.903
    1PA    C11411666   5.123   5.183   3.853
    1PA    H14R11667   5.041   5.211   3.787
    1PA    H14S11668   5.175   5.262   3.908
    1PA    C11311669   5.229   5.110   3.770
    1PA    H13R11670   5.314   5.177   3.756
    1PA    H13S11671   5.262   5.023   3.827
    1PA    C11211672   5.177   5.079   3.629
    1PA    H12R11673   5.097   5.004   3.635
    1PA    H12S11674   5.141   5.170   3.579
    1PA    C11111675   5.294   5.016   3.553
    1PA    H11R11676   5.384   5.075   3.572
    1PA    H11S11677   5.316   4.914   3.585
    1PA    C11011678   5.270   5.012   3.401
    1PA    H10R11679   5.185   4.946   3.383
    1PA    H10S11680   5.234   5.107   3.364
    1PA     C1911681   5.397   4.959   3.333
    1PA     H9R11682   5.492   4.995   3.375
    1PA     H9S11683   5.403   4.852   3.353
    1PA     C1811684   5.405   4.972   3.180
    1PA     H8R11685   5.327   4.921   3.124
    1PA     H8S11686   5.379   5.077   3.165
    1PA     C1711687   5.541   4.933   3.121
    1PA     H7R11688   5.623   4.975   3.179
    1PA     H7S11689   5.548   4.824   3.119
    1PA     C1611690   5.555   4.982   2.976
    1PA     H6R11691   5.506   5.078   2.956
    1PA     H6S11692   5.661   4.989   2.954
    1PA     C1511693   5.489   4.888   2.875
    1PA     H5R11694   5.512   4.783   2.893
    1PA     H5S11695   5.383   4.896   2.901
    1PA     C1411696   5.510   4.938   2.731
    1PA     H4R11697   5.514   5.047   2.736
    1PA     H4S11698   5.612   4.907   2.707
    1PA     C1311699   5.407   4.886   2.630
    1PA     H3R11700   5.307   4.919   2.661
    1PA     H3S11701   5.422   4.921   2.528
    1PA     C1211702   5.393   4.733   2.626
    1PA     H2R11703   5.472   4.691   2.564
    1PA     H2S11704   5.404   4.694   2.727
    2PC     C1111705   5.269   4.677   2.561
    2PC     O1211706   5.255   4.557   2.565
    2PC     O1111707   5.179   4.765   2.514
    2PC      C111708   5.052   4.718   2.464
    2PC      HR11709   5.065   4.646   2.383
    2PC      HS11710   4.995   4.666   2.541
    2PC      C211711   4.968   4.834   2.410
    2PC      HX11712   4.881   4.784   2.367
    2PC      C311713   5.038   4.925   2.307
    2PC      HA11714   5.104   5.000   2.352
    2PC      HB11715   5.102   4.861   2.246
    2PC     O3111716   4.936   4.994   2.234
    2PC     P3111717   4.985   5.090   2.116
    2PC     O3211718   4.983   5.240   2.173
    2PC     C3111719   5.108   5.307   2.149
    2PC     H1A11720   5.187   5.254   2.202
    2PC     H1B11721   5.136   5.318   2.044
    2PC     C3211722   5.093   5.448   2.207
    2PC     H2A11723   5.065   5.446   2.313
    2PC     H2B11724   5.190   5.498   2.201
    2PC     N3111725   5.002   5.546   2.138
    2PC     C3311726   4.864   5.497   2.106
    2PC     H3A11727   4.829   5.447   2.196
    2PC     H3B11728   4.797   5.579   2.080
    2PC     H3C11729   4.871   5.423   2.026
    2PC     C3411730   5.003   5.667   2.225
    2PC     H4A11731   4.947   5.745   2.172
    2PC     H4B11732   4.955   5.648   2.321
    2PC     H4C11733   5.107   5.694   2.240
    2PC     C3511734   5.060   5.588   2.006
    2PC     H5A11735   5.011   5.543   1.919
    2PC     H5B11736   5.168   5.573   2.018
    2PC     H5C11737   5.048   5.695   1.993
    2PC     O3311738   5.120   5.041   2.082
    2PC     O3411739   4.900   5.070   1.996
    2PC     O2111740   4.935   4.923   2.518
    2PC     C2111741   4.855   4.885   2.620
    2PC     O2211742   4.803   4.776   2.622
    3OL     C1211743   4.844   4.985   2.732
    3OL     H2R11744   4.923   5.057   2.711
    3OL     H2S11745   4.853   4.950   2.835
    3OL     C1311746   4.708   5.054   2.712
    3OL     H3R11747   4.632   4.978   2.731
    3OL     H3S11748   4.702   5.104   2.616
    3OL     C1411749   4.710   5.172   2.810
    3OL     H4R11750   4.799   5.234   2.802
    3OL     H4S11751   4.705   5.117   2.904
    3OL     C1511752   4.581   5.255   2.801
    3OL     H5R11753   4.502   5.180   2.816
    3OL     H5S11754   4.569   5.295   2.700
    3OL     C1611755   4.573   5.377   2.893
    3OL     H6R11756   4.611   5.351   2.992
    3OL     H6S11757   4.469   5.408   2.899
    3OL     C1711758   4.652   5.493   2.829
    3OL     H7R11759   4.595   5.530   2.744
    3OL     H7S11760   4.746   5.453   2.791
    3OL     C1811761   4.662   5.610   2.928
    3OL     H8R11762   4.721   5.685   2.876
    3OL     H8S11763   4.711   5.585   3.022
    3OL     C1911764   4.527   5.668   2.962
    3OL     H9R11765   4.453   5.588   2.970
    3OL    C11011766   4.488   5.794   2.971
    3OL    H10R11767   4.382   5.813   2.986
    3OL    C11111768   4.573   5.916   2.994
    3OL    H11R11769   4.674   5.875   2.990
    3OL    H11S11770   4.568   5.943   3.100
    3OL    C11211771   4.547   6.038   2.904
    3OL    H12R11772   4.634   6.102   2.914
    3OL    H12S11773   4.462   6.097   2.939
    3OL    C11311774   4.529   5.998   2.756
    3OL    H13R11775   4.504   6.088   2.700
    3OL    H13S11776   4.441   5.933   2.745
    3OL    C11411777   4.657   5.938   2.698
    3OL    H14R11778   4.709   5.867   2.764
    3OL    H14S11779   4.730   6.011   2.662
    3OL    C11511780   4.630   5.859   2.569
    3OL    H15R11781   4.563   5.775   2.587
    3OL    H15S11782   4.726   5.822   2.533
    3OL    C11611783   4.578   5.955   2.460
    3OL    H16R11784   4.637   5.925   2.374
    3OL    H16S11785   4.593   6.060   2.483
    3OL    C11711786   4.427   5.938   2.437
    3OL    H17R11787   4.365   5.906   2.521
    3OL    H17S11788   4.417   5.867   2.355
    3OL    C11811789   4.359   6.065   2.385
    3OL    H18R11790   4.377   6.156   2.444
    3OL    H18S11791   4.253   6.051   2.366
    3OL    H18T11792   4.391   6.091   2.284
    1PA    C11611793   3.366   5.229   3.952
    1PA    H16R11794   3.360   5.261   4.056
    1PA    H16S11795   3.289   5.152   3.954
    1PA    H16T11796   3.356   5.319   3.890
    1PA    C11511797   3.509   5.180   3.925
    1PA    H15R11798   3.571   5.245   3.987
    1PA    H15S11799   3.511   5.074   3.951
    1PA    C11411800   3.553   5.185   3.778
    1PA    H14R11801   3.493   5.112   3.725
    1PA    H14S11802   3.537   5.281   3.727
    1PA    C11311803   3.700   5.146   3.755
    1PA    H13R11804   3.760   5.208   3.821
    1PA    H13S11805   3.723   5.041   3.776
    1PA    C11211806   3.730   5.181   3.608
    1PA    H12R11807   3.667   5.117   3.546
    1PA    H12S11808   3.697   5.281   3.577
    1PA    C11111809   3.880   5.168   3.582
    1PA    H11R11810   3.937   5.225   3.656
    1PA    H11S11811   3.903   5.062   3.596
    1PA    C11011812   3.926   5.194   3.438
    1PA    H10R11813   4.036   5.181   3.435
    1PA    H10S11814   3.895   5.128   3.357
    1PA     C1911815   3.895   5.333   3.379
    1PA     H9R11816   3.789   5.357   3.390
    1PA     H9S11817   3.937   5.409   3.445
    1PA     C1811818   3.937   5.362   3.234
    1PA     H8R11819   3.956   5.468   3.217
    1PA     H8S11820   4.038   5.323   3.217
    1PA     C1711821   3.836   5.313   3.129
    1PA     H7R11822   3.808   5.209   3.152
    1PA     H7S11823   3.741   5.365   3.144
    1PA     C1611824   3.885   5.327   2.984
    1PA     H6R11825   3.805   5.299   2.916
    1PA     H6S11826   3.904   5.433   2.964
    1PA     C1511827   4.003   5.236   2.948
    1PA     H5R11828   4.092   5.256   3.009
    1PA     H5S11829   3.968   5.133   2.956
    1PA     C1411830   4.055   5.272   2.808
    1PA     H4R11831   3.985   5.242   2.730
    1PA     H4S11832   4.066   5.380   2.799
    1PA     C1311833   4.190   5.204   2.783
    1PA     H3R11834   4.261   5.226   2.864
    1PA     H3S11835   4.170   5.098   2.767
    1PA     C1211836   4.267   5.247   2.658
    1PA     H2R11837   4.269   5.356   2.664
    1PA     H2S11838   4.370   5.211   2.659
    2PC     C1111839   4.204   5.198   2.530
    2PC     O1211840   4.093   5.147   2.525
    2PC     O1111841   4.284   5.236   2.430
    2PC      C111842   4.219   5.247   2.302
    2PC      HR11843   4.287   5.264   2.218
    2PC      HS11844   4.172   5.150   2.286
    2PC      C211845   4.105   5.350   2.314
    2PC      HX11846   4.035   5.313   2.388
    2PC      C311847   4.032   5.377   2.182
    2PC      HA11848   3.990   5.282   2.148
    2PC      HB11849   3.948   5.448   2.194
    2PC     O3111850   4.123   5.430   2.085
    2PC     P3111851   4.045   5.476   1.953
    2PC     O3211852   4.037   5.332   1.883
    2PC     C3111853   4.154   5.252   1.862
    2PC     H1A11854   4.226   5.306   1.801
    2PC     H1B11855   4.202   5.244   1.960
    2PC     C3211856   4.109   5.120   1.797
    2PC     H2A11857   4.171   5.037   1.830
    2PC     H2B11858   4.008   5.099   1.834
    2PC     N3111859   4.094   5.118   1.648
    2PC     C3311860   3.980   5.211   1.617
    2PC     H3A11861   3.967   5.199   1.509
    2PC     H3B11862   3.886   5.191   1.668
    2PC     H3C11863   4.007   5.313   1.641
    2PC     C3411864   4.219   5.160   1.577
    2PC     H4A11865   4.206   5.173   1.470
    2PC     H4B11866   4.255   5.255   1.618
    2PC     H4C11867   4.298   5.086   1.587
    2PC     C3511868   4.068   4.977   1.604
    2PC     H5A11869   4.156   4.915   1.619
    2PC     H5B11870   4.043   4.973   1.499
    2PC     H5C11871   3.988   4.942   1.670
    2PC     O3311872   3.926   5.558   1.986
    2PC     O3411873   4.140   5.571   1.893
    2PC     O2111874   4.153   5.477   2.361
    2PC     C2111875   4.064   5.570   2.402
    2PC     O2211876   3.945   5.547   2.407
    3OL     C1211877   4.121   5.697   2.459
    3OL     H2R11878   4.068   5.785   2.422
    3OL     H2S11879   4.224   5.697   2.423
    3OL     C1311880   4.117   5.702   2.613
    3OL     H3R11881   4.159   5.801   2.632
    3OL     H3S11882   4.176   5.621   2.657
    3OL     C1411883   3.976   5.696   2.673
    3OL     H4R11884   3.937   5.598   2.643
    3OL     H4S11885   3.908   5.767   2.625
    3OL     C1511886   3.982   5.702   2.826
    3OL     H5R11887   4.056   5.631   2.865
    3OL     H5S11888   3.888   5.678   2.876
    3OL     C1611889   4.020   5.845   2.866
    3OL     H6R11890   3.950   5.920   2.824
    3OL     H6S11891   4.116   5.873   2.826
    3OL     C1711892   4.037   5.841   3.018
    3OL     H7R11893   4.128   5.788   3.045
    3OL     H7S11894   3.953   5.783   3.060
    3OL     C1811895   4.024   5.987   3.064
    3OL     H8R11896   3.962   6.044   2.994
    3OL     H8S11897   4.119   6.038   3.054
    3OL     C1911898   3.964   6.007   3.201
    3OL     H9R11899   4.014   5.954   3.281
    3OL    C11011900   3.869   6.090   3.241
    3OL    H10R11901   3.844   6.084   3.346
    3OL    C11111902   3.781   6.180   3.157
    3OL    H11R11903   3.819   6.187   3.055
    3OL    H11S11904   3.789   6.282   3.194
    3OL    C11211905   3.633   6.142   3.160
    3OL    H12R11906   3.581   6.212   3.094
    3OL    H12S11907   3.600   6.155   3.264
    3OL    C11311908   3.611   5.999   3.109
    3OL    H13R11909   3.511   5.960   3.129
    3OL    H13S11910   3.669   5.926   3.165
    3OL    C11411911   3.635   5.999   2.957
    3OL    H14R11912   3.740   6.021   2.938
    3OL    H14S11913   3.579   6.079   2.907
    3OL    C11511914   3.619   5.860   2.894
    3OL    H15R11915   3.521   5.823   2.923
    3OL    H15S11916   3.680   5.792   2.954
    3OL    C11611917   3.635   5.852   2.742
    3OL    H16R11918   3.629   5.746   2.716
    3OL    H16S11919   3.737   5.876   2.711
    3OL    C11711920   3.525   5.934   2.672
    3OL    H17R11921   3.545   6.040   2.684
    3OL    H17S11922   3.429   5.906   2.716
    3OL    C11811923   3.520   5.894   2.524
    3OL    H18R11924   3.442   5.937   2.461
    3OL    H18S11925   3.509   5.786   2.515
    3OL    H18T11926   3.617   5.928   2.486
    1PA    C11611927   1.311   5.174   3.440
    1PA    H16R11928   1.383   5.160   3.359
    1PA    H16S11929   1.224   5.236   3.415
    1PA    H16T11930   1.285   5.078   3.485
    1PA    C11511931   1.390   5.254   3.544
    1PA    H15R11932   1.331   5.259   3.636
    1PA    H15S11933   1.475   5.189   3.564
    1PA    C11411934   1.423   5.397   3.499
    1PA    H14R11935   1.327   5.433   3.461
    1PA    H14S11936   1.457   5.461   3.581
    1PA    C11311937   1.538   5.396   3.397
    1PA    H13R11938   1.616   5.362   3.466
    1PA    H13S11939   1.516   5.323   3.319
    1PA    C11211940   1.570   5.536   3.342
    1PA    H12R11941   1.480   5.586   3.308
    1PA    H12S11942   1.601   5.599   3.426
    1PA    C11111943   1.673   5.530   3.229
    1PA    H11R11944   1.760   5.480   3.271
    1PA    H11S11945   1.638   5.460   3.153
    1PA    C11011946   1.708   5.671   3.179
    1PA    H10R11947   1.630   5.713   3.115
    1PA    H10S11948   1.718   5.741   3.262
    1PA     C1911949   1.831   5.668   3.087
    1PA     H9R11950   1.907   5.618   3.148
    1PA     H9S11951   1.806   5.597   3.007
    1PA     C1811952   1.881   5.800   3.028
    1PA     H8R11953   1.854   5.883   3.094
    1PA     H8S11954   1.990   5.801   3.023
    1PA     C1711955   1.818   5.825   2.891
    1PA     H7R11956   1.839   5.742   2.823
    1PA     H7S11957   1.711   5.826   2.910
    1PA     C1611958   1.855   5.966   2.841
    1PA     H6R11959   1.809   6.041   2.904
    1PA     H6S11960   1.960   5.986   2.864
    1PA     C1511961   1.815   5.997   2.696
    1PA     H5R11962   1.715   5.954   2.682
    1PA     H5S11963   1.805   6.105   2.682
    1PA     C1411964   1.918   5.942   2.596
    1PA     H4R11965   2.021   5.963   2.622
    1PA     H4S11966   1.917   5.834   2.580
    1PA     C1311967   1.893   6.010   2.460
    1PA     H3R11968   1.875   6.117   2.463
    1PA     H3S11969   1.991   5.996   2.414
    1PA     C1211970   1.787   5.932   2.381
    1PA     H2R11971   1.807   5.825   2.376
    1PA     H2S11972   1.696   5.934   2.440
    2PC     C1111973   1.778   5.983   2.239
    2PC     O1211974   1.792   6.100   2.209
    2PC     O1111975   1.752   5.881   2.157
    2PC      C111976   1.718   5.916   2.022
    2PC      HR11977   1.666   6.012   2.016
    2PC      HS11978   1.800   5.910   1.950
    2PC      C211979   1.611   5.811   1.986
    2PC      HX11980   1.646   5.710   2.009
    2PC      C311981   1.579   5.811   1.836
    2PC      HA11982   1.663   5.761   1.788
    2PC      HB11983   1.491   5.753   1.807
    2PC     O3111984   1.580   5.949   1.796
    2PC     P3111985   1.581   5.984   1.640
    2PC     O3211986   1.424   5.998   1.613
    2PC     C3111987   1.377   5.999   1.477
    2PC     H1A11988   1.456   6.032   1.409
    2PC     H1B11989   1.346   5.900   1.442
    2PC     C3211990   1.254   6.091   1.471
    2PC     H2A11991   1.173   6.070   1.542
    2PC     H2B11992   1.277   6.193   1.502
    2PC     N3111993   1.186   6.098   1.338
    2PC     C3311994   1.145   5.964   1.285
    2PC     H3A11995   1.062   5.925   1.344
    2PC     H3B11996   1.114   5.990   1.183
    2PC     H3C11997   1.230   5.896   1.292
    2PC     C3411998   1.064   6.183   1.356
    2PC     H4A11999   1.021   6.199   1.257
    2PC     H4B12000   1.000   6.126   1.424
    2PC     H4C12001   1.099   6.271   1.412
    2PC     C3512002   1.280   6.171   1.247
    2PC     H5A12003   1.383   6.150   1.273
    2PC     H5B12004   1.260   6.278   1.256
    2PC     H5C12005   1.265   6.139   1.143
    2PC     O3312006   1.649   6.115   1.629
    2PC     O3412007   1.641   5.878   1.555
    2PC     O2112008   1.505   5.840   2.079
    2PC     C2112009   1.429   5.742   2.132
    2PC     O2212010   1.443   5.623   2.116
    3OL     C1212011   1.316   5.798   2.216
    3OL     H2R12012   1.269   5.884   2.167
    3OL     H2S12013   1.362   5.842   2.304
    3OL     C1312014   1.204   5.704   2.263
    3OL     H3R12015   1.248   5.623   2.322
    3OL     H3S12016   1.151   5.660   2.177
    3OL     C1412017   1.090   5.760   2.348
    3OL     H4R12018   1.041   5.841   2.293
    3OL     H4S12019   1.119   5.797   2.447
    3OL     C1512020   0.991   5.648   2.382
    3OL     H5R12021   0.988   5.577   2.299
    3OL     H5S12022   0.888   5.683   2.398
    3OL     C1612023   1.036   5.578   2.511
    3OL     H6R12024   1.044   5.650   2.593
    3OL     H6S12025   1.135   5.536   2.497
    3OL     C1712026   0.944   5.461   2.551
    3OL     H7R12027   0.941   5.383   2.475
    3OL     H7S12028   0.842   5.497   2.568
    3OL     C1812029   0.991   5.400   2.684
    3OL     H8R12030   1.011   5.482   2.754
    3OL     H8S12031   1.077   5.339   2.658
    3OL     C1912032   0.883   5.314   2.744
    3OL     H9R12033   0.800   5.375   2.779
    3OL    C11012034   0.882   5.184   2.768
    3OL    H10R12035   0.795   5.144   2.819
    3OL    C11112036   0.989   5.084   2.734
    3OL    H11R12037   1.053   5.072   2.822
    3OL    H11S12038   1.058   5.121   2.657
    3OL    C11212039   0.949   4.939   2.703
    3OL    H12R12040   0.871   4.936   2.627
    3OL    H12S12041   0.899   4.909   2.796
    3OL    C11312042   1.058   4.833   2.684
    3OL    H13R12043   1.108   4.837   2.587
    3OL    H13S12044   1.016   4.733   2.680
    3OL    C11412045   1.162   4.829   2.797
    3OL    H14R12046   1.220   4.921   2.801
    3OL    H14S12047   1.227   4.741   2.791
    3OL    C11512048   1.095   4.819   2.935
    3OL    H15R12049   1.032   4.729   2.937
    3OL    H15S12050   1.032   4.905   2.960
    3OL    C11612051   1.203   4.815   3.044
    3OL    H16R12052   1.274   4.897   3.042
    3OL    H16S12053   1.250   4.717   3.040
    3OL    C11712054   1.128   4.822   3.178
    3OL    H17R12055   1.079   4.916   3.204
    3OL    H17S12056   1.205   4.801   3.253
    3OL    C11812057   1.016   4.717   3.185
    3OL    H18R12058   0.930   4.735   3.120
    3OL    H18S12059   0.987   4.706   3.290
    3OL    H18T12060   1.053   4.618   3.158
    1PA    C11612061   2.703   4.726   4.049
    1PA    H16R12062   2.746   4.821   4.081
    1PA    H16S12063   2.767   4.652   4.097
    1PA    H16T12064   2.598   4.720   4.080
    1PA    C11512065   2.717   4.703   3.898
    1PA    H15R12066   2.657   4.779   3.849
    1PA    H15S12067   2.823   4.707   3.872
    1PA    C11412068   2.655   4.569   3.857
    1PA    H14R12069   2.660   4.497   3.939
    1PA    H14S12070   2.547   4.579   3.838
    1PA    C11312071   2.724   4.501   3.738
    1PA    H13R12072   2.832   4.494   3.756
    1PA    H13S12073   2.681   4.401   3.732
    1PA    C11212074   2.690   4.593   3.620
    1PA    H12R12075   2.582   4.598   3.603
    1PA    H12S12076   2.723   4.697   3.630
    1PA    C11112077   2.753   4.547   3.488
    1PA    H11R12078   2.750   4.638   3.427
    1PA    H11S12079   2.856   4.512   3.500
    1PA    C11012080   2.666   4.454   3.402
    1PA    H10R12081   2.659   4.367   3.468
    1PA    H10S12082   2.566   4.492   3.380
    1PA     C1912083   2.743   4.405   3.278
    1PA     H9R12084   2.746   4.486   3.204
    1PA     H9S12085   2.848   4.384   3.300
    1PA     C1812086   2.660   4.293   3.216
    1PA     H8R12087   2.676   4.199   3.270
    1PA     H8S12088   2.553   4.309   3.231
    1PA     C1712089   2.688   4.263   3.068
    1PA     H7R12090   2.646   4.165   3.048
    1PA     H7S12091   2.629   4.332   3.007
    1PA     C1612092   2.839   4.265   3.042
    1PA     H6R12093   2.880   4.365   3.062
    1PA     H6S12094   2.894   4.197   3.107
    1PA     C1512095   2.866   4.236   2.894
    1PA     H5R12096   2.829   4.133   2.886
    1PA     H5S12097   2.791   4.287   2.833
    1PA     C1412098   3.011   4.267   2.855
    1PA     H4R12099   3.040   4.365   2.893
    1PA     H4S12100   3.076   4.183   2.882
    1PA     C1312101   3.013   4.282   2.702
    1PA     H3R12102   3.114   4.259   2.669
    1PA     H3S12103   2.936   4.212   2.671
    1PA     C1212104   2.985   4.427   2.659
    1PA     H2R12105   2.881   4.460   2.665
    1PA     H2S12106   3.035   4.495   2.728
    2PC     C1112107   3.027   4.447   2.516
    2PC     O1212108   3.127   4.509   2.484
    2PC     O1112109   2.933   4.396   2.434
    2PC      C112110   2.948   4.415   2.292
    2PC      HR12111   2.957   4.521   2.269
    2PC      HS12112   3.032   4.357   2.253
    2PC      C212113   2.819   4.375   2.218
    2PC      HX12114   2.791   4.271   2.235
    2PC      C312115   2.830   4.402   2.068
    2PC      HA12116   2.915   4.348   2.024
    2PC      HB12117   2.736   4.368   2.023
    2PC     O3112118   2.846   4.542   2.039
    2PC     P3112119   2.860   4.593   1.888
    2PC     O3212120   2.741   4.701   1.880
    2PC     C3112121   2.770   4.840   1.901
    2PC     H1A12122   2.838   4.871   1.821
    2PC     H1B12123   2.680   4.901   1.894
    2PC     C3212124   2.844   4.860   2.035
    2PC     H2A12125   2.778   4.832   2.117
    2PC     H2B12126   2.933   4.798   2.045
    2PC     N3112127   2.876   5.002   2.068
    2PC     C3312128   2.746   5.074   2.089
    2PC     H3A12129   2.711   5.108   1.991
    2PC     H3B12130   2.667   5.012   2.131
    2PC     H3C12131   2.774   5.164   2.143
    2PC     C3412032   2.948   5.007   2.199
    2PC     H4A12133   2.890   4.964   2.281
    2PC     H4B12134   3.048   4.962   2.195
    2PC     H4C12135   2.976   5.111   2.214
    2PC     C3512136   2.963   5.060   1.961
    2PC     H5A12137   3.048   4.992   1.949
    2PC     H5B12138   2.993   5.156   2.004
    2PC     H5C12139   2.912   5.069   1.865
    2PC     O3312140   2.987   4.656   1.846
    2PC     O3412041   2.831   4.484   1.792
    2PC     O2112142   2.719   4.456   2.284
    2PC     C2112143   2.596   4.452   2.229
    2PC     O2212144   2.549   4.360   2.164
    3OL     C1212145   2.507   4.553   2.296
    3OL     H2R12146   2.418   4.582   2.240
    3OL     H2S12147   2.568   4.643   2.298
    3OL     C1312148   2.480   4.502   2.438
    3OL     H3R12149   2.577   4.479   2.485
    3OL     H3S12150   2.430   4.408   2.416
    3OL     C1412151   2.397   4.600   2.522
    3OL     H4R12152   2.298   4.599   2.476
    3OL     H4S12153   2.432   4.703   2.515
    3OL     C1512154   2.376   4.551   2.666
    3OL     H5R12155   2.477   4.537   2.704
    3OL     H5S12156   2.324   4.455   2.660
    3OL     C1612157   2.299   4.658   2.745
    3OL     H6R12158   2.332   4.760   2.724
    3OL     H6S12159   2.309   4.627   2.849
    3OL     C1712160   2.150   4.651   2.710
    3OL     H7R12161   2.126   4.547   2.735
    3OL     H7S12162   2.136   4.660   2.602
    3OL     C1812163   2.064   4.751   2.789
    3OL     H8R12164   2.133   4.817   2.842
    3OL     H8S12165   2.002   4.703   2.865
    3OL     C1912166   1.973   4.821   2.691
    3OL     H9R12167   1.932   4.753   2.618
    3OL    C11012168   1.938   4.949   2.703
    3OL    H10R12169   1.867   4.981   2.627
    3OL    C11112170   1.980   5.049   2.807
    3OL    H11R12171   1.992   5.150   2.767
    3OL    H11S12172   2.073   5.007   2.849
    3OL    C11212173   1.875   5.053   2.919
    3OL    H12R12174   1.876   4.963   2.980
    3OL    H12S12175   1.778   5.057   2.868
    3OL    C11312176   1.893   5.173   3.013
    3OL    H13R12177   1.895   5.267   2.957
    3OL    H13S12178   1.984   5.158   3.071
    3OL    C11412179   1.774   5.177   3.110
    3OL    H14R12180   1.682   5.161   3.054
    3OL    H14S12181   1.773   5.274   3.159
    3OL    C11512182   1.781   5.074   3.223
    3OL    H15R12183   1.818   5.133   3.307
    3OL    H15S12184   1.844   4.985   3.210
    3OL    C11612185   1.639   5.022   3.250
    3OL    H16R12186   1.611   4.963   3.162
    3OL    H16S12187   1.580   5.111   3.269
    3OL    C11712188   1.646   4.917   3.362
    3OL    H17R12189   1.683   4.970   3.449
    3OL    H17S12190   1.719   4.840   3.336
    3OL    C11812191   1.508   4.850   3.369
    3OL    H18R12192   1.429   4.925   3.374
    3OL    H18S12193   1.507   4.800   3.467
    3OL    H18T12194   1.487   4.784   3.285
    1PA    C11612195   4.052   1.643   3.417
    1PA    H16R12196   4.003   1.630   3.514
    1PA    H16S12197   4.152   1.685   3.428
    1PA    H16T12198   4.050   1.546   3.367
    1PA    C11512199   3.962   1.736   3.335
    1PA    H15R12200   4.016   1.751   3.240
    1PA    H15S12201   3.870   1.680   3.318
    1PA    C11412202   3.924   1.870   3.400
    1PA    H14R12203   3.853   1.928   3.341
    1PA    H14S12204   3.868   1.837   3.489
    1PA    C11312205   4.041   1.954   3.453
    1PA    H13R12206   3.999   2.045   3.498
    1PA    H13S12207   4.088   1.895   3.532
    1PA    C11212208   4.143   1.989   3.345
    1PA    H12R12209   4.230   2.048   3.375
    1PA    H12S12210   4.185   1.890   3.329
    1PA    C11112211   4.093   2.053   3.215
    1PA    H11R12212   4.165   2.036   3.134
    1PA    H11S12213   3.997   2.015   3.180
    1PA    C11012214   4.078   2.204   3.235
    1PA    H10R12215   4.003   2.221   3.313
    1PA    H10S12216   4.172   2.243   3.275
    1PA     C1912217   4.043   2.276   3.104
    1PA     H9R12218   3.963   2.222   3.051
    1PA     H9S12219   3.998   2.373   3.127
    1PA     C1812220   4.174   2.299   3.030
    1PA     H8R12221   4.242   2.359   3.091
    1PA     H8S12222   4.221   2.202   3.017
    1PA     C1712223   4.144   2.374   2.899
    1PA     H7R12224   4.066   2.326   2.839
    1PA     H7S12225   4.097   2.469   2.924
    1PA     C1612226   4.271   2.394   2.816
    1PA     H6R12227   4.333   2.305   2.828
    1PA     H6S12228   4.241   2.417   2.713
    1PA     C1512229   4.354   2.511   2.870
    1PA     H5R12230   4.291   2.600   2.861
    1PA     H5S12231   4.368   2.487   2.976
    1PA     C1412232   4.487   2.532   2.798
    1PA     H4R12233   4.555   2.602   2.847
    1PA     H4S12234   4.534   2.433   2.808
    1PA     C1312235   4.483   2.570   2.649
    1PA     H3R12236   4.430   2.491   2.595
    1PA     H3S12237   4.426   2.663   2.644
    1PA     C1212238   4.618   2.615   2.592
    1PA     H2R12239   4.654   2.697   2.655
    1PA     H2S12240   4.693   2.536   2.587
    2PC     C1112241   4.612   2.668   2.451
    2PC     O1212242   4.697   2.737   2.399
    2PC     O1112243   4.506   2.630   2.378
    2PC      C112244   4.502   2.681   2.243
    2PC      HR12245   4.460   2.782   2.243
    2PC      HS12246   4.604   2.676   2.204
    2PC      C212247   4.412   2.589   2.159
    2PC      HX12248   4.444   2.485   2.175
    2PC      C312249   4.414   2.623   2.009
    2PC      HA12250   4.327   2.686   1.987
    2PC      HB12251   4.501   2.679   1.972
    2PC     O3112252   4.406   2.505   1.928
    2PC     P3112253   4.312   2.516   1.798
    2PC     O3212254   4.179   2.488   1.882
    2PC     C3112255   4.070   2.582   1.879
    2PC     H1A12256   3.998   2.549   1.955
    2PC     H1B12257   4.113   2.679   1.907
    2PC     C3212258   4.009   2.594   1.739
    2PC     H2A12259   3.918   2.654   1.746
    2PC     H2B12260   4.079   2.639   1.669
    2PC     N3112261   3.957   2.471   1.670
    2PC     C3312262   3.869   2.513   1.556
    2PC     H3A12263   3.786   2.565   1.605
    2PC     H3B12264   3.925   2.575   1.486
    2PC     H3C12265   3.836   2.416   1.518
    2PC     C3412266   4.067   2.383   1.618
    2PC     H4A12267   4.011   2.296   1.581
    2PC     H4B12268   4.125   2.440   1.546
    2PC     H4C12269   4.125   2.340   1.699
    2PC     C3512270   3.874   2.392   1.765
    2PC     H5A12271   3.918   2.386   1.865
    2PC     H5B12272   3.865   2.291   1.725
    2PC     H5C12273   3.779   2.446   1.768
    2PC     O3312274   4.332   2.645   1.727
    2PC     O3412275   4.344   2.422   1.688
    2PC     O2112276   4.277   2.612   2.201
    2PC     C2112277   4.232   2.541   2.306
    2PC     O2212278   4.300   2.455   2.359
    3OL     C1212279   4.108   2.598   2.370
    3OL     H2R12280   4.066   2.515   2.428
    3OL     H2S12281   4.031   2.629   2.301
    3OL     C1312282   4.155   2.714   2.459
    3OL     H3R12283   4.197   2.795   2.399
    3OL     H3S12284   4.243   2.675   2.512
    3OL     C1412285   4.060   2.759   2.570
    3OL     H4R12286   4.013   2.680   2.629
    3OL     H4S12287   3.984   2.799   2.504
    3OL     C1512288   4.107   2.875   2.660
    3OL     H5R12289   4.095   2.964   2.598
    3OL     H5S12290   4.209   2.872   2.700
    3OL     C1612291   4.018   2.881   2.785
    3OL     H6R12292   3.913   2.864   2.762
    3OL     H6S12293   4.037   2.981   2.826
    3OL     C1712294   4.058   2.781   2.895
    3OL     H7R12295   4.160   2.798   2.930
    3OL     H7S12296   4.052   2.682   2.852
    3OL     C1812297   3.956   2.803   3.008
    3OL     H8R12298   3.853   2.795   2.974
    3OL     H8S12299   3.968   2.909   3.031
    3OL     C1912300   3.984   2.715   3.128
    3OL     H9R12301   3.946   2.614   3.117
    3OL    C11012302   4.053   2.750   3.235
    3OL    H10R12303   4.073   2.678   3.314
    3OL    C11112304   4.115   2.886   3.256
    3OL    H11R12305   4.075   2.972   3.202
    3OL    H11S12306   4.221   2.879   3.229
    3OL    C11212307   4.117   2.919   3.406
    3OL    H12R12308   4.138   2.826   3.458
    3OL    H12S12309   4.025   2.968   3.436
    3OL    C11312310   4.241   3.004   3.437
    3OL    H13R12311   4.332   2.949   3.410
    3OL    H13S12312   4.250   3.025   3.543
    3OL    C11412313   4.232   3.143   3.371
    3OL    H14R12314   4.142   3.188   3.413
    3OL    H14S12315   4.218   3.134   3.263
    3OL    C11512316   4.357   3.227   3.396
    3OL    H15R12317   4.447   3.171   3.370
    3OL    H15S12318   4.362   3.244   3.504
    3OL    C11612319   4.341   3.360   3.321
    3OL    H16R12320   4.407   3.429   3.374
    3OL    H16S12321   4.242   3.401   3.342
    3OL    C11712322   4.369   3.354   3.171
    3OL    H17R12323   4.335   3.451   3.133
    3OL    H17S12324   4.297   3.289   3.122
    3OL    C11812325   4.511   3.318   3.125
    3OL    H18R12326   4.530   3.335   3.019
    3OL    H18S12327   4.534   3.212   3.138
    3OL    H18T12328   4.578   3.381   3.186
    1PA    C11612329   4.625   1.240   3.956
    1PA    H16R12330   4.522   1.276   3.951
    1PA    H16S12331   4.626   1.175   4.044
    1PA    H16T12332   4.654   1.194   3.862
    1PA    C11512333   4.712   1.365   3.975
    1PA    H15R12334   4.698   1.425   3.884
    1PA    H15S12335   4.666   1.429   4.050
    1PA    C11412336   4.862   1.346   4.001
    1PA    H14R12337   4.910   1.444   4.000
    1PA    H14S12338   4.877   1.303   4.101
    1PA    C11312339   4.940   1.257   3.903
    1PA    H13R12340   5.041   1.251   3.943
    1PA    H13S12341   4.910   1.152   3.909
    1PA    C11212342   4.928   1.306   3.758
    1PA    H12R12343   4.830   1.278   3.719
    1PA    H12S12344   4.941   1.414   3.759
    1PA    C11112345   5.031   1.242   3.664
    1PA    H11R12346   5.135   1.261   3.693
    1PA    H11S12347   5.023   1.133   3.661
    1PA    C11012348   4.999   1.288   3.521
    1PA    H10R12349   5.040   1.215   3.451
    1PA    H10S12350   4.891   1.279   3.502
    1PA     C1912351   5.048   1.431   3.492
    1PA     H9R12352   5.004   1.498   3.566
    1PA     H9S12353   5.157   1.438   3.495
    1PA     C1812354   5.006   1.480   3.353
    1PA     H8R12355   5.078   1.554   3.319
    1PA     H8S12356   5.008   1.397   3.282
    1PA     C1712357   4.869   1.548   3.373
    1PA     H7R12358   4.798   1.485   3.427
    1PA     H7S12359   4.879   1.625   3.450
    1PA     C1612360   4.821   1.600   3.237
    1PA     H6R12361   4.824   1.509   3.176
    1PA     H6S12362   4.715   1.621   3.248
    1PA     C1512363   4.903   1.712   3.170
    1PA     H5R12364   4.853   1.799   3.213
    1PA     H5S12365   5.011   1.719   3.181
    1PA     C1412366   4.872   1.708   3.020
    1PA     H4R12367   4.889   1.613   2.969
    1PA     H4S12368   4.763   1.722   3.019
    1PA     C1312369   4.947   1.827   2.957
    1PA     H3R12370   4.913   1.919   3.005
    1PA     H3S12371   5.053   1.818   2.982
    1PA     C1212372   4.928   1.820   2.805
    1PA     H2R12373   4.826   1.807   2.769
    1PA     H2S12374   4.938   1.918   2.760
    2PC     C1112375   5.024   1.724   2.740
    2PC     O1212376   5.134   1.694   2.783
    2PC     O1112377   4.977   1.680   2.621
    2PC      C112378   5.049   1.593   2.532
    2PC      HR12379   5.139   1.643   2.495
    2PC      HS12380   5.083   1.504   2.586
    2PC      C212381   4.961   1.564   2.410
    2PC      HX12382   5.003   1.486   2.344
    2PC      C312383   4.946   1.698   2.336
    2PC      HA12384   4.882   1.758   2.401
    2PC      HB12385   5.041   1.751   2.324
    2PC     O3112386   4.889   1.662   2.209
    2PC     P3112387   4.818   1.776   2.121
    2PC     O3212388   4.852   1.724   1.973
    2PC     C3112389   4.991   1.728   1.935
    2PC     H1A12390   5.018   1.830   1.908
    2PC     H1B12391   5.057   1.693   2.014
    2PC     C3212392   5.008   1.651   1.803
    2PC     H2A12393   4.942   1.565   1.809
    2PC     H2B12394   4.987   1.709   1.713
    2PC     N3112395   5.144   1.596   1.772
    2PC     C3312396   5.124   1.502   1.657
    2PC     H3A12397   5.216   1.456   1.621
    2PC     H3B12398   5.062   1.422   1.698
    2PC     H3C12399   5.073   1.551   1.574
    2PC     C3412400   5.228   1.713   1.730
    2PC     H4A12401   5.172   1.754   1.646
    2PC     H4B12402   5.248   1.787   1.807
    2PC     H4C12403   5.328   1.684   1.698
    2PC     C3512404   5.206   1.517   1.883
    2PC     H5A12405   5.283   1.457   1.834
    2PC     H5B12406   5.133   1.443   1.917
    2PC     H5C12407   5.253   1.579   1.960
    2PC     O3312408   4.672   1.792   2.141
    2PC     O3412409   4.873   1.910   2.151
    2PC     O2112410   4.830   1.525   2.453
    2PC     C2112411   4.803   1.402   2.501
    2PC     O2212412   4.882   1.310   2.499
    3OL     C1212413   4.665   1.388   2.559
    3OL     H2R12414   4.658   1.285   2.595
    3OL     H2S12415   4.591   1.399   2.478
    3OL     C1312416   4.632   1.487   2.671
    3OL     H3R12417   4.657   1.587   2.634
    3OL     H3S12418   4.694   1.469   2.759
    3OL     C1412419   4.484   1.473   2.710
    3OL     H4R12420   4.423   1.508   2.627
    3OL     H4S12421   4.456   1.546   2.786
    3OL     C1512422   4.445   1.328   2.743
    3OL     H5R12423   4.429   1.266   2.654
    3OL     H5S12424   4.345   1.330   2.785
    3OL     C1612425   4.534   1.259   2.848
    3OL     H6R12426   4.538   1.321   2.938
    3OL     H6S12427   4.633   1.250   2.804
    3OL     C1712428   4.470   1.127   2.895
    3OL     H7R12429   4.477   1.046   2.822
    3OL     H7S12430   4.362   1.141   2.904
    3OL     C1812431   4.525   1.086   3.032
    3OL     H8R12432   4.509   1.162   3.109
    3OL     H8S12433   4.632   1.069   3.024
    3OL     C1912434   4.451   0.963   3.077
    3OL     H9R12435   4.344   0.983   3.079
    3OL    C11012436   4.491   0.842   3.115
    3OL    H10R12437   4.420   0.761   3.130
    3OL    C11112438   4.634   0.799   3.134
    3OL    H11R12439   4.714   0.869   3.112
    3OL    H11S12440   4.644   0.709   3.073
    3OL    C11212441   4.644   0.753   3.280
    3OL    H12R12442   4.710   0.665   3.279
    3OL    H12S12443   4.549   0.720   3.321
    3OL    C11312444   4.704   0.859   3.374
    3OL    H13R12445   4.633   0.942   3.377
    3OL    H13S12446   4.786   0.909   3.321
    3OL    C11412447   4.749   0.793   3.505
    3OL    H14R12448   4.825   0.716   3.493
    3OL    H14S12449   4.662   0.751   3.555
    3OL    C11512450   4.822   0.898   3.590
    3OL    H15R12451   4.748   0.978   3.600
    3OL    H15S12452   4.917   0.927   3.546
    3OL    C11612453   4.840   0.854   3.736
    3OL    H16R12454   4.759   0.790   3.771
    3OL    H16S12455   4.827   0.947   3.792
    3OL    C11712456   4.976   0.792   3.773
    3OL    H17R12457   5.007   0.711   3.707
    3OL    H17S12458   4.967   0.745   3.871
    3OL    C11812459   5.092   0.892   3.780
    3OL    H18R12460   5.103   0.926   3.677
    3OL    H18S12461   5.185   0.841   3.805
    3OL    H18T12462   5.077   0.981   3.841
    1PA    C11612463  -0.026   0.847   3.539
    1PA    H16R12464  -0.090   0.873   3.454
    1PA    H16S12465   0.043   0.924   3.573
    1PA    H16T12466  -0.093   0.816   3.619
    1PA    C11512467   0.047   0.718   3.498
    1PA    H15R12468   0.081   0.670   3.589
    1PA    H15S12469  -0.024   0.652   3.447
    1PA    C11412470   0.157   0.760   3.399
    1PA    H14R12471   0.116   0.760   3.298
    1PA    H14S12472   0.202   0.857   3.419
    1PA    C11312473   0.276   0.664   3.402
    1PA    H13R12474   0.328   0.671   3.498
    1PA    H13S12475   0.229   0.566   3.387
    1PA    C11212476   0.368   0.706   3.287
    1PA    H12R12477   0.310   0.698   3.195
    1PA    H12S12478   0.392   0.812   3.299
    1PA    C11112479   0.494   0.621   3.269
    1PA    H11R12480   0.555   0.602   3.358
    1PA    H11S12481   0.458   0.526   3.230
    1PA    C11012482   0.584   0.691   3.165
    1PA    H10R12483   0.524   0.711   3.076
    1PA    H10S12484   0.605   0.787   3.214
    1PA     C1912485   0.708   0.607   3.135
    1PA     H9R12486   0.764   0.603   3.228
    1PA     H9S12487   0.683   0.503   3.115
    1PA     C1812488   0.791   0.676   3.025
    1PA     H8R12489   0.802   0.780   3.054
    1PA     H8S12490   0.889   0.629   3.012
    1PA     C1712491   0.727   0.673   2.886
    1PA     H7R12492   0.700   0.573   2.850
    1PA     H7S12493   0.632   0.726   2.891
    1PA     C1612494   0.821   0.754   2.795
    1PA     H6R12495   0.835   0.842   2.859
    1PA     H6S12496   0.911   0.693   2.786
    1PA     C1512497   0.749   0.787   2.663
    1PA     H5R12498   0.750   0.700   2.597
    1PA     H5S12499   0.645   0.805   2.690
    1PA     C1412500   0.805   0.908   2.588
    1PA     H4R12501   0.778   0.993   2.650
    1PA     H4S12502   0.914   0.906   2.574
    1PA     C1312503   0.727   0.916   2.456
    1PA     H3R12504   0.736   0.820   2.405
    1PA     H3S12505   0.619   0.931   2.466
    1PA     C1212506   0.782   1.027   2.366
    1PA     H2R12507   0.793   1.120   2.423
    1PA     H2S12508   0.883   1.004   2.331
    2PC     C1112509   0.705   1.051   2.238
    2PC     O1212510   0.683   0.967   2.153
    2PC     O1112511   0.668   1.179   2.229
    2PC      C112512   0.579   1.231   2.128
    2PC      HR12513   0.568   1.339   2.145
    2PC      HS12514   0.621   1.220   2.028
    2PC      C212515   0.438   1.172   2.118
    2PC      HX12516   0.452   1.064   2.109
    2PC      C312517   0.355   1.225   2.001
    2PC      HA12518   0.404   1.193   1.908
    2PC      HB12519   0.248   1.206   2.013
    2PC     O3112520   0.368   1.369   2.000
    2PC     P3112521   0.286   1.444   1.885
    2PC     O3212522   0.342   1.372   1.754
    2PC     C3112523   0.472   1.413   1.705
    2PC     H1A12524   0.472   1.512   1.659
    2PC     H1B12525   0.538   1.406   1.792
    2PC     C3212526   0.517   1.318   1.594
    2PC     H2A12527   0.613   1.348   1.552
    2PC     H2B12528   0.524   1.214   1.627
    2PC     N3112529   0.431   1.301   1.472
    2PC     C3312530   0.503   1.221   1.367
    2PC     H3A12531   0.588   1.279   1.332
    2PC     H3B12532   0.535   1.123   1.400
    2PC     H3C12533   0.427   1.198   1.292
    2PC     C3412534   0.299   1.239   1.509
    2PC     H4A12535   0.321   1.145   1.559
    2PC     H4B12536   0.250   1.310   1.576
    2PC     H4C12537   0.247   1.220   1.415
    2PC     C3512538   0.404   1.436   1.415
    2PC     H5A12539   0.357   1.498   1.491
    2PC     H5B12540   0.342   1.433   1.325
    2PC     H5C12541   0.500   1.486   1.403
    2PC     O3312542   0.141   1.422   1.905
    2PC     O3412543   0.299   1.590   1.864
    2PC     O2112544   0.367   1.212   2.237
    2PC     C2112545   0.257   1.145   2.276
    2PC     O2212546   0.224   1.033   2.240
    3OL     C1212547   0.174   1.215   2.380
    3OL     H2R12548   0.106   1.143   2.426
    3OL     H2S12549   0.118   1.290   2.323
    3OL     C1312550   0.251   1.282   2.494
    3OL     H3R12551   0.183   1.349   2.547
    3OL     H3S12552   0.334   1.338   2.450
    3OL     C1412553   0.312   1.179   2.590
    3OL     H4R12554   0.345   1.095   2.529
    3OL     H4S12555   0.227   1.138   2.645
    3OL     C1512556   0.435   1.229   2.667
    3OL     H5R12557   0.423   1.309   2.741
    3OL     H5S12558   0.513   1.257   2.596
    3OL     C1612559   0.490   1.115   2.754
    3OL     H6R12560   0.564   1.060   2.696
    3OL     H6S12561   0.413   1.044   2.782
    3OL     C1712562   0.565   1.163   2.880
    3OL     H7R12563   0.506   1.223   2.949
    3OL     H7S12564   0.649   1.223   2.845
    3OL     C1812565   0.614   1.036   2.952
    3OL     H8R12566   0.657   0.967   2.879
    3OL     H8S12567   0.527   0.999   3.005
    3OL     C1912568   0.723   1.066   3.052
    3OL     H9R12569   0.824   1.068   3.011
    3OL    C11012570   0.697   1.097   3.178
    3OL    H10R12571   0.774   1.118   3.252
    3OL    C11112572   0.560   1.097   3.241
    3OL    H11R12573   0.527   0.995   3.261
    3OL    H11S12574   0.486   1.145   3.176
    3OL    C11212575   0.542   1.165   3.377
    3OL    H12R12576   0.616   1.129   3.449
    3OL    H12S12577   0.447   1.120   3.409
    3OL    C11312578   0.536   1.318   3.370
    3OL    H13R12579   0.477   1.351   3.284
    3OL    H13S12580   0.636   1.356   3.349
    3OL    C11412581   0.488   1.371   3.505
    3OL    H14R12582   0.567   1.361   3.580
    3OL    H14S12583   0.408   1.307   3.543
    3OL    C11512584   0.439   1.517   3.509
    3OL    H15R12585   0.355   1.521   3.440
    3OL    H15S12586   0.516   1.583   3.470
    3OL    C11612587   0.391   1.552   3.651
    3OL    H16R12588   0.457   1.503   3.722
    3OL    H16S12589   0.293   1.507   3.665
    3OL    C11712590   0.376   1.704   3.670
    3OL    H17R12591   0.471   1.756   3.655
    3OL    H17S12592   0.353   1.730   3.774
    3OL    C11812593   0.270   1.759   3.574
    3OL    H18R12594   0.296   1.722   3.474
    3OL    H18S12595   0.271   1.868   3.577
    3OL    H18T12596   0.171   1.725   3.605
    1PA    C11612597   6.341  -0.057   3.784
    1PA    H16R12598   6.425  -0.119   3.752
    1PA    H16S12599   6.325  -0.097   3.884
    1PA    H16T12600   6.367   0.046   3.810
    1PA    C11512601   6.213  -0.084   3.704
    1PA    H15R12602   6.191  -0.191   3.702
    1PA    H15S12603   6.126  -0.050   3.761
    1PA    C11412604   6.204  -0.038   3.558
    1PA    H14R12605   6.111  -0.077   3.515
    1PA    H14S12606   6.216   0.071   3.561
    1PA    C11312607   6.320  -0.091   3.473
    1PA    H13R12608   6.414  -0.048   3.509
    1PA    H13S12609   6.325  -0.198   3.491
    1PA    C11212610   6.308  -0.062   3.323
    1PA    H12R12611   6.220  -0.118   3.289
    1PA    H12S12612   6.294   0.046   3.317
    1PA    C11112613   6.429  -0.106   3.239
    1PA    H11R12614   6.525  -0.062   3.267
    1PA    H11S12615   6.438  -0.213   3.258
    1PA    C11012616   6.386  -0.071   3.096
    1PA    H10R12617   6.310  -0.143   3.064
    1PA    H10S12618   6.355   0.031   3.075
    1PA     C1912619   6.513  -0.089   3.011
    1PA     H9R12620   6.574   0.000   3.030
    1PA     H9S12621   6.586  -0.168   3.028
    1PA     C1812622   6.487  -0.089   2.860
    1PA     H8R12623   6.524  -0.177   2.808
    1PA     H8S12624   6.378  -0.088   2.856
    1PA     C1712625   6.536   0.040   2.793
    1PA     H7R12626   6.504   0.128   2.849
    1PA     H7S12627   6.643   0.020   2.790
    1PA     C1612628   6.483   0.056   2.649
    1PA     H6R12629   6.513  -0.035   2.597
    1PA     H6S12630   6.376   0.074   2.654
    1PA     C1512631   6.549   0.168   2.567
    1PA     H5R12632   6.520   0.259   2.619
    1PA     H5S12633   6.658   0.171   2.573
    1PA     C1412634   6.494   0.169   2.423
    1PA     H4R12635   6.536   0.083   2.370
    1PA     H4S12636   6.385   0.169   2.431
    1PA     C1312637   6.536   0.303   2.362
    1PA     H3R12638   6.500   0.382   2.427
    1PA     H3S12639   6.645   0.307   2.366
    1PA     C1212640   6.474   0.317   2.222
    1PA     H2R12641   6.536   0.252   2.160
    1PA     H2S12642   6.367   0.297   2.221
    2PC     C1112643   6.475   0.451   2.152
    2PC     O1212644   6.453   0.467   2.033
    2PC     O1112645   6.505   0.553   2.234
    2PC      C112646   6.488   0.687   2.184
    2PC      HR12647   6.522   0.754   2.264
    2PC      HS12648   6.550   0.691   2.094
    2PC      C212649   6.340   0.720   2.167
    2PC      HX12650   6.285   0.646   2.108
    2PC      C312651   6.313   0.859   2.108
    2PC      HA12652   6.211   0.875   2.144
    2PC      HB12653   6.381   0.933   2.152
    2PC     O3112654   6.318   0.853   1.964
    2PC     P3112655   6.319   0.975   1.861
    2PC     O3212656   6.189   1.054   1.913
    2PC     C3112657   6.057   1.024   1.863
    2PC     H1A12658   6.045   0.916   1.852
    2PC     H1B12659   5.979   1.064   1.928
    2PC     C3212660   6.038   1.091   1.726
    2PC     H2A12661   6.101   1.049   1.647
    2PC     H2B12662   5.938   1.056   1.700
    2PC     N3112663   6.026   1.240   1.716
    2PC     C3312664   5.982   1.288   1.581
    2PC     H3A12665   5.980   1.397   1.585
    2PC     H3B12666   6.058   1.251   1.512
    2PC     H3C12667   5.880   1.254   1.562
    2PC     C3412668   5.922   1.289   1.812
    2PC     H4A12669   5.831   1.228   1.808
    2PC     H4B12670   5.969   1.299   1.910
    2PC     H4C12671   5.885   1.388   1.785
    2PC     C3512672   6.159   1.301   1.750
    2PC     H5A12673   6.188   1.266   1.849
    2PC     H5B12674   6.137   1.408   1.746
    2PC     H5C12675   6.235   1.276   1.676
    2PC     O3312676   6.446   1.051   1.858
    2PC     O3412677   6.300   0.943   1.717
    2PC     O2112678   6.278   0.718   2.297
    2PC     C2112679   6.222   0.605   2.343
    2PC     O2212680   6.222   0.503   2.278
    3OL     C1212681   6.189   0.608   2.490
    3OL     H2R12682   6.083   0.594   2.512
    3OL     H2S12683   6.214   0.710   2.519
    3OL     C1312684   6.291   0.522   2.567
    3OL     H3R12685   6.389   0.570   2.569
    3OL     H3S12686   6.304   0.423   2.522
    3OL     C1412687   6.237   0.508   2.710
    3OL     H4R12688   6.139   0.461   2.712
    3OL     H4S12689   6.233   0.603   2.762
    3OL     C1512690   6.329   0.424   2.800
    3OL     H5R12691   6.435   0.449   2.788
    3OL     H5S12692   6.319   0.317   2.779
    3OL     C1612693   6.287   0.445   2.946
    3OL     H6R12694   6.181   0.417   2.955
    3OL     H6S12695   6.291   0.550   2.976
    3OL     C1712696   6.373   0.369   3.048
    3OL     H7R12697   6.477   0.389   3.023
    3OL     H7S12698   6.360   0.263   3.024
    3OL     C1812699   6.349   0.405   3.196
    3OL     H8R12700   6.366   0.512   3.207
    3OL     H8S12701   6.419   0.338   3.246
    3OL     C1912702   6.206   0.367   3.226
    3OL     H9R12703   6.179   0.267   3.192
    3OL    C11012704   6.115   0.443   3.284
    3OL    H10R12705   6.019   0.394   3.297
    3OL    C11112706   6.130   0.584   3.336
    3OL    H11R12707   6.159   0.649   3.254
    3OL    H11S12708   6.212   0.586   3.409
    3OL    C11212709   5.997   0.626   3.402
    3OL    H12R12710   5.967   0.539   3.461
    3OL    H12S12711   5.910   0.643   3.339
    3OL    C11312712   6.023   0.729   3.513
    3OL    H13R12713   6.121   0.721   3.560
    3OL    H13S12714   5.946   0.713   3.588
    3OL    C11412715   6.006   0.869   3.451
    3OL    H14R12716   5.909   0.866   3.402
    3OL    H14S12717   6.079   0.890   3.372
    3OL    C11512718   5.998   0.991   3.543
    3OL    H15R12719   6.101   1.018   3.568
    3OL    H15S12720   5.950   0.968   3.638
    3OL    C11612721   5.928   1.108   3.471
    3OL    H16R12722   5.830   1.083   3.430
    3OL    H16S12723   5.989   1.149   3.391
    3OL    C11712724   5.914   1.224   3.570
    3OL    H17R12725   6.009   1.240   3.623
    3OL    H17S12726   5.842   1.185   3.642
    3OL    C11812727   5.863   1.353   3.504
    3OL    H18R12728   5.829   1.414   3.588
    3OL    H18S12729   5.785   1.332   3.431
    3OL    H18T12730   5.954   1.401   3.467
    1PA    C11612731   5.667   6.429   3.828
    1PA    H16R12732   5.776   6.430   3.828
    1PA    H16S12733   5.624   6.401   3.924
    1PA    H16T12734   5.631   6.527   3.796
    1PA    C11512735   5.616   6.324   3.728
    1PA    H15R12736   5.508   6.325   3.716
    1PA    H15S12737   5.655   6.350   3.629
    1PA    C11412738   5.671   6.183   3.758
    1PA    H14R12739   5.779   6.188   3.740
    1PA    H14S12740   5.657   6.166   3.865
    1PA    C11312741   5.603   6.072   3.676
    1PA    H13R12742   5.658   5.978   3.689
    1PA    H13S12743   5.502   6.054   3.712
    1PA    C11212744   5.598   6.094   3.524
    1PA    H12R12745   5.519   6.168   3.504
    1PA    H12S12746   5.698   6.128   3.498
    1PA    C11112747   5.563   5.960   3.458
    1PA    H11R12748   5.634   5.883   3.489
    1PA    H11S12749   5.463   5.922   3.481
    1PA    C11012750   5.574   5.979   3.307
    1PA    H10R12751   5.499   6.056   3.288
    1PA    H10S12752   5.674   6.022   3.292
    1PA     C1912753   5.546   5.857   3.218
    1PA     H9R12754   5.612   5.771   3.234
    1PA     H9S12755   5.442   5.832   3.237
    1PA     C1812756   5.571   5.899   3.073
    1PA     H8R12757   5.494   5.972   3.047
    1PA     H8S12758   5.665   5.952   3.057
    1PA     C1712759   5.558   5.785   2.971
    1PA     H7R12760   5.617   5.695   2.992
    1PA     H7S12761   5.454   5.753   2.966
    1PA     C1612762   5.605   5.835   2.834
    1PA     H6R12763   5.591   5.752   2.764
    1PA     H6S12764   5.544   5.912   2.787
    1PA     C1512765   5.755   5.870   2.827
    1PA     H5R12766   5.787   5.953   2.889
    1PA     H5S12767   5.811   5.783   2.861
    1PA     C1412768   5.788   5.908   2.682
    1PA     H4R12769   5.892   5.941   2.673
    1PA     H4S12770   5.779   5.828   2.608
    1PA     C1312771   5.718   6.034   2.628
    1PA     H3R12772   5.620   6.000   2.595
    1PA     H3S12773   5.706   6.098   2.716
    1PA     C1212774   5.796   6.106   2.518
    1PA     H2R12775   5.885   6.149   2.565
    1PA     H2S12776   5.830   6.035   2.442
    2PC     C1112777   5.716   6.212   2.447
    2PC     O1212778   5.594   6.211   2.455
    2PC     O1112779   5.784   6.312   2.390
    2PC      C112780   5.718   6.420   2.321
    2PC      HR12781   5.624   6.388   2.275
    2PC      HS12782   5.700   6.501   2.392
    2PC      C212783   5.811   6.468   2.209
    2PC      HX12784   5.766   6.560   2.169
    2PC      C312785   5.806   6.358   2.101
    2PC      HA12786   5.874   6.278   2.132
    2PC      HB12787   5.704   6.320   2.095
    2PC     O3112788   5.842   6.422   1.977
    2PC     P3112789   5.887   6.331   1.854
    2PC     O3212790   6.042   6.319   1.896
    2PC     C3112791   6.105   6.191   1.877
    2PC     H1A12792   6.190   6.184   1.945
    2PC     H1B12793   6.041   6.106   1.901
    2PC     C3212794   6.152   6.173   1.732
    2PC     H2A12795   6.192   6.072   1.727
    2PC     H2B12796   6.061   6.176   1.673
    2PC     N3112797   6.249   6.268   1.668
    2PC     C3312798   6.381   6.251   1.737
    2PC     H3A12799   6.368   6.251   1.845
    2PC     H3B12800   6.421   6.152   1.716
    2PC     H3C12801   6.447   6.336   1.717
    2PC     C3412802   6.262   6.230   1.524
    2PC     H4A12803   6.308   6.131   1.530
    2PC     H4B12804   6.164   6.224   1.477
    2PC     H4C12805   6.334   6.303   1.487
    2PC     C3512806   6.206   6.412   1.676
    2PC     H5A12807   6.284   6.471   1.627
    2PC     H5B12808   6.192   6.435   1.782
    2PC     H5C12809   6.110   6.441   1.634
    2PC     O3312810   5.827   6.196   1.843
    2PC     O3412811   5.875   6.415   1.732
    2PC     O2112812   5.943   6.498   2.257
    2PC     C2112813   5.961   6.608   2.333
    2PC     O2212814   5.876   6.693   2.346
    3OL     C1212815   6.096   6.610   2.400
    3OL     H2R12816   6.130   6.710   2.429
    3OL     H2S12817   6.167   6.568   2.328
    3OL     C1312818   6.103   6.514   2.520
    3OL     H3R12819   6.202   6.475   2.542
    3OL     H3S12820   6.037   6.433   2.487
    3OL     C1412821   6.044   6.587   2.641
    3OL     H4R12822   5.937   6.609   2.629
    3OL     H4S12823   6.101   6.676   2.667
    3OL     C1512824   6.037   6.498   2.766
    3OL     H5R12825   6.134   6.455   2.790
    3OL     H5S12826   5.970   6.417   2.734
    3OL     C1612827   5.987   6.570   2.892
    3OL     H6R12828   5.880   6.586   2.877
    3OL     H6S12829   6.040   6.666   2.885
    3OL     C1712830   6.024   6.485   3.014
    3OL     H7R12831   6.126   6.497   3.051
    3OL     H7S12832   6.004   6.381   2.986
    3OL     C1812833   5.938   6.532   3.132
    3OL     H8R12834   5.844   6.577   3.100
    3OL     H8S12835   5.988   6.613   3.185
    3OL     C1912836   5.899   6.426   3.232
    3OL     H9R12837   5.896   6.321   3.205
    3OL    C11012838   5.865   6.458   3.356
    3OL    H10R12839   5.836   6.380   3.425
    3OL    C11112840   5.888   6.592   3.421
    3OL    H11R12841   5.831   6.674   3.376
    3OL    H11S12842   5.994   6.616   3.424
    3OL    C11212843   5.837   6.589   3.566
    3OL    H12R12844   5.890   6.516   3.628
    3OL    H12S12845   5.736   6.548   3.568
    3OL    C11312846   5.842   6.720   3.646
    3OL    H13R12847   5.932   6.775   3.616
    3OL    H13S12848   5.847   6.698   3.752
    3OL    C11412849   5.724   6.813   3.613
    3OL    H14R12850   5.627   6.773   3.642
    3OL    H14S12851   5.730   6.836   3.507
    3OL    C11512852   5.735   6.948   3.686
    3OL    H15R12853   5.838   6.985   3.683
    3OL    H15S12854   5.738   6.936   3.795
    3OL    C11612855   5.628   7.049   3.645
    3OL    H16R12856   5.526   7.018   3.669
    3OL    H16S12857   5.633   7.073   3.538
    3OL    C11712858   5.650   7.167   3.740
    3OL    H17R12859   5.751   7.206   3.727
    3OL    H17S12860   5.635   7.142   3.845
    3OL    C11812861   5.550   7.282   3.718
    3OL    H18R12862   5.559   7.361   3.793
    3OL    H18S12863   5.449   7.239   3.725
    3OL    H18T12864   5.566   7.332   3.622
    1PA    C11612865   1.377   1.445   4.149
    1PA    H16R12866   1.329   1.383   4.073
    1PA    H16S12867   1.389   1.391   4.243
    1PA    H16T12868   1.471   1.479   4.104
    1PA    C11512869   1.286   1.568   4.163
    1PA    H15R12870   1.184   1.540   4.188
    1PA    H15S12871   1.323   1.626   4.248
    1PA    C11412872   1.292   1.652   4.035
    1PA    H14R12873   1.248   1.752   4.042
    1PA    H14S12874   1.394   1.663   3.997
    1PA    C11312875   1.211   1.597   3.917
    1PA    H13R12876   1.232   1.490   3.904
    1PA    H13S12877   1.106   1.604   3.947
    1PA    C11212878   1.231   1.691   3.798
    1PA    H12R12879   1.229   1.796   3.828
    1PA    H12S12880   1.331   1.671   3.759
    1PA    C11112881   1.124   1.659   3.693
    1PA    H11R12882   1.119   1.555   3.659
    1PA    H11S12883   1.021   1.674   3.726
    1PA    C11012884   1.152   1.737   3.563
    1PA    H10R12885   1.152   1.845   3.576
    1PA    H10S12886   1.255   1.708   3.540
    1PA     C1912887   1.066   1.700   3.442
    1PA     H9R12888   1.104   1.604   3.404
    1PA     H9S12889   0.960   1.696   3.464
    1PA     C1812890   1.082   1.806   3.333
    1PA     H8R12891   1.049   1.906   3.364
    1PA     H8S12892   1.183   1.818   3.293
    1PA     C1712893   1.002   1.770   3.207
    1PA     H7R12894   1.040   1.672   3.176
    1PA     H7S12895   0.895   1.752   3.225
    1PA     C1612896   1.014   1.881   3.102
    1PA     H6R12897   0.972   1.977   3.132
    1PA     H6S12898   1.121   1.901   3.098
    1PA     C1512899   0.962   1.836   2.965
    1PA     H5R12900   1.013   1.744   2.938
    1PA     H5S12901   0.855   1.814   2.977
    1PA     C1412902   0.980   1.950   2.863
    1PA     H4R12903   0.949   2.044   2.909
    1PA     H4S12904   1.081   1.968   2.826
    1PA     C1312905   0.898   1.931   2.735
    1PA     H3R12906   0.900   1.832   2.689
    1PA     H3S12907   0.798   1.944   2.776
    1PA     C1212908   0.934   2.033   2.626
    1PA     H2R12909   0.924   2.131   2.672
    1PA     H2S12910   1.035   2.006   2.593
    2PC     C1112911   0.835   2.028   2.512
    2PC     O1212912   0.864   2.030   2.394
    2PC     O1112913   0.706   2.021   2.548
    2PC      C112914   0.594   2.019   2.458
    2PC      HR12915   0.599   2.103   2.387
    2PC      HS12916   0.602   1.927   2.400
    2PC      C212917   0.464   2.008   2.538
    2PC      HX12918   0.469   1.924   2.607
    2PC      C312919   0.339   1.977   2.455
    2PC      HA12920   0.360   1.875   2.422
    2PC      HB12921   0.261   1.997   2.528
    2PC     O3112922   0.332   2.060   2.338
    2PC     P3112923   0.219   2.024   2.229
    2PC     O3212924   0.088   2.058   2.315
    2PC     C3112925  -0.037   2.084   2.250
    2PC     H1A12926  -0.037   2.182   2.201
    2PC     H1B12927  -0.068   2.007   2.179
    2PC     C3212928  -0.148   2.094   2.356
    2PC     H2A12929  -0.121   2.165   2.433
    2PC     H2B12930  -0.242   2.118   2.307
    2PC     N3112931  -0.185   1.964   2.420
    2PC     C3312932  -0.281   1.997   2.531
    2PC     H3A12933  -0.379   2.023   2.491
    2PC     H3B12934  -0.295   1.907   2.592
    2PC     H3C12935  -0.236   2.076   2.590
    2PC     C3412936  -0.252   1.870   2.324
    2PC     H4A12937  -0.171   1.850   2.254
    2PC     H4B12938  -0.293   1.782   2.375
    2PC     H4C12939  -0.327   1.932   2.277
    2PC     C3512940  -0.081   1.888   2.496
    2PC     H5A12941  -0.121   1.800   2.547
    2PC     H5B12942  -0.038   1.958   2.567
    2PC     H5C12943   0.006   1.852   2.439
    2PC     O3312944   0.236   2.106   2.107
    2PC     O3412945   0.225   1.879   2.198
    2PC     O2112946   0.447   2.138   2.598
    2PC     C2112947   0.488   2.139   2.725
    2PC     O2212948   0.519   2.041   2.791
    3OL     C1212949   0.511   2.273   2.789
    3OL     H2R12950   0.513   2.348   2.710
    3OL     H2S12951   0.617   2.279   2.815
    3OL     C1312952   0.416   2.293   2.908
    3OL     H3R12953   0.413   2.205   2.972
    3OL     H3S12954   0.311   2.308   2.881
    3OL     C1412955   0.461   2.407   3.001
    3OL     H4R12956   0.445   2.503   2.950
    3OL     H4S12957   0.568   2.391   3.018
    3OL     C1512958   0.384   2.421   3.133
    3OL     H5R12959   0.275   2.420   3.118
    3OL     H5S12960   0.411   2.520   3.171
    3OL     C1612961   0.438   2.317   3.231
    3OL     H6R12962   0.547   2.317   3.236
    3OL     H6S12963   0.400   2.220   3.197
    3OL     C1712964   0.390   2.344   3.375
    3OL     H7R12965   0.431   2.268   3.442
    3OL     H7S12966   0.283   2.323   3.385
    3OL     C1812967   0.428   2.483   3.428
    3OL     H8R12968   0.376   2.564   3.377
    3OL     H8S12969   0.533   2.493   3.399
    3OL     C1912970   0.412   2.504   3.576
    3OL     H9R12971   0.309   2.486   3.606
    3OL    C11012972   0.495   2.545   3.671
    3OL    H10R12973   0.464   2.547   3.776
    3OL    C11112974   0.635   2.583   3.633
    3OL    H11R12975   0.635   2.692   3.640
    3OL    H11S12976   0.677   2.556   3.536
    3OL    C11212977   0.735   2.539   3.741
    3OL    H12R12978   0.837   2.567   3.714
    3OL    H12S12979   0.742   2.430   3.744
    3OL    C11312980   0.691   2.570   3.884
    3OL    H13R12981   0.770   2.515   3.935
    3OL    H13S12982   0.599   2.519   3.914
    3OL    C11412983   0.697   2.714   3.936
    3OL    H14R12984   0.621   2.777   3.888
    3OL    H14S12985   0.793   2.754   3.900
    3OL    C11512986   0.686   2.717   4.089
    3OL    H15R12987   0.748   2.797   4.128
    3OL    H15S12988   0.725   2.621   4.125
    3OL    C11612989   0.537   2.726   4.124
    3OL    H16R12990   0.485   2.649   4.066
    3OL    H16S12991   0.505   2.828   4.104
    3OL    C11712992   0.516   2.691   4.272
    3OL    H17R12993   0.566   2.763   4.337
    3OL    H17S12994   0.572   2.600   4.294
    3OL    C11812995   0.369   2.693   4.314
    3OL    H18R12996   0.321   2.599   4.284
    3OL    H18S12997   0.320   2.768   4.251
    3OL    H18T12998   0.357   2.698   4.422
    1PA    C11612999   4.227   6.144   3.781
    1PA    H16R13000   4.158   6.150   3.866
    1PA    H16S13001   4.178   6.116   3.688
    1PA    H16T13002   4.279   6.239   3.767
    1PA    C11513003   4.339   6.046   3.817
    1PA    H15R13004   4.416   6.091   3.880
    1PA    H15S13005   4.294   5.965   3.875
    1PA    C11413006   4.404   5.996   3.687
    1PA    H14R13007   4.327   5.980   3.610
    1PA    H14S13008   4.463   6.081   3.652
    1PA    C11313009   4.507   5.885   3.712
    1PA    H13R13010   4.589   5.914   3.778
    1PA    H13S13011   4.446   5.805   3.754
    1PA    C11213012   4.562   5.843   3.575
    1PA    H12R13013   4.600   5.742   3.597
    1PA    H12S13014   4.478   5.828   3.507
    1PA    C11113015   4.671   5.933   3.515
    1PA    H11R13016   4.625   6.032   3.505
    1PA    H11S13017   4.753   5.962   3.581
    1PA    C11013018   4.711   5.888   3.374
    1PA    H10R13019   4.629   5.826   3.335
    1PA    H10S13020   4.726   5.977   3.313
    1PA     C1913021   4.830   5.791   3.369
    1PA     H9R13022   4.925   5.842   3.389
    1PA     H9S13023   4.816   5.705   3.434
    1PA     C1813024   4.833   5.738   3.225
    1PA     H8R13025   4.755   5.664   3.205
    1PA     H8S13026   4.821   5.817   3.151
    1PA     C1713027   4.961   5.653   3.211
    1PA     H7R13028   5.051   5.685   3.264
    1PA     H7S13029   4.936   5.565   3.271
    1PA     C1613030   5.006   5.633   3.066
    1PA     H6R13031   5.096   5.572   3.076
    1PA     H6S13032   4.930   5.574   3.013
    1PA     C1513033   5.036   5.751   2.973
    1PA     H5R13034   4.950   5.818   2.962
    1PA     H5S13035   5.126   5.807   3.001
    1PA     C1413036   5.055   5.715   2.825
    1PA     H4R13037   5.111   5.621   2.823
    1PA     H4S13038   4.952   5.701   2.790
    1PA     C1313039   5.113   5.827   2.738
    1PA     H3R13040   5.086   5.926   2.776
    1PA     H3S13041   5.221   5.823   2.748
    1PA     C1213042   5.082   5.810   2.588
    1PA     H2R13043   5.088   5.704   2.563
    1PA     H2S13044   4.982   5.849   2.569
    2PC     C1113045   5.173   5.889   2.498
    2PC     O1213046   5.189   5.876   2.378
    2PC     O1113047   5.225   5.994   2.564
    2PC      C113048   5.310   6.091   2.500
    2PC      HR13049   5.371   6.152   2.566
    2PC      HS13050   5.371   6.033   2.429
    2PC      C213051   5.221   6.181   2.412
    2PC      HX13052   5.163   6.119   2.343
    2PC      C313053   5.299   6.276   2.320
    2PC      HA13054   5.337   6.353   2.388
    2PC      HB13055   5.379   6.224   2.267
    2PC     O3113056   5.210   6.334   2.224
    2PC     P3113057   5.189   6.249   2.090
    2PC     O3213058   5.132   6.363   1.993
    2PC     C3113059   4.989   6.375   1.994
    2PC     H1A13060   4.941   6.286   1.951
    2PC     H1B13061   4.958   6.398   2.096
    2PC     C3213062   4.967   6.492   1.896
    2PC     H2A13063   5.014   6.575   1.949
    2PC     H2B13064   5.001   6.476   1.794
    2PC     N3113065   4.831   6.554   1.883
    2PC     C3313066   4.787   6.598   2.019
    2PC     H3A13067   4.854   6.674   2.062
    2PC     H3B13068   4.683   6.631   2.015
    2PC     H3C13069   4.797   6.515   2.089
    2PC     C3413070   4.817   6.670   1.788
    2PC     H4A13071   4.870   6.636   1.699
    2PC     H4B13072   4.712   6.686   1.766
    2PC     H4C13073   4.872   6.754   1.829
    2PC     C3513074   4.728   6.453   1.842
    2PC     H5A13075   4.628   6.498   1.844
    2PC     H5B13076   4.725   6.365   1.905
    2PC     H5C13077   4.739   6.413   1.741
    2PC     O3313078   5.313   6.188   2.036
    2PC     O3413079   5.088   6.141   2.094
    2PC     O2113080   5.125   6.247   2.496
    2PC     C2113081   5.000   6.200   2.512
    2PC     O2213082   4.946   6.117   2.442
    3OL     C1213083   4.935   6.257   2.636
    3OL     H2R13084   4.827   6.272   2.631
    3OL     H2S13085   4.967   6.361   2.640
    3OL     C1313086   4.960   6.173   2.762
    3OL     H3R13087   5.068   6.181   2.775
    3OL     H3S13088   4.935   6.068   2.748
    3OL     C1413089   4.879   6.233   2.877
    3OL     H4R13090   4.775   6.250   2.849
    3OL     H4S13091   4.929   6.329   2.889
    3OL     C1513092   4.886   6.149   3.005
    3OL     H5R13093   4.843   6.050   2.985
    3OL     H5S13094   4.826   6.201   3.080
    3OL     C1613095   5.030   6.153   3.058
    3OL     H6R13096   5.046   6.260   3.071
    3OL     H6S13097   5.101   6.113   2.985
    3OL     C1713098   5.046   6.077   3.190
    3OL     H7R13099   5.006   5.976   3.177
    3OL     H7S13100   4.977   6.115   3.266
    3OL     C1813101   5.186   6.067   3.254
    3OL     H8R13102   5.223   6.168   3.268
    3OL     H8S13103   5.255   6.026   3.180
    3OL     C1913104   5.182   5.989   3.383
    3OL     H9R13105   5.176   5.881   3.377
    3OL    C11013106   5.191   6.046   3.503
    3OL    H10R13107   5.189   5.980   3.589
    3OL    C11113108   5.205   6.193   3.531
    3OL    H11R13109   5.147   6.252   3.460
    3OL    H11S13110   5.308   6.229   3.535
    3OL    C11213111   5.141   6.223   3.667
    3OL    H12R13112   5.194   6.155   3.735
    3OL    H12S13113   5.034   6.204   3.662
    3OL    C11313114   5.167   6.368   3.712
    3OL    H13R13115   5.104   6.434   3.653
    3OL    H13S13116   5.273   6.395   3.705
    3OL    C11413117   5.117   6.388   3.855
    3OL    H14R13118   5.172   6.321   3.921
    3OL    H14S13119   5.017   6.347   3.869
    3OL    C11513120   5.123   6.537   3.895
    3OL    H15R13121   5.082   6.602   3.818
    3OL    H15S13122   5.225   6.576   3.892
    3OL    C11613123   5.070   6.565   4.036
    3OL    H16R13124   5.124   6.509   4.113
    3OL    H16S13125   4.965   6.539   4.051
    3OL    C11713126   5.079   6.717   4.058
    3OL    H17R13127   5.011   6.776   3.996
    3OL    H17S13128   5.178   6.751   4.028
    3OL    C11813129   5.067   6.745   4.209
    3OL    H18R13130   4.965   6.710   4.227
    3OL    H18S13131   5.073   6.853   4.222
    3OL    H18T13132   5.140   6.690   4.269
    1PA    C11613133   4.913   0.382   3.497
    1PA    H16R13134   4.846   0.359   3.580
    1PA    H16S13135   4.877   0.349   3.400
    1PA    H16T13136   4.918   0.491   3.502
    1PA    C11513137   5.053   0.327   3.527
    1PA    H15R13138   5.049   0.231   3.579
    1PA    H15S13139   5.111   0.324   3.435
    1PA    C11413140   5.126   0.420   3.625
    1PA    H14R13141   5.142   0.517   3.576
    1PA    H14S13142   5.059   0.442   3.708
    1PA    C11313143   5.265   0.361   3.651
    1PA    H13R13144   5.311   0.413   3.736
    1PA    H13S13145   5.243   0.263   3.695
    1PA    C11213146   5.354   0.335   3.529
    1PA    H12R13147   5.306   0.379   3.440
    1PA    H12S13148   5.440   0.400   3.542
    1PA    C11113149   5.395   0.190   3.509
    1PA    H11R13150   5.479   0.158   3.572
    1PA    H11S13151   5.313   0.119   3.524
    1PA    C11013152   5.463   0.165   3.373
    1PA    H10R13153   5.406   0.199   3.286
    1PA    H10S13154   5.555   0.223   3.393
    1PA     C1913155   5.488   0.018   3.340
    1PA     H9R13156   5.547  -0.027   3.420
    1PA     H9S13157   5.391  -0.031   3.347
    1PA     C1813158   5.561  -0.001   3.206
    1PA     H8R13159   5.503   0.052   3.129
    1PA     H8S13160   5.654   0.055   3.212
    1PA     C1713161   5.579  -0.148   3.167
    1PA     H7R13162   5.647  -0.184   3.245
    1PA     H7S13163   5.487  -0.206   3.162
    1PA     C1613164   5.644  -0.174   3.031
    1PA     H6R13165   5.752  -0.156   3.039
    1PA     H6S13166   5.632  -0.280   3.008
    1PA     C1513167   5.598  -0.076   2.923
    1PA     H5R13168   5.626   0.024   2.956
    1PA     H5S13169   5.668  -0.097   2.841
    1PA     C1413170   5.451  -0.092   2.883
    1PA     H4R13171   5.432  -0.192   2.842
    1PA     H4S13172   5.393  -0.085   2.975
    1PA     C1313173   5.396   0.012   2.784
    1PA     H3R13174   5.425   0.108   2.827
    1PA     H3S13175   5.453  -0.001   2.692
    1PA     C1213176   5.249   0.001   2.741
    1PA     H2R13177   5.224  -0.085   2.679
    1PA     H2S13178   5.194  -0.011   2.835
    2PC     C1113179   5.201   0.119   2.660
    2PC     O1213180   5.084   0.150   2.652
    2PC     O1113181   5.294   0.167   2.576
    2PC      C113182   5.268   0.270   2.478
    2PC      HR13183   5.182   0.238   2.419
    2PC      HS13184   5.256   0.369   2.523
    2PC      C213185   5.385   0.293   2.381
    2PC      HX13186   5.373   0.383   2.320
    2PC      C313187   5.392   0.167   2.294
    2PC      HA13188   5.436   0.086   2.353
    2PC      HB13189   5.293   0.135   2.261
    2PC     O3113190   5.478   0.191   2.181
    2PC     P3113191   5.419   0.291   2.071
    2PC     O3213192   5.435   0.202   1.939
    2PC     C3113193   5.558   0.132   1.915
    2PC     H1A13194   5.643   0.193   1.948
    2PC     H1B13195   5.567   0.039   1.973
    2PC     C3213196   5.572   0.101   1.766
    2PC     H2A13197   5.561   0.199   1.717
    2PC     H2B13198   5.670   0.059   1.741
    2PC     N3113199   5.483   0.002   1.698
    2PC     C3313200   5.342  -0.004   1.750
    2PC     H3A13201   5.301  -0.091   1.699
    2PC     H3B13202   5.335  -0.024   1.857
    2PC     H3C13203   5.298   0.092   1.723
    2PC     C3413204   5.476   0.039   1.553
    2PC     H4A13205   5.410   0.126   1.560
    2PC     H4B13206   5.563   0.073   1.497
    2PC     H4C13207   5.428  -0.044   1.499
    2PC     C3513208   5.548  -0.130   1.726
    2PC     H5A13209   5.546  -0.157   1.832
    2PC     H5B13210   5.653  -0.119   1.697
    2PC     H5C13211   5.510  -0.211   1.665
    2PC     O3313212   5.282   0.343   2.091
    2PC     O3413213   5.506   0.411   2.064
    2PC     O2113214   5.513   0.304   2.446
    2PC     C2113215   5.529   0.407   2.530
    2PC     O2213216   5.457   0.504   2.538
    3OL     C1213217   5.648   0.387   2.621
    3OL     H2R13218   5.737   0.372   2.560
    3OL     H2S13219   5.632   0.297   2.680
    3OL     C1313220   5.682   0.507   2.711
    3OL     H3R13221   5.596   0.550   2.764
    3OL     H3S13222   5.707   0.594   2.650
    3OL     C1413223   5.803   0.483   2.802
    3OL     H4R13224   5.849   0.579   2.826
    3OL     H4S13225   5.881   0.430   2.746
    3OL     C1513226   5.750   0.417   2.930
    3OL     H5R13227   5.832   0.358   2.972
    3OL     H5S13228   5.672   0.348   2.897
    3OL     C1613229   5.703   0.520   3.033
    3OL     H6R13230   5.647   0.594   2.975
    3OL     H6S13231   5.791   0.569   3.074
    3OL     C1713232   5.629   0.464   3.155
    3OL     H7R13233   5.689   0.382   3.197
    3OL     H7S13234   5.538   0.413   3.121
    3OL     C1813235   5.593   0.581   3.247
    3OL     H8R13236   5.691   0.609   3.287
    3OL     H8S13237   5.537   0.544   3.333
    3OL     C1913238   5.524   0.700   3.187
    3OL     H9R13239   5.586   0.766   3.127
    3OL    C11013240   5.397   0.736   3.200
    3OL    H10R13241   5.366   0.824   3.143
    3OL    C11113242   5.298   0.656   3.280
    3OL    H11R13243   5.326   0.673   3.385
    3OL    H11S13244   5.305   0.547   3.274
    3OL    C11213245   5.154   0.704   3.256
    3OL    H12R13246   5.098   0.617   3.289
    3OL    H12S13247   5.144   0.703   3.148
    3OL    C11313248   5.124   0.834   3.332
    3OL    H13R13249   5.184   0.839   3.423
    3OL    H13S13250   5.019   0.834   3.365
    3OL    C11413251   5.134   0.961   3.246
    3OL    H14R13252   5.230   0.957   3.194
    3OL    H14S13253   5.145   1.046   3.314
    3OL    C11513254   5.017   0.982   3.149
    3OL    H15R13255   4.931   1.010   3.210
    3OL    H15S13256   5.008   0.889   3.092
    3OL    C11613257   5.044   1.104   3.061
    3OL    H16R13258   5.126   1.070   2.997
    3OL    H16S13259   5.077   1.185   3.127
    3OL    C11713260   4.917   1.145   2.985
    3OL    H17R13261   4.840   1.164   3.060
    3OL    H17S13262   4.887   1.065   2.917
    3OL    C11813263   4.949   1.273   2.908
    3OL    H18R13264   4.861   1.313   2.856
    3OL    H18S13265   5.030   1.253   2.838
    3OL    H18T13266   4.983   1.349   2.978
    1PA    C11613267   4.459   4.547   3.427
    1PA    H16R13268   4.496   4.561   3.529
    1PA    H16S13269   4.350   4.541   3.423
    1PA    H16T13270   4.485   4.640   3.377
    1PA    C11513271   4.517   4.414   3.376
    1PA    H15R13272   4.620   4.432   3.343
    1PA    H15S13273   4.523   4.343   3.459
    1PA    C11413274   4.427   4.367   3.261
    1PA    H14R13275   4.325   4.355   3.298
    1PA    H14S13276   4.417   4.439   3.179
    1PA    C11313277   4.479   4.236   3.200
    1PA    H13R13278   4.488   4.163   3.280
    1PA    H13S13279   4.410   4.190   3.129
    1PA    C11213280   4.610   4.252   3.121
    1PA    H12R13281   4.590   4.322   3.039
    1PA    H12S13282   4.686   4.303   3.180
    1PA    C11113283   4.646   4.112   3.069
    1PA    H11R13284   4.667   4.053   3.159
    1PA    H11S13285   4.555   4.074   3.021
    1PA    C11013286   4.769   4.117   2.978
    1PA    H10R13287   4.740   4.177   2.892
    1PA    H10S13288   4.852   4.172   3.022
    1PA     C1913289   4.821   3.982   2.925
    1PA     H9R13290   4.908   3.999   2.862
    1PA     H9S13291   4.838   3.926   3.016
    1PA     C1813292   4.725   3.895   2.842
    1PA     H8R13293   4.644   3.864   2.909
    1PA     H8S13294   4.688   3.940   2.750
    1PA     C1713295   4.806   3.774   2.796
    1PA     H7R13296   4.882   3.752   2.871
    1PA     H7S13297   4.750   3.680   2.799
    1PA     C1613298   4.883   3.791   2.664
    1PA     H6R13299   4.924   3.892   2.658
    1PA     H6S13300   4.969   3.726   2.646
    1PA     C1513301   4.792   3.775   2.542
    1PA     H5R13302   4.715   3.849   2.563
    1PA     H5S13303   4.831   3.806   2.445
    1PA     C1413304   4.725   3.638   2.524
    1PA     H4R13305   4.794   3.553   2.520
    1PA     H4S13306   4.657   3.629   2.609
    1PA     C1313307   4.639   3.646   2.397
    1PA     H3R13308   4.580   3.738   2.402
    1PA     H3S13309   4.712   3.651   2.317
    1PA     C1213310   4.547   3.526   2.375
    1PA     H2R13311   4.603   3.433   2.360
    1PA     H2S13312   4.488   3.505   2.465
    2PC     C1113313   4.459   3.550   2.255
    2PC     O1213314   4.452   3.661   2.206
    2PC     O1113315   4.411   3.436   2.202
    2PC      C113316   4.322   3.448   2.089
    2PC      HR13317   4.243   3.518   2.115
    2PC      HS13318   4.375   3.477   1.998
    2PC      C213319   4.246   3.318   2.058
    2PC      HX13320   4.324   3.244   2.077
    2PC      C313321   4.189   3.305   1.916
    2PC      HA13322   4.282   3.282   1.863
    2PC      HB13323   4.117   3.223   1.913
    2PC     O3113324   4.126   3.431   1.887
    2PC     P3113325   4.119   3.489   1.738
    2PC     O3213326   4.269   3.535   1.705
    2PC     C3113327   4.286   3.611   1.584
    2PC     H1A13328   4.283   3.551   1.493
    2PC     H1B13329   4.219   3.698   1.588
    2PC     C3213330   4.427   3.669   1.594
    2PC     H2A13331   4.448   3.760   1.538
    2PC     H2B13332   4.436   3.701   1.698
    2PC     N3113333   4.551   3.585   1.581
    2PC     C3313334   4.675   3.664   1.607
    2PC     H3A13335   4.687   3.733   1.524
    2PC     H3B13336   4.670   3.710   1.705
    2PC     H3C13337   4.760   3.595   1.602
    2PC     C3413338   4.540   3.474   1.681
    2PC     H4A13339   4.640   3.432   1.694
    2PC     H4B13340   4.517   3.523   1.775
    2PC     H4C13341   4.469   3.394   1.656
    2PC     C3513342   4.561   3.536   1.439
    2PC     H5A13343   4.559   3.621   1.372
    2PC     H5B13344   4.478   3.465   1.431
    2PC     H5C13345   4.657   3.484   1.435
    2PC     O3313346   4.072   3.384   1.643
    2PC     O3413347   4.026   3.601   1.717
    2PC     O2113348   4.142   3.309   2.157
    2PC     C2113349   4.098   3.191   2.203
    2PC     O2213350   4.168   3.092   2.203
    3OL     C1213351   3.958   3.197   2.259
    3OL     H2R13352   3.889   3.158   2.184
    3OL     H2S13353   3.924   3.300   2.271
    3OL     C1313354   3.939   3.118   2.390
    3OL     H3R13355   4.016   3.153   2.460
    3OL     H3S13356   3.970   3.015   2.373
    3OL     C1413357   3.804   3.133   2.460
    3OL     H4R13358   3.726   3.095   2.393
    3OL     H4S13359   3.779   3.238   2.477
    3OL     C1513360   3.786   3.056   2.591
    3OL     H5R13361   3.846   3.099   2.672
    3OL     H5S13362   3.817   2.952   2.578
    3OL     C1613363   3.647   3.063   2.656
    3OL     H6R13364   3.571   3.064   2.577
    3OL     H6S13365   3.633   3.153   2.716
    3OL     C1713366   3.614   2.944   2.748
    3OL     H7R13367   3.688   2.948   2.828
    3OL     H7S13368   3.611   2.846   2.701
    3OL     C1813369   3.478   2.968   2.814
    3OL     H8R13370   3.469   3.065   2.864
    3OL     H8S13371   3.471   2.892   2.892
    3OL     C1913372   3.378   2.959   2.701
    3OL     H9R13373   3.358   2.861   2.660
    3OL    C11013374   3.294   3.054   2.661
    3OL    H10R13375   3.235   3.038   2.571
    3OL    C11113376   3.292   3.194   2.716
    3OL    H11R13377   3.303   3.257   2.627
    3OL    H11S13378   3.384   3.222   2.769
    3OL    C11213379   3.174   3.235   2.805
    3OL    H12R13380   3.087   3.199   2.750
    3OL    H12S13381   3.188   3.343   2.806
    3OL    C11313382   3.179   3.154   2.935
    3OL    H13R13383   3.271   3.161   2.992
    3OL    H13S13384   3.169   3.047   2.914
    3OL    C11413385   3.076   3.193   3.043
    3OL    H14R13386   2.971   3.196   3.014
    3OL    H14S13387   3.092   3.298   3.070
    3OL    C11513388   3.091   3.095   3.160
    3OL    H15R13389   3.196   3.075   3.184
    3OL    H15S13390   3.037   3.005   3.130
    3OL    C11613391   3.021   3.129   3.292
    3OL    H16R13392   2.916   3.159   3.281
    3OL    H16S13393   3.074   3.210   3.342
    3OL    C11713394   3.019   3.001   3.377
    3OL    H17R13395   2.969   2.919   3.325
    3OL    H17S13396   2.966   3.019   3.471
    3OL    C11813397   3.162   2.956   3.408
    3OL    H18R13398   3.166   2.869   3.474
    3OL    H18S13399   3.227   3.028   3.458
    3OL    H18T13400   3.212   2.917   3.318
    1PA    C11613401   0.078   5.762   3.570
    1PA    H16R13402   0.172   5.790   3.522
    1PA    H16S13403   0.088   5.655   3.550
    1PA    H16T13404   0.085   5.787   3.676
    1PA    C11513405  -0.040   5.834   3.503
    1PA    H15R13406  -0.131   5.783   3.533
    1PA    H15S13407  -0.041   5.939   3.535
    1PA    C11413408  -0.021   5.832   3.351
    1PA    H14R13409   0.075   5.869   3.316
    1PA    H14S13410  -0.031   5.729   3.316
    1PA    C11313411  -0.133   5.913   3.284
    1PA    H13R13412  -0.224   5.852   3.279
    1PA    H13S13413  -0.163   6.001   3.342
    1PA    C11213414  -0.107   5.938   3.135
    1PA    H12R13415  -0.019   5.998   3.112
    1PA    H12S13416  -0.084   5.839   3.094
    1PA    C11113417  -0.225   6.004   3.063
    1PA    H11R13418  -0.306   5.930   3.070
    1PA    H11S13419  -0.258   6.098   3.108
    1PA    C11013420  -0.193   6.028   2.915
    1PA    H10R13421  -0.121   6.109   2.902
    1PA    H10S13422  -0.142   5.936   2.884
    1PA     C1913423  -0.327   6.063   2.848
    1PA     H9R13424  -0.389   5.974   2.837
    1PA     H9S13425  -0.376   6.134   2.915
    1PA     C1813426  -0.300   6.139   2.718
    1PA     H8R13427  -0.382   6.197   2.674
    1PA     H8S13428  -0.234   6.222   2.744
    1PA     C1713429  -0.245   6.043   2.611
    1PA     H7R13430  -0.168   5.982   2.659
    1PA     H7S13431  -0.328   5.980   2.579
    1PA     C1613432  -0.200   6.107   2.479
    1PA     H6R13433  -0.206   6.025   2.408
    1PA     H6S13434  -0.264   6.193   2.459
    1PA     C1513435  -0.057   6.160   2.497
    1PA     H5R13436  -0.062   6.241   2.571
    1PA     H5S13437   0.006   6.079   2.533
    1PA     C1413438  -0.007   6.227   2.369
    1PA     H4R13439  -0.081   6.296   2.328
    1PA     H4S13440   0.078   6.290   2.396
    1PA     C1313441   0.024   6.123   2.261
    1PA     H3R13442   0.085   6.047   2.309
    1PA     H3S13443  -0.060   6.063   2.225
    1PA     C1213444   0.088   6.190   2.138
    1PA     H2R13445   0.005   6.223   2.076
    1PA     H2S13446   0.162   6.267   2.163
    2PC     C1113447   0.150   6.083   2.053
    2PC     O1213448   0.086   5.999   1.994
    2PC     O1113449   0.282   6.102   2.035
    2PC      C113450   0.359   6.020   1.945
    2PC      HR13451   0.331   5.914   1.948
    2PC      HS13452   0.351   6.054   1.842
    2PC      C213453   0.507   6.027   1.984
    2PC      HX13454   0.520   6.135   1.977
    2PC      C313455   0.600   5.948   1.890
    2PC      HA13456   0.613   6.002   1.795
    2PC      HB13457   0.700   5.938   1.933
    2PC     O3113458   0.545   5.818   1.864
    2PC     P3113459   0.621   5.724   1.760
    2PC     O3213460   0.542   5.585   1.772
    2PC     C3113461   0.411   5.590   1.712
    2PC     H1A13462   0.344   5.651   1.774
    2PC     H1B13463   0.427   5.635   1.615
    2PC     C3213464   0.350   5.449   1.707
    2PC     H2A13465   0.372   5.396   1.800
    2PC     H2B13466   0.241   5.454   1.712
    2PC     N3113467   0.373   5.354   1.593
    2PC     C3313468   0.325   5.218   1.635
    2PC     H3A13469   0.344   5.147   1.555
    2PC     H3B13470   0.385   5.180   1.718
    2PC     H3C13471   0.221   5.225   1.666
    2PC     C3413472   0.297   5.412   1.477
    2PC     H4A13473   0.194   5.432   1.507
    2PC     H4B13474   0.342   5.507   1.448
    2PC     H4C13475   0.306   5.337   1.399
    2PC     C3513476   0.517   5.331   1.558
    2PC     H5A13477   0.542   5.396   1.474
    2PC     H5B13478   0.535   5.228   1.528
    2PC     H5C13479   0.579   5.354   1.645
    2PC     O3313480   0.620   5.771   1.619
    2PC     O3413481   0.759   5.695   1.806
    2PC     O2113482   0.522   5.967   2.114
    2PC     C2113483   0.594   6.025   2.211
    2PC     O2213484   0.688   6.099   2.191
    3OL     C1213485   0.573   5.967   2.349
    3OL     H2R13486   0.484   5.904   2.341
    3OL     H2S13487   0.552   6.043   2.425
    3OL     C1313488   0.697   5.887   2.391
    3OL     H3R13489   0.788   5.940   2.363
    3OL     H3S13490   0.701   5.801   2.324
    3OL     C1413491   0.694   5.854   2.541
    3OL     H4R13492   0.676   5.955   2.579
    3OL     H4S13493   0.789   5.822   2.584
    3OL     C1513494   0.579   5.761   2.581
    3OL     H5R13495   0.581   5.667   2.525
    3OL     H5S13496   0.483   5.808   2.557
    3OL     C1613497   0.575   5.728   2.731
    3OL     H6R13498   0.505   5.645   2.743
    3OL     H6S13499   0.525   5.805   2.791
    3OL     C1713500   0.705   5.680   2.797
    3OL     H7R13501   0.781   5.758   2.793
    3OL     H7S13502   0.743   5.588   2.753
    3OL     C1813503   0.684   5.645   2.945
    3OL     H8R13504   0.614   5.716   2.990
    3OL     H8S13505   0.779   5.640   2.999
    3OL     C1913506   0.603   5.519   2.962
    3OL     H9R13507   0.509   5.506   2.910
    3OL    C11013508   0.644   5.415   3.033
    3OL    H10R13509   0.589   5.321   3.035
    3OL    C11113510   0.784   5.404   3.087
    3OL    H11R13511   0.788   5.478   3.168
    3OL    H11S13512   0.858   5.431   3.012
    3OL    C11213513   0.822   5.268   3.149
    3OL    H12R13514   0.924   5.284   3.186
    3OL    H12S13515   0.823   5.200   3.064
    3OL    C11313516   0.731   5.227   3.265
    3OL    H13R13517   0.626   5.230   3.233
    3OL    H13S13518   0.731   5.306   3.341
    3OL    C11413519   0.757   5.087   3.320
    3OL    H14R13520   0.745   5.024   3.232
    3OL    H14S13521   0.687   5.044   3.393
    3OL    C11513522   0.898   5.070   3.378
    3OL    H15R13523   0.968   5.079   3.294
    3OL    H15S13524   0.908   4.967   3.414
    3OL    C11613525   0.930   5.177   3.484
    3OL    H16R13526   0.923   5.278   3.443
    3OL    H16S13527   1.035   5.155   3.504
    3OL    C11713528   0.845   5.172   3.611
    3OL    H17R13529   0.866   5.083   3.671
    3OL    H17S13530   0.737   5.173   3.598
    3OL    C11813531   0.880   5.298   3.692
    3OL    H18R13532   0.989   5.304   3.683
    3OL    H18S13533   0.853   5.293   3.798
    3OL    H18T13534   0.834   5.385   3.644
    1PA    C11613535   2.804   3.396   3.804
    1PA    H16R13536   2.857   3.301   3.800
    1PA    H16S13537   2.702   3.376   3.838
    1PA    H16T13538   2.851   3.458   3.879
    1PA    C11513539   2.803   3.464   3.666
    1PA    H15R13540   2.779   3.568   3.690
    1PA    H15S13541   2.903   3.463   3.621
    1PA    C11413542   2.703   3.405   3.566
    1PA    H14R13543   2.737   3.313   3.518
    1PA    H14S13544   2.613   3.373   3.618
    1PA    C11313545   2.669   3.503   3.453
    1PA    H13R13546   2.627   3.587   3.509
    1PA    H13S13547   2.763   3.536   3.409
    1PA    C11213548   2.563   3.467   3.348
    1PA    H12R13549   2.479   3.415   3.395
    1PA    H12S13550   2.522   3.561   3.312
    1PA    C11113551   2.624   3.389   3.230
    1PA    H11R13552   2.706   3.449   3.191
    1PA    H11S13553   2.653   3.290   3.265
    1PA    C11013554   2.515   3.377   3.122
    1PA    H10R13555   2.436   3.326   3.178
    1PA    H10S13556   2.487   3.476   3.086
    1PA     C1913557   2.541   3.294   2.995
    1PA     H9R13558   2.466   3.319   2.920
    1PA     H9S13559   2.635   3.327   2.951
    1PA     C1813560   2.544   3.146   3.035
    1PA     H8R13561   2.616   3.128   3.115
    1PA     H8S13562   2.446   3.129   3.079
    1PA     C1713563   2.555   3.054   2.912
    1PA     H7R13564   2.508   2.956   2.922
    1PA     H7S13565   2.510   3.097   2.823
    1PA     C1613566   2.703   3.042   2.873
    1PA     H6R13567   2.749   3.140   2.854
    1PA     H6S13568   2.756   3.004   2.961
    1PA     C1513569   2.724   2.946   2.756
    1PA     H5R13570   2.693   2.852   2.803
    1PA     H5S13571   2.668   2.970   2.665
    1PA     C1413572   2.876   2.937   2.736
    1PA     H4R13573   2.912   3.030   2.690
    1PA     H4S13574   2.915   2.929   2.838
    1PA     C1313575   2.907   2.820   2.642
    1PA     H3R13576   2.881   2.725   2.690
    1PA     H3S13577   2.849   2.827   2.550
    1PA     C1213578   3.058   2.815   2.620
    1PA     H2R13579   3.078   2.910   2.570
    1PA     H2S13580   3.123   2.812   2.708
    2PC     C1113581   3.097   2.701   2.528
    2PC     O1213582   3.022   2.611   2.497
    2PC     O1113583   3.218   2.722   2.476
    2PC      C113584   3.260   2.645   2.362
    2PC      HR13585   3.263   2.537   2.377
    2PC      HS13586   3.180   2.672   2.291
    2PC      C213587   3.404   2.684   2.328
    2PC      HX13588   3.409   2.793   2.338
    2PC      C313589   3.447   2.638   2.188
    2PC      HA13590   3.408   2.706   2.112
    2PC      HB13591   3.555   2.628   2.193
    2PC     O3113592   3.398   2.504   2.165
    2PC     P3113593   3.378   2.455   2.014
    2PC     O3213594   3.292   2.320   2.025
    2PC     C3113595   3.202   2.286   1.918
    2PC     H1A13596   3.112   2.347   1.922
    2PC     H1B13597   3.259   2.280   1.824
    2PC     C3213598   3.142   2.150   1.956
    2PC     H2A13599   3.214   2.068   1.945
    2PC     H2B13600   3.107   2.158   2.059
    2PC     N3113601   3.020   2.103   1.884
    2PC     C3313602   2.981   1.963   1.919
    2PC     H3A13603   2.994   1.954   2.027
    2PC     H3B13604   2.879   1.937   1.891
    2PC     H3C13605   3.047   1.893   1.869
    2PC     C3413606   2.912   2.204   1.910
    2PC     H4A13607   2.935   2.292   1.849
    2PC     H4B13608   2.818   2.155   1.885
    2PC     H4C13609   2.896   2.226   2.016
    2PC     C3513610   3.050   2.107   1.737
    2PC     H5A13611   2.967   2.100   1.667
    2PC     H5B13612   3.113   2.019   1.721
    2PC     H5C13613   3.109   2.192   1.702
    2PC     O3313614   3.299   2.564   1.953
    2PC     O3413615   3.509   2.437   1.945
    2PC     O2113616   3.491   2.618   2.422
    2PC     C2113617   3.615   2.668   2.432
    2PC     O2213618   3.650   2.767   2.372
    3OL     C1213619   3.698   2.587   2.528
    3OL     H2R13620   3.782   2.648   2.562
    3OL     H2S13621   3.747   2.498   2.487
    3OL     C1313622   3.619   2.558   2.656
    3OL     H3R13623   3.536   2.494   2.628
    3OL     H3S13624   3.566   2.649   2.685
    3OL     C1413625   3.692   2.495   2.776
    3OL     H4R13626   3.781   2.552   2.803
    3OL     H4S13627   3.729   2.393   2.760
    3OL     C1513628   3.603   2.475   2.900
    3OL     H5R13629   3.531   2.557   2.906
    3OL     H5S13630   3.669   2.476   2.987
    3OL     C1613631   3.536   2.338   2.896
    3OL     H6R13632   3.531   2.303   2.793
    3OL     H6S13633   3.436   2.350   2.939
    3OL     C1713634   3.599   2.235   2.991
    3OL     H7R13635   3.591   2.269   3.095
    3OL     H7S13636   3.706   2.220   2.971
    3OL     C1813637   3.514   2.110   2.970
    3OL     H8R13638   3.490   2.101   2.864
    3OL     H8S13639   3.419   2.118   3.025
    3OL     C1913640   3.600   1.991   3.007
    3OL     H9R13641   3.617   1.922   2.925
    3OL    C11013642   3.637   1.953   3.128
    3OL    H10R13643   3.696   1.863   3.143
    3OL    C11113644   3.608   2.031   3.254
    3OL    H11R13645   3.534   2.110   3.239
    3OL    H11S13646   3.695   2.082   3.294
    3OL    C11213647   3.549   1.937   3.361
    3OL    H12R13648   3.621   1.858   3.382
    3OL    H12S13649   3.465   1.876   3.327
    3OL    C11313650   3.518   2.012   3.491
    3OL    H13R13651   3.427   1.971   3.536
    3OL    H13S13652   3.485   2.112   3.462
    3OL    C11413653   3.636   2.004   3.589
    3OL    H14R13654   3.713   2.074   3.557
    3OL    H14S13655   3.685   1.906   3.580
    3OL    C11513656   3.596   2.032   3.734
    3OL    H15R13657   3.529   1.954   3.771
    3OL    H15S13658   3.547   2.130   3.745
    3OL    C11613659   3.722   2.041   3.821
    3OL    H16R13660   3.685   2.093   3.909
    3OL    H16S13661   3.810   2.086   3.774
    3OL    C11713662   3.767   1.901   3.865
    3OL    H17R13663   3.750   1.834   3.781
    3OL    H17S13664   3.703   1.879   3.951
    3OL    C11813665   3.908   1.904   3.925
    3OL    H18R13666   3.974   1.932   3.843
    3OL    H18S13667   3.933   1.799   3.945
    3OL    H18T13668   3.912   1.967   4.014
    1PA    C11613669   3.572   2.666   3.633
    1PA    H16R13670   3.558   2.676   3.741
    1PA    H16S13671   3.673   2.633   3.612
    1PA    H16T13672   3.515   2.576   3.607
    1PA    C11513673   3.527   2.777   3.536
    1PA    H15R13674   3.418   2.784   3.531
    1PA    H15S13675   3.571   2.868   3.577
    1PA    C11413676   3.578   2.752   3.393
    1PA    H14R13677   3.685   2.735   3.404
    1PA    H14S13678   3.527   2.671   3.341
    1PA    C11313679   3.540   2.877   3.313
    1PA    H13R13680   3.569   2.864   3.208
    1PA    H13S13681   3.434   2.899   3.330
    1PA    C11213682   3.626   2.998   3.353
    1PA    H12R13683   3.598   3.026   3.455
    1PA    H12S13684   3.732   2.972   3.360
    1PA    C11113685   3.592   3.121   3.268
    1PA    H11R13686   3.486   3.119   3.240
    1PA    H11S13687   3.606   3.204   3.338
    1PA    C11013688   3.679   3.150   3.145
    1PA    H10R13689   3.690   3.066   3.076
    1PA    H10S13690   3.619   3.220   3.087
    1PA     C1913691   3.814   3.211   3.184
    1PA     H9R13692   3.810   3.295   3.253
    1PA     H9S13693   3.856   3.136   3.252
    1PA     C1813694   3.914   3.223   3.069
    1PA     H8R13695   3.999   3.277   3.111
    1PA     H8S13696   3.949   3.123   3.041
    1PA     C1713697   3.873   3.292   2.938
    1PA     H7R13698   3.788   3.242   2.891
    1PA     H7S13699   3.858   3.396   2.967
    1PA     C1613700   3.987   3.299   2.835
    1PA     H6R13701   4.072   3.339   2.891
    1PA     H6S13702   4.025   3.200   2.806
    1PA     C1513703   3.953   3.392   2.718
    1PA     H5R13704   3.877   3.331   2.669
    1PA     H5S13705   3.904   3.481   2.759
    1PA     C1413706   4.068   3.422   2.620
    1PA     H4R13707   4.160   3.452   2.671
    1PA     H4S13708   4.090   3.332   2.563
    1PA     C1313709   4.042   3.549   2.538
    1PA     H3R13710   3.940   3.549   2.496
    1PA     H3S13711   4.039   3.635   2.605
    1PA     C1213712   4.144   3.573   2.427
    1PA     H2R13713   4.224   3.640   2.461
    1PA     H2S13714   4.190   3.477   2.401
    2PC     C1113715   4.088   3.615   2.294
    2PC     O1213716   4.131   3.712   2.234
    2PC     O1113717   3.993   3.536   2.241
    2PC      C113718   3.948   3.582   2.113
    2PC      HR13719   3.922   3.688   2.113
    2PC      HS13720   4.030   3.572   2.040
    2PC      C213721   3.824   3.508   2.060
    2PC      HX13722   3.861   3.408   2.037
    2PC      C313723   3.770   3.580   1.936
    2PC      HA13724   3.856   3.614   1.879
    2PC      HB13725   3.713   3.510   1.874
    2PC     O3113726   3.689   3.691   1.977
    2PC     P3113727   3.606   3.771   1.866
    2PC     O3213728   3.518   3.881   1.941
    2PC     C3113729   3.443   3.987   1.879
    2PC     H1A13730   3.443   4.076   1.944
    2PC     H1B13731   3.489   4.009   1.782
    2PC     C3213732   3.303   3.928   1.856
    2PC     H2A13733   3.314   3.835   1.801
    2PC     H2B13734   3.258   3.904   1.953
    2PC     N3113735   3.209   4.027   1.794
    2PC     C3313736   3.204   4.153   1.875
    2PC     H3A13737   3.149   4.234   1.827
    2PC     H3B13738   3.169   4.123   1.974
    2PC     H3C13739   3.307   4.188   1.874
    2PC     C3413740   3.241   4.068   1.654
    2PC     H4A13741   3.305   4.156   1.665
    2PC     H4B13742   3.295   3.981   1.617
    2PC     H4C13743   3.151   4.099   1.601
    2PC     C3513744   3.079   3.952   1.792
    2PC     H5A13745   3.093   3.856   1.742
    2PC     H5B13746   2.998   4.011   1.749
    2PC     H5C13747   3.055   3.948   1.898
    2PC     O3313748   3.704   3.845   1.783
    2PC     O3413749   3.533   3.687   1.768
    2PC     O2113750   3.730   3.494   2.168
    2PC     C2113751   3.626   3.411   2.154
    2PC     O2213752   3.619   3.340   2.056
    3OL     C1213753   3.517   3.433   2.256
    3OL     H2R13754   3.446   3.350   2.259
    3OL     H2S13755   3.462   3.524   2.231
    3OL     C1313756   3.567   3.434   2.401
    3OL     H3R13757   3.664   3.482   2.414
    3OL     H3S13758   3.581   3.329   2.426
    3OL     C1413759   3.469   3.487   2.507
    3OL     H4R13760   3.372   3.438   2.510
    3OL     H4S13761   3.443   3.591   2.487
    3OL     C1513762   3.528   3.465   2.648
    3OL     H5R13763   3.621   3.522   2.635
    3OL     H5S13764   3.537   3.359   2.670
    3OL     C1613765   3.447   3.545   2.751
    3OL     H6R13766   3.353   3.492   2.762
    3OL     H6S13767   3.429   3.647   2.717
    3OL     C1713768   3.526   3.548   2.883
    3OL     H7R13769   3.625   3.593   2.876
    3OL     H7S13770   3.541   3.443   2.909
    3OL     C1813771   3.454   3.611   3.003
    3OL     H8R13772   3.460   3.719   2.985
    3OL     H8S13773   3.507   3.591   3.096
    3OL     C1913774   3.312   3.563   3.016
    3OL     H9R13775   3.232   3.610   2.959
    3OL    C11013776   3.270   3.488   3.116
    3OL    H10R13777   3.162   3.474   3.127
    3OL    C11113778   3.345   3.419   3.227
    3OL    H11R13779   3.446   3.455   3.246
    3OL    H11S13780   3.349   3.312   3.203
    3OL    C11213781   3.268   3.420   3.361
    3OL    H12R13782   3.308   3.339   3.422
    3OL    H12S13783   3.163   3.407   3.334
    3OL    C11313784   3.285   3.553   3.435
    3OL    H13R13785   3.258   3.632   3.365
    3OL    H13S13786   3.390   3.567   3.461
    3OL    C11413787   3.186   3.552   3.552
    3OL    H14R13788   3.202   3.461   3.610
    3OL    H14S13789   3.082   3.555   3.517
    3OL    C11513790   3.203   3.678   3.638
    3OL    H15R13791   3.160   3.769   3.597
    3OL    H15S13792   3.309   3.695   3.659
    3OL    C11613793   3.125   3.658   3.769
    3OL    H16R13794   3.172   3.578   3.826
    3OL    H16S13795   3.024   3.616   3.762
    3OL    C11713796   3.127   3.790   3.848
    3OL    H17R13797   3.102   3.871   3.780
    3OL    H17S13798   3.229   3.812   3.882
    3OL    C11813799   3.043   3.779   3.976
    3OL    H18R13800   3.054   3.866   4.043
    3OL    H18S13801   3.060   3.681   4.022
    3OL    H18T13802   2.935   3.786   3.966
    1PA    C11613803   4.077   5.475   4.178
    1PA    H16R13804   4.089   5.417   4.270
    1PA    H16S13805   4.174   5.453   4.133
    1PA    H16T13806   3.999   5.432   4.115
    1PA    C11513807   4.052   5.626   4.190
    1PA    H15R13808   3.957   5.643   4.240
    1PA    H15S13809   4.142   5.674   4.229
    1PA    C11413810   4.025   5.694   4.055
    1PA    H14R13811   4.012   5.802   4.066
    1PA    H14S13812   4.102   5.667   3.983
    1PA    C11313813   3.889   5.644   4.005
    1PA    H13R13814   3.903   5.545   3.960
    1PA    H13S13815   3.816   5.635   4.086
    1PA    C11213816   3.834   5.733   3.892
    1PA    H12R13817   3.826   5.840   3.911
    1PA    H12S13818   3.891   5.722   3.799
    1PA    C11113819   3.691   5.694   3.853
    1PA    H11R13820   3.630   5.680   3.943
    1PA    H11S13821   3.645   5.783   3.810
    1PA    C11013822   3.676   5.572   3.761
    1PA    H10R13823   3.735   5.490   3.803
    1PA    H10S13824   3.572   5.541   3.775
    1PA     C1913825   3.725   5.592   3.617
    1PA     H9R13826   3.833   5.582   3.609
    1PA     H9S13827   3.681   5.516   3.552
    1PA     C1813828   3.661   5.717   3.554
    1PA     H8R13829   3.555   5.719   3.582
    1PA     H8S13830   3.698   5.809   3.598
    1PA     C1713831   3.683   5.728   3.402
    1PA     H7R13832   3.664   5.829   3.366
    1PA     H7S13833   3.788   5.710   3.378
    1PA     C1613834   3.591   5.621   3.341
    1PA     H6R13835   3.610   5.515   3.355
    1PA     H6S13836   3.489   5.639   3.376
    1PA     C1513837   3.589   5.630   3.188
    1PA     H5R13838   3.565   5.733   3.161
    1PA     H5S13839   3.692   5.612   3.158
    1PA     C1413840   3.498   5.535   3.109
    1PA     H4R13841   3.493   5.436   3.154
    1PA     H4S13842   3.393   5.567   3.112
    1PA     C1313843   3.534   5.517   2.960
    1PA     H3R13844   3.610   5.589   2.931
    1PA     H3S13845   3.575   5.417   2.949
    1PA     C1213846   3.421   5.545   2.859
    1PA     H2R13847   3.336   5.478   2.876
    1PA     H2S13848   3.388   5.649   2.861
    2PC     C1113849   3.463   5.524   2.716
    2PC     O1213850   3.576   5.517   2.674
    2PC     O1113851   3.361   5.526   2.628
    2PC      C113852   3.368   5.494   2.487
    2PC      HR13853   3.436   5.567   2.443
    2PC      HS13854   3.397   5.389   2.478
    2PC      C213855   3.227   5.505   2.428
    2PC      HX13856   3.158   5.455   2.497
    2PC      C313857   3.220   5.447   2.286
    2PC      HA13858   3.263   5.347   2.282
    2PC      HB13859   3.119   5.437   2.245
    2PC     O3113860   3.293   5.538   2.202
    2PC     P3113861   3.398   5.487   2.092
    2PC     O3213862   3.336   5.568   1.969
    2PC     C3113863   3.212   5.517   1.915
    2PC     H1A13864   3.207   5.408   1.915
    2PC     H1B13865   3.135   5.558   1.980
    2PC     C3213866   3.203   5.580   1.775
    2PC     H2A13867   3.230   5.686   1.777
    2PC     H2B13868   3.271   5.534   1.702
    2PC     N3113869   3.065   5.582   1.716
    2PC     C3313870   3.081   5.626   1.573
    2PC     H3A13871   3.011   5.577   1.505
    2PC     H3B13872   3.083   5.733   1.553
    2PC     H3C13873   3.177   5.587   1.538
    2PC     C3413874   2.999   5.448   1.712
    2PC     H4A13875   2.975   5.418   1.814
    2PC     H4B13876   2.898   5.449   1.670
    2PC     H4C13877   3.063   5.376   1.662
    2PC     C3513878   2.982   5.688   1.781
    2PC     H5A13879   2.899   5.713   1.715
    2PC     H5B13880   3.047   5.775   1.775
    2PC     H5C13881   2.957   5.673   1.886
    2PC     O3313882   3.543   5.511   2.108
    2PC     O3413883   3.408   5.343   2.058
    2PC     O2113884   3.192   5.644   2.417
    2PC     C2113885   3.068   5.672   2.373
    2PC     O2213886   2.987   5.582   2.362
    3OL     C1213887   3.042   5.820   2.361
    3OL     H2R13888   2.934   5.836   2.360
    3OL     H2S13889   3.094   5.855   2.271
    3OL     C1313890   3.113   5.914   2.459
    3OL     H3R13891   3.078   6.014   2.431
    3OL     H3S13892   3.219   5.919   2.432
    3OL     C1413893   3.081   5.879   2.605
    3OL     H4R13894   3.162   5.813   2.635
    3OL     H4S13895   2.987   5.825   2.614
    3OL     C1513896   3.084   6.011   2.683
    3OL     H5R13897   3.013   6.078   2.632
    3OL     H5S13898   3.179   6.064   2.674
    3OL     C1613899   3.040   5.991   2.829
    3OL     H6R13900   2.945   5.936   2.832
    3OL     H6S13901   3.027   6.087   2.880
    3OL     C1713902   3.135   5.906   2.913
    3OL     H7R13903   3.235   5.949   2.897
    3OL     H7S13904   3.132   5.799   2.892
    3OL     C1813905   3.111   5.931   3.063
    3OL     H8R13906   3.011   5.890   3.080
    3OL     H8S13907   3.095   6.038   3.080
    3OL     C1913908   3.208   5.857   3.151
    3OL     H9R13909   3.220   5.752   3.128
    3OL    C11013910   3.277   5.910   3.251
    3OL    H10R13911   3.346   5.843   3.302
    3OL    C11113912   3.277   6.051   3.305
    3OL    H11R13913   3.207   6.106   3.241
    3OL    H11S13914   3.382   6.078   3.292
    3OL    C11213915   3.250   6.065   3.455
    3OL    H12R13916   3.151   6.030   3.485
    3OL    H12S13917   3.256   6.172   3.475
    3OL    C11313918   3.351   5.983   3.537
    3OL    H13R13919   3.448   5.999   3.491
    3OL    H13S13920   3.327   5.877   3.528
    3OL    C11413921   3.351   6.038   3.681
    3OL    H14R13922   3.322   6.143   3.687
    3OL    H14S13923   3.448   6.017   3.726
    3OL    C11513924   3.258   5.974   3.785
    3OL    H15R13925   3.159   5.971   3.737
    3OL    H15S13926   3.256   6.045   3.867
    3OL    C11613927   3.279   5.834   3.844
    3OL    H16R13928   3.312   5.771   3.761
    3OL    H16S13929   3.178   5.812   3.879
    3OL    C11713930   3.390   5.841   3.950
    3OL    H17R13931   3.480   5.888   3.910
    3OL    H17S13932   3.407   5.741   3.989
    3OL    C11813933   3.347   5.919   4.075
    3OL    H18R13934   3.244   5.891   4.100
    3OL    H18S13935   3.349   6.026   4.057
    3OL    H18T13936   3.409   5.896   4.162
    1PA    C11613937   3.726   4.024   3.589
    1PA    H16R13938   3.805   4.013   3.664
    1PA    H16S13939   3.658   3.945   3.621
    1PA    H16T13940   3.681   4.122   3.605
    1PA    C11513941   3.774   4.008   3.444
    1PA    H15R13942   3.845   4.087   3.422
    1PA    H15S13943   3.833   3.916   3.445
    1PA    C11413944   3.655   4.008   3.347
    1PA    H14R13945   3.588   4.087   3.379
    1PA    H14S13946   3.702   4.021   3.249
    1PA    C11313947   3.577   3.877   3.369
    1PA    H13R13948   3.650   3.796   3.371
    1PA    H13S13949   3.532   3.875   3.468
    1PA    C11213950   3.471   3.857   3.259
    1PA    H12R13951   3.520   3.852   3.162
    1PA    H12S13952   3.424   3.764   3.293
    1PA    C11113953   3.356   3.959   3.260
    1PA    H11R13954   3.301   3.938   3.352
    1PA    H11S13955   3.387   4.063   3.259
    1PA    C11013956   3.246   3.929   3.157
    1PA    H10R13957   3.222   3.824   3.144
    1PA    H10S13958   3.155   3.982   3.188
    1PA     C1913959   3.291   3.982   3.020
    1PA     H9R13960   3.287   4.091   3.033
    1PA     H9S13961   3.395   3.957   2.998
    1PA     C1813962   3.201   3.931   2.907
    1PA     H8R13963   3.208   3.822   2.910
    1PA     H8S13964   3.098   3.955   2.936
    1PA     C1713965   3.256   3.980   2.773
    1PA     H7R13966   3.256   4.089   2.787
    1PA     H7S13967   3.354   3.941   2.746
    1PA     C1613968   3.156   3.958   2.659
    1PA     H6R13969   3.060   4.001   2.686
    1PA     H6S13970   3.185   4.018   2.572
    1PA     C1513971   3.141   3.810   2.619
    1PA     H5R13972   3.241   3.781   2.588
    1PA     H5S13973   3.111   3.756   2.709
    1PA     C1413974   3.050   3.766   2.504
    1PA     H4R13975   2.948   3.799   2.525
    1PA     H4S13976   3.077   3.827   2.417
    1PA     C1313977   3.046   3.617   2.465
    1PA     H3R13978   3.056   3.549   2.549
    1PA     H3S13979   2.946   3.606   2.422
    1PA     C1213980   3.154   3.591   2.359
    1PA     H2R13981   3.128   3.646   2.269
    1PA     H2S13982   3.250   3.622   2.402
    2PC     C1113983   3.154   3.447   2.315
    2PC     O1213984   3.122   3.356   2.390
    2PC     O1113985   3.200   3.439   2.190
    2PC      C113986   3.182   3.316   2.117
    2PC      HR13987   3.248   3.317   2.030
    2PC      HS13988   3.224   3.235   2.177
    2PC      C213989   3.037   3.285   2.081
    2PC      HX13990   2.977   3.257   2.168
    2PC      C313991   3.046   3.165   1.986
    2PC      HA13992   3.066   3.074   2.043
    2PC      HB13993   2.950   3.144   1.937
    2PC     O3113994   3.151   3.181   1.889
    2PC     P3113995   3.225   3.057   1.820
    2PC     O3213996   3.111   3.005   1.719
    2PC     C3113997   3.055   2.872   1.717
    2PC     H1A13998   3.128   2.799   1.681
    2PC     H1B13999   3.022   2.831   1.813
    2PC     C3214000   2.928   2.878   1.631
    2PC     H2A14001   2.862   2.793   1.647
    2PC     H2B14002   2.881   2.967   1.675
    2PC     N3114003   2.943   2.891   1.483
    2PC     C3314004   2.823   2.827   1.421
    2PC     H3A14005   2.823   2.850   1.315
    2PC     H3B14006   2.822   2.719   1.439
    2PC     H3C14007   2.742   2.863   1.485
    2PC     C3414008   2.952   3.038   1.453
    2PC     H4A14009   2.867   3.097   1.486
    2PC     H4B14010   3.034   3.084   1.509
    2PC     H4C14011   2.970   3.051   1.346
    2PC     C3514012   3.067   2.825   1.429
    2PC     H5A14013   3.150   2.875   1.479
    2PC     H5B14014   3.072   2.860   1.325
    2PC     H5C14015   3.059   2.717   1.442
    2PC     O3314016   3.337   3.108   1.737
    2PC     O3414017   3.279   2.958   1.915
    2PC     O2114018   2.979   3.401   2.020
    2PC     C2114019   2.846   3.419   2.020
    2PC     O2214020   2.778   3.332   2.072
    3OL     C1214021   2.788   3.537   1.948
    3OL     H2R14022   2.733   3.511   1.856
    3OL     H2S14023   2.859   3.614   1.917
    3OL     C1314024   2.687   3.605   2.042
    3OL     H3R14025   2.609   3.536   2.075
    3OL     H3S14026   2.633   3.682   1.987
    3OL     C1414027   2.758   3.675   2.158
    3OL     H4R14028   2.848   3.725   2.121
    3OL     H4S14029   2.782   3.601   2.235
    3OL     C1514030   2.656   3.773   2.218
    3OL     H5R14031   2.554   3.738   2.237
    3OL     H5S14032   2.647   3.853   2.145
    3OL     C1614033   2.708   3.844   2.343
    3OL     H6R14034   2.808   3.877   2.315
    3OL     H6S14035   2.714   3.784   2.434
    3OL     C1714036   2.613   3.963   2.366
    3OL     H7R14037   2.516   3.919   2.390
    3OL     H7S14038   2.602   4.025   2.277
    3OL     C1814039   2.682   4.045   2.475
    3OL     H8R14040   2.785   4.075   2.451
    3OL     H8S14041   2.679   3.981   2.563
    3OL     C1914042   2.604   4.171   2.505
    3OL     H9R14043   2.606   4.252   2.433
    3OL    C11014044   2.532   4.193   2.614
    3OL    H10R14045   2.497   4.296   2.614
    3OL    C11114046   2.510   4.105   2.734
    3OL    H11R14047   2.519   4.159   2.829
    3OL    H11S14048   2.583   4.025   2.743
    3OL    C11214049   2.375   4.032   2.733
    3OL    H12R14050   2.358   3.987   2.635
    3OL    H12S14051   2.296   4.106   2.746
    3OL    C11314052   2.343   3.936   2.849
    3OL    H13R14053   2.422   3.861   2.855
    3OL    H13S14054   2.245   3.888   2.843
    3OL    C11414055   2.359   4.000   2.987
    3OL    H14R14056   2.303   4.094   2.987
    3OL    H14S14057   2.464   4.023   3.007
    3OL    C11514058   2.306   3.902   3.093
    3OL    H15R14059   2.348   3.802   3.080
    3OL    H15S14060   2.197   3.899   3.084
    3OL    C11614061   2.335   3.937   3.239
    3OL    H16R14062   2.277   4.025   3.269
    3OL    H16S14063   2.443   3.949   3.244
    3OL    C11714064   2.282   3.830   3.336
    3OL    H17R14065   2.309   3.730   3.300
    3OL    H17S14066   2.174   3.836   3.321
    3OL    C11814067   2.332   3.852   3.479
    3OL    H18R14068   2.279   3.780   3.541
    3OL    H18S14069   2.320   3.956   3.512
    3OL    H18T14070   2.439   3.830   3.483
    1PA    C11614071   0.473   4.862   3.871
    1PA    H16R14072   0.387   4.895   3.813
    1PA    H16S14073   0.485   4.920   3.963
    1PA    H16T14074   0.450   4.759   3.897
    1PA    C11514075   0.592   4.870   3.774
    1PA    H15R14076   0.569   4.800   3.693
    1PA    H15S14077   0.587   4.965   3.722
    1PA    C11414078   0.724   4.839   3.846
    1PA    H14R14079   0.786   4.900   3.779
    1PA    H14S14080   0.717   4.881   3.946
    1PA    C11314081   0.771   4.693   3.854
    1PA    H13R14082   0.858   4.681   3.919
    1PA    H13S14083   0.695   4.634   3.904
    1PA    C11214084   0.791   4.624   3.718
    1PA    H12R14085   0.694   4.594   3.680
    1PA    H12S14086   0.833   4.701   3.653
    1PA    C11114087   0.872   4.493   3.724
    1PA    H11R14088   0.977   4.517   3.704
    1PA    H11S14089   0.872   4.440   3.819
    1PA    C11014090   0.832   4.390   3.617
    1PA    H10R14091   0.878   4.291   3.621
    1PA    H10S14092   0.727   4.365   3.633
    1PA     C1914093   0.854   4.447   3.476
    1PA     H9R14094   0.789   4.535   3.467
    1PA     H9S14095   0.960   4.471   3.465
    1PA     C1814096   0.806   4.344   3.372
    1PA     H8R14097   0.854   4.247   3.385
    1PA     H8S14098   0.701   4.319   3.389
    1PA     C1714099   0.840   4.406   3.236
    1PA     H7R14100   0.790   4.502   3.222
    1PA     H7S14101   0.948   4.424   3.242
    1PA     C1614102   0.811   4.318   3.113
    1PA     H6R14103   0.872   4.228   3.126
    1PA     H6S14104   0.704   4.294   3.118
    1PA     C1514105   0.840   4.372   2.973
    1PA     H5R14106   0.806   4.303   2.896
    1PA     H5S14107   0.790   4.468   2.953
    1PA     C1414108   0.988   4.409   2.961
    1PA     H4R14109   1.009   4.483   3.038
    1PA     H4S14110   1.045   4.317   2.976
    1PA     C1314111   1.010   4.472   2.823
    1PA     H3R14112   0.932   4.547   2.806
    1PA     H3S14113   1.100   4.533   2.827
    1PA     C1214114   1.018   4.362   2.717
    1PA     H2R14115   1.093   4.289   2.748
    1PA     H2S14116   0.925   4.306   2.707
    2PC     C1114117   1.060   4.428   2.588
    2PC     O1214118   0.986   4.512   2.541
    2PC     O1114119   1.174   4.390   2.528
    2PC      C114120   1.212   4.420   2.393
    2PC      HR14121   1.297   4.357   2.367
    2PC      HS14122   1.133   4.400   2.321
    2PC      C214123   1.269   4.563   2.385
    2PC      HX14124   1.218   4.634   2.449
    2PC      C314125   1.251   4.624   2.245
    2PC      HA14126   1.146   4.642   2.218
    2PC      HB14127   1.312   4.714   2.243
    2PC     O3114128   1.298   4.528   2.148
    2PC     P3114129   1.306   4.562   1.992
    2PC     O3214130   1.328   4.414   1.935
    2PC     C3114131   1.208   4.342   1.904
    2PC     H1A14132   1.135   4.369   1.980
    2PC     H1B14133   1.170   4.376   1.807
    2PC     C3214134   1.248   4.194   1.896
    2PC     H2A14135   1.170   4.121   1.875
    2PC     H2B14136   1.332   4.174   1.829
    2PC     N3114137   1.311   4.138   2.020
    2PC     C3314138   1.459   4.157   2.025
    2PC     H3A14139   1.503   4.121   1.932
    2PC     H3B14140   1.480   4.262   2.049
    2PC     H3C14141   1.502   4.096   2.104
    2PC     C3414142   1.234   4.186   2.140
    2PC     H4A14143   1.260   4.287   2.172
    2PC     H4B14144   1.128   4.191   2.113
    2PC     H4C14145   1.257   4.118   2.222
    2PC     C3514146   1.291   3.989   2.015
    2PC     H5A14147   1.195   3.967   2.060
    2PC     H5B14148   1.365   3.939   2.079
    2PC     H5C14149   1.285   3.955   1.911
    2PC     O3314150   1.181   4.618   1.936
    2PC     O3414151   1.424   4.629   1.934
    2PC     O2114152   1.407   4.549   2.421
    2PC     C2114153   1.473   4.662   2.451
    2PC     O2214154   1.444   4.777   2.424
    3OL     C1214155   1.585   4.649   2.551
    3OL     H2R14156   1.639   4.744   2.549
    3OL     H2S14157   1.641   4.563   2.514
    3OL     C1314158   1.543   4.647   2.698
    3OL     H3R14159   1.490   4.552   2.708
    3OL     H3S14160   1.483   4.734   2.724
    3OL     C1414161   1.660   4.648   2.799
    3OL     H4R14162   1.699   4.749   2.814
    3OL     H4S14163   1.740   4.582   2.767
    3OL     C1514164   1.614   4.611   2.940
    3OL     H5R14165   1.549   4.523   2.936
    3OL     H5S14166   1.545   4.686   2.981
    3OL     C1614167   1.735   4.603   3.034
    3OL     H6R14168   1.779   4.701   3.054
    3OL     H6S14169   1.809   4.537   2.989
    3OL     C1714170   1.689   4.528   3.160
    3OL     H7R14171   1.666   4.423   3.141
    3OL     H7S14172   1.607   4.578   3.210
    3OL     C1814173   1.800   4.525   3.266
    3OL     H8R14174   1.810   4.624   3.312
    3OL     H8S14175   1.897   4.501   3.223
    3OL     C1914176   1.785   4.419   3.374
    3OL     H9R14177   1.798   4.321   3.329
    3OL    C11014178   1.755   4.436   3.502
    3OL    H10R14179   1.746   4.352   3.569
    3OL    C11114180   1.735   4.570   3.568
    3OL    H11R14181   1.628   4.577   3.589
    3OL    H11S14182   1.769   4.654   3.508
    3OL    C11214183   1.803   4.584   3.705
    3OL    H12R14184   1.780   4.683   3.745
    3OL    H12S14185   1.911   4.571   3.697
    3OL    C11314186   1.762   4.481   3.812
    3OL    H13R14187   1.777   4.378   3.780
    3OL    H13S14188   1.656   4.501   3.829
    3OL    C11414189   1.858   4.495   3.931
    3OL    H14R14190   1.848   4.593   3.978
    3OL    H14S14191   1.958   4.488   3.887
    3OL    C11514192   1.843   4.377   4.028
    3OL    H15R14193   1.918   4.395   4.105
    3OL    H15S14194   1.858   4.278   3.986
    3OL    C11614195   1.713   4.381   4.110
    3OL    H16R14196   1.625   4.353   4.052
    3OL    H16S14197   1.695   4.486   4.135
    3OL    C11714198   1.720   4.308   4.245
    3OL    H17R14199   1.778   4.369   4.315
    3OL    H17S14200   1.776   4.217   4.222
    3OL    C11814201   1.588   4.272   4.315
    3OL    H18R14202   1.543   4.359   4.362
    3OL    H18S14203   1.610   4.196   4.390
    3OL    H18T14204   1.510   4.240   4.246
    1PA    C11614205   2.237   4.494   3.123
    1PA    H16R14206   2.192   4.428   3.198
    1PA    H16S14207   2.343   4.508   3.142
    1PA    H16T14208   2.229   4.456   3.021
    1PA    C11514209   2.166   4.630   3.111
    1PA    H15R14210   2.214   4.690   3.034
    1PA    H15S14211   2.064   4.607   3.077
    1PA    C11414212   2.165   4.704   3.245
    1PA    H14R14213   2.076   4.677   3.303
    1PA    H14S14214   2.258   4.674   3.293
    1PA    C11314215   2.164   4.857   3.231
    1PA    H13R14216   2.082   4.889   3.166
    1PA    H13S14217   2.135   4.892   3.330
    1PA    C11214218   2.302   4.909   3.189
    1PA    H12R14219   2.374   4.881   3.266
    1PA    H12S14220   2.329   4.853   3.099
    1PA    C11114221   2.299   5.060   3.159
    1PA    H11R14222   2.384   5.101   3.104
    1PA    H11S14223   2.206   5.072   3.103
    1PA    C11014224   2.304   5.136   3.292
    1PA    H10R14225   2.261   5.086   3.379
    1PA    H10S14226   2.409   5.162   3.309
    1PA     C1914227   2.232   5.271   3.284
    1PA     H9R14228   2.123   5.259   3.275
    1PA     H9S14229   2.253   5.324   3.377
    1PA     C1814230   2.263   5.361   3.164
    1PA     H8R14231   2.364   5.403   3.174
    1PA     H8S14232   2.262   5.309   3.068
    1PA     C1714233   2.173   5.486   3.155
    1PA     H7R14234   2.070   5.452   3.158
    1PA     H7S14235   2.188   5.555   3.238
    1PA     C1614236   2.192   5.567   3.026
    1PA     H6R14237   2.132   5.658   3.035
    1PA     H6S14238   2.292   5.612   3.030
    1PA     C1514239   2.157   5.501   2.892
    1PA     H5R14240   2.234   5.424   2.878
    1PA     H5S14241   2.059   5.453   2.883
    1PA     C1414242   2.170   5.604   2.779
    1PA     H4R14243   2.095   5.681   2.794
    1PA     H4S14244   2.272   5.644   2.783
    1PA     C1314245   2.145   5.539   2.642
    1PA     H3R14246   2.206   5.450   2.633
    1PA     H3S14247   2.046   5.492   2.647
    1PA     C1214248   2.148   5.633   2.521
    1PA     H2R14249   2.077   5.716   2.528
    1PA     H2S14250   2.241   5.687   2.502
    2PC     C1114251   2.103   5.569   2.392
    2PC     O1214252   2.125   5.457   2.352
    2PC     O1114253   2.023   5.652   2.322
    2PC      C114254   1.973   5.607   2.195
    2PC      HR14255   1.915   5.686   2.146
    2PC      HS14256   2.061   5.582   2.135
    2PC      C214257   1.877   5.488   2.208
    2PC      HX14258   1.915   5.408   2.273
    2PC      C314259   1.852   5.428   2.069
    2PC      HA14260   1.935   5.365   2.036
    2PC      HB14261   1.760   5.369   2.066
    2PC     O3114262   1.847   5.538   1.976
    2PC     P3114263   1.835   5.491   1.823
    2PC     O3214264   1.676   5.473   1.816
    2PC     C3114265   1.616   5.480   1.686
    2PC     H1A14266   1.644   5.581   1.654
    2PC     H1B14267   1.650   5.403   1.616
    2PC     C3214268   1.466   5.467   1.717
    2PC     H2A14269   1.438   5.530   1.801
    2PC     H2B14270   1.416   5.492   1.623
    2PC     N3114271   1.411   5.331   1.746
    2PC     C3314272   1.463   5.276   1.876
    2PC     H3A14273   1.435   5.350   1.951
    2PC     H3B14274   1.428   5.174   1.893
    2PC     H3C14275   1.572   5.282   1.867
    2PC     C3414276   1.261   5.333   1.750
    2PC     H4A14277   1.210   5.386   1.669
    2PC     H4B14278   1.244   5.226   1.733
    2PC     H4C14279   1.232   5.361   1.851
    2PC     C3514280   1.441   5.246   1.626
    2PC     H5A14281   1.392   5.150   1.643
    2PC     H5B14282   1.546   5.222   1.614
    2PC     H5C14283   1.419   5.291   1.529
    2PC     O3314284   1.869   5.605   1.735
    2PC     O3414285   1.905   5.364   1.792
    2PC     O2114286   1.748   5.536   2.250
    2PC     C2114287   1.718   5.556   2.380
    2PC     O2214288   1.788   5.513   2.470
    3OL     C1214289   1.594   5.639   2.397
    3OL     H2R14290   1.500   5.592   2.366
    3OL     H2S14291   1.611   5.720   2.326
    3OL     C1314292   1.553   5.679   2.539
    3OL     H3R14293   1.637   5.739   2.572
    3OL     H3S14294   1.537   5.585   2.593
    3OL     C1414295   1.430   5.769   2.556
    3OL     H4R14296   1.345   5.713   2.514
    3OL     H4S14297   1.435   5.866   2.508
    3OL     C1514298   1.399   5.791   2.705
    3OL     H5R14299   1.308   5.850   2.707
    3OL     H5S14300   1.480   5.851   2.748
    3OL     C1614301   1.383   5.663   2.789
    3OL     H6R14302   1.467   5.595   2.781
    3OL     H6S14303   1.293   5.615   2.750
    3OL     C1714304   1.371   5.693   2.939
    3OL     H7R14305   1.446   5.765   2.974
    3OL     H7S14306   1.367   5.602   2.999
    3OL     C1814307   1.238   5.765   2.964
    3OL     H8R14308   1.152   5.710   2.925
    3OL     H8S14309   1.232   5.848   2.894
    3OL     C1914310   1.222   5.818   3.104
    3OL     H9R14311   1.275   5.911   3.127
    3OL    C11014312   1.150   5.761   3.200
    3OL    H10R14313   1.158   5.813   3.295
    3OL    C11114314   1.065   5.637   3.188
    3OL    H11R14315   1.050   5.607   3.084
    3OL    H11S14316   0.962   5.659   3.216
    3OL    C11214317   1.118   5.512   3.259
    3OL    H12R14318   1.037   5.439   3.265
    3OL    H12S14319   1.137   5.541   3.363
    3OL    C11314320   1.244   5.447   3.201
    3OL    H13R14321   1.295   5.372   3.263
    3OL    H13S14322   1.317   5.525   3.179
    3OL    C11414323   1.215   5.358   3.079
    3OL    H14R14324   1.181   5.416   2.993
    3OL    H14S14325   1.132   5.293   3.108
    3OL    C11514326   1.328   5.268   3.028
    3OL    H15R14327   1.366   5.207   3.111
    3OL    H15S14328   1.402   5.345   3.005
    3OL    C11614329   1.292   5.190   2.901
    3OL    H16R14330   1.234   5.260   2.842
    3OL    H16S14331   1.225   5.111   2.935
    3OL    C11714332   1.421   5.134   2.839
    3OL    H17R14333   1.399   5.039   2.790
    3OL    H17S14334   1.499   5.112   2.912
    3OL    C11814335   1.499   5.225   2.742
    3OL    H18R14336   1.577   5.168   2.691
    3OL    H18S14337   1.545   5.309   2.794
    3OL    H18T14338   1.434   5.261   2.662
    1PA    C11614339   3.083   2.156   4.116
    1PA    H16R14340   3.184   2.125   4.143
    1PA    H16S14341   3.011   2.075   4.128
    1PA    H16T14342   3.049   2.240   4.177
    1PA    C11514343   3.087   2.194   3.967
    1PA    H15R14344   2.984   2.213   3.937
    1PA    H15S14345   3.161   2.273   3.952
    1PA    C11414346   3.131   2.072   3.884
    1PA    H14R14347   3.239   2.056   3.888
    1PA    H14S14348   3.082   1.988   3.933
    1PA    C11314349   3.081   2.080   3.739
    1PA    H13R14350   2.972   2.075   3.743
    1PA    H13S14351   3.116   2.178   3.702
    1PA    C11214352   3.126   1.952   3.668
    1PA    H12R14353   3.235   1.954   3.667
    1PA    H12S14354   3.094   1.865   3.726
    1PA    C11114355   3.071   1.929   3.527
    1PA    H11R14356   2.963   1.932   3.535
    1PA    H11S14357   3.099   2.016   3.466
    1PA    C11014358   3.122   1.802   3.457
    1PA    H10R14359   3.231   1.804   3.455
    1PA    H10S14360   3.089   1.715   3.515
    1PA     C1914361   3.071   1.789   3.313
    1PA     H9R14362   3.096   1.689   3.277
    1PA     H9S14363   2.963   1.789   3.305
    1PA     C1814364   3.115   1.904   3.221
    1PA     H8R14365   3.191   1.969   3.266
    1PA     H8S14366   3.158   1.854   3.135
    1PA     C1714367   2.998   1.990   3.170
    1PA     H7R14368   2.925   1.930   3.115
    1PA     H7S14369   2.945   2.012   3.262
    1PA     C1614370   3.035   2.111   3.082
    1PA     H6R14371   2.951   2.180   3.090
    1PA     H6S14372   3.125   2.161   3.118
    1PA     C1514373   3.052   2.075   2.934
    1PA     H5R14374   3.150   2.029   2.925
    1PA     H5S14375   2.979   2.000   2.902
    1PA     C1414376   3.040   2.204   2.851
    1PA     H4R14377   2.935   2.226   2.833
    1PA     H4S14378   3.075   2.292   2.905
    1PA     C1314379   3.110   2.182   2.716
    1PA     H3R14380   3.218   2.172   2.724
    1PA     H3S14381   3.069   2.093   2.669
    1PA     C1214382   3.084   2.310   2.635
    1PA     H2R14383   2.975   2.321   2.628
    1PA     H2S14384   3.111   2.402   2.687
    2PC     C1114385   3.141   2.303   2.496
    2PC     O1214386   3.076   2.285   2.395
    2PC     O1114387   3.275   2.309   2.486
    2PC      C114388   3.335   2.237   2.377
    2PC      HR14389   3.298   2.134   2.370
    2PC      HS14390   3.311   2.289   2.285
    2PC      C214391   3.486   2.233   2.405
    2PC      HX14392   3.510   2.318   2.468
    2PC      C314393   3.575   2.237   2.280
    2PC      HA14394   3.542   2.317   2.213
    2PC      HB14395   3.675   2.266   2.315
    2PC     O3114396   3.586   2.107   2.219
    2PC     P3114397   3.723   2.052   2.156
    2PC     O3214398   3.813   2.016   2.284
    2PC     C3114399   3.883   1.890   2.278
    2PC     H1A14400   3.907   1.875   2.383
    2PC     H1B14401   3.818   1.808   2.244
    2PC     C3214402   4.000   1.897   2.179
    2PC     H2A14403   4.041   1.795   2.177
    2PC     H2B14404   3.972   1.908   2.074
    2PC     N3114405   4.114   1.991   2.203
    2PC     C3314406   4.060   2.131   2.195
    2PC     H3A14407   4.147   2.194   2.212
    2PC     H3B14408   4.008   2.151   2.101
    2PC     H3C14409   3.997   2.131   2.284
    2PC     C3414410   4.178   1.977   2.338
    2PC     H4A14411   4.230   1.881   2.340
    2PC     H4B14412   4.251   2.057   2.339
    2PC     H4C14413   4.095   1.998   2.406
    2PC     C3514414   4.216   1.978   2.094
    2PC     H5A14415   4.300   2.045   2.115
    2PC     H5B14416   4.183   1.996   1.991
    2PC     H5C14417   4.259   1.878   2.101
    2PC     O3314418   3.698   1.926   2.081
    2PC     O3414419   3.794   2.146   2.067
    2PC     O2114420   3.510   2.112   2.480
    2PC     C2114421   3.632   2.099   2.534
    2PC     O2214422   3.709   2.191   2.550
    3OL     C1214423   3.660   1.961   2.587
    3OL     H2R14424   3.675   1.904   2.496
    3OL     H2S14425   3.568   1.921   2.631
    3OL     C1314426   3.781   1.965   2.682
    3OL     H3R14427   3.770   2.020   2.775
    3OL     H3S14428   3.865   2.004   2.624
    3OL     C1414429   3.812   1.820   2.718
    3OL     H4R14430   3.840   1.769   2.625
    3OL     H4S14431   3.723   1.773   2.762
    3OL     C1514432   3.927   1.813   2.819
    3OL     H5R14433   3.897   1.869   2.908
    3OL     H5S14434   4.011   1.873   2.784
    3OL     C1614435   3.964   1.672   2.867
    3OL     H6R14436   4.061   1.683   2.918
    3OL     H6S14437   3.981   1.603   2.784
    3OL     C1714438   3.862   1.626   2.972
    3OL     H7R14439   3.769   1.600   2.920
    3OL     H7S14440   3.836   1.708   3.038
    3OL     C1814441   3.909   1.494   3.036
    3OL     H8R14442   4.011   1.517   3.067
    3OL     H8S14443   3.926   1.427   2.951
    3OL     C1914444   3.822   1.456   3.152
    3OL     H9R14445   3.786   1.545   3.202
    3OL    C11014446   3.801   1.332   3.196
    3OL    H10R14447   3.736   1.315   3.281
    3OL    C11114448   3.869   1.208   3.143
    3OL    H11R14449   3.901   1.223   3.040
    3OL    H11S14450   3.793   1.131   3.131
    3OL    C11214451   3.989   1.165   3.229
    3OL    H12R14452   4.035   1.255   3.273
    3OL    H12S14453   4.066   1.124   3.164
    3OL    C11314454   3.950   1.065   3.339
    3OL    H13R14455   3.896   0.977   3.303
    3OL    H13S14456   3.884   1.122   3.404
    3OL    C11414457   4.074   1.020   3.417
    3OL    H14R14458   4.047   1.024   3.523
    3OL    H14S14459   4.150   1.099   3.409
    3OL    C11514460   4.135   0.888   3.368
    3OL    H15R14461   4.158   0.890   3.261
    3OL    H15S14462   4.066   0.806   3.383
    3OL    C11614463   4.270   0.860   3.437
    3OL    H16R14464   4.326   0.949   3.409
    3OL    H16S14465   4.322   0.772   3.399
    3OL    C11714466   4.244   0.843   3.588
    3OL    H17R14467   4.178   0.759   3.610
    3OL    H17S14468   4.197   0.928   3.639
    3OL    C11814469   4.377   0.816   3.658
    3OL    H18R14470   4.462   0.876   3.626
    3OL    H18S14471   4.400   0.709   3.666
    3OL    H18T14472   4.380   0.850   3.762
    1PA    C11614473   3.732   1.273   3.838
    1PA    H16R14474   3.701   1.171   3.819
    1PA    H16S14475   3.709   1.280   3.944
    1PA    H16T14476   3.841   1.281   3.829
    1PA    C11514477   3.647   1.373   3.758
    1PA    H15R14478   3.544   1.349   3.783
    1PA    H15S14479   3.673   1.478   3.778
    1PA    C11414480   3.673   1.354   3.608
    1PA    H14R14481   3.780   1.370   3.594
    1PA    H14S14482   3.648   1.252   3.578
    1PA    C11314483   3.608   1.466   3.526
    1PA    H13R14484   3.639   1.562   3.568
    1PA    H13S14485   3.653   1.466   3.426
    1PA    C11214486   3.456   1.448   3.513
    1PA    H12R14487   3.430   1.345   3.487
    1PA    H12S14488   3.419   1.467   3.614
    1PA    C11114489   3.396   1.547   3.412
    1PA    H11R14490   3.288   1.552   3.424
    1PA    H11S14491   3.428   1.651   3.419
    1PA    C11014492   3.428   1.510   3.266
    1PA    H10R14493   3.537   1.505   3.254
    1PA    H10S14494   3.382   1.412   3.253
    1PA     C1914495   3.367   1.607   3.164
    1PA     H9R14496   3.262   1.584   3.177
    1PA     H9S14497   3.382   1.711   3.196
    1PA     C1814498   3.404   1.589   3.016
    1PA     H8R14499   3.510   1.609   2.998
    1PA     H8S14500   3.389   1.484   2.991
    1PA     C1714501   3.316   1.676   2.925
    1PA     H7R14502   3.209   1.656   2.931
    1PA     H7S14503   3.305   1.780   2.954
    1PA     C1614504   3.362   1.668   2.778
    1PA     H6R14505   3.457   1.723   2.777
    1PA     H6S14506   3.391   1.567   2.750
    1PA     C1514507   3.269   1.740   2.679
    1PA     H5R14508   3.170   1.694   2.691
    1PA     H5S14509   3.253   1.841   2.716
    1PA     C1414510   3.320   1.744   2.535
    1PA     H4R14511   3.405   1.812   2.528
    1PA     H4S14512   3.341   1.641   2.505
    1PA     C1314513   3.213   1.805   2.444
    1PA     H3R14514   3.127   1.739   2.433
    1PA     H3S14515   3.178   1.893   2.500
    1PA     C1214516   3.260   1.859   2.309
    1PA     H2R14517   3.201   1.942   2.269
    1PA     H2S14518   3.356   1.910   2.314
    2PC     C1114519   3.242   1.756   2.200
    2PC     O1214520   3.145   1.683   2.203
    2PC     O1114521   3.352   1.745   2.124
    2PC      C114522   3.354   1.640   2.027
    2PC      HR14523   3.288   1.561   2.066
    2PC      HS14524   3.321   1.673   1.928
    2PC      C214525   3.499   1.594   2.008
    2PC      HX14526   3.546   1.689   1.981
    2PC      C314527   3.511   1.480   1.905
    2PC      HA14528   3.528   1.517   1.804
    2PC      HB14529   3.588   1.409   1.934
    2PC     O3114530   3.390   1.403   1.892
    2PC     P3114531   3.386   1.280   1.790
    2PC     O3214532   3.354   1.366   1.659
    2PC     C3114533   3.218   1.357   1.614
    2PC     H1A14534   3.181   1.255   1.602
    2PC     H1B14535   3.160   1.401   1.695
    2PC     C3214536   3.192   1.429   1.481
    2PC     H2A14537   3.257   1.389   1.403
    2PC     H2B14538   3.087   1.416   1.454
    2PC     N3114539   3.201   1.579   1.483
    2PC     C3314540   3.100   1.646   1.571
    2PC     H3A14541   2.998   1.642   1.532
    2PC     H3B14542   3.095   1.596   1.668
    2PC     H3C14543   3.131   1.750   1.576
    2PC     C3414544   3.332   1.634   1.531
    2PC     H4A14545   3.329   1.743   1.521
    2PC     H4B14546   3.350   1.607   1.635
    2PC     H4C14547   3.400   1.581   1.465
    2PC     C3514548   3.177   1.617   1.340
    2PC     H5A14549   3.186   1.725   1.326
    2PC     H5B14550   3.074   1.599   1.308
    2PC     H5C14551   3.240   1.560   1.273
    2PC     O3314552   3.509   1.201   1.765
    2PC     O3414553   3.284   1.176   1.819
    2PC     O2114554   3.551   1.545   2.133
    2PC     C2114555   3.682   1.562   2.158
    2PC     O2214556   3.770   1.577   2.076
    3OL     C1214557   3.715   1.551   2.305
    3OL     H2R14558   3.815   1.592   2.322
    3OL     H2S14559   3.734   1.446   2.329
    3OL     C1314560   3.617   1.615   2.403
    3OL     H3R14561   3.512   1.593   2.384
    3OL     H3S14562   3.618   1.724   2.392
    3OL     C1414563   3.650   1.574   2.548
    3OL     H4R14564   3.592   1.632   2.619
    3OL     H4S14565   3.756   1.586   2.570
    3OL     C1514566   3.605   1.429   2.573
    3OL     H5R14567   3.650   1.358   2.503
    3OL     H5S14568   3.497   1.421   2.561
    3OL     C1614569   3.645   1.379   2.712
    3OL     H6R14570   3.592   1.437   2.788
    3OL     H6S14571   3.753   1.393   2.713
    3OL     C1714572   3.607   1.232   2.735
    3OL     H7R14573   3.669   1.175   2.667
    3OL     H7S14574   3.510   1.207   2.691
    3OL     C1814575   3.618   1.179   2.879
    3OL     H8R14576   3.571   1.259   2.936
    3OL     H8S14577   3.719   1.179   2.919
    3OL     C1914578   3.550   1.044   2.888
    3OL     H9R14579   3.580   0.964   2.821
    3OL    C11014580   3.444   1.013   2.961
    3OL    H10R14581   3.399   0.914   2.966
    3OL    C11114582   3.368   1.107   3.052
    3OL    H11R14583   3.261   1.103   3.028
    3OL    H11S14584   3.402   1.209   3.035
    3OL    C11214585   3.390   1.077   3.201
    3OL    H12R14586   3.341   1.148   3.267
    3OL    H12S14587   3.494   1.091   3.233
    3OL    C11314588   3.341   0.936   3.236
    3OL    H13R14589   3.394   0.878   3.160
    3OL    H13S14590   3.237   0.912   3.212
    3OL    C11414591   3.383   0.896   3.378
    3OL    H14R14592   3.492   0.901   3.377
    3OL    H14S14593   3.360   0.793   3.403
    3OL    C11514594   3.331   0.991   3.487
    3OL    H15R14595   3.224   1.007   3.471
    3OL    H15S14596   3.389   1.083   3.480
    3OL    C11614597   3.351   0.925   3.624
    3OL    H16R14598   3.442   0.866   3.623
    3OL    H16S14599   3.267   0.860   3.650
    3OL    C11714600   3.369   1.015   3.747
    3OL    H17R14601   3.463   1.070   3.741
    3OL    H17S14602   3.369   0.953   3.836
    3OL    C11814603   3.247   1.109   3.753
    3OL    H18R14604   3.153   1.060   3.780
    3OL    H18S14605   3.220   1.165   3.663
    3OL    H18T14606   3.266   1.181   3.833
    1PA    C11614607  -0.421   1.037   3.111
    1PA    H16R14608  -0.481   1.013   3.023
    1PA    H16S14609  -0.432   1.144   3.126
    1PA    H16T14610  -0.473   0.984   3.191
    1PA    C11514611  -0.271   1.007   3.094
    1PA    H15R14612  -0.226   1.068   3.016
    1PA    H15S14613  -0.219   1.054   3.178
    1PA    C11414614  -0.237   0.859   3.075
    1PA    H14R14615  -0.304   0.808   3.145
    1PA    H14S14616  -0.277   0.828   2.978
    1PA    C11314617  -0.091   0.819   3.101
    1PA    H13R14618  -0.049   0.868   3.189
    1PA    H13S14619  -0.085   0.711   3.119
    1PA    C11214620  -0.007   0.866   2.981
    1PA    H12R14621  -0.056   0.845   2.885
    1PA    H12S14622  -0.006   0.974   2.995
    1PA    C11114623   0.133   0.805   2.973
    1PA    H11R14624   0.182   0.840   3.065
    1PA    H11S14625   0.132   0.699   2.998
    1PA    C11014626   0.223   0.854   2.858
    1PA    H10R14627   0.207   0.957   2.824
    1PA    H10S14628   0.327   0.842   2.890
    1PA     C1914629   0.205   0.758   2.740
    1PA     H9R14630   0.236   0.657   2.765
    1PA     H9S14631   0.100   0.768   2.713
    1PA     C1814632   0.283   0.800   2.615
    1PA     H8R14633   0.252   0.894   2.569
    1PA     H8S14634   0.388   0.807   2.646
    1PA     C1714635   0.274   0.686   2.512
    1PA     H7R14636   0.299   0.594   2.565
    1PA     H7S14637   0.175   0.681   2.466
    1PA     C1614638   0.379   0.717   2.405
    1PA     H6R14639   0.367   0.818   2.366
    1PA     H6S14640   0.470   0.696   2.461
    1PA     C1514641   0.376   0.614   2.290
    1PA     H5R14642   0.380   0.509   2.318
    1PA     H5S14643   0.278   0.634   2.245
    1PA     C1414644   0.486   0.647   2.189
    1PA     H4R14645   0.469   0.747   2.149
    1PA     H4S14646   0.575   0.645   2.252
    1PA     C1314647   0.479   0.558   2.064
    1PA     H3R14648   0.562   0.570   1.993
    1PA     H3S14649   0.474   0.456   2.103
    1PA     C1214650   0.350   0.570   1.982
    1PA     H2R14651   0.260   0.567   2.044
    1PA     H2S14652   0.368   0.661   1.925
    2PC     C1114653   0.334   0.464   1.876
    2PC     O1214654   0.248   0.378   1.881
    2PC     O1114655   0.438   0.464   1.792
    2PC      C114656   0.461   0.361   1.694
    2PC      HR14657   0.361   0.324   1.668
    2PC      HS14658   0.503   0.408   1.604
    2PC      C214659   0.542   0.247   1.757
    2PC      HX14660   0.635   0.298   1.783
    2PC      C314661   0.572   0.133   1.659
    2PC      HA14662   0.652   0.160   1.589
    2PC      HB14663   0.611   0.044   1.710
    2PC     O3114664   0.459   0.090   1.580
    2PC     P3114665   0.479   0.048   1.427
    2PC     O3214666   0.509   0.193   1.364
    2PC     C3114667   0.546   0.197   1.225
    2PC     H1A14668   0.602   0.104   1.207
    2PC     H1B14669   0.461   0.184   1.157
    2PC     C3214670   0.623   0.325   1.196
    2PC     H2A14671   0.701   0.345   1.270
    2PC     H2B14672   0.682   0.324   1.105
    2PC     N3114673   0.543   0.452   1.190
    2PC     C3314674   0.625   0.558   1.122
    2PC     H3A14675   0.617   0.531   1.016
    2PC     H3B14676   0.580   0.653   1.149
    2PC     H3C14677   0.727   0.547   1.157
    2PC     C3414678   0.414   0.431   1.116
    2PC     H4A14679   0.360   0.525   1.127
    2PC     H4B14680   0.442   0.417   1.012
    2PC     H4C14681   0.352   0.351   1.158
    2PC     C3514682   0.511   0.497   1.329
    2PC     H5A14683   0.418   0.454   1.366
    2PC     H5B14684   0.508   0.606   1.326
    2PC     H5C14685   0.593   0.482   1.400
    2PC     O3314686   0.589  -0.050   1.412
    2PC     O3414687   0.360  -0.012   1.363
    2PC     O2114688   0.469   0.203   1.873
    2PC     C2114689   0.527   0.132   1.972
    2PC     O2214690   0.631   0.070   1.963
    3OL     C1214691   0.449   0.128   2.101
    3OL     H2R14692   0.344   0.147   2.076
    3OL     H2S14693   0.472   0.222   2.154
    3OL     C1314694   0.476   0.010   2.195
    3OL     H3R14695   0.580  -0.011   2.220
    3OL     H3S14696   0.449  -0.079   2.136
    3OL     C1414697   0.401   0.012   2.329
    3OL     H4R14698   0.294   0.030   2.320
    3OL     H4S14699   0.440   0.095   2.389
    3OL     C1514700   0.425  -0.121   2.402
    3OL     H5R14701   0.531  -0.132   2.424
    3OL     H5S14702   0.389  -0.199   2.335
    3OL     C1614703   0.360  -0.129   2.540
    3OL     H6R14704   0.251  -0.138   2.537
    3OL     H6S14705   0.383  -0.038   2.597
    3OL     C1714706   0.403  -0.254   2.617
    3OL     H7R14707   0.511  -0.272   2.612
    3OL     H7S14708   0.361  -0.341   2.567
    3OL     C1814709   0.352  -0.270   2.761
    3OL     H8R14710   0.244  -0.276   2.774
    3OL     H8S14711   0.378  -0.179   2.815
    3OL     C1914712   0.406  -0.404   2.806
    3OL     H9R14713   0.419  -0.483   2.732
    3OL    C11014714   0.444  -0.428   2.931
    3OL    H10R14715   0.493  -0.521   2.959
    3OL    C11114716   0.439  -0.323   3.039
    3OL    H11R14717   0.418  -0.220   3.008
    3OL    H11S14718   0.539  -0.316   3.083
    3OL    C11214719   0.342  -0.358   3.152
    3OL    H12R14720   0.384  -0.457   3.174
    3OL    H12S14721   0.242  -0.371   3.112
    3OL    C11314722   0.342  -0.257   3.268
    3OL    H13R14723   0.304  -0.163   3.229
    3OL    H13S14724   0.442  -0.232   3.303
    3OL    C11414725   0.247  -0.300   3.380
    3OL    H14R14726   0.272  -0.406   3.395
    3OL    H14S14727   0.146  -0.309   3.339
    3OL    C11514728   0.265  -0.229   3.515
    3OL    H15R14729   0.231  -0.131   3.484
    3OL    H15S14730   0.374  -0.225   3.525
    3OL    C11614731   0.201  -0.294   3.639
    3OL    H16R14732   0.232  -0.398   3.648
    3OL    H16S14733   0.093  -0.306   3.626
    3OL    C11714734   0.227  -0.212   3.765
    3OL    H17R14735   0.147  -0.216   3.840
    3OL    H17S14736   0.241  -0.107   3.738
    3OL    C11814737   0.351  -0.270   3.834
    3OL    H18R14738   0.389  -0.211   3.918
    3OL    H18S14739   0.435  -0.269   3.765
    3OL    H18T14740   0.344  -0.374   3.868
    1PA    C11614741   2.906   1.361   3.529
    1PA    H16R14742   2.831   1.372   3.450
    1PA    H16S14743   2.887   1.420   3.619
    1PA    H16T14744   2.901   1.254   3.549
    1PA    C11514745   3.035   1.409   3.460
    1PA    H15R14746   3.039   1.518   3.450
    1PA    H15S14747   3.117   1.383   3.527
    1PA    C11414748   3.064   1.337   3.328
    1PA    H14R14749   3.171   1.346   3.310
    1PA    H14S14750   3.025   1.236   3.342
    1PA    C11314751   2.996   1.402   3.206
    1PA    H13R14752   2.887   1.397   3.219
    1PA    H13S14753   3.013   1.509   3.194
    1PA    C11214754   3.038   1.314   3.088
    1PA    H12R14755   3.145   1.296   3.083
    1PA    H12S14756   2.977   1.224   3.100
    1PA    C11114757   3.001   1.390   2.959
    1PA    H11R14758   2.893   1.403   2.964
    1PA    H11S14759   3.047   1.489   2.956
    1PA    C11014760   3.045   1.306   2.839
    1PA    H10R14761   3.148   1.273   2.858
    1PA    H10S14762   2.982   1.217   2.835
    1PA     C1914763   3.022   1.376   2.704
    1PA     H9R14764   2.916   1.392   2.680
    1PA     H9S14765   3.072   1.472   2.712
    1PA     C1814766   3.083   1.301   2.584
    1PA     H8R14767   3.181   1.267   2.617
    1PA     H8S14768   3.017   1.219   2.556
    1PA     C1714769   3.108   1.400   2.470
    1PA     H7R14770   3.021   1.457   2.437
    1PA     H7S14771   3.182   1.468   2.514
    1PA     C1614772   3.174   1.330   2.350
    1PA     H6R14773   3.122   1.234   2.340
    1PA     H6S14774   3.170   1.391   2.260
    1PA     C1514775   3.320   1.289   2.373
    1PA     H5R14776   3.380   1.381   2.380
    1PA     H5S14777   3.336   1.228   2.462
    1PA     C1414778   3.373   1.217   2.249
    1PA     H4R14779   3.337   1.114   2.243
    1PA     H4S14780   3.347   1.268   2.156
    1PA     C1314781   3.526   1.215   2.243
    1PA     H3R14782   3.568   1.314   2.221
    1PA     H3S14783   3.568   1.192   2.341
    1PA     C1214784   3.576   1.117   2.136
    1PA     H2R14785   3.547   1.017   2.169
    1PA     H2S14786   3.526   1.128   2.040
    2PC     C1114787   3.724   1.122   2.106
    2PC     O1214788   3.783   1.018   2.084
    2PC     O1114789   3.774   1.246   2.105
    2PC      C114790   3.914   1.266   2.077
    2PC      HR14791   3.958   1.186   2.017
    2PC      HS14792   3.911   1.361   2.024
    2PC      C214793   3.987   1.281   2.211
    2PC      HX14794   3.920   1.344   2.271
    2PC      C314795   4.122   1.353   2.208
    2PC      HA14796   4.107   1.460   2.227
    2PC      HB14797   4.196   1.306   2.274
    2PC     O3114798   4.173   1.336   2.075
    2PC     P3114799   4.326   1.368   2.040
    2PC     O3214800   4.317   1.433   1.894
    2PC     C3114801   4.253   1.346   1.798
    2PC     H1A14802   4.328   1.283   1.749
    2PC     H1B14803   4.175   1.277   1.831
    2PC     C3214804   4.192   1.439   1.692
    2PC     H2A14805   4.116   1.385   1.634
    2PC     H2B14806   4.155   1.524   1.749
    2PC     N3114807   4.281   1.506   1.591
    2PC     C3314808   4.192   1.601   1.516
    2PC     H3A14809   4.118   1.550   1.456
    2PC     H3B14810   4.132   1.654   1.590
    2PC     H3C14811   4.246   1.665   1.446
    2PC     C3414812   4.397   1.580   1.649
    2PC     H4A14813   4.352   1.654   1.715
    2PC     H4B14814   4.459   1.514   1.711
    2PC     H4C14815   4.443   1.621   1.559
    2PC     C3514816   4.346   1.411   1.495
    2PC     H5A14817   4.270   1.349   1.447
    2PC     H5B14818   4.423   1.357   1.551
    2PC     H5C14819   4.382   1.480   1.419
    2PC     O3314820   4.383   1.469   2.133
    2PC     O3414821   4.410   1.247   2.050
    2PC     O2114822   3.994   1.151   2.272
    2PC     C2114823   3.925   1.122   2.383
    2PC     O2214824   3.855   1.201   2.443
    3OL     C1214825   3.975   0.990   2.435
    3OL     H2R14826   4.068   0.964   2.384
    3OL     H2S14827   3.903   0.919   2.393
    3OL     C1314828   3.997   0.998   2.587
    3OL     H3R14829   3.912   1.052   2.628
    3OL     H3S14830   4.089   1.053   2.608
    3OL     C1414831   4.003   0.857   2.648
    3OL     H4R14832   4.081   0.797   2.601
    3OL     H4S14833   3.906   0.813   2.624
    3OL     C1514834   4.024   0.857   2.800
    3OL     H5R14835   4.004   0.956   2.841
    3OL     H5S14836   4.124   0.833   2.835
    3OL     C1614837   3.922   0.762   2.867
    3OL     H6R14838   3.939   0.659   2.836
    3OL     H6S14839   3.819   0.792   2.845
    3OL     C1714840   3.948   0.756   3.018
    3OL     H7R14841   3.941   0.857   3.060
    3OL     H7S14842   4.052   0.726   3.028
    3OL     C1814843   3.848   0.666   3.091
    3OL     H8R14844   3.875   0.560   3.081
    3OL     H8S14845   3.748   0.662   3.048
    3OL     C1914846   3.827   0.699   3.237
    3OL     H9R14847   3.760   0.782   3.255
    3OL    C11014848   3.862   0.617   3.335
    3OL    H10R14849   3.820   0.638   3.433
    3OL    C11114850   3.948   0.494   3.332
    3OL    H11R14851   4.050   0.515   3.366
    3OL    H11S14852   3.959   0.445   3.235
    3OL    C11214853   3.895   0.376   3.415
    3OL    H12R14854   3.944   0.284   3.384
    3OL    H12S14855   3.789   0.377   3.392
    3OL    C11314856   3.902   0.383   3.569
    3OL    H13R14857   3.857   0.298   3.620
    3OL    H13S14858   3.857   0.475   3.606
    3OL    C11414859   4.048   0.388   3.619
    3OL    H14R14860   4.088   0.482   3.581
    3OL    H14S14861   4.103   0.300   3.584
    3OL    C11514862   4.054   0.397   3.772
    3OL    H15R14863   4.139   0.345   3.817
    3OL    H15S14864   3.972   0.336   3.811
    3OL    C11614865   4.050   0.543   3.819
    3OL    H16R14866   3.963   0.596   3.776
    3OL    H16S14867   4.129   0.607   3.780
    3OL    C11714868   4.050   0.546   3.972
    3OL    H17R14869   3.984   0.474   4.022
    3OL    H17S14870   4.008   0.645   3.995
    3OL    C11814871   4.196   0.545   4.017
    3OL    H18R14872   4.261   0.610   3.956
    3OL    H18S14873   4.229   0.442   4.004
    3OL    H18T14874   4.195   0.576   4.121
    1PA    C11614875   1.249   0.117   3.850
    1PA    H16R14876   1.278   0.222   3.866
    1PA    H16S14877   1.305   0.050   3.916
    1PA    H16T14878   1.140   0.112   3.857
    1PA    C11514879   1.276   0.079   3.704
    1PA    H15R14880   1.272  -0.028   3.684
    1PA    H15S14881   1.209   0.127   3.631
    1PA    C11414882   1.414   0.129   3.660
    1PA    H14R14883   1.442   0.223   3.710
    1PA    H14S14884   1.481   0.061   3.713
    1PA    C11314885   1.442   0.124   3.509
    1PA    H13R14886   1.422   0.022   3.475
    1PA    H13S14887   1.385   0.196   3.450
    1PA    C11214888   1.593   0.148   3.493
    1PA    H12R14889   1.617   0.245   3.537
    1PA    H12S14890   1.650   0.072   3.546
    1PA    C11114891   1.630   0.150   3.344
    1PA    H11R14892   1.607   0.054   3.297
    1PA    H11S14893   1.573   0.224   3.286
    1PA    C11014894   1.778   0.185   3.322
    1PA    H10R14895   1.797   0.280   3.372
    1PA    H10S14896   1.849   0.113   3.364
    1PA     C1914897   1.805   0.214   3.174
    1PA     H9R14898   1.901   0.265   3.163
    1PA     H9S14899   1.722   0.278   3.144
    1PA     C1814900   1.831   0.086   3.092
    1PA     H8R14901   1.912   0.026   3.133
    1PA     H8S14902   1.742   0.022   3.097
    1PA     C1714903   1.881   0.115   2.950
    1PA     H7R14904   1.806   0.174   2.896
    1PA     H7S14905   1.977   0.166   2.941
    1PA     C1614906   1.888  -0.017   2.872
    1PA     H6R14907   1.966  -0.084   2.909
    1PA     H6S14908   1.798  -0.070   2.903
    1PA     C1514909   1.880   0.017   2.722
    1PA     H5R14910   1.847  -0.075   2.672
    1PA     H5S14911   1.803   0.094   2.714
    1PA     C1414912   2.012   0.076   2.671
    1PA     H4R14913   2.043   0.146   2.749
    1PA     H4S14914   2.088  -0.002   2.664
    1PA     C1314915   1.996   0.146   2.535
    1PA     H3R14916   1.930   0.231   2.551
    1PA     H3S14917   2.095   0.189   2.515
    1PA     C1214918   1.929   0.051   2.435
    1PA     H2R14919   1.978  -0.046   2.428
    1PA     H2S14920   1.827   0.035   2.470
    2PC     C1114921   1.926   0.111   2.297
    2PC     O1214922   1.901   0.046   2.197
    2PC     O1114923   1.949   0.243   2.293
    2PC      C114924   1.915   0.322   2.178
    2PC      HR14925   1.955   0.423   2.194
    2PC      HS14926   1.968   0.279   2.093
    2PC      C214927   1.764   0.338   2.153
    2PC      HX14928   1.730   0.236   2.134
    2PC      C314929   1.729   0.423   2.030
    2PC      HA14930   1.756   0.527   2.050
    2PC      HB14931   1.774   0.376   1.942
    2PC     O3114932   1.586   0.421   2.015
    2PC     P3114933   1.525   0.497   1.887
    2PC     O3214934   1.371   0.476   1.927
    2PC     C3114935   1.270   0.549   1.856
    2PC     H1A14936   1.172   0.535   1.903
    2PC     H1B14937   1.282   0.656   1.877
    2PC     C3214938   1.242   0.505   1.712
    2PC     H2A14939   1.168   0.573   1.670
    2PC     H2B14940   1.335   0.508   1.655
    2PC     N3114941   1.184   0.368   1.691
    2PC     C3314942   1.273   0.263   1.750
    2PC     H3A14943   1.309   0.292   1.849
    2PC     H3B14944   1.237   0.160   1.760
    2PC     H3C14945   1.363   0.255   1.688
    2PC     C3414946   1.045   0.367   1.746
    2PC     H4A14947   0.992   0.278   1.713
    2PC     H4B14948   1.053   0.368   1.855
    2PC     H4C14949   1.001   0.452   1.694
    2PC     C3514950   1.164   0.334   1.546
    2PC     H5A14951   1.092   0.408   1.509
    2PC     H5B14952   1.129   0.231   1.539
    2PC     H5C14953   1.265   0.335   1.505
    2PC     O3314954   1.560   0.640   1.884
    2PC     O3414955   1.562   0.434   1.758
    2PC     O2114956   1.707   0.399   2.270
    2PC     C2114957   1.663   0.313   2.363
    2PC     O2214958   1.656   0.193   2.358
    3OL     C1214959   1.621   0.385   2.488
    3OL     H2R14960   1.537   0.453   2.467
    3OL     H2S14961   1.705   0.440   2.530
    3OL     C1314962   1.568   0.289   2.595
    3OL     H3R14963   1.645   0.217   2.619
    3OL     H3S14964   1.483   0.230   2.557
    3OL     C1414965   1.518   0.360   2.722
    3OL     H4R14966   1.442   0.433   2.694
    3OL     H4S14967   1.602   0.419   2.758
    3OL     C1514968   1.466   0.256   2.822
    3OL     H5R14969   1.546   0.183   2.836
    3OL     H5S14970   1.387   0.197   2.777
    3OL     C1614971   1.413   0.307   2.956
    3OL     H6R14972   1.322   0.362   2.930
    3OL     H6S14973   1.481   0.362   3.021
    3OL     C1714974   1.378   0.187   3.045
    3OL     H7R14975   1.474   0.137   3.063
    3OL     H7S14976   1.314   0.120   2.985
    3OL     C1814977   1.310   0.235   3.173
    3OL     H8R14978   1.383   0.294   3.229
    3OL     H8S14979   1.290   0.150   3.239
    3OL     C1914980   1.180   0.304   3.142
    3OL     H9R14981   1.157   0.326   3.038
    3OL    C11014982   1.079   0.314   3.228
    3OL    H10R14983   0.998   0.371   3.182
    3OL    C11114984   1.068   0.276   3.373
    3OL    H11R14985   1.148   0.330   3.423
    3OL    H11S14986   1.083   0.168   3.376
    3OL    C11214987   0.938   0.324   3.439
    3OL    H12R14988   0.845   0.282   3.399
    3OL    H12S14989   0.936   0.430   3.413
    3OL    C11314990   0.955   0.302   3.590
    3OL    H13R14991   1.045   0.359   3.618
    3OL    H13S14992   0.976   0.197   3.605
    3OL    C11414993   0.846   0.361   3.680
    3OL    H14R14994   0.751   0.332   3.636
    3OL    H14S14995   0.849   0.470   3.683
    3OL    C11514996   0.853   0.329   3.830
    3OL    H15R14997   0.926   0.383   3.891
    3OL    H15S14998   0.892   0.228   3.838
    3OL    C11614999   0.715   0.343   3.896
    3OL    H16R15000   0.665   0.431   3.855
    3OL    H16S15001   0.728   0.356   4.003
    3OL    C11715002   0.623   0.222   3.880
    3OL    H17R15003   0.672   0.136   3.927
    3OL    H17S15004   0.617   0.195   3.774
    3OL    C11815005   0.482   0.233   3.938
    3OL    H18R15006   0.449   0.130   3.951
    3OL    H18S15007   0.414   0.290   3.875
    3OL    H18T15008   0.492   0.283   4.034
    1PA    C11615009   0.611   5.497   3.804
    1PA    H16R15010   0.589   5.421   3.728
    1PA    H16S15011   0.524   5.563   3.805
    1PA    H16T15012   0.625   5.450   3.901
    1PA    C11515013   0.723   5.594   3.766
    1PA    H15R15014   0.714   5.683   3.829
    1PA    H15S15015   0.812   5.542   3.802
    1PA    C11415016   0.734   5.642   3.620
    1PA    H14R15017   0.836   5.678   3.604
    1PA    H14S15018   0.713   5.557   3.555
    1PA    C11315019   0.624   5.744   3.593
    1PA    H13R15020   0.522   5.711   3.613
    1PA    H13S15021   0.650   5.838   3.642
    1PA    C11215022   0.620   5.768   3.441
    1PA    H12R15023   0.625   5.671   3.391
    1PA    H12S15024   0.523   5.806   3.410
    1PA    C11115025   0.743   5.849   3.395
    1PA    H11R15026   0.735   5.948   3.440
    1PA    H11S15027   0.841   5.825   3.436
    1PA    C11015028   0.740   5.868   3.243
    1PA    H10R15029   0.778   5.771   3.209
    1PA    H10S15030   0.641   5.880   3.200
    1PA     C1915031   0.842   5.974   3.198
    1PA     H9R15032   0.829   6.071   3.247
    1PA     H9S15033   0.943   5.944   3.225
    1PA     C1815034   0.811   5.991   3.049
    1PA     H8R15035   0.794   5.895   3.000
    1PA     H8S15036   0.722   6.054   3.057
    1PA     C1715037   0.930   6.070   2.993
    1PA     H7R15038   0.959   6.160   3.047
    1PA     H7S15039   1.007   5.993   3.008
    1PA     C1615040   0.905   6.092   2.843
    1PA     H6R15041   0.861   6.001   2.802
    1PA     H6S15042   0.845   6.181   2.825
    1PA     C1515043   1.035   6.129   2.770
    1PA     H5R15044   1.085   6.223   2.797
    1PA     H5S15045   1.112   6.053   2.779
    1PA     C1415046   1.013   6.143   2.618
    1PA     H4R15047   1.115   6.150   2.578
    1PA     H4S15048   0.962   6.053   2.583
    1PA     C1315049   0.930   6.268   2.588
    1PA     H3R15050   0.837   6.269   2.645
    1PA     H3S15051   0.998   6.351   2.609
    1PA     C1215052   0.906   6.278   2.437
    1PA     H2R15053   0.996   6.247   2.383
    1PA     H2S15054   0.818   6.220   2.407
    2PC     C1115055   0.892   6.421   2.390
    2PC     O1215056   0.832   6.502   2.457
    2PC     O1115057   0.933   6.446   2.264
    2PC      C115058   0.898   6.572   2.206
    2PC      HR15059   0.791   6.570   2.181
    2PC      HS15060   0.920   6.647   2.284
    2PC      C215061   0.988   6.609   2.088
    2PC      HX15062   0.962   6.705   2.043
    2PC      C315063   0.970   6.495   1.986
    2PC      HA15064   1.021   6.404   2.018
    2PC      HB15065   0.863   6.475   1.981
    2PC     O3115066   1.010   6.547   1.858
    2PC     P3115067   1.002   6.451   1.730
    2PC     O3215068   1.129   6.362   1.770
    2PC     C3115069   1.116   6.226   1.816
    2PC     H1A15070   1.035   6.215   1.889
    2PC     H1B15071   1.092   6.164   1.729
    2PC     C3215072   1.251   6.177   1.869
    2PC     H2A15073   1.241   6.068   1.864
    2PC     H2B15074   1.334   6.210   1.806
    2PC     N3115075   1.289   6.218   2.008
    2PC     C3315076   1.311   6.365   2.026
    2PC     H3A15077   1.279   6.425   1.940
    2PC     H3B15078   1.245   6.396   2.107
    2PC     H3C15079   1.417   6.383   2.046
    2PC     C3415080   1.192   6.177   2.115
    2PC     H4A15081   1.189   6.069   2.103
    2PC     H4B15082   1.221   6.218   2.212
    2PC     H4C15083   1.098   6.218   2.077
    2PC     C3515084   1.426   6.162   2.035
    2PC     H5A15085   1.503   6.185   1.961
    2PC     H5B15086   1.420   6.055   2.052
    2PC     H5C15087   1.464   6.202   2.129
    2PC     O3315088   0.877   6.373   1.717
    2PC     O3415089   1.039   6.511   1.600
    2PC     O2115090   1.129   6.607   2.118
    2PC     C2115091   1.182   6.707   2.190
    2PC     O2215092   1.125   6.812   2.214
    3OL     C1215093   1.294   6.658   2.277
    3OL     H2R15094   1.321   6.744   2.338
    3OL     H2S15095   1.376   6.639   2.207
    3OL     C1315096   1.257   6.542   2.372
    3OL     H3R15097   1.174   6.488   2.327
    3OL     H3S15098   1.223   6.591   2.463
    3OL     C1415099   1.378   6.451   2.396
    3OL     H4R15100   1.462   6.503   2.441
    3OL     H4S15101   1.410   6.411   2.299
    3OL     C1515102   1.333   6.336   2.487
    3OL     H5R15103   1.234   6.300   2.461
    3OL     H5S15104   1.321   6.377   2.588
    3OL     C1615105   1.431   6.218   2.479
    3OL     H6R15106   1.449   6.177   2.379
    3OL     H6S15107   1.388   6.128   2.524
    3OL     C1715108   1.569   6.250   2.538
    3OL     H7R15109   1.616   6.340   2.497
    3OL     H7S15110   1.640   6.171   2.510
    3OL     C1815111   1.564   6.266   2.690
    3OL     H8R15112   1.500   6.351   2.714
    3OL     H8S15113   1.667   6.276   2.722
    3OL     C1915114   1.513   6.146   2.767
    3OL     H9R15115   1.557   6.052   2.735
    3OL    C11015116   1.438   6.152   2.876
    3OL    H10R15117   1.406   6.055   2.913
    3OL    C11115118   1.370   6.272   2.937
    3OL    H11R15119   1.324   6.328   2.856
    3OL    H11S15120   1.440   6.344   2.978
    3OL    C11215121   1.264   6.238   3.043
    3OL    H12R15122   1.198   6.160   3.004
    3OL    H12S15123   1.203   6.326   3.062
    3OL    C11315124   1.330   6.191   3.173
    3OL    H13R15125   1.401   6.259   3.220
    3OL    H13S15126   1.364   6.087   3.173
    3OL    C11415127   1.217   6.194   3.277
    3OL    H14R15128   1.136   6.131   3.240
    3OL    H14S15129   1.172   6.293   3.271
    3OL    C11515130   1.258   6.144   3.417
    3OL    H15R15131   1.317   6.217   3.473
    3OL    H15S15132   1.321   6.055   3.413
    3OL    C11615133   1.143   6.138   3.517
    3OL    H16R15134   1.076   6.221   3.496
    3OL    H16S15135   1.180   6.152   3.619
    3OL    C11715136   1.072   6.002   3.511
    3OL    H17R15137   1.035   5.984   3.410
    3OL    H17S15138   0.980   6.004   3.570
    3OL    C11815139   1.151   5.876   3.550
    3OL    H18R15140   1.249   5.877   3.500
    3OL    H18S15141   1.115   5.782   3.507
    3OL    H18T15142   1.179   5.861   3.654
    1PA    C11615143   4.456   3.612   2.877
    1PA    H16R15144   4.510   3.692   2.826
    1PA    H16S15145   4.469   3.524   2.813
    1PA    H16T15146   4.499   3.590   2.975
    1PA    C11515147   4.307   3.651   2.883
    1PA    H15R15148   4.287   3.636   2.777
    1PA    H15S15149   4.238   3.574   2.919
    1PA    C11415150   4.265   3.790   2.933
    1PA    H14R15151   4.316   3.873   2.885
    1PA    H14S15152   4.163   3.812   2.901
    1PA    C11315153   4.278   3.813   3.084
    1PA    H13R15154   4.213   3.739   3.132
    1PA    H13S15155   4.381   3.798   3.119
    1PA    C11215156   4.240   3.956   3.124
    1PA    H12R15157   4.305   3.980   3.208
    1PA    H12S15158   4.257   4.027   3.043
    1PA    C11115159   4.097   3.971   3.177
    1PA    H11R15160   4.086   3.898   3.258
    1PA    H11S15161   4.098   4.071   3.220
    1PA    C11015162   3.982   3.965   3.075
    1PA    H10R15163   3.912   4.030   3.128
    1PA    H10S15164   4.001   4.009   2.977
    1PA     C1915165   3.930   3.821   3.058
    1PA     H9R15166   4.014   3.758   3.032
    1PA     H9S15167   3.879   3.787   3.149
    1PA     C1815168   3.825   3.801   2.948
    1PA     H8R15169   3.795   3.696   2.949
    1PA     H8S15170   3.733   3.854   2.977
    1PA     C1715171   3.860   3.840   2.804
    1PA     H7R15172   3.878   3.947   2.801
    1PA     H7S15173   3.952   3.785   2.781
    1PA     C1615174   3.754   3.799   2.701
    1PA     H6R15175   3.744   3.690   2.707
    1PA     H6S15176   3.659   3.845   2.729
    1PA     C1515177   3.811   3.838   2.564
    1PA     H5R15178   3.820   3.947   2.570
    1PA     H5S15179   3.912   3.799   2.552
    1PA     C1415180   3.739   3.778   2.443
    1PA     H4R15181   3.798   3.795   2.353
    1PA     H4S15182   3.714   3.672   2.456
    1PA     C1315183   3.604   3.848   2.420
    1PA     H3R15184   3.528   3.825   2.494
    1PA     H3S15185   3.621   3.956   2.423
    1PA     C1215186   3.546   3.824   2.280
    1PA     H2R15187   3.625   3.850   2.209
    1PA     H2S15188   3.522   3.718   2.267
    2PC     C1115189   3.429   3.917   2.256
    2PC     O1215190   3.323   3.874   2.217
    2PC     O1115191   3.452   4.042   2.298
    2PC      C115192   3.343   4.136   2.304
    2PC      HR15193   3.272   4.138   2.221
    2PC      HS15194   3.283   4.116   2.393
    2PC      C215195   3.387   4.282   2.320
    2PC      HX15196   3.321   4.347   2.379
    2PC      C315197   3.423   4.353   2.189
    2PC      HA15198   3.516   4.313   2.147
    2PC      HB15199   3.350   4.331   2.110
    2PC     O3115200   3.452   4.494   2.201
    2PC     P3115201   3.480   4.570   2.062
    2PC     O3215202   3.506   4.720   2.111
    2PC     C3115203   3.482   4.829   2.019
    2PC     H1A15204   3.513   4.801   1.918
    2PC     H1B15205   3.376   4.854   2.010
    2PC     C3215206   3.547   4.957   2.073
    2PC     H2A15207   3.515   5.043   2.015
    2PC     H2B15208   3.508   4.977   2.173
    2PC     N3115209   3.696   4.954   2.094
    2PC     C3315210   3.748   4.831   2.160
    2PC     H3A15211   3.736   4.748   2.090
    2PC     H3B15212   3.853   4.842   2.187
    2PC     H3C15213   3.700   4.810   2.256
    2PC     C3415214   3.747   4.962   1.953
    2PC     H4A15215   3.705   5.047   1.900
    2PC     H4B15216   3.856   4.952   1.960
    2PC     H4C15217   3.709   4.878   1.895
    2PC     C3515218   3.748   5.072   2.171
    2PC     H5A15219   3.719   5.053   2.274
    2PC     H5B15220   3.708   5.166   2.132
    2PC     H5C15221   3.856   5.066   2.164
    2PC     O3315222   3.593   4.518   1.982
    2PC     O3415223   3.363   4.563   1.972
    2PC     O2115224   3.507   4.276   2.400
    2PC     C2115225   3.513   4.224   2.524
    2PC     O2215226   3.420   4.177   2.587
    3OL     C1215227   3.656   4.242   2.568
    3OL     H2R15228   3.688   4.346   2.569
    3OL     H2S15229   3.717   4.188   2.495
    3OL     C1315230   3.671   4.181   2.708
    3OL     H3R15231   3.774   4.146   2.708
    3OL     H3S15232   3.625   4.083   2.725
    3OL     C1415233   3.623   4.261   2.830
    3OL     H4R15234   3.516   4.284   2.833
    3OL     H4S15235   3.667   4.361   2.827
    3OL     C1515236   3.663   4.184   2.956
    3OL     H5R15237   3.771   4.168   2.958
    3OL     H5S15238   3.618   4.086   2.939
    3OL     C1615239   3.606   4.254   3.080
    3OL     H6R15240   3.617   4.183   3.163
    3OL     H6S15241   3.505   4.289   3.058
    3OL     C1715242   3.682   4.382   3.114
    3OL     H7R15243   3.678   4.454   3.032
    3OL     H7S15244   3.790   4.367   3.125
    3OL     C1815245   3.629   4.455   3.239
    3OL     H8R15246   3.524   4.481   3.223
    3OL     H8S15247   3.683   4.550   3.240
    3OL     C1915248   3.668   4.396   3.372
    3OL     H9R15249   3.769   4.395   3.412
    3OL    C11015250   3.573   4.353   3.454
    3OL    H10R15251   3.609   4.322   3.551
    3OL    C11115252   3.427   4.336   3.418
    3OL    H11R15253   3.422   4.299   3.316
    3OL    H11S15254   3.376   4.432   3.427
    3OL    C11215255   3.345   4.232   3.497
    3OL    H12R15256   3.343   4.246   3.605
    3OL    H12S15257   3.387   4.131   3.493
    3OL    C11315258   3.204   4.224   3.436
    3OL    H13R15259   3.208   4.187   3.333
    3OL    H13S15260   3.160   4.323   3.444
    3OL    C11415261   3.123   4.120   3.515
    3OL    H14R15262   3.100   4.147   3.618
    3OL    H14S15263   3.180   4.027   3.517
    3OL    C11515264   2.985   4.098   3.449
    3OL    H15R15265   3.005   4.060   3.349
    3OL    H15S15266   2.942   4.198   3.452
    3OL    C11615267   2.903   4.007   3.542
    3OL    H16R15268   2.909   4.049   3.642
    3OL    H16S15269   2.940   3.905   3.549
    3OL    C11715270   2.761   4.001   3.485
    3OL    H17R15271   2.722   3.899   3.491
    3OL    H17S15272   2.760   4.040   3.383
    3OL    C11815273   2.660   4.077   3.573
    3OL    H18R15274   2.682   4.184   3.568
    3OL    H18S15275   2.673   4.053   3.678
    3OL    H18T15276   2.555   4.062   3.547
    1PA    C11615277   2.514   0.592   3.788
    1PA    H16R15278   2.511   0.506   3.856
    1PA    H16S15279   2.418   0.645   3.789
    1PA    H16T15280   2.587   0.661   3.831
    1PA    C11515281   2.568   0.554   3.650
    1PA    H15R15282   2.648   0.620   3.616
    1PA    H15S15283   2.601   0.449   3.650
    1PA    C11415284   2.458   0.547   3.544
    1PA    H14R15285   2.372   0.493   3.584
    1PA    H14S15286   2.420   0.649   3.531
    1PA    C11315287   2.516   0.496   3.411
    1PA    H13R15288   2.446   0.509   3.328
    1PA    H13S15289   2.607   0.554   3.393
    1PA    C11215290   2.547   0.346   3.419
    1PA    H12R15291   2.629   0.341   3.491
    1PA    H12S15292   2.453   0.305   3.456
    1PA    C11115293   2.592   0.286   3.285
    1PA    H11R15294   2.631   0.188   3.309
    1PA    H11S15295   2.501   0.280   3.225
    1PA    C11015296   2.696   0.364   3.204
    1PA    H10R15297   2.649   0.453   3.161
    1PA    H10S15298   2.770   0.398   3.277
    1PA     C1915299   2.756   0.280   3.090
    1PA     H9R15300   2.832   0.210   3.124
    1PA     H9S15301   2.672   0.225   3.049
    1PA     C1815302   2.819   0.378   2.991
    1PA     H8R15303   2.740   0.444   2.954
    1PA     H8S15304   2.879   0.437   3.060
    1PA     C1715305   2.892   0.298   2.882
    1PA     H7R15306   2.927   0.201   2.915
    1PA     H7S15307   2.810   0.280   2.812
    1PA     C1615308   2.996   0.384   2.809
    1PA     H6R15309   2.950   0.477   2.774
    1PA     H6S15310   3.073   0.415   2.879
    1PA     C1515311   3.051   0.294   2.697
    1PA     H5R15312   3.104   0.211   2.742
    1PA     H5S15313   2.966   0.266   2.634
    1PA     C1415314   3.156   0.373   2.618
    1PA     H4R15315   3.141   0.481   2.613
    1PA     H4S15316   3.244   0.367   2.683
    1PA     C1315317   3.182   0.313   2.480
    1PA     H3R15318   3.220   0.213   2.497
    1PA     H3S15319   3.086   0.305   2.429
    1PA     C1215320   3.271   0.399   2.389
    1PA     H2R15321   3.222   0.478   2.331
    1PA     H2S15322   3.350   0.450   2.445
    2PC     C1115323   3.329   0.310   2.282
    2PC     O1215324   3.255   0.239   2.215
    2PC     O1115325   3.459   0.331   2.256
    2PC      C115326   3.521   0.281   2.136
    2PC      HR15327   3.486   0.180   2.121
    2PC      HS15328   3.482   0.339   2.051
    2PC      C215329   3.673   0.301   2.151
    2PC      HX15330   3.720   0.315   2.054
    2PC      C315331   3.742   0.184   2.221
    2PC      HA15332   3.799   0.225   2.305
    2PC      HB15333   3.669   0.108   2.252
    2PC     O3115334   3.839   0.126   2.131
    2PC     P3115335   3.793   0.014   2.026
    2PC     O3215336   3.782  -0.116   2.118
    2PC     C3115337   3.657  -0.184   2.135
    2PC     H1A15338   3.647  -0.241   2.228
    2PC     H1B15339   3.579  -0.107   2.137
    2PC     C3215340   3.623  -0.272   2.014
    2PC     H2A15341   3.517  -0.293   1.993
    2PC     H2B15342   3.658  -0.213   1.929
    2PC     N3115343   3.706  -0.396   2.005
    2PC     C3315344   3.674  -0.438   1.865
    2PC     H3A15345   3.738  -0.524   1.847
    2PC     H3B15346   3.567  -0.460   1.864
    2PC     H3C15347   3.703  -0.357   1.797
    2PC     C3415348   3.854  -0.377   2.026
    2PC     H4A15349   3.873  -0.354   2.131
    2PC     H4B15350   3.903  -0.473   2.010
    2PC     H4C15351   3.889  -0.298   1.959
    2PC     C3515352   3.660  -0.505   2.096
    2PC     H5A15353   3.551  -0.514   2.098
    2PC     H5B15354   3.687  -0.475   2.198
    2PC     H5C15355   3.705  -0.602   2.075
    2PC     O3315356   3.672   0.051   1.949
    2PC     O3415357   3.889   0.005   1.913
    2PC     O2115358   3.703   0.424   2.221
    2PC     C2115359   3.656   0.543   2.182
    2PC     O2215360   3.600   0.561   2.076
    3OL     C1215361   3.673   0.652   2.285
    3OL     H2R15362   3.723   0.738   2.241
    3OL     H2S15363   3.751   0.626   2.357
    3OL     C1315364   3.536   0.686   2.345
    3OL     H3R15365   3.500   0.596   2.395
    3OL     H3S15366   3.459   0.698   2.268
    3OL     C1415367   3.554   0.803   2.443
    3OL     H4R15368   3.603   0.893   2.405
    3OL     H4S15369   3.607   0.769   2.532
    3OL     C1515370   3.412   0.852   2.477
    3OL     H5R15371   3.348   0.847   2.389
    3OL     H5S15372   3.433   0.958   2.493
    3OL     C1615373   3.341   0.779   2.591
    3OL     H6R15374   3.412   0.741   2.665
    3OL     H6S15375   3.281   0.692   2.563
    3OL     C1715376   3.259   0.886   2.665
    3OL     H7R15377   3.180   0.922   2.599
    3OL     H7S15378   3.324   0.968   2.697
    3OL     C1815379   3.193   0.822   2.788
    3OL     H8R15380   3.266   0.780   2.857
    3OL     H8S15381   3.138   0.736   2.751
    3OL     C1915382   3.093   0.913   2.856
    3OL     H9R15383   3.083   1.016   2.822
    3OL    C11015384   2.995   0.860   2.927
    3OL    H10R15385   2.904   0.917   2.943
    3OL    C11115386   2.987   0.719   2.979
    3OL    H11R15387   3.084   0.669   2.977
    3OL    H11S15388   2.920   0.664   2.912
    3OL    C11215389   2.938   0.719   3.124
    3OL    H12R15390   3.018   0.765   3.183
    3OL    H12S15391   2.940   0.616   3.160
    3OL    C11315392   2.794   0.767   3.145
    3OL    H13R15393   2.738   0.685   3.101
    3OL    H13S15394   2.776   0.851   3.078
    3OL    C11415395   2.751   0.802   3.288
    3OL    H14R15396   2.799   0.729   3.354
    3OL    H14S15397   2.642   0.801   3.292
    3OL    C11515398   2.805   0.943   3.316
    3OL    H15R15399   2.749   1.014   3.255
    3OL    H15S15400   2.912   0.949   3.294
    3OL    C11615401   2.779   0.974   3.464
    3OL    H16R15402   2.678   0.950   3.499
    3OL    H16S15403   2.793   1.082   3.474
    3OL    C11715404   2.877   0.900   3.556
    3OL    H17R15405   2.978   0.878   3.521
    3OL    H17S15406   2.833   0.800   3.568
    3OL    C11815407   2.874   0.966   3.694
    3OL    H18R15408   2.951   0.919   3.757
    3OL    H18S15409   2.776   0.961   3.742
    3OL    H18T15410   2.892   1.073   3.689
    1PA    C11615411   5.582   1.927   4.221
    1PA    H16R15412   5.641   1.956   4.134
    1PA    H16S15413   5.642   1.874   4.294
    1PA    H16T15414   5.536   2.017   4.263
    1PA    C11515415   5.465   1.836   4.183
    1PA    H15R15416   5.503   1.737   4.157
    1PA    H15S15417   5.412   1.828   4.278
    1PA    C11415418   5.384   1.889   4.063
    1PA    H14R15419   5.336   1.987   4.075
    1PA    H14S15420   5.459   1.918   3.989
    1PA    C11315421   5.287   1.784   4.009
    1PA    H13R15422   5.342   1.692   3.987
    1PA    H13S15423   5.209   1.759   4.081
    1PA    C11215424   5.205   1.836   3.890
    1PA    H12R15425   5.103   1.800   3.904
    1PA    H12S15426   5.197   1.944   3.879
    1PA    C11115427   5.253   1.779   3.755
    1PA    H11R15428   5.353   1.815   3.730
    1PA    H11S15429   5.268   1.671   3.760
    1PA    C11015430   5.164   1.825   3.639
    1PA    H10R15431   5.060   1.818   3.671
    1PA    H10S15432   5.181   1.931   3.620
    1PA     C1915433   5.196   1.744   3.513
    1PA     H9R15434   5.189   1.636   3.528
    1PA     H9S15435   5.121   1.778   3.442
    1PA     C1815436   5.336   1.776   3.460
    1PA     H8R15437   5.344   1.884   3.475
    1PA     H8S15438   5.413   1.732   3.524
    1PA     C1715439   5.374   1.735   3.317
    1PA     H7R15440   5.288   1.760   3.255
    1PA     H7S15441   5.461   1.785   3.274
    1PA     C1615442   5.412   1.586   3.312
    1PA     H6R15443   5.488   1.557   3.385
    1PA     H6S15444   5.324   1.524   3.329
    1PA     C1515445   5.466   1.560   3.170
    1PA     H5R15446   5.528   1.641   3.131
    1PA     H5S15447   5.530   1.472   3.179
    1PA     C1415448   5.357   1.518   3.070
    1PA     H4R15449   5.308   1.429   3.110
    1PA     H4S15450   5.277   1.591   3.070
    1PA     C1315451   5.405   1.487   2.928
    1PA     H3R15452   5.431   1.573   2.866
    1PA     H3S15453   5.490   1.418   2.935
    1PA     C1215454   5.294   1.409   2.856
    1PA     H2R15455   5.278   1.313   2.906
    1PA     H2S15456   5.200   1.465   2.853
    2PC     C1115457   5.326   1.364   2.716
    2PC     O1215458   5.438   1.375   2.669
    2PC     O1115459   5.225   1.302   2.652
    2PC      C115460   5.250   1.248   2.521
    2PC      HR15461   5.163   1.225   2.460
    2PC      HS15462   5.299   1.330   2.468
    2PC      C215463   5.353   1.135   2.525
    2PC      HX15464   5.443   1.169   2.577
    2PC      C315465   5.405   1.113   2.382
    2PC      HA15466   5.483   1.186   2.359
    2PC      HB15467   5.445   1.012   2.384
    2PC     O3115468   5.298   1.136   2.288
    2PC     P3115469   5.337   1.135   2.133
    2PC     O3215470   5.327   0.980   2.093
    2PC     C3115471   5.450   0.907   2.082
    2PC     H1A15472   5.501   0.944   1.992
    2PC     H1B15473   5.514   0.899   2.170
    2PC     C3215474   5.413   0.764   2.042
    2PC     H2A15475   5.503   0.702   2.052
    2PC     H2B15476   5.344   0.728   2.118
    2PC     N3115477   5.353   0.739   1.906
    2PC     C3315478   5.446   0.800   1.806
    2PC     H3A15479   5.544   0.752   1.808
    2PC     H3B15480   5.407   0.783   1.705
    2PC     H3C15481   5.453   0.904   1.838
    2PC     C3415482   5.343   0.593   1.874
    2PC     H4A15483   5.430   0.538   1.908
    2PC     H4B15484   5.266   0.547   1.936
    2PC     H4C15485   5.312   0.577   1.771
    2PC     C3515486   5.213   0.794   1.901
    2PC     H5A15487   5.149   0.760   1.983
    2PC     H5B15488   5.168   0.754   1.810
    2PC     H5C15489   5.214   0.903   1.898
    2PC     O3315490   5.226   1.189   2.051
    2PC     O3415491   5.462   1.203   2.093
    2PC     O2115492   5.300   1.009   2.568
    2PC     C2115493   5.305   0.971   2.697
    2PC     O2215494   5.361   1.035   2.784
    3OL     C1215495   5.225   0.848   2.732
    3OL     H2R15496   5.183   0.818   2.636
    3OL     H2S15497   5.134   0.871   2.788
    3OL     C1315498   5.322   0.748   2.796
    3OL     H3R15499   5.330   0.773   2.902
    3OL     H3S15500   5.421   0.744   2.750
    3OL     C1415501   5.247   0.614   2.798
    3OL     H4R15502   5.246   0.574   2.696
    3OL     H4S15503   5.144   0.637   2.825
    3OL     C1515504   5.286   0.521   2.913
    3OL     H5R15505   5.260   0.567   3.009
    3OL     H5S15506   5.395   0.509   2.917
    3OL     C1615507   5.205   0.390   2.910
    3OL     H6R15508   5.224   0.325   2.824
    3OL     H6S15509   5.102   0.424   2.898
    3OL     C1715510   5.220   0.304   3.036
    3OL     H7R15511   5.217   0.366   3.125
    3OL     H7S15512   5.315   0.250   3.028
    3OL     C1815513   5.119   0.189   3.042
    3OL     H8R15514   5.113   0.149   2.940
    3OL     H8S15515   5.024   0.228   3.078
    3OL     C1915516   5.175   0.083   3.134
    3OL     H9R15517   5.278   0.061   3.108
    3OL    C11015518   5.106   0.024   3.231
    3OL    H10R15519   5.153  -0.063   3.276
    3OL    C11115520   4.959   0.048   3.255
    3OL    H11R15521   4.891   0.031   3.171
    3OL    H11S15522   4.947   0.152   3.286
    3OL    C11215523   4.899  -0.030   3.373
    3OL    H12R15524   4.954   0.000   3.462
    3OL    H12S15525   4.923  -0.136   3.370
    3OL    C11315526   4.750   0.003   3.391
    3OL    H13R15527   4.740   0.108   3.359
    3OL    H13S15528   4.724  -0.008   3.497
    3OL    C11415529   4.666  -0.097   3.311
    3OL    H14R15530   4.666  -0.198   3.353
    3OL    H14S15531   4.692  -0.111   3.206
    3OL    C11515532   4.517  -0.057   3.311
    3OL    H15R15533   4.512   0.047   3.280
    3OL    H15S15534   4.486  -0.063   3.415
    3OL    C11615535   4.437  -0.151   3.220
    3OL    H16R15536   4.499  -0.185   3.136
    3OL    H16S15537   4.350  -0.105   3.172
    3OL    C11715538   4.390  -0.274   3.297
    3OL    H17R15539   4.448  -0.293   3.388
    3OL    H17S15540   4.410  -0.371   3.251
    3OL    C11815541   4.241  -0.270   3.333
    3OL    H18R15542   4.219  -0.171   3.373
    3OL    H18S15543   4.219  -0.349   3.406
    3OL    H18T15544   4.180  -0.286   3.244
    1PA    C11615545   4.280   4.792   3.701
    1PA    H16R15546   4.257   4.821   3.804
    1PA    H16S15547   4.357   4.716   3.710
    1PA    H16T15548   4.193   4.737   3.664
    1PA    C11515549   4.309   4.918   3.619
    1PA    H15R15550   4.247   5.001   3.653
    1PA    H15S15551   4.409   4.953   3.643
    1PA    C11415552   4.303   4.910   3.465
    1PA    H14R15553   4.297   5.006   3.415
    1PA    H14S15554   4.393   4.858   3.432
    1PA    C11315555   4.190   4.823   3.408
    1PA    H13R15556   4.205   4.722   3.448
    1PA    H13S15557   4.092   4.863   3.433
    1PA    C11215558   4.194   4.822   3.254
    1PA    H12R15559   4.183   4.924   3.218
    1PA    H12S15560   4.296   4.798   3.223
    1PA    C11115561   4.094   4.728   3.185
    1PA    H11R15562   4.136   4.628   3.195
    1PA    H11S15563   3.996   4.746   3.229
    1PA    C11015564   4.080   4.762   3.036
    1PA    H10R15565   4.052   4.867   3.023
    1PA    H10S15566   4.176   4.754   2.984
    1PA     C1915567   3.974   4.678   2.964
    1PA     H9R15568   3.898   4.670   3.042
    1PA     H9S15569   3.936   4.747   2.887
    1PA     C1815570   4.030   4.549   2.901
    1PA     H8R15571   3.954   4.513   2.830
    1PA     H8S15572   4.117   4.586   2.848
    1PA     C1715573   4.057   4.435   2.999
    1PA     H7R15574   4.131   4.475   3.069
    1PA     H7S15575   3.967   4.402   3.050
    1PA     C1615576   4.117   4.307   2.938
    1PA     H6R15577   4.141   4.230   3.012
    1PA     H6S15578   4.043   4.274   2.866
    1PA     C1515579   4.246   4.339   2.862
    1PA     H5R15580   4.218   4.394   2.772
    1PA     H5S15581   4.323   4.388   2.922
    1PA     C1415582   4.314   4.203   2.835
    1PA     H4R15583   4.353   4.155   2.925
    1PA     H4S15584   4.230   4.144   2.798
    1PA     C1315585   4.421   4.232   2.729
    1PA     H3R15586   4.375   4.290   2.649
    1PA     H3S15587   4.499   4.288   2.780
    1PA     C1215588   4.483   4.102   2.676
    1PA     H2R15589   4.520   4.054   2.767
    1PA     H2S15590   4.422   4.030   2.620
    2PC     C1115591   4.594   4.136   2.580
    2PC     O1215592   4.572   4.138   2.461
    2PC     O1115593   4.711   4.166   2.639
    2PC      C115594   4.824   4.205   2.558
    2PC      HR15595   4.910   4.192   2.624
    2PC      HS15596   4.827   4.135   2.474
    2PC      C215597   4.823   4.350   2.507
    2PC      HX15598   4.721   4.381   2.481
    2PC      C315599   4.913   4.368   2.384
    2PC      HA15600   5.021   4.361   2.393
    2PC      HB15601   4.882   4.290   2.315
    2PC     O3115602   4.889   4.490   2.311
    2PC     P3115603   4.952   4.500   2.164
    2PC     O3215604   4.846   4.417   2.077
    2PC     C3115605   4.741   4.492   2.012
    2PC     H1A15606   4.706   4.563   2.086
    2PC     H1B15607   4.769   4.554   1.926
    2PC     C3215608   4.622   4.405   1.968
    2PC     H2A15609   4.567   4.363   2.052
    2PC     H2B15610   4.547   4.470   1.925
    2PC     N3115611   4.645   4.299   1.864
    2PC     C3315612   4.781   4.235   1.870
    2PC     H3A15613   4.799   4.175   1.959
    2PC     H3B15614   4.784   4.174   1.779
    2PC     H3C15615   4.861   4.309   1.861
    2PC     C3415616   4.546   4.187   1.878
    2PC     H4A15617   4.443   4.223   1.884
    2PC     H4B15618   4.556   4.124   1.790
    2PC     H4C15619   4.567   4.129   1.968
    2PC     C3515620   4.633   4.358   1.727
    2PC     H5A15621   4.531   4.389   1.705
    2PC     H5B15622   4.655   4.278   1.655
    2PC     H5C15623   4.705   4.439   1.719
    2PC     O3315624   4.953   4.640   2.116
    2PC     O3415625   5.090   4.449   2.147
    2PC     O2115626   4.881   4.428   2.614
    2PC     C2115627   4.799   4.466   2.713
    2PC     O2215628   4.679   4.449   2.726
    3OL     C1215629   4.880   4.526   2.825
    3OL     H2R15630   4.958   4.596   2.796
    3OL     H2S15631   4.937   4.443   2.868
    3OL     C1315632   4.793   4.592   2.933
    3OL     H3R15633   4.747   4.507   2.984
    3OL     H3S15634   4.728   4.672   2.897
    3OL     C1415635   4.874   4.657   3.046
    3OL     H4R15636   4.964   4.712   3.019
    3OL     H4S15637   4.920   4.581   3.110
    3OL     C1515638   4.776   4.718   3.147
    3OL     H5R15639   4.832   4.747   3.236
    3OL     H5S15640   4.705   4.642   3.179
    3OL     C1615641   4.698   4.842   3.102
    3OL     H6R15642   4.608   4.809   3.049
    3OL     H6S15643   4.758   4.905   3.035
    3OL     C1715644   4.645   4.936   3.211
    3OL     H7R15645   4.721   4.949   3.288
    3OL     H7S15646   4.560   4.886   3.258
    3OL     C1815647   4.608   5.075   3.158
    3OL     H8R15648   4.687   5.118   3.095
    3OL     H8S15649   4.597   5.138   3.246
    3OL     C1915650   4.481   5.064   3.078
    3OL     H9R15651   4.493   5.001   2.990
    3OL    C11015652   4.365   5.123   3.102
    3OL    H10R15653   4.278   5.109   3.037
    3OL    C11115654   4.347   5.223   3.213
    3OL    H11R15655   4.429   5.220   3.285
    3OL    H11S15656   4.250   5.199   3.256
    3OL    C11215657   4.326   5.370   3.171
    3OL    H12R15658   4.260   5.379   3.085
    3OL    H12S15659   4.415   5.428   3.145
    3OL    C11315660   4.270   5.450   3.288
    3OL    H13R15661   4.344   5.464   3.367
    3OL    H13S15662   4.187   5.401   3.340
    3OL    C11415663   4.219   5.589   3.247
    3OL    H14R15664   4.161   5.585   3.154
    3OL    H14S15665   4.304   5.656   3.232
    3OL    C11515666   4.130   5.652   3.356
    3OL    H15R15667   4.041   5.594   3.376
    3OL    H15S15668   4.100   5.749   3.316
    3OL    C11615669   4.210   5.681   3.483
    3OL    H16R15670   4.290   5.753   3.461
    3OL    H16S15671   4.255   5.588   3.519
    3OL    C11715672   4.124   5.736   3.597
    3OL    H17R15673   4.193   5.755   3.680
    3OL    H17S15674   4.057   5.662   3.641
    3OL    C11815675   4.055   5.869   3.563
    3OL    H18R15676   4.124   5.946   3.527
    3OL    H18S15677   3.999   5.921   3.641
    3OL    H18T15678   3.984   5.844   3.484
    1PA    C11615679  -0.075   0.301   3.611
    1PA    H16R15680  -0.136   0.391   3.624
    1PA    H16S15681  -0.093   0.237   3.698
    1PA    H16T15682  -0.112   0.240   3.528
    1PA    C11515683   0.071   0.342   3.589
    1PA    H15R15684   0.068   0.420   3.513
    1PA    H15S15685   0.098   0.398   3.679
    1PA    C11415686   0.171   0.231   3.556
    1PA    H14R15687   0.161   0.153   3.631
    1PA    H14S15688   0.139   0.188   3.461
    1PA    C11315689   0.316   0.281   3.545
    1PA    H13R15690   0.330   0.377   3.495
    1PA    H13S15691   0.347   0.312   3.645
    1PA    C11215692   0.409   0.172   3.492
    1PA    H12R15693   0.514   0.205   3.495
    1PA    H12S15694   0.381   0.090   3.559
    1PA    C11115695   0.387   0.137   3.344
    1PA    H11R15696   0.436   0.042   3.323
    1PA    H11S15697   0.280   0.132   3.328
    1PA    C11015698   0.443   0.243   3.248
    1PA    H10R15699   0.396   0.341   3.258
    1PA    H10S15700   0.548   0.252   3.277
    1PA     C1915701   0.430   0.189   3.105
    1PA     H9R15702   0.492   0.098   3.104
    1PA     H9S15703   0.333   0.142   3.086
    1PA     C1815704   0.469   0.291   2.998
    1PA     H8R15705   0.410   0.383   3.002
    1PA     H8S15706   0.573   0.318   3.016
    1PA     C1715707   0.459   0.239   2.853
    1PA     H7R15708   0.548   0.183   2.825
    1PA     H7S15709   0.367   0.186   2.835
    1PA     C1615710   0.452   0.359   2.757
    1PA     H6R15711   0.350   0.399   2.765
    1PA     H6S15712   0.517   0.439   2.793
    1PA     C1515713   0.474   0.334   2.608
    1PA     H5R15714   0.447   0.233   2.575
    1PA     H5S15715   0.403   0.398   2.554
    1PA     C1415716   0.617   0.378   2.573
    1PA     H4R15717   0.633   0.479   2.610
    1PA     H4S15718   0.685   0.308   2.621
    1PA     C1315719   0.644   0.361   2.423
    1PA     H3R15720   0.676   0.260   2.398
    1PA     H3S15721   0.558   0.380   2.358
    1PA     C1215722   0.761   0.452   2.385
    1PA     H2R15723   0.742   0.553   2.422
    1PA     H2S15724   0.845   0.405   2.438
    2PC     C1115725   0.791   0.460   2.237
    2PC     O1215726   0.752   0.374   2.160
    2PC     O1115727   0.845   0.576   2.196
    2PC      C115728   0.889   0.592   2.060
    2PC      HR15729   0.967   0.517   2.043
    2PC      HS15730   0.798   0.579   2.001
    2PC      C215731   0.951   0.732   2.047
    2PC      HX15732   0.900   0.801   2.114
    2PC      C315733   0.936   0.787   1.904
    2PC      HA15734   0.833   0.821   1.896
    2PC      HB15735   0.997   0.877   1.891
    2PC     O3115736   0.970   0.691   1.802
    2PC     P3115737   0.940   0.727   1.649
    2PC     O3215738   1.082   0.791   1.610
    2PC     C3115739   1.080   0.915   1.538
    2PC     H1A15740   1.025   0.903   1.445
    2PC     H1B15741   1.013   0.982   1.593
    2PC     C3215742   1.221   0.968   1.507
    2PC     H2A15743   1.218   1.071   1.472
    2PC     H2B15744   1.283   0.960   1.596
    2PC     N3115745   1.298   0.888   1.406
    2PC     C3315746   1.240   0.906   1.269
    2PC     H3A15747   1.218   1.011   1.249
    2PC     H3B15748   1.306   0.856   1.198
    2PC     H3C15749   1.144   0.856   1.267
    2PC     C3415750   1.443   0.927   1.412
    2PC     H4A15751   1.458   1.032   1.389
    2PC     H4B15752   1.480   0.907   1.513
    2PC     H4C15753   1.509   0.867   1.348
    2PC     C3515754   1.298   0.742   1.439
    2PC     H5A15755   1.373   0.697   1.374
    2PC     H5B15756   1.201   0.691   1.434
    2PC     H5C15757   1.332   0.735   1.543
    2PC     O3315758   0.922   0.605   1.567
    2PC     O3415759   0.813   0.802   1.640
    2PC     O2115760   1.091   0.719   2.079
    2PC     C2115761   1.150   0.815   2.151
    2PC     O2215762   1.088   0.909   2.197
    3OL     C1215763   1.294   0.782   2.182
    3OL     H2R15764   1.332   0.869   2.236
    3OL     H2S15765   1.348   0.766   2.088
    3OL     C1315766   1.299   0.655   2.268
    3OL     H3R15767   1.406   0.637   2.273
    3OL     H3S15768   1.250   0.570   2.219
    3OL     C1415769   1.239   0.680   2.407
    3OL     H4R15770   1.253   0.785   2.433
    3OL     H4S15771   1.299   0.620   2.476
    3OL     C1515772   1.091   0.648   2.429
    3OL     H5R15773   1.062   0.578   2.350
    3OL     H5S15774   1.037   0.743   2.426
    3OL     C1615775   1.066   0.582   2.565
    3OL     H6R15776   0.960   0.573   2.589
    3OL     H6S15777   1.107   0.648   2.642
    3OL     C1715778   1.121   0.439   2.571
    3OL     H7R15779   1.230   0.429   2.570
    3OL     H7S15780   1.086   0.389   2.480
    3OL     C1815781   1.087   0.385   2.710
    3OL     H8R15782   0.981   0.408   2.727
    3OL     H8S15783   1.146   0.436   2.786
    3OL     C1915784   1.117   0.237   2.709
    3OL     H9R15785   1.218   0.211   2.681
    3OL    C11015786   1.033   0.139   2.738
    3OL    H10R15787   1.063   0.035   2.725
    3OL    C11115788   0.890   0.165   2.777
    3OL    H11R15789   0.824   0.093   2.729
    3OL    H11S15790   0.861   0.262   2.737
    3OL    C11215791   0.859   0.194   2.925
    3OL    H12R15792   0.758   0.231   2.943
    3OL    H12S15793   0.928   0.268   2.963
    3OL    C11315794   0.886   0.064   3.004
    3OL    H13R15795   0.992   0.046   3.024
    3OL    H13S15796   0.838  -0.018   2.949
    3OL    C11415797   0.814   0.074   3.140
    3OL    H14R15798   0.709   0.094   3.118
    3OL    H14S15799   0.850   0.161   3.196
    3OL    C11515800   0.825  -0.052   3.226
    3OL    H15R15801   0.931  -0.075   3.243
    3OL    H15S15802   0.767  -0.130   3.175
    3OL    C11615803   0.758  -0.024   3.361
    3OL    H16R15804   0.661   0.025   3.351
    3OL    H16S15805   0.831   0.049   3.397
    3OL    C11715806   0.766  -0.130   3.472
    3OL    H17R15807   0.866  -0.169   3.490
    3OL    H17S15808   0.714  -0.218   3.433
    3OL    C11815809   0.705  -0.097   3.609
    3OL    H18R15810   0.759  -0.011   3.650
    3OL    H18S15811   0.714  -0.177   3.684
    3OL    H18T15812   0.598  -0.076   3.605
    1PA    C11615813   3.276   5.456   3.528
    1PA    H16R15814   3.186   5.416   3.574
    1PA    H16S15815   3.243   5.507   3.437
    1PA    H16T15816   3.319   5.521   3.604
    1PA    C11515817   3.362   5.335   3.488
    1PA    H15R15818   3.462   5.370   3.460
    1PA    H15S15819   3.382   5.283   3.581
    1PA    C11415820   3.304   5.242   3.380
    1PA    H14R15821   3.208   5.201   3.411
    1PA    H14S15822   3.303   5.301   3.289
    1PA    C11315823   3.396   5.124   3.345
    1PA    H13R15824   3.496   5.161   3.320
    1PA    H13S15825   3.417   5.074   3.439
    1PA    C11215826   3.331   5.041   3.233
    1PA    H12R15827   3.392   4.951   3.226
    1PA    H12S15828   3.234   4.997   3.255
    1PA    C11115829   3.317   5.106   3.095
    1PA    H11R15830   3.254   5.196   3.101
    1PA    H11S15831   3.411   5.136   3.048
    1PA    C11015832   3.246   5.010   2.999
    1PA    H10R15833   3.319   4.936   2.966
    1PA    H10S15834   3.157   4.960   3.037
    1PA     C1915835   3.203   5.083   2.871
    1PA     H9R15836   3.126   5.155   2.898
    1PA     H9S15837   3.281   5.138   2.817
    1PA     C1815838   3.141   4.984   2.771
    1PA     H8R15839   3.208   4.899   2.764
    1PA     H8S15840   3.050   4.944   2.817
    1PA     C1715841   3.093   5.041   2.637
    1PA     H7R15842   3.187   5.048   2.582
    1PA     H7S15843   3.036   4.959   2.593
    1PA     C1615844   3.014   5.172   2.645
    1PA     H6R15845   3.077   5.238   2.705
    1PA     H6S15846   2.993   5.218   2.548
    1PA     C1515847   2.878   5.151   2.713
    1PA     H5R15848   2.891   5.085   2.799
    1PA     H5S15849   2.830   5.244   2.746
    1PA     C1415850   2.780   5.084   2.616
    1PA     H4R15851   2.775   5.139   2.521
    1PA     H4S15852   2.807   4.980   2.597
    1PA     C1315853   2.635   5.090   2.668
    1PA     H3R15854   2.636   5.057   2.772
    1PA     H3S15855   2.608   5.194   2.682
    1PA     C1215856   2.528   5.016   2.585
    1PA     H2R15857   2.550   4.909   2.589
    1PA     H2S15858   2.426   5.032   2.619
    2PC     C1115859   2.540   5.055   2.440
    2PC     O1215860   2.626   5.004   2.372
    2PC     O1115861   2.467   5.163   2.408
    2PC      C115862   2.479   5.223   2.278
    2PC      HR15863   2.582   5.252   2.257
    2PC      HS15864   2.436   5.151   2.208
    2PC      C215865   2.403   5.357   2.280
    2PC      HX15866   2.303   5.339   2.320
    2PC      C315867   2.403   5.407   2.135
    2PC      HA15868   2.508   5.417   2.104
    2PC      HB15869   2.372   5.327   2.068
    2PC     O3115870   2.312   5.518   2.124
    2PC     P3115871   2.322   5.622   2.003
    2PC     O3215872   2.329   5.517   1.882
    2PC     C3115873   2.201   5.463   1.847
    2PC     H1A15874   2.162   5.409   1.933
    2PC     H1B15875   2.130   5.542   1.819
    2PC     C3215876   2.218   5.368   1.727
    2PC     H2A15877   2.313   5.316   1.739
    2PC     H2B15878   2.147   5.285   1.725
    2PC     N3115879   2.218   5.425   1.589
    2PC     C3315880   2.077   5.461   1.554
    2PC     H3A15881   2.061   5.549   1.617
    2PC     H3B15882   2.082   5.500   1.452
    2PC     H3C15883   2.003   5.382   1.570
    2PC     C3415884   2.297   5.552   1.592
    2PC     H4A15885   2.284   5.594   1.492
    2PC     H4B15886   2.253   5.607   1.676
    2PC     H4C15887   2.399   5.524   1.618
    2PC     C3515888   2.263   5.319   1.493
    2PC     H5A15889   2.372   5.313   1.499
    2PC     H5B15890   2.218   5.335   1.395
    2PC     H5C15891   2.223   5.222   1.524
    2PC     O3315892   2.207   5.715   1.993
    2PC     O3415893   2.442   5.708   2.016
    2PC     O2115894   2.483   5.455   2.348
    2PC     C2115895   2.496   5.457   2.482
    2PC     O2215896   2.435   5.384   2.557
    3OL     C1215897   2.594   5.560   2.534
    3OL     H2R15898   2.558   5.661   2.515
    3OL     H2S15899   2.692   5.544   2.488
    3OL     C1315900   2.610   5.548   2.686
    3OL     H3R15901   2.673   5.461   2.706
    3OL     H3S15902   2.512   5.550   2.735
    3OL     C1415903   2.673   5.676   2.741
    3OL     H4R15904   2.608   5.764   2.728
    3OL     H4S15905   2.763   5.705   2.687
    3OL     C1515906   2.703   5.666   2.891
    3OL     H5R15907   2.645   5.585   2.935
    3OL     H5S15908   2.673   5.752   2.951
    3OL     C1615909   2.848   5.644   2.937
    3OL     H6R15910   2.858   5.666   3.044
    3OL     H6S15911   2.913   5.716   2.887
    3OL     C1715912   2.896   5.501   2.912
    3OL     H7R15913   2.890   5.475   2.806
    3OL     H7S15914   2.824   5.432   2.957
    3OL     C1815915   3.034   5.463   2.968
    3OL     H8R15916   3.102   5.539   2.930
    3OL     H8S15917   3.067   5.367   2.929
    3OL     C1915918   3.042   5.474   3.118
    3OL     H9R15919   3.066   5.575   3.150
    3OL    C11015920   3.002   5.389   3.212
    3OL    H10R15921   3.011   5.412   3.318
    3OL    C11115922   2.960   5.247   3.183
    3OL    H11R15923   3.024   5.184   3.246
    3OL    H11S15924   2.987   5.227   3.079
    3OL    C11215925   2.810   5.230   3.214
    3OL    H12R15926   2.765   5.320   3.170
    3OL    H12S15927   2.791   5.244   3.320
    3OL    C11315928   2.749   5.097   3.168
    3OL    H13R15929   2.730   5.111   3.061
    3OL    H13S15930   2.647   5.098   3.209
    3OL    C11415931   2.830   4.972   3.205
    3OL    H14R15932   2.834   4.963   3.314
    3OL    H14S15933   2.928   4.995   3.163
    3OL    C11515934   2.788   4.835   3.150
    3OL    H15R15935   2.682   4.839   3.125
    3OL    H15S15936   2.802   4.763   3.231
    3OL    C11615937   2.847   4.801   3.012
    3OL    H16R15938   2.954   4.818   3.005
    3OL    H16S15939   2.810   4.860   2.928
    3OL    C11715940   2.830   4.652   2.977
    3OL    H17R15941   2.852   4.589   3.063
    3OL    H17S15942   2.903   4.621   2.902
    3OL    C11815943   2.692   4.627   2.915
    3OL    H18R15944   2.672   4.520   2.917
    3OL    H18S15945   2.681   4.673   2.817
    3OL    H18T15946   2.620   4.678   2.979
    1PA    C11615947   3.062   0.580   3.678
    1PA    H16R15948   3.011   0.615   3.768
    1PA    H16S15949   3.083   0.666   3.614
    1PA    H16T15950   3.152   0.521   3.694
    1PA    C11515951   2.952   0.492   3.617
    1PA    H15R15952   2.923   0.435   3.706
    1PA    H15S15953   2.866   0.552   3.587
    1PA    C11415954   3.012   0.409   3.503
    1PA    H14R15955   3.095   0.348   3.540
    1PA    H14S15956   2.927   0.346   3.478
    1PA    C11315957   3.059   0.489   3.381
    1PA    H13R15958   2.989   0.554   3.327
    1PA    H13S15959   3.134   0.562   3.412
    1PA    C11215960   3.109   0.381   3.284
    1PA    H12R15961   3.177   0.315   3.340
    1PA    H12S15962   3.028   0.324   3.238
    1PA    C11115963   3.196   0.447   3.176
    1PA    H11R15964   3.131   0.507   3.111
    1PA    H11S15965   3.275   0.504   3.224
    1PA    C11015966   3.264   0.339   3.092
    1PA    H10R15967   3.328   0.277   3.155
    1PA    H10S15968   3.186   0.284   3.038
    1PA     C1915969   3.362   0.400   2.990
    1PA     H9R15970   3.307   0.473   2.930
    1PA     H9S15971   3.446   0.452   3.036
    1PA     C1815972   3.421   0.299   2.890
    1PA     H8R15973   3.475   0.218   2.937
    1PA     H8S15974   3.333   0.257   2.841
    1PA     C1715975   3.515   0.357   2.784
    1PA     H7R15976   3.545   0.271   2.722
    1PA     H7S15977   3.474   0.428   2.712
    1PA     C1615978   3.650   0.404   2.841
    1PA     H6R15979   3.628   0.498   2.892
    1PA     H6S15980   3.687   0.325   2.907
    1PA     C1515981   3.746   0.428   2.724
    1PA     H5R15982   3.700   0.438   2.625
    1PA     H5S15983   3.786   0.528   2.740
    1PA     C1415984   3.866   0.332   2.719
    1PA     H4R15985   3.925   0.342   2.810
    1PA     H4S15986   3.828   0.230   2.718
    1PA     C1315987   3.945   0.356   2.590
    1PA     H3R15988   4.024   0.281   2.574
    1PA     H3S15989   3.879   0.340   2.504
    1PA     C1215990   4.008   0.496   2.586
    1PA     H2R15991   3.941   0.579   2.608
    1PA     H2S15992   4.086   0.491   2.662
    2PC     C1115993   4.080   0.510   2.455
    2PC     O1215994   4.067   0.437   2.359
    2PC     O1115995   4.166   0.614   2.458
    2PC      C115996   4.231   0.646   2.334
    2PC      HR15997   4.280   0.560   2.289
    2PC      HS15998   4.148   0.680   2.270
    2PC      C215999   4.327   0.765   2.350
    2PC      HX16000   4.277   0.832   2.420
    2PC      C316001   4.355   0.824   2.212
    2PC      HA16002   4.263   0.867   2.171
    2PC      HB16003   4.432   0.901   2.220
    2PC     O3116004   4.410   0.724   2.124
    2PC     P3116005   4.409   0.738   1.965
    2PC     O3216006   4.269   0.678   1.914
    2PC     C3116007   4.214   0.565   1.985
    2PC     H1A16008   4.294   0.490   1.987
    2PC     H1B16009   4.171   0.589   2.082
    2PC     C3216010   4.091   0.519   1.905
    2PC     H2A16011   4.022   0.462   1.966
    2PC     H2B16012   4.035   0.604   1.866
    2PC     N3116013   4.122   0.436   1.784
    2PC     C3316014   4.238   0.481   1.700
    2PC     H3A16015   4.253   0.409   1.620
    2PC     H3B16016   4.202   0.576   1.660
    2PC     H3C16017   4.326   0.496   1.762
    2PC     C3416018   4.141   0.291   1.817
    2PC     H4A16019   4.159   0.235   1.725
    2PC     H4B16020   4.228   0.283   1.883
    2PC     H4C16021   4.051   0.249   1.861
    2PC     C3516022   4.004   0.438   1.692
    2PC     H5A16023   3.915   0.412   1.749
    2PC     H5B16024   4.009   0.377   1.601
    2PC     H5C16025   4.000   0.542   1.659
    2PC     O3316026   4.408   0.874   1.905
    2PC     O3416027   4.530   0.690   1.894
    2PC     O2116028   4.447   0.712   2.410
    2PC     C2116029   4.548   0.793   2.444
    2PC     O2216030   4.542   0.914   2.429
    3OL     C1216031   4.654   0.727   2.527
    3OL     H2R16032   4.755   0.741   2.489
    3OL     H2S16033   4.636   0.619   2.536
    3OL     C1316034   4.637   0.782   2.670
    3OL     H3R16035   4.536   0.762   2.704
    3OL     H3S16036   4.652   0.891   2.670
    3OL     C1416037   4.741   0.711   2.757
    3OL     H4R16038   4.750   0.766   2.851
    3OL     H4S16039   4.835   0.724   2.704
    3OL     C1516040   4.715   0.563   2.791
    3OL     H5R16041   4.695   0.505   2.701
    3OL     H5S16042   4.626   0.553   2.853
    3OL     C1616043   4.827   0.499   2.874
    3OL     H6R16044   4.858   0.561   2.958
    3OL     H6S16045   4.919   0.489   2.816
    3OL     C1716046   4.795   0.352   2.908
    3OL     H7R16047   4.878   0.323   2.972
    3OL     H7S16048   4.788   0.297   2.814
    3OL     C1816049   4.666   0.316   2.983
    3OL     H8R16050   4.578   0.331   2.920
    3OL     H8S16051   4.654   0.387   3.065
    3OL     C1916052   4.675   0.180   3.044
    3OL     H9R16053   4.696   0.181   3.151
    3OL    C11016054   4.665   0.065   2.977
    3OL    H10R16055   4.676  -0.027   3.033
    3OL    C11116056   4.631   0.044   2.831
    3OL    H11R16057   4.720   0.000   2.787
    3OL    H11S16058   4.616   0.130   2.765
    3OL    C11216059   4.509  -0.049   2.832
    3OL    H12R16060   4.488  -0.128   2.904
    3OL    H12S16061   4.527  -0.113   2.745
    3OL    C11316062   4.378   0.031   2.832
    3OL    H13R16063   4.375   0.094   2.743
    3OL    H13S16064   4.388   0.093   2.921
    3OL    C11416065   4.257  -0.061   2.854
    3OL    H14R16066   4.286  -0.129   2.936
    3OL    H14S16067   4.233  -0.109   2.759
    3OL    C11516068   4.142   0.024   2.910
    3OL    H15R16069   4.105   0.088   2.829
    3OL    H15S16070   4.186   0.092   2.982
    3OL    C11616071   4.028  -0.067   2.957
    3OL    H16R16072   4.062  -0.123   3.044
    3OL    H16S16073   4.006  -0.146   2.885
    3OL    C11716074   3.899   0.016   2.967
    3OL    H17R16075   3.814  -0.052   2.954
    3OL    H17S16076   3.890   0.084   2.881
    3OL    C11816077   3.894   0.105   3.092
    3OL    H18R16078   3.982   0.169   3.082
    3OL    H18S16079   3.906   0.045   3.183
    3OL    H18T16080   3.811   0.174   3.109
    1PA    C11616081   1.025   2.337   3.754
    1PA    H16R16082   1.061   2.438   3.732
    1PA    H16S16083   1.096   2.284   3.819
    1PA    H16T16084   0.924   2.343   3.795
    1PA    C11516085   1.026   2.253   3.625
    1PA    H15R16086   1.127   2.234   3.589
    1PA    H15S16087   0.977   2.157   3.639
    1PA    C11416088   0.948   2.320   3.512
    1PA    H14R16089   0.839   2.320   3.525
    1PA    H14S16090   0.972   2.427   3.506
    1PA    C11316091   0.968   2.253   3.376
    1PA    H13R16092   1.074   2.259   3.350
    1PA    H13S16093   0.950   2.145   3.378
    1PA    C11216094   0.866   2.305   3.273
    1PA    H12R16095   0.852   2.225   3.200
    1PA    H12S16096   0.776   2.315   3.333
    1PA    C11116097   0.912   2.432   3.201
    1PA    H11R16098   0.832   2.489   3.153
    1PA    H11S16099   0.953   2.495   3.281
    1PA    C11016100   1.028   2.408   3.104
    1PA    H10R16101   1.063   2.504   3.064
    1PA    H10S16102   1.106   2.365   3.167
    1PA     C1916103   0.998   2.306   2.994
    1PA     H9R16104   0.994   2.209   3.043
    1PA     H9S16105   0.900   2.301   2.946
    1PA     C1816106   1.113   2.311   2.892
    1PA     H8R16107   1.211   2.331   2.935
    1PA     H8S16108   1.129   2.215   2.844
    1PA     C1716109   1.078   2.410   2.780
    1PA     H7R16110   1.006   2.364   2.711
    1PA     H7S16111   1.033   2.504   2.816
    1PA     C1616112   1.197   2.439   2.687
    1PA     H6R16113   1.200   2.544   2.657
    1PA     H6S16114   1.284   2.435   2.753
    1PA     C1516115   1.215   2.337   2.574
    1PA     H5R16116   1.323   2.335   2.560
    1PA     H5S16117   1.167   2.244   2.605
    1PA     C1416118   1.153   2.395   2.445
    1PA     H4R16119   1.044   2.390   2.445
    1PA     H4S16120   1.180   2.501   2.447
    1PA     C1316121   1.193   2.317   2.319
    1PA     H3R16122   1.178   2.379   2.230
    1PA     H3S16123   1.301   2.301   2.324
    1PA     C1216124   1.120   2.187   2.285
    1PA     H2R16125   1.135   2.107   2.358
    1PA     H2S16126   1.012   2.203   2.284
    2PC     C1116127   1.156   2.139   2.147
    2PC     O1216128   1.162   2.207   2.046
    2PC     O1116129   1.186   2.008   2.151
    2PC      C116130   1.208   1.939   2.027
    2PC      HR16131   1.219   1.830   2.033
    2PC      HS16132   1.119   1.958   1.966
    2PC      C216133   1.336   1.993   1.962
    2PC      HX16134   1.346   2.101   1.971
    2PC      C316135   1.354   1.962   1.812
    2PC      HA16136   1.378   1.863   1.773
    2PC      HB16137   1.265   1.995   1.760
    2PC     O3116138   1.467   2.047   1.783
    2PC     P3116139   1.508   2.060   1.628
    2PC     O3216140   1.597   1.929   1.602
    2PC     C3116141   1.599   1.869   1.472
    2PC     H1A16142   1.507   1.811   1.458
    2PC     H1B16143   1.624   1.943   1.396
    2PC     C3216144   1.707   1.759   1.466
    2PC     H2A16145   1.807   1.794   1.489
    2PC     H2B16146   1.696   1.690   1.549
    2PC     N3116147   1.705   1.677   1.341
    2PC     C3316148   1.725   1.760   1.217
    2PC     H3A16149   1.693   1.702   1.130
    2PC     H3B16150   1.669   1.853   1.224
    2PC     H3C16151   1.831   1.785   1.215
    2PC     C3416152   1.815   1.575   1.348
    2PC     H4A16153   1.899   1.626   1.394
    2PC     H4B16154   1.784   1.486   1.405
    2PC     H4C16155   1.840   1.550   1.245
    2PC     C3516156   1.575   1.606   1.317
    2PC     H5A16157   1.499   1.671   1.274
    2PC     H5B16158   1.534   1.565   1.410
    2PC     H5C16159   1.591   1.539   1.233
    2PC     O3316160   1.394   2.047   1.535
    2PC     O3416161   1.580   2.188   1.614
    2PC     O2116162   1.439   1.917   2.028
    2PC     C2116163   1.494   1.982   2.131
    2PC     O2216164   1.481   2.099   2.160
    3OL     C1216165   1.599   1.896   2.197
    3OL     H2R16166   1.662   1.963   2.256
    3OL     H2S16167   1.655   1.842   2.121
    3OL     C1316168   1.541   1.791   2.294
    3OL     H3R16169   1.456   1.737   2.251
    3OL     H3S16170   1.518   1.831   2.393
    3OL     C1416171   1.649   1.685   2.318
    3OL     H4R16172   1.692   1.667   2.220
    3OL     H4S16173   1.595   1.604   2.368
    3OL     C1516174   1.777   1.734   2.387
    3OL     H5R16175   1.835   1.800   2.322
    3OL     H5S16176   1.848   1.651   2.386
    3OL     C1616177   1.754   1.783   2.531
    3OL     H6R16178   1.732   1.701   2.599
    3OL     H6S16179   1.675   1.857   2.544
    3OL     C1716180   1.887   1.842   2.579
    3OL     H7R16181   1.914   1.926   2.515
    3OL     H7S16182   1.961   1.763   2.566
    3OL     C1816183   1.888   1.883   2.727
    3OL     H8R16184   1.805   1.950   2.750
    3OL     H8S16185   1.978   1.942   2.743
    3OL     C1916186   1.874   1.760   2.813
    3OL     H9R16187   1.912   1.666   2.775
    3OL    C11016188   1.828   1.750   2.937
    3OL    H10R16189   1.824   1.656   2.992
    3OL    C11116190   1.795   1.869   3.024
    3OL    H11R16191   1.703   1.848   3.080
    3OL    H11S16192   1.777   1.963   2.971
    3OL    C11216193   1.921   1.901   3.105
    3OL    H12R16194   1.919   1.813   3.170
    3OL    H12S16195   1.880   1.981   3.166
    3OL    C11316196   2.055   1.938   3.040
    3OL    H13R16197   2.036   2.018   2.968
    3OL    H13S16198   2.098   1.854   2.985
    3OL    C11416199   2.158   1.995   3.139
    3OL    H14R16200   2.170   1.910   3.207
    3OL    H14S16201   2.117   2.088   3.179
    3OL    C11516202   2.292   2.020   3.070
    3OL    H15R16203   2.290   2.066   2.970
    3OL    H15S16204   2.359   1.935   3.053
    3OL    C11616205   2.364   2.121   3.160
    3OL    H16R16206   2.374   2.092   3.265
    3OL    H16S16207   2.305   2.214   3.163
    3OL    C11716208   2.501   2.151   3.099
    3OL    H17R16209   2.521   2.257   3.119
    3OL    H17S16210   2.491   2.160   2.991
    3OL    C11816211   2.604   2.043   3.135
    3OL    H18R16212   2.589   1.950   3.078
    3OL    H18S16213   2.603   2.017   3.241
    3OL    H18T16214   2.703   2.076   3.104
    1PA    C11616215   2.244   6.403   3.475
    1PA    H16R16216   2.214   6.495   3.526
    1PA    H16S16217   2.298   6.344   3.548
    1PA    H16T16218   2.158   6.339   3.454
    1PA    C11516219   2.326   6.424   3.347
    1PA    H15R16220   2.402   6.498   3.373
    1PA    H15S16221   2.379   6.329   3.335
    1PA    C11416222   2.243   6.467   3.226
    1PA    H14R16223   2.161   6.398   3.206
    1PA    H14S16224   2.200   6.564   3.253
    1PA    C11316225   2.341   6.491   3.110
    1PA    H13R16226   2.381   6.593   3.115
    1PA    H13S16227   2.426   6.423   3.117
    1PA    C11216228   2.263   6.473   2.979
    1PA    H12R16229   2.243   6.366   2.972
    1PA    H12S16230   2.164   6.520   2.970
    1PA    C11116231   2.348   6.502   2.855
    1PA    H11R16232   2.447   6.460   2.876
    1PA    H11S16233   2.314   6.443   2.769
    1PA    C11016234   2.376   6.649   2.816
    1PA    H10R16235   2.286   6.708   2.828
    1PA    H10S16236   2.430   6.678   2.906
    1PA     C1916237   2.451   6.669   2.683
    1PA     H9R16238   2.528   6.590   2.677
    1PA     H9S16239   2.379   6.663   2.601
    1PA     C1816240   2.528   6.800   2.671
    1PA     H8R16241   2.480   6.875   2.734
    1PA     H8S16242   2.630   6.791   2.709
    1PA     C1716243   2.544   6.858   2.530
    1PA     H7R16244   2.466   6.814   2.467
    1PA     H7S16245   2.530   6.966   2.538
    1PA     C1616246   2.677   6.811   2.469
    1PA     H6R16247   2.762   6.843   2.531
    1PA     H6S16248   2.694   6.706   2.448
    1PA     C1516249   2.695   6.894   2.342
    1PA     H5R16250   2.602   6.877   2.286
    1PA     H5S16251   2.695   6.999   2.373
    1PA     C1416252   2.824   6.869   2.263
    1PA     H4R16253   2.827   6.950   2.191
    1PA     H4S16254   2.917   6.867   2.321
    1PA     C1316255   2.815   6.743   2.175
    1PA     H3R16256   2.805   6.663   2.247
    1PA     H3S16257   2.719   6.741   2.122
    1PA     C1216258   2.925   6.728   2.069
    1PA     H2R16259   2.934   6.816   2.005
    1PA     H2S16260   3.021   6.734   2.121
    2PC     C1116261   2.915   6.596   1.996
    2PC     O1216262   2.854   6.497   2.029
    2PC     O1116263   2.971   6.608   1.875
    2PC      C116264   2.992   6.489   1.797
    2PC      HR16265   2.912   6.419   1.825
    2PC      HS16266   2.975   6.496   1.689
    2PC      C216267   3.127   6.424   1.828
    2PC      HX16268   3.202   6.502   1.807
    2PC      C316269   3.157   6.295   1.751
    2PC      HA16270   3.185   6.315   1.647
    2PC      HB16271   3.235   6.232   1.796
    2PC     O3116272   3.030   6.228   1.743
    2PC     P3116273   3.013   6.107   1.640
    2PC     O3216274   2.972   6.189   1.509
    2PC     C3116275   2.831   6.214   1.488
    2PC     H1A16276   2.801   6.133   1.421
    2PC     H1B16277   2.780   6.219   1.584
    2PC     C3216278   2.823   6.350   1.416
    2PC     H2A16279   2.715   6.367   1.412
    2PC     H2B16280   2.870   6.424   1.482
    2PC     N3116281   2.878   6.367   1.278
    2PC     C3316282   2.872   6.239   1.201
    2PC     H3A16283   2.953   6.175   1.238
    2PC     H3B16284   2.780   6.197   1.241
    2PC     H3C16285   2.854   6.256   1.095
    2PC     C3416286   2.781   6.455   1.204
    2PC     H4A16287   2.815   6.460   1.101
    2PC     H4B16288   2.678   6.419   1.213
    2PC     H4C16289   2.766   6.548   1.259
    2PC     C3516290   3.018   6.420   1.281
    2PC     H5A16291   3.071   6.415   1.186
    2PC     H5B16292   3.077   6.366   1.355
    2PC     H5C16293   3.020   6.521   1.323
    2PC     O3316294   3.146   6.043   1.624
    2PC     O3416295   2.925   5.998   1.688
    2PC     O2116296   3.125   6.397   1.969
    2PC     C2116297   3.238   6.386   2.042
    2PC     O2216298   3.347   6.388   1.989
    3OL     C1216299   3.213   6.364   2.189
    3OL     H2R16300   3.289   6.426   2.236
    3OL     H2S16301   3.240   6.264   2.222
    3OL     C1316302   3.073   6.393   2.245
    3OL     H3R16303   3.002   6.322   2.200
    3OL     H3S16304   3.035   6.484   2.199
    3OL     C1416305   3.070   6.384   2.398
    3OL     H4R16306   3.148   6.447   2.444
    3OL     H4S16307   3.086   6.282   2.434
    3OL     C1516308   2.937   6.435   2.457
    3OL     H5R16309   2.856   6.392   2.398
    3OL     H5S16310   2.939   6.544   2.453
    3OL     C1616311   2.921   6.385   2.601
    3OL     H6R16312   3.002   6.422   2.664
    3OL     H6S16313   2.915   6.276   2.605
    3OL     C1716314   2.786   6.441   2.650
    3OL     H7R16315   2.704   6.435   2.579
    3OL     H7S16316   2.800   6.548   2.667
    3OL     C1816317   2.751   6.375   2.784
    3OL     H8R16318   2.707   6.276   2.768
    3OL     H8S16319   2.668   6.435   2.823
    3OL     C1916320   2.868   6.371   2.879
    3OL     H9R16321   2.966   6.409   2.852
    3OL    C11016322   2.857   6.319   3.001
    3OL    H10R16323   2.952   6.323   3.054
    3OL    C11116324   2.735   6.261   3.069
    3OL    H11R16325   2.651   6.274   3.000
    3OL    H11S16326   2.720   6.323   3.158
    3OL    C11216327   2.765   6.116   3.106
    3OL    H12R16328   2.869   6.108   3.136
    3OL    H12S16329   2.754   6.051   3.019
    3OL    C11316330   2.659   6.069   3.208
    3OL    H13R16331   2.555   6.079   3.176
    3OL    H13S16332   2.664   6.136   3.293
    3OL    C11416333   2.693   5.924   3.245
    3OL    H14R16334   2.711   5.860   3.158
    3OL    H14S16335   2.606   5.873   3.287
    3OL    C11516336   2.806   5.914   3.349
    3OL    H15R16337   2.759   5.924   3.447
    3OL    H15S16338   2.885   5.986   3.330
    3OL    C11616339   2.866   5.773   3.353
    3OL    H16R16340   2.893   5.726   3.259
    3OL    H16S16341   2.785   5.718   3.403
    3OL    C11716342   2.988   5.779   3.447
    3OL    H17R16343   3.058   5.858   3.419
    3OL    H17S16344   3.039   5.683   3.432
    3OL    C11816345   2.956   5.784   3.597
    3OL    H18R16346   2.909   5.689   3.622
    3OL    H18S16347   2.896   5.873   3.621
    3OL    H18T16348   3.049   5.797   3.652
    1PA    C11616349   1.052   0.670   3.794
    1PA    H16R16350   1.026   0.773   3.771
    1PA    H16S16351   0.969   0.628   3.852
    1PA    H16T16352   1.059   0.616   3.699
    1PA    C11516353   1.186   0.676   3.869
    1PA    H15R16354   1.190   0.772   3.922
    1PA    H15S16355   1.186   0.593   3.939
    1PA    C11416356   1.311   0.675   3.780
    1PA    H14R16357   1.286   0.722   3.685
    1PA    H14S16358   1.384   0.751   3.811
    1PA    C11316359   1.378   0.540   3.753
    1PA    H13R16360   1.403   0.496   3.850
    1PA    H13S16361   1.327   0.462   3.696
    1PA    C11216362   1.509   0.560   3.676
    1PA    H12R16363   1.562   0.650   3.705
    1PA    H12S16364   1.583   0.482   3.697
    1PA    C11116365   1.490   0.557   3.524
    1PA    H11R16366   1.433   0.470   3.491
    1PA    H11S16367   1.437   0.645   3.485
    1PA    C11016368   1.626   0.555   3.453
    1PA    H10R16369   1.684   0.637   3.496
    1PA    H10S16370   1.668   0.461   3.489
    1PA     C1916371   1.623   0.557   3.300
    1PA     H9R16372   1.568   0.470   3.262
    1PA     H9S16373   1.582   0.652   3.266
    1PA     C1816374   1.758   0.559   3.227
    1PA     H8R16375   1.814   0.645   3.264
    1PA     H8S16376   1.808   0.465   3.252
    1PA     C1716377   1.746   0.584   3.077
    1PA     H7R16378   1.677   0.514   3.028
    1PA     H7S16379   1.711   0.683   3.049
    1PA     C1616380   1.878   0.561   3.003
    1PA     H6R16381   1.949   0.634   3.043
    1PA     H6S16382   1.915   0.462   3.031
    1PA     C1516383   1.869   0.548   2.850
    1PA     H5R16384   1.825   0.451   2.823
    1PA     H5S16385   1.814   0.634   2.811
    1PA     C1416386   2.004   0.546   2.778
    1PA     H4R16387   2.056   0.640   2.800
    1PA     H4S16388   2.066   0.460   2.802
    1PA     C1316389   2.001   0.540   2.625
    1PA     H3R16390   1.927   0.461   2.610
    1PA     H3S16391   1.963   0.631   2.578
    1PA     C1216392   2.142   0.510   2.574
    1PA     H2R16393   2.214   0.588   2.602
    1PA     H2S16394   2.183   0.417   2.614
    2PC     C1116395   2.146   0.507   2.423
    2PC     O1216396   2.068   0.560   2.347
    2PC     O1116397   2.249   0.434   2.376
    2PC      C116398   2.261   0.402   2.236
    2PC      HR16399   2.162   0.374   2.199
    2PC      HS16400   2.301   0.484   2.176
    2PC      C216401   2.352   0.279   2.218
    2PC      HX16402   2.450   0.308   2.255
    2PC      C316403   2.366   0.243   2.069
    2PC      HA16404   2.454   0.294   2.029
    2PC      HB16405   2.365   0.135   2.055
    2PC     O3116406   2.259   0.309   1.999
    2PC     P3116407   2.252   0.300   1.839
    2PC     O3216408   2.170   0.166   1.808
    2PC     C3116409   2.238   0.041   1.785
    2PC     H1A16410   2.322   0.052   1.716
    2PC     H1B16411   2.281   0.004   1.878
    2PC     C3216412   2.129  -0.059   1.745
    2PC     H2A16413   2.161  -0.162   1.728
    2PC     H2B16414   2.051  -0.069   1.821
    2PC     N3116415   2.059  -0.040   1.614
    2PC     C3316416   1.966  -0.156   1.601
    2PC     H3A16417   1.947  -0.186   1.497
    2PC     H3B16418   1.988  -0.234   1.674
    2PC     H3C16419   1.871  -0.117   1.639
    2PC     C3416420   1.967   0.079   1.607
    2PC     H4A16421   1.918   0.070   1.510
    2PC     H4B16422   1.886   0.087   1.679
    2PC     H4C16423   2.037   0.163   1.614
    2PC     C3516424   2.153  -0.054   1.499
    2PC     H5A16425   2.103  -0.070   1.403
    2PC     H5B16426   2.206  -0.147   1.522
    2PC     H5C16427   2.209   0.040   1.493
    2PC     O3316428   2.172   0.417   1.794
    2PC     O3416429   2.384   0.299   1.772
    2PC     O2116430   2.301   0.168   2.293
    2PC     C2116431   2.391   0.074   2.327
    2PC     O2216432   2.510   0.087   2.312
    3OL     C1216433   2.336  -0.040   2.409
    3OL     H2R16434   2.293  -0.110   2.337
    3OL     H2S16435   2.247  -0.016   2.467
    3OL     C1316436   2.429  -0.126   2.496
    3OL     H3R16437   2.478  -0.053   2.561
    3OL     H3S16438   2.504  -0.171   2.431
    3OL     C1416439   2.362  -0.238   2.576
    3OL     H4R16440   2.309  -0.299   2.504
    3OL     H4S16441   2.279  -0.196   2.632
    3OL     C1516442   2.453  -0.309   2.678
    3OL     H5R16443   2.494  -0.231   2.743
    3OL     H5S16444   2.536  -0.353   2.623
    3OL     C1616445   2.391  -0.427   2.754
    3OL     H6R16446   2.469  -0.489   2.799
    3OL     H6S16447   2.326  -0.493   2.696
    3OL     C1716448   2.310  -0.367   2.869
    3OL     H7R16449   2.234  -0.297   2.835
    3OL     H7S16450   2.382  -0.317   2.934
    3OL     C1816451   2.232  -0.463   2.960
    3OL     H8R16452   2.163  -0.513   2.893
    3OL     H8S16453   2.176  -0.413   3.040
    3OL     C1916454   2.328  -0.564   3.018
    3OL     H9R16455   2.367  -0.637   2.948
    3OL    C11016456   2.343  -0.578   3.149
    3OL    H10R16457   2.408  -0.658   3.183
    3OL    C11116458   2.281  -0.501   3.263
    3OL    H11R16459   2.254  -0.409   3.211
    3OL    H11S16460   2.351  -0.469   3.341
    3OL    C11216461   2.168  -0.581   3.329
    3OL    H12R16462   2.212  -0.680   3.344
    3OL    H12S16463   2.088  -0.596   3.257
    3OL    C11316464   2.124  -0.509   3.457
    3OL    H13R16465   2.211  -0.468   3.507
    3OL    H13S16466   2.074  -0.579   3.525
    3OL    C11416467   2.029  -0.391   3.431
    3OL    H14R16468   2.083  -0.324   3.364
    3OL    H14S16469   2.019  -0.341   3.527
    3OL    C11516470   1.890  -0.428   3.376
    3OL    H15R16471   1.851  -0.498   3.451
    3OL    H15S16472   1.892  -0.470   3.275
    3OL    C11616473   1.810  -0.298   3.365
    3OL    H16R16474   1.857  -0.235   3.290
    3OL    H16S16475   1.812  -0.243   3.460
    3OL    C11716476   1.665  -0.327   3.327
    3OL    H17R16477   1.597  -0.243   3.339
    3OL    H17S16478   1.625  -0.400   3.399
    3OL    C11816479   1.656  -0.372   3.180
    3OL    H18R16480   1.694  -0.474   3.184
    3OL    H18S16481   1.711  -0.300   3.119
    3OL    H18T16482   1.553  -0.372   3.144
    1PA    C11616483   2.008   0.332   3.623
    1PA    H16R16484   2.106   0.306   3.664
    1PA    H16S16485   1.948   0.254   3.577
    1PA    H16T16486   1.951   0.371   3.708
    1PA    C11516487   2.036   0.438   3.516
    1PA    H15R16488   1.935   0.470   3.490
    1PA    H15S16489   2.089   0.525   3.554
    1PA    C11416490   2.105   0.377   3.393
    1PA    H14R16491   2.200   0.331   3.422
    1PA    H14S16492   2.029   0.310   3.351
    1PA    C11316493   2.135   0.484   3.288
    1PA    H13R16494   2.041   0.534   3.265
    1PA    H13S16495   2.207   0.558   3.325
    1PA    C11216496   2.202   0.415   3.168
    1PA    H12R16497   2.298   0.369   3.193
    1PA    H12S16498   2.132   0.337   3.140
    1PA    C11116499   2.230   0.507   3.048
    1PA    H11R16500   2.266   0.438   2.971
    1PA    H11S16501   2.139   0.554   3.011
    1PA    C11016502   2.345   0.606   3.071
    1PA    H10R16503   2.325   0.676   3.152
    1PA    H10S16504   2.438   0.556   3.099
    1PA     C1916505   2.362   0.683   2.939
    1PA     H9R16506   2.404   0.621   2.859
    1PA     H9S16507   2.267   0.724   2.904
    1PA     C1816508   2.463   0.796   2.963
    1PA     H8R16509   2.428   0.877   3.027
    1PA     H8S16510   2.541   0.745   3.021
    1PA     C1716511   2.514   0.851   2.830
    1PA     H7R16512   2.428   0.837   2.764
    1PA     H7S16513   2.534   0.959   2.836
    1PA     C1616514   2.643   0.780   2.787
    1PA     H6R16515   2.729   0.798   2.853
    1PA     H6S16516   2.634   0.673   2.804
    1PA     C1516517   2.677   0.805   2.639
    1PA     H5R16518   2.592   0.775   2.577
    1PA     H5S16519   2.683   0.913   2.627
    1PA     C1416520   2.809   0.736   2.605
    1PA     H4R16521   2.888   0.773   2.671
    1PA     H4S16522   2.800   0.627   2.617
    1PA     C1316523   2.844   0.776   2.461
    1PA     H3R16524   2.769   0.748   2.387
    1PA     H3S16525   2.868   0.882   2.448
    1PA     C1216526   2.977   0.706   2.428
    1PA     H2R16527   3.049   0.720   2.509
    1PA     H2S16528   2.949   0.600   2.426
    2PC     C1116529   3.026   0.731   2.288
    2PC     O1216530   3.060   0.636   2.220
    2PC     O1116531   3.022   0.860   2.252
    2PC      C116532   3.049   0.902   2.117
    2PC      HR16533   3.083   1.006   2.111
    2PC      HS16534   3.129   0.837   2.079
    2PC      C216535   2.924   0.871   2.033
    2PC      HX16536   2.908   0.763   2.028
    2PC      C316537   2.948   0.911   1.887
    2PC      HA16538   2.924   1.017   1.877
    2PC      HB16539   3.054   0.907   1.859
    2PC     O3116540   2.875   0.835   1.789
    2PC     P3116541   2.893   0.866   1.633
    2PC     O3216542   2.949   0.724   1.586
    2PC     C3116543   3.071   0.715   1.511
    2PC     H1A16544   3.060   0.785   1.427
    2PC     H1B16545   3.155   0.748   1.573
    2PC     C3216546   3.069   0.573   1.453
    2PC     H2A16547   2.967   0.549   1.425
    2PC     H2B16548   3.143   0.571   1.372
    2PC     N3116549   3.097   0.456   1.542
    2PC     C3316550   3.246   0.446   1.561
    2PC     H3A16551   3.294   0.423   1.466
    2PC     H3B16552   3.274   0.546   1.593
    2PC     H3C16553   3.267   0.370   1.637
    2PC     C3416554   3.036   0.460   1.678
    2PC     H4A16555   3.067   0.370   1.733
    2PC     H4B16556   3.066   0.556   1.719
    2PC     H4C16557   2.927   0.458   1.666
    2PC     C3516558   3.060   0.324   1.482
    2PC     H5A16559   3.114   0.328   1.388
    2PC     H5B16560   2.952   0.323   1.463
    2PC     H5C16561   3.075   0.235   1.545
    2PC     O3316562   2.766   0.905   1.568
    2PC     O3416563   2.976   0.986   1.607
    2PC     O2116564   2.810   0.944   2.083
    2PC     C2116565   2.714   0.879   2.152
    2PC     O2216566   2.699   0.759   2.142
    3OL     C1216567   2.623   0.963   2.238
    3OL     H2R16568   2.584   1.037   2.169
    3OL     H2S16569   2.677   1.013   2.319
    3OL     C1316570   2.513   0.880   2.305
    3OL     H3R16571   2.562   0.807   2.370
    3OL     H3S16572   2.447   0.832   2.232
    3OL     C1416573   2.430   0.965   2.404
    3OL     H4R16574   2.393   1.051   2.348
    3OL     H4S16575   2.502   1.008   2.474
    3OL     C1516576   2.310   0.893   2.467
    3OL     H5R16577   2.351   0.809   2.524
    3OL     H5S16578   2.249   0.846   2.390
    3OL     C1616579   2.242   0.992   2.562
    3OL     H6R16580   2.201   1.080   2.513
    3OL     H6S16581   2.320   1.028   2.630
    3OL     C1716582   2.134   0.918   2.644
    3OL     H7R16583   2.171   0.824   2.685
    3OL     H7S16584   2.048   0.886   2.585
    3OL     C1816585   2.093   1.016   2.755
    3OL     H8R16586   2.068   1.111   2.708
    3OL     H8S16587   2.181   1.028   2.820
    3OL     C1916588   1.980   0.948   2.828
    3OL     H9R16589   1.909   0.899   2.764
    3OL    C11016590   1.958   0.950   2.959
    3OL    H10R16591   1.866   0.909   2.997
    3OL    C11116592   2.056   1.017   3.053
    3OL    H11R16593   2.001   1.094   3.107
    3OL    H11S16594   2.141   1.069   3.009
    3OL    C11216595   2.112   0.918   3.157
    3OL    H12R16596   2.196   0.865   3.113
    3OL    H12S16597   2.047   0.834   3.180
    3OL    C11316598   2.166   0.994   3.279
    3OL    H13R16599   2.080   1.025   3.339
    3OL    H13S16600   2.223   1.082   3.247
    3OL    C11416601   2.255   0.906   3.368
    3OL    H14R16602   2.345   0.878   3.314
    3OL    H14S16603   2.215   0.807   3.390
    3OL    C11516604   2.293   0.982   3.496
    3OL    H15R16605   2.201   1.023   3.540
    3OL    H15S16606   2.351   1.066   3.458
    3OL    C11616607   2.364   0.894   3.599
    3OL    H16R16608   2.449   0.841   3.554
    3OL    H16S16609   2.308   0.804   3.625
    3OL    C11716610   2.393   0.965   3.732
    3OL    H17R16611   2.453   1.053   3.709
    3OL    H17S16612   2.454   0.903   3.799
    3OL    C11816613   2.263   1.011   3.801
    3OL    H18R16614   2.183   1.028   3.729
    3OL    H18S16615   2.280   1.096   3.867
    3OL    H18T16616   2.228   0.930   3.867
    1PA    C11616617   1.888   0.568   3.964
    1PA    H16R16618   1.851   0.473   3.926
    1PA    H16S16619   1.800   0.617   4.006
    1PA    H16T16620   1.938   0.533   4.055
    1PA    C11516621   1.965   0.647   3.857
    1PA    H15R16622   2.010   0.735   3.902
    1PA    H15S16623   2.040   0.589   3.803
    1PA    C11416624   1.877   0.701   3.743
    1PA    H14R16625   1.858   0.614   3.679
    1PA    H14S16626   1.784   0.748   3.775
    1PA    C11316627   1.953   0.808   3.664
    1PA    H13R16628   1.965   0.895   3.728
    1PA    H13S16629   2.050   0.766   3.639
    1PA    C11216630   1.876   0.857   3.540
    1PA    H12R16631   1.943   0.921   3.483
    1PA    H12S16632   1.840   0.776   3.476
    1PA    C11116633   1.750   0.939   3.574
    1PA    H11R16634   1.671   0.874   3.613
    1PA    H11S16635   1.774   1.004   3.658
    1PA    C11016636   1.704   1.010   3.447
    1PA    H10R16637   1.648   1.095   3.486
    1PA    H10S16638   1.793   1.051   3.398
    1PA     C1916639   1.619   0.927   3.350
    1PA     H9R16640   1.679   0.858   3.290
    1PA     H9S16641   1.558   0.859   3.409
    1PA     C1816642   1.531   1.010   3.256
    1PA     H8R16643   1.456   0.938   3.225
    1PA     H8S16644   1.489   1.101   3.299
    1PA     C1716645   1.617   1.053   3.136
    1PA     H7R16646   1.707   1.107   3.165
    1PA     H7S16647   1.653   0.966   3.081
    1PA     C1616648   1.534   1.143   3.043
    1PA     H6R16649   1.443   1.084   3.026
    1PA     H6S16650   1.533   1.238   3.097
    1PA     C1516651   1.599   1.168   2.906
    1PA     H5R16652   1.597   1.076   2.846
    1PA     H5S16653   1.541   1.246   2.856
    1PA     C1416654   1.746   1.210   2.907
    1PA     H4R16655   1.749   1.301   2.968
    1PA     H4S16656   1.800   1.129   2.957
    1PA     C1316657   1.819   1.236   2.774
    1PA     H3R16658   1.925   1.262   2.787
    1PA     H3S16659   1.810   1.140   2.722
    1PA     C1216660   1.753   1.337   2.680
    1PA     H2R16661   1.648   1.317   2.660
    1PA     H2S16662   1.755   1.443   2.710
    2PC     C1116663   1.827   1.336   2.549
    2PC     O1216664   1.947   1.335   2.531
    2PC     O1116665   1.735   1.355   2.453
    2PC      C116666   1.768   1.344   2.313
    2PC      HR16667   1.678   1.358   2.252
    2PC      HS16668   1.840   1.420   2.283
    2PC      C216669   1.847   1.216   2.281
    2PC      HX16670   1.943   1.211   2.332
    2PC      C316671   1.870   1.189   2.132
    2PC      HA16672   1.970   1.230   2.116
    2PC      HB16673   1.882   1.083   2.105
    2PC     O3116674   1.768   1.254   2.055
    2PC     P3116675   1.773   1.279   1.897
    2PC     O3216676   1.782   1.128   1.845
    2PC     C3116677   1.738   1.079   1.717
    2PC     H1A16678   1.644   1.128   1.692
    2PC     H1B16679   1.813   1.108   1.643
    2PC     C3216680   1.740   0.925   1.713
    2PC     H2A16681   1.678   0.890   1.796
    2PC     H2B16682   1.689   0.888   1.624
    2PC     N3116683   1.869   0.849   1.715
    2PC     C3316684   1.958   0.880   1.599
    2PC     H3A16685   2.040   0.808   1.591
    2PC     H3B16686   1.910   0.882   1.501
    2PC     H3C16687   2.009   0.974   1.620
    2PC     C3416688   1.937   0.870   1.847
    2PC     H4A16689   2.038   0.827   1.844
    2PC     H4B16690   1.957   0.974   1.870
    2PC     H4C16691   1.876   0.823   1.924
    2PC     C3516692   1.830   0.704   1.705
    2PC     H5A16693   1.921   0.650   1.730
    2PC     H5B16694   1.800   0.693   1.601
    2PC     H5C16695   1.743   0.685   1.769
    2PC     O3316696   1.656   1.355   1.848
    2PC     O3416697   1.900   1.351   1.871
    2PC     O2116698   1.758   1.110   2.320
    2PC     C2116699   1.818   0.996   2.359
    2PC     O2216700   1.934   0.960   2.355
    3OL     C1216701   1.699   0.921   2.413
    3OL     H2R16702   1.641   0.883   2.329
    3OL     H2S16703   1.628   0.993   2.454
    3OL     C1316704   1.744   0.816   2.516
    3OL     H3R16705   1.799   0.859   2.600
    3OL     H3S16706   1.809   0.748   2.460
    3OL     C1416707   1.622   0.743   2.574
    3OL     H4R16708   1.649   0.640   2.599
    3OL     H4S16709   1.549   0.740   2.493
    3OL     C1516710   1.556   0.816   2.691
    3OL     H5R16711   1.552   0.919   2.656
    3OL     H5S16712   1.619   0.816   2.780
    3OL     C1616713   1.416   0.768   2.735
    3OL     H6R16714   1.417   0.662   2.758
    3OL     H6S16715   1.342   0.788   2.657
    3OL     C1716716   1.378   0.834   2.868
    3OL     H7R16717   1.365   0.941   2.849
    3OL     H7S16718   1.458   0.827   2.943
    3OL     C1816719   1.240   0.805   2.928
    3OL     H8R16720   1.176   0.795   2.840
    3OL     H8S16721   1.210   0.883   2.998
    3OL     C1916722   1.255   0.679   3.009
    3OL     H9R16723   1.275   0.597   2.940
    3OL    C11016724   1.250   0.653   3.139
    3OL    H10R16725   1.255   0.551   3.177
    3OL    C11116726   1.224   0.751   3.250
    3OL    H11R16727   1.190   0.846   3.208
    3OL    H11S16728   1.311   0.764   3.315
    3OL    C11216729   1.111   0.698   3.339
    3OL    H12R16730   1.138   0.614   3.403
    3OL    H12S16731   1.029   0.667   3.273
    3OL    C11316732   1.050   0.804   3.432
    3OL    H13R16733   1.036   0.902   3.387
    3OL    H13S16734   1.106   0.824   3.523
    3OL    C11416735   0.902   0.770   3.459
    3OL    H14R16736   0.890   0.672   3.505
    3OL    H14S16737   0.859   0.793   3.361
    3OL    C11516738   0.844   0.867   3.563
    3OL    H15R16739   0.856   0.972   3.536
    3OL    H15S16740   0.895   0.857   3.659
    3OL    C11616741   0.694   0.842   3.584
    3OL    H16R16742   0.656   0.752   3.536
    3OL    H16S16743   0.633   0.919   3.537
    3OL    C11716744   0.662   0.812   3.731
    3OL    H17R16745   0.728   0.736   3.774
    3OL    H17S16746   0.557   0.782   3.732
    3OL    C11816747   0.690   0.931   3.824
    3OL    H18R16748   0.793   0.967   3.823
    3OL    H18S16749   0.662   0.898   3.924
    3OL    H18T16750   0.641   1.021   3.786
    1PA    C11616751   0.420   1.895   3.081
    1PA    H16R16752   0.326   1.951   3.081
    1PA    H16S16753   0.440   1.871   2.977
    1PA    H16T16754   0.501   1.962   3.113
    1PA    C11516755   0.408   1.770   3.168
    1PA    H15R16756   0.387   1.794   3.273
    1PA    H15S16757   0.320   1.712   3.139
    1PA    C11416758   0.528   1.674   3.172
    1PA    H14R16759   0.620   1.713   3.216
    1PA    H14S16760   0.499   1.588   3.232
    1PA    C11316761   0.558   1.612   3.035
    1PA    H13R16762   0.473   1.546   3.017
    1PA    H13S16763   0.558   1.695   2.964
    1PA    C11216764   0.689   1.533   3.023
    1PA    H12R16765   0.769   1.600   3.057
    1PA    H12S16766   0.686   1.435   3.070
    1PA    C11116767   0.720   1.505   2.875
    1PA    H11R16768   0.644   1.441   2.830
    1PA    H11S16769   0.736   1.602   2.827
    1PA    C11016770   0.855   1.436   2.849
    1PA    H10R16771   0.932   1.504   2.887
    1PA    H10S16772   0.867   1.341   2.901
    1PA     C1916773   0.867   1.423   2.696
    1PA     H9R16774   0.793   1.365   2.640
    1PA     H9S16775   0.874   1.523   2.653
    1PA     C1816776   0.994   1.360   2.638
    1PA     H8R16777   0.993   1.362   2.529
    1PA     H8S16778   1.084   1.410   2.675
    1PA     C1716779   1.006   1.212   2.676
    1PA     H7R16780   1.000   1.194   2.784
    1PA     H7S16781   0.918   1.164   2.633
    1PA     C1616782   1.122   1.142   2.603
    1PA     H6R16783   1.115   1.034   2.619
    1PA     H6S16784   1.116   1.161   2.496
    1PA     C1516785   1.262   1.171   2.658
    1PA     H5R16786   1.279   1.279   2.651
    1PA     H5S16787   1.259   1.143   2.764
    1PA     C1416788   1.375   1.101   2.581
    1PA     H4R16789   1.465   1.129   2.636
    1PA     H4S16790   1.365   0.994   2.600
    1PA     C1316791   1.374   1.121   2.429
    1PA     H3R16792   1.466   1.083   2.383
    1PA     H3S16793   1.294   1.066   2.381
    1PA     C1216794   1.380   1.271   2.397
    1PA     H2R16795   1.284   1.312   2.427
    1PA     H2S16796   1.463   1.315   2.452
    2PC     C1116797   1.397   1.304   2.251
    2PC     O1216798   1.369   1.225   2.163
    2PC     O1116799   1.442   1.429   2.233
    2PC      C116800   1.434   1.487   2.101
    2PC      HR16801   1.489   1.580   2.088
    2PC      HS16802   1.489   1.425   2.030
    2PC      C216803   1.290   1.513   2.053
    2PC      HX16804   1.242   1.415   2.060
    2PC      C316805   1.285   1.592   1.922
    2PC      HA16806   1.349   1.681   1.922
    2PC      HB16807   1.321   1.525   1.843
    2PC     O3116808   1.150   1.621   1.882
    2PC     P3116809   1.117   1.681   1.737
    2PC     O3216810   1.027   1.807   1.780
    2PC     C3116811   0.904   1.775   1.847
    2PC     H1A16812   0.844   1.692   1.810
    2PC     H1B16813   0.928   1.743   1.949
    2PC     C3216814   0.824   1.906   1.855
    2PC     H2A16815   0.736   1.890   1.916
    2PC     H2B16816   0.875   1.988   1.906
    2PC     N3116817   0.781   1.974   1.728
    2PC     C3316818   0.680   2.081   1.757
    2PC     H3A16819   0.605   2.088   1.677
    2PC     H3B16820   0.626   2.053   1.847
    2PC     H3C16821   0.730   2.177   1.762
    2PC     C3416822   0.894   2.040   1.654
    2PC     H4A16823   0.947   2.097   1.730
    2PC     H4B16824   0.955   1.966   1.603
    2PC     H4C16825   0.846   2.096   1.574
    2PC     C3516826   0.725   1.865   1.642
    2PC     H5A16827   0.660   1.912   1.568
    2PC     H5B16828   0.659   1.798   1.698
    2PC     H5C16829   0.807   1.810   1.596
    2PC     O3316830   1.229   1.732   1.654
    2PC     O3416831   1.042   1.588   1.650
    2PC     O2116832   1.232   1.608   2.144
    2PC     C2116833   1.116   1.579   2.206
    2PC     O2216834   1.063   1.470   2.199
    3OL     C1216835   1.067   1.700   2.280
    3OL     H2R16836   0.971   1.682   2.330
    3OL     H2S16837   1.048   1.784   2.213
    3OL     C1316838   1.167   1.749   2.386
    3OL     H3R16839   1.128   1.837   2.437
    3OL     H3S16840   1.259   1.772   2.332
    3OL     C1416841   1.207   1.640   2.487
    3OL     H4R16842   1.266   1.568   2.431
    3OL     H4S16843   1.115   1.597   2.528
    3OL     C1516844   1.290   1.689   2.607
    3OL     H5R16845   1.232   1.770   2.652
    3OL     H5S16846   1.383   1.722   2.562
    3OL     C1616847   1.312   1.570   2.702
    3OL     H6R16848   1.328   1.482   2.639
    3OL     H6S16849   1.217   1.549   2.752
    3OL     C1716850   1.429   1.580   2.800
    3OL     H7R16851   1.424   1.685   2.829
    3OL     H7S16852   1.529   1.560   2.760
    3OL     C1816853   1.420   1.497   2.929
    3OL     H8R16854   1.519   1.519   2.971
    3OL     H8S16855   1.400   1.391   2.911
    3OL     C1916856   1.318   1.550   3.026
    3OL     H9R16857   1.230   1.591   2.977
    3OL    C11016858   1.339   1.564   3.156
    3OL    H10R16859   1.262   1.607   3.219
    3OL    C11116860   1.462   1.525   3.233
    3OL    H11R16861   1.525   1.449   3.187
    3OL    H11S16862   1.425   1.477   3.325
    3OL    C11216863   1.538   1.654   3.265
    3OL    H12R16864   1.485   1.726   3.328
    3OL    H12S16865   1.555   1.707   3.171
    3OL    C11316866   1.666   1.618   3.341
    3OL    H13R16867   1.726   1.557   3.272
    3OL    H13S16868   1.640   1.566   3.434
    3OL    C11416869   1.734   1.750   3.379
    3OL    H14R16870   1.666   1.804   3.445
    3OL    H14S16871   1.743   1.800   3.282
    3OL    C11516872   1.861   1.742   3.464
    3OL    H15R16873   1.928   1.677   3.407
    3OL    H15S16874   1.833   1.706   3.563
    3OL    C11616875   1.931   1.877   3.486
    3OL    H16R16876   1.861   1.930   3.551
    3OL    H16S16877   1.950   1.932   3.394
    3OL    C11716878   2.050   1.873   3.584
    3OL    H17R16879   2.114   1.787   3.563
    3OL    H17S16880   2.006   1.848   3.681
    3OL    C11816881   2.125   2.006   3.592
    3OL    H18R16882   2.175   2.016   3.689
    3OL    H18S16883   2.060   2.093   3.588
    3OL    H18T16884   2.193   2.015   3.507
    1PA    C11616885   3.227  -0.005   3.303
    1PA    H16R16886   3.171   0.088   3.288
    1PA    H16S16887   3.289   0.001   3.393
    1PA    H16T16888   3.158  -0.087   3.325
    1PA    C11516889   3.309  -0.050   3.181
    1PA    H15R16890   3.389   0.020   3.157
    1PA    H15S16891   3.365  -0.141   3.204
    1PA    C11416892   3.221  -0.065   3.056
    1PA    H14R16893   3.142  -0.136   3.082
    1PA    H14S16894   3.171   0.027   3.025
    1PA    C11316895   3.310  -0.127   2.948
    1PA    H13R16896   3.403  -0.069   2.944
    1PA    H13S16897   3.324  -0.233   2.971
    1PA    C11216898   3.242  -0.111   2.811
    1PA    H12R16899   3.145  -0.161   2.816
    1PA    H12S16900   3.216  -0.006   2.795
    1PA    C11116901   3.332  -0.159   2.697
    1PA    H11R16902   3.377  -0.256   2.720
    1PA    H11S16903   3.270  -0.183   2.610
    1PA    C11016904   3.450  -0.068   2.658
    1PA    H10R16905   3.411   0.029   2.630
    1PA    H10S16906   3.522  -0.048   2.738
    1PA     C1916907   3.521  -0.116   2.530
    1PA     H9R16908   3.542  -0.222   2.537
    1PA     H9S16909   3.456  -0.108   2.443
    1PA     C1816910   3.648  -0.032   2.507
    1PA     H8R16911   3.683  -0.045   2.404
    1PA     H8S16912   3.627   0.073   2.528
    1PA     C1716913   3.758  -0.084   2.600
    1PA     H7R16914   3.798   0.011   2.635
    1PA     H7S16915   3.724  -0.143   2.686
    1PA     C1616916   3.865  -0.163   2.524
    1PA     H6R16917   3.907  -0.223   2.604
    1PA     H6S16918   3.836  -0.231   2.444
    1PA     C1516919   3.972  -0.070   2.464
    1PA     H5R16920   3.933   0.012   2.403
    1PA     H5S16921   4.012  -0.016   2.550
    1PA     C1416922   4.085  -0.148   2.395
    1PA     H4R16923   4.138  -0.216   2.461
    1PA     H4S16924   4.045  -0.214   2.318
    1PA     C1316925   4.193  -0.062   2.328
    1PA     H3R16926   4.259  -0.120   2.263
    1PA     H3S16927   4.153   0.010   2.257
    1PA     C1216928   4.277   0.004   2.438
    1PA     H2R16929   4.214   0.076   2.492
    1PA     H2S16930   4.317  -0.063   2.514
    2PC     C1116931   4.398   0.078   2.386
    2PC     O1216932   4.429   0.082   2.269
    2PC     O1116933   4.472   0.139   2.480
    2PC      C116934   4.565   0.239   2.433
    2PC      HR16935   4.631   0.261   2.517
    2PC      HS16936   4.628   0.204   2.351
    2PC      C216937   4.493   0.366   2.386
    2PC      HX16938   4.399   0.344   2.335
    2PC      C316939   4.578   0.438   2.281
    2PC      HA16940   4.585   0.384   2.186
    2PC      HB16941   4.532   0.534   2.255
    2PC     O3116942   4.707   0.466   2.340
    2PC     P3116943   4.822   0.532   2.251
    2PC     O3216944   4.821   0.692   2.266
    2PC     C3116945   4.773   0.766   2.152
    2PC     H1A16946   4.825   0.734   2.061
    2PC     H1B16947   4.669   0.737   2.139
    2PC     C3216948   4.778   0.915   2.189
    2PC     H2A16949   4.764   0.970   2.096
    2PC     H2B16950   4.692   0.945   2.248
    2PC     N3116951   4.906   0.971   2.245
    2PC     C3316952   5.028   0.921   2.173
    2PC     H3A16953   5.117   0.956   2.227
    2PC     H3B16954   5.031   0.812   2.180
    2PC     H3C16955   5.033   0.953   2.069
    2PC     C3416956   4.896   1.120   2.239
    2PC     H4A16957   4.963   1.154   2.319
    2PC     H4B16958   4.936   1.151   2.142
    2PC     H4C16959   4.797   1.150   2.272
    2PC     C3516960   4.921   0.944   2.391
    2PC     H5A16961   5.016   0.980   2.431
    2PC     H5B16962   4.908   0.837   2.406
    2PC     H5C16963   4.838   1.002   2.434
    2PC     O3316964   4.963   0.488   2.268
    2PC     O3416965   4.813   0.487   2.110
    2PC     O2116966   4.458   0.450   2.498
    2PC     C2116967   4.364   0.401   2.581
    2PC     O2216968   4.299   0.299   2.569
    3OL     C1216969   4.367   0.476   2.712
    3OL     H2R16970   4.321   0.574   2.695
    3OL     H2S16971   4.473   0.478   2.735
    3OL     C1316972   4.292   0.405   2.825
    3OL     H3R16973   4.353   0.318   2.851
    3OL     H3S16974   4.189   0.378   2.800
    3OL     C1416975   4.265   0.497   2.945
    3OL     H4R16976   4.200   0.579   2.913
    3OL     H4S16977   4.353   0.556   2.972
    3OL     C1516978   4.206   0.417   3.061
    3OL     H5R16979   4.127   0.350   3.025
    3OL     H5S16980   4.147   0.489   3.118
    3OL     C1616981   4.304   0.338   3.148
    3OL     H6R16982   4.368   0.287   3.076
    3OL     H6S16983   4.257   0.266   3.215
    3OL     C1716984   4.392   0.424   3.241
    3OL     H7R16985   4.328   0.495   3.295
    3OL     H7S16986   4.469   0.481   3.189
    3OL     C1816987   4.468   0.343   3.347
    3OL     H8R16988   4.533   0.278   3.289
    3OL     H8S16989   4.403   0.274   3.400
    3OL     C1916990   4.561   0.426   3.432
    3OL     H9R16991   4.635   0.486   3.380
    3OL    C11016992   4.557   0.432   3.564
    3OL    H10R16993   4.631   0.491   3.618
    3OL    C11116994   4.450   0.361   3.644
    3OL    H11R16995   4.452   0.256   3.614
    3OL    H11S16996   4.348   0.394   3.622
    3OL    C11216997   4.450   0.381   3.796
    3OL    H12R16998   4.399   0.290   3.830
    3OL    H12S16999   4.390   0.466   3.829
    3OL    C11317000   4.592   0.391   3.853
    3OL    H13R17001   4.574   0.413   3.958
    3OL    H13S17002   4.645   0.476   3.810
    3OL    C11417003   4.670   0.259   3.842
    3OL    H14R17004   4.771   0.290   3.869
    3OL    H14S17005   4.675   0.222   3.740
    3OL    C11517006   4.624   0.148   3.937
    3OL    H15R17007   4.516   0.135   3.922
    3OL    H15S17008   4.654   0.164   4.041
    3OL    C11617009   4.690   0.014   3.901
    3OL    H16R17010   4.693  -0.060   3.981
    3OL    H16S17011   4.794   0.020   3.868
    3OL    C11717012   4.609  -0.052   3.789
    3OL    H17R17013   4.619   0.002   3.694
    3OL    H17S17014   4.505  -0.076   3.810
    3OL    C11817015   4.675  -0.189   3.768
    3OL    H18R17016   4.768  -0.189   3.711
    3OL    H18S17017   4.600  -0.240   3.708
    3OL    H18T17018   4.696  -0.249   3.857
    1PA    C11617019   2.147   1.942   4.093
    1PA    H16R17020   2.238   1.997   4.117
    1PA    H16S17021   2.071   1.957   4.169
    1PA    H16T17022   2.106   1.982   4.000
    1PA    C11517023   2.183   1.793   4.080
    1PA    H15R17024   2.244   1.774   4.168
    1PA    H15S17025   2.098   1.725   4.075
    1PA    C11417026   2.263   1.755   3.954
    1PA    H14R17027   2.208   1.786   3.865
    1PA    H14S17028   2.354   1.815   3.962
    1PA    C11317029   2.287   1.603   3.957
    1PA    H13R17030   2.342   1.579   4.048
    1PA    H13S17031   2.201   1.538   3.963
    1PA    C11217032   2.375   1.577   3.834
    1PA    H12R17033   2.313   1.598   3.747
    1PA    H12S17034   2.467   1.637   3.826
    1PA    C11117035   2.423   1.432   3.851
    1PA    H11R17036   2.483   1.422   3.942
    1PA    H11S17037   2.333   1.373   3.867
    1PA    C11017038   2.514   1.384   3.737
    1PA    H10R17039   2.599   1.452   3.733
    1PA    H10S17040   2.542   1.283   3.768
    1PA     C1917041   2.439   1.375   3.603
    1PA     H9R17042   2.368   1.295   3.626
    1PA     H9S17043   2.387   1.466   3.574
    1PA     C1817044   2.532   1.331   3.489
    1PA     H8R17045   2.623   1.391   3.485
    1PA     H8S17046   2.560   1.225   3.494
    1PA     C1717047   2.461   1.356   3.356
    1PA     H7R17048   2.374   1.291   3.348
    1PA     H7S17049   2.433   1.462   3.354
    1PA     C1617050   2.561   1.338   3.241
    1PA     H6R17051   2.644   1.408   3.237
    1PA     H6S17052   2.598   1.235   3.242
    1PA     C1517053   2.472   1.342   3.115
    1PA     H5R17054   2.400   1.260   3.119
    1PA     H5S17055   2.422   1.440   3.113
    1PA     C1417056   2.563   1.317   2.994
    1PA     H4R17057   2.644   1.390   3.001
    1PA     H4S17058   2.607   1.218   3.004
    1PA     C1317059   2.500   1.333   2.855
    1PA     H3R17060   2.413   1.266   2.852
    1PA     H3S17061   2.466   1.435   2.834
    1PA     C1217062   2.597   1.300   2.741
    1PA     H2R17063   2.674   1.376   2.733
    1PA     H2S17064   2.662   1.214   2.760
    2PC     C1117065   2.524   1.281   2.610
    2PC     O1217066   2.405   1.298   2.596
    2PC     O1117067   2.607   1.276   2.504
    2PC      C117068   2.562   1.301   2.370
    2PC      HR17069   2.634   1.273   2.294
    2PC      HS17070   2.467   1.249   2.354
    2PC      C217071   2.522   1.448   2.353
    2PC      HX17072   2.456   1.476   2.436
    2PC      C317073   2.448   1.472   2.221
    2PC      HA17074   2.340   1.479   2.237
    2PC      HB17075   2.469   1.572   2.184
    2PC     O3117076   2.484   1.368   2.128
    2PC     P3117077   2.423   1.350   1.981
    2PC     O3217078   2.496   1.210   1.952
    2PC     C3117079   2.577   1.188   1.835
    2PC     H1A17080   2.529   1.233   1.748
    2PC     H1B17081   2.671   1.240   1.856
    2PC     C3217082   2.597   1.037   1.818
    2PC     H2A17083   2.666   1.027   1.734
    2PC     H2B17084   2.637   0.997   1.912
    2PC     N3117085   2.482   0.949   1.781
    2PC     C3317086   2.414   0.989   1.653
    2PC     H3A17087   2.327   0.925   1.637
    2PC     H3B17088   2.387   1.094   1.666
    2PC     H3C17089   2.472   0.975   1.562
    2PC     C3417090   2.530   0.807   1.768
    2PC     H4A17091   2.614   0.801   1.699
    2PC     H4B17092   2.565   0.772   1.865
    2PC     H4C17093   2.445   0.742   1.746
    2PC     C3517094   2.390   0.946   1.899
    2PC     H5A17095   2.329   1.036   1.903
    2PC     H5B17096   2.455   0.937   1.987
    2PC     H5C17097   2.329   0.857   1.884
    2PC     O3317098   2.276   1.336   1.983
    2PC     O3417099   2.455   1.470   1.901
    2PC     O2117100   2.649   1.515   2.349
    2PC     C2117101   2.653   1.648   2.337
    2PC     O2217102   2.551   1.714   2.335
    3OL     C1217103   2.796   1.694   2.339
    3OL     H2R17104   2.828   1.736   2.243
    3OL     H2S17105   2.861   1.607   2.355
    3OL     C1317106   2.815   1.793   2.454
    3OL     H3R17107   2.740   1.872   2.447
    3OL     H3S17108   2.918   1.824   2.437
    3OL     C1417109   2.801   1.726   2.592
    3OL     H4R17110   2.844   1.626   2.590
    3OL     H4S17111   2.696   1.717   2.622
    3OL     C1517112   2.877   1.803   2.701
    3OL     H5R17113   2.832   1.902   2.714
    3OL     H5S17114   2.971   1.832   2.654
    3OL     C1617115   2.889   1.727   2.834
    3OL     H6R17116   2.977   1.761   2.889
    3OL     H6S17117   2.903   1.620   2.821
    3OL     C1717118   2.758   1.743   2.913
    3OL     H7R17119   2.671   1.705   2.859
    3OL     H7S17120   2.754   1.852   2.916
    3OL     C1817121   2.758   1.675   3.050
    3OL     H8R17122   2.846   1.703   3.107
    3OL     H8S17123   2.767   1.566   3.038
    3OL     C1917124   2.631   1.701   3.127
    3OL     H9R17125   2.548   1.719   3.058
    3OL    C11017126   2.609   1.706   3.257
    3OL    H10R17127   2.513   1.736   3.299
    3OL    C11117128   2.714   1.677   3.362
    3OL    H11R17129   2.805   1.638   3.317
    3OL    H11S17130   2.695   1.597   3.433
    3OL    C11217131   2.735   1.804   3.445
    3OL    H12R17132   2.771   1.887   3.383
    3OL    H12S17133   2.810   1.772   3.518
    3OL    C11317134   2.606   1.840   3.520
    3OL    H13R17135   2.575   1.752   3.577
    3OL    H13S17136   2.528   1.867   3.449
    3OL    C11417137   2.638   1.963   3.607
    3OL    H14R17138   2.648   2.038   3.528
    3OL    H14S17139   2.728   1.957   3.668
    3OL    C11517140   2.514   2.004   3.687
    3OL    H15R17141   2.485   1.922   3.754
    3OL    H15S17142   2.430   2.024   3.620
    3OL    C11617143   2.534   2.140   3.756
    3OL    H16R17144   2.518   2.216   3.680
    3OL    H16S17145   2.632   2.146   3.804
    3OL    C11717146   2.432   2.157   3.870
    3OL    H17R17147   2.443   2.074   3.940
    3OL    H17S17148   2.332   2.154   3.827
    3OL    C11817149   2.444   2.291   3.943
    3OL    H18R17150   2.414   2.377   3.882
    3OL    H18S17151   2.546   2.307   3.979
    3OL    H18T17152   2.375   2.285   4.027
    4SOL     OW17153   0.917   5.103   7.337
    4SOL    HW117154   0.890   5.019   7.299
    4SOL    HW217155   0.932   5.083   7.430
    5SOL     OW17156   5.323   1.234   6.331
    5SOL    HW117157   5.385   1.218   6.260
    5SOL    HW217158   5.374   1.276   6.400
    6SOL     OW17159   0.083   0.900   0.879
    6SOL    HW117160   0.178   0.910   0.883
    6SOL    HW217161   0.055   0.895   0.970
    7SOL     OW17162   6.350   5.627   2.095
    7SOL    HW117163   6.308   5.543   2.078
    7SOL    HW217164   6.322   5.651   2.183
    8SOL     OW17165   5.768   1.940   0.290
    8SOL    HW117166   5.838   1.968   0.231
    8SOL    HW217167   5.787   1.983   0.373
    9SOL     OW17168   0.644   3.740   0.714
    9SOL    HW117169   0.623   3.723   0.806
    9SOL    HW217170   0.723   3.794   0.718
   10SOL     OW17171   1.892   0.850   7.163
   10SOL    HW117172   1.975   0.820   7.200
   10SOL    HW217173   1.916   0.886   7.077
   11SOL     OW17174   0.350   1.271   6.489
   11SOL    HW117175   0.402   1.198   6.522
   11SOL    HW217176   0.360   1.267   6.394
   12SOL     OW17177   5.213   3.575   7.530
   12SOL    HW117178   5.280   3.596   7.595
   12SOL    HW217179   5.158   3.509   7.573
   13SOL     OW17180   1.628   4.638   0.990
   13SOL    HW117181   1.581   4.649   1.072
   13SOL    HW217182   1.718   4.618   1.016
   14SOL     OW17183   6.315   2.549   7.188
   14SOL    HW117184   6.380   2.543   7.118
   14SOL    HW217185   6.327   2.636   7.225
   15SOL     OW17186   0.482   0.340   0.007
   15SOL    HW117187   0.543   0.351   0.080
   15SOL    HW217188   0.396   0.334   0.048
   16SOL     OW17189   0.219   0.326   0.097
   16SOL    HW117190   0.195   0.409   0.138
   16SOL    HW217191   0.168   0.260   0.143
   17SOL     OW17192   2.345   1.739   1.006
   17SOL    HW117193   2.260   1.741   1.050
   17SOL    HW217194   2.332   1.681   0.931
   18SOL     OW17195   4.616   2.306   5.639
   18SOL    HW117196   4.706   2.330   5.614
   18SOL    HW217197   4.562   2.374   5.600
   19SOL     OW17198   4.299   4.825   6.717
   19SOL    HW117199   4.382   4.861   6.687
   19SOL    HW217200   4.277   4.758   6.653
   20SOL     OW17201   1.250   5.007   0.389
   20SOL    HW117202   1.336   5.051   0.388
   20SOL    HW217203   1.244   4.964   0.304
   21SOL     OW17204   2.773   4.928   1.229
   21SOL    HW117205   2.796   4.843   1.267
   21SOL    HW217206   2.710   4.907   1.160
   22SOL     OW17207   2.245   3.307   6.178
   22SOL    HW117208   2.279   3.380   6.228
   22SOL    HW217209   2.181   3.265   6.236
   23SOL     OW17210   2.562   1.013   5.313
   23SOL    HW117211   2.559   1.093   5.261
   23SOL    HW217212   2.479   0.969   5.296
   24SOL     OW17213   0.235   2.820   0.119
   24SOL    HW117214   0.187   2.848   0.197
   24SOL    HW217215   0.167   2.809   0.053
   25SOL     OW17216   5.537   0.560   7.310
   25SOL    HW117217   5.519   0.539   7.218
   25SOL    HW217218   5.512   0.652   7.318
   26SOL     OW17219   0.833   2.359   0.173
   26SOL    HW117220   0.872   2.273   0.159
   26SOL    HW217221   0.778   2.374   0.096
   27SOL     OW17222   1.570   2.815   7.562
   27SOL    HW117223   1.479   2.810   7.532
   27SOL    HW217224   1.568   2.875   7.636
   28SOL     OW17225   3.425   0.871   0.149
   28SOL    HW117226   3.340   0.839   0.120
   28SOL    HW217227   3.406   0.957   0.187
   29SOL     OW17228   5.770   5.617   6.701
   29SOL    HW117229   5.708   5.612   6.774
   29SOL    HW217230   5.734   5.684   6.643
   30SOL     OW17231   0.837   6.052   7.209
   30SOL    HW117232   0.839   6.135   7.162
   30SOL    HW217233   0.877   6.070   7.294
   31SOL     OW17234   0.497   4.838   6.541
   31SOL    HW117235   0.423   4.888   6.508
   31SOL    HW217236   0.485   4.838   6.636
   32SOL     OW17237   6.339   6.289   7.116
   32SOL    HW117238   6.327   6.296   7.022
   32SOL    HW217239   6.336   6.195   7.134
   33SOL     OW17240   1.500   1.298   6.731
   33SOL    HW117241   1.466   1.333   6.813
   33SOL    HW217242   1.578   1.248   6.757
   34SOL     OW17243   3.515   1.672   7.390
   34SOL    HW117244   3.519   1.735   7.318
   34SOL    HW217245   3.449   1.707   7.449
   35SOL     OW17246   5.620   2.276   6.767
   35SOL    HW117247   5.667   2.305   6.845
   35SOL    HW217248   5.689   2.257   6.704
   36SOL     OW17249   4.500   4.831   0.635
   36SOL    HW117250   4.561   4.792   0.573
   36SOL    HW217251   4.498   4.770   0.709
   37SOL     OW17252   2.601   5.998   7.161
   37SOL    HW117253   2.678   6.054   7.171
   37SOL    HW217254   2.527   6.060   7.157
   38SOL     OW17255   2.773   1.300   7.732
   38SOL    HW117256   2.790   1.218   7.778
   38SOL    HW217257   2.686   1.326   7.762
   39SOL     OW17258   3.313   1.732   7.565
   39SOL    HW117259   3.286   1.784   7.640
   39SOL    HW217260   3.335   1.646   7.602
   40SOL     OW17261   0.689   0.415   6.594
   40SOL    HW117262   0.693   0.492   6.537
   40SOL    HW217263   0.716   0.447   6.680
   41SOL     OW17264   1.007   2.800   6.206
   41SOL    HW117265   0.937   2.736   6.191
   41SOL    HW217266   0.969   2.883   6.179
   42SOL     OW17267   0.469   0.590   0.520
   42SOL    HW117268   0.465   0.588   0.425
   42SOL    HW217269   0.518   0.669   0.540
   43SOL     OW17270   4.951   2.507   0.301
   43SOL    HW117271   4.956   2.600   0.325
   43SOL    HW217272   5.027   2.492   0.246
   44SOL     OW17273   4.397   0.973   7.630
   44SOL    HW117274   4.487   1.006   7.639
   44SOL    HW217275   4.406   0.878   7.638
   45SOL     OW17276   5.960   1.624   6.516
   45SOL    HW117277   5.924   1.568   6.447
   45SOL    HW217278   5.966   1.711   6.476
   46SOL     OW17279   6.131   5.934   7.801
   46SOL    HW117280   6.190   5.862   7.781
   46SOL    HW217281   6.051   5.915   7.751
   47SOL     OW17282   0.562   3.733   1.571
   47SOL    HW117283   0.499   3.702   1.636
   47SOL    HW217284   0.562   3.664   1.504
   48SOL     OW17285   3.791   0.284   7.606
   48SOL    HW117286   3.873   0.316   7.568
   48SOL    HW217287   3.765   0.211   7.551
   49SOL     OW17288   3.259   0.112   5.951
   49SOL    HW117289   3.304   0.049   5.895
   49SOL    HW217290   3.248   0.067   6.035
   50SOL     OW17291   3.697   0.353   7.282
   50SOL    HW117292   3.735   0.439   7.299
   50SOL    HW217293   3.670   0.356   7.191
   51SOL     OW17294   2.262   1.743   7.120
   51SOL    HW117295   2.277   1.769   7.211
   51SOL    HW217296   2.314   1.663   7.109
   52SOL     OW17297   0.089   3.988   5.838
   52SOL    HW117298   0.184   3.998   5.833
   52SOL    HW217299   0.058   4.007   5.749
   53SOL     OW17300   2.670   1.800   1.983
   53SOL    HW117301   2.625   1.859   2.044
   53SOL    HW217302   2.626   1.814   1.899
   54SOL     OW17303   1.282   2.611   7.717
   54SOL    HW117304   1.292   2.620   7.811
   54SOL    HW217305   1.241   2.525   7.705
   55SOL     OW17306   4.778   4.206   7.452
   55SOL    HW117307   4.760   4.157   7.532
   55SOL    HW217308   4.826   4.284   7.481
   56SOL     OW17309   1.684   2.480   6.095
   56SOL    HW117310   1.700   2.539   6.021
   56SOL    HW217311   1.648   2.401   6.056
   57SOL     OW17312   4.436   4.598   5.850
   57SOL    HW117313   4.450   4.689   5.874
   57SOL    HW217314   4.442   4.597   5.754
   58SOL     OW17315   4.012   1.346   0.960
   58SOL    HW117316   4.024   1.302   1.044
   58SOL    HW217317   3.990   1.275   0.899
   59SOL     OW17318   3.702   5.326   0.833
   59SOL    HW117319   3.660   5.314   0.747
   59SOL    HW217320   3.637   5.372   0.885
   60SOL     OW17321   4.462   1.521   0.957
   60SOL    HW117322   4.524   1.536   0.886
   60SOL    HW217323   4.376   1.531   0.916
   61SOL     OW17324   4.951   5.817   7.219
   61SOL    HW117325   5.014   5.776   7.278
   61SOL    HW217326   4.974   5.910   7.219
   62SOL     OW17327   5.234   6.275   7.198
   62SOL    HW117328   5.180   6.338   7.246
   62SOL    HW217329   5.322   6.313   7.199
   63SOL     OW17330   3.464   5.538   0.631
   63SOL    HW117331   3.514   5.484   0.570
   63SOL    HW217332   3.385   5.563   0.582
   64SOL     OW17333   1.525   2.489   0.393
   64SOL    HW117334   1.489   2.566   0.437
   64SOL    HW217335   1.475   2.482   0.312
   65SOL     OW17336   3.594   4.725   0.995
   65SOL    HW117337   3.681   4.696   1.020
   65SOL    HW217338   3.592   4.818   1.018
   66SOL     OW17339   3.282   1.221   5.603
   66SOL    HW117340   3.199   1.187   5.635
   66SOL    HW217341   3.340   1.145   5.598
   67SOL     OW17342   0.160   3.229   7.044
   67SOL    HW117343   0.169   3.171   6.968
   67SOL    HW217344   0.084   3.284   7.024
   68SOL     OW17345   0.314   0.399   0.642
   68SOL    HW117346   0.237   0.385   0.586
   68SOL    HW217347   0.349   0.484   0.614
   69SOL     OW17348   3.996   4.522   0.462
   69SOL    HW117349   4.076   4.476   0.439
   69SOL    HW217350   3.938   4.454   0.498
   70SOL     OW17351   3.557   5.560   6.965
   70SOL    HW117352   3.634   5.560   6.909
   70SOL    HW217353   3.592   5.543   7.053
   71SOL     OW17354   0.290   1.253   1.080
   71SOL    HW117355   0.287   1.166   1.039
   71SOL    HW217356   0.201   1.269   1.110
   72SOL     OW17357   3.025   6.114   6.796
   72SOL    HW117358   2.937   6.090   6.769
   72SOL    HW217359   3.015   6.202   6.833
   73SOL     OW17360   1.245   0.026   5.935
   73SOL    HW117361   1.261  -0.020   5.852
   73SOL    HW217362   1.164  -0.014   5.968
   74SOL     OW17363   1.273   3.072   7.695
   74SOL    HW117364   1.350   3.046   7.745
   74SOL    HW217365   1.308   3.131   7.625
   75SOL     OW17366   0.989   2.880   1.051
   75SOL    HW117367   0.923   2.883   0.981
   75SOL    HW217368   1.065   2.839   1.010
   76SOL     OW17369   0.719   4.875   6.239
   76SOL    HW117370   0.710   4.911   6.327
   76SOL    HW217371   0.655   4.925   6.187
   77SOL     OW17372   3.289   1.417   5.961
   77SOL    HW117373   3.289   1.485   5.893
   77SOL    HW217374   3.262   1.463   6.040
   78SOL     OW17375   5.379   6.414   7.454
   78SOL    HW117376   5.287   6.436   7.450
   78SOL    HW217377   5.421   6.490   7.496
   79SOL     OW17378   5.543   4.710   7.344
   79SOL    HW117379   5.490   4.745   7.414
   79SOL    HW217380   5.495   4.731   7.264
   80SOL     OW17381   1.674   1.016   0.459
   80SOL    HW117382   1.687   0.926   0.429
   80SOL    HW217383   1.669   1.067   0.378
   81SOL     OW17384   3.297   4.144   6.008
   81SOL    HW117385   3.336   4.162   5.923
   81SOL    HW217386   3.362   4.175   6.071
   82SOL     OW17387   4.566   3.161   6.713
   82SOL    HW117388   4.638   3.103   6.692
   82SOL    HW217389   4.578   3.236   6.655
   83SOL     OW17390   2.817   3.118   0.924
   83SOL    HW117391   2.763   3.118   0.845
   83SOL    HW217392   2.899   3.076   0.897
   84SOL     OW17393   0.046   5.769   5.603
   84SOL    HW117394  -0.016   5.842   5.594
   84SOL    HW217395   0.025   5.731   5.689
   85SOL     OW17396   5.153   2.703   1.773
   85SOL    HW117397   5.226   2.702   1.835
   85SOL    HW217398   5.161   2.787   1.729
   86SOL     OW17399   1.935   3.858   7.247
   86SOL    HW117400   2.022   3.835   7.214
   86SOL    HW217401   1.953   3.920   7.319
   87SOL     OW17402   1.941   3.367   2.294
   87SOL    HW117403   1.877   3.299   2.274
   87SOL    HW217404   1.933   3.380   2.389
   88SOL     OW17405   4.118   5.908   2.158
   88SOL    HW117406   4.032   5.887   2.192
   88SOL    HW217407   4.161   5.823   2.148
   89SOL     OW17408   4.435   2.428   6.755
   89SOL    HW117409   4.414   2.520   6.737
   89SOL    HW217410   4.465   2.428   6.846
   90SOL     OW17411   0.163   4.508   1.308
   90SOL    HW117412   0.259   4.498   1.314
   90SOL    HW217413   0.139   4.459   1.230
   91SOL     OW17414   4.659   1.073   7.630
   91SOL    HW117415   4.732   1.135   7.639
   91SOL    HW217416   4.701   0.987   7.633
   92SOL     OW17417   2.864   2.652   5.910
   92SOL    HW117418   2.841   2.726   5.966
   92SOL    HW217419   2.792   2.647   5.846
   93SOL     OW17420   3.132   4.192   1.321
   93SOL    HW117421   3.161   4.140   1.246
   93SOL    HW217422   3.160   4.281   1.299
   94SOL     OW17423   0.961   4.380   0.995
   94SOL    HW117424   0.871   4.397   0.967
   94SOL    HW217425   0.952   4.317   1.067
   95SOL     OW17426   4.915   1.350   7.489
   95SOL    HW117427   4.906   1.295   7.567
   95SOL    HW217428   4.826   1.360   7.456
   96SOL     OW17429   2.156   4.918   2.496
   96SOL    HW117430   2.162   5.011   2.515
   96SOL    HW217431   2.091   4.885   2.559
   97SOL     OW17432   2.245   0.713   2.050
   97SOL    HW117433   2.333   0.693   2.080
   97SOL    HW217434   2.209   0.771   2.118
   98SOL     OW17435   3.292   5.319   7.712
   98SOL    HW117436   3.212   5.285   7.754
   98SOL    HW217437   3.307   5.259   7.637
   99SOL     OW17438   0.699   1.869   6.625
   99SOL    HW117439   0.651   1.794   6.660
   99SOL    HW217440   0.677   1.870   6.532
  100SOL     OW17441   5.361   1.604   6.604
  100SOL    HW117442   5.301   1.675   6.580
  100SOL    HW217443   5.338   1.583   6.694
  101SOL     OW17444   1.071   5.173   6.560
  101SOL    HW117445   0.994   5.117   6.563
  101SOL    HW217446   1.139   5.122   6.606
  102SOL     OW17447   5.183   0.266   6.626
  102SOL    HW117448   5.159   0.353   6.594
  102SOL    HW217449   5.269   0.279   6.666
  103SOL     OW17450   2.690   1.141   0.898
  103SOL    HW117451   2.749   1.179   0.832
  103SOL    HW217452   2.743   1.136   0.977
  104SOL     OW17453   3.594   0.354   5.829
  104SOL    HW117454   3.653   0.379   5.758
  104SOL    HW217455   3.511   0.333   5.786
  105SOL     OW17456   3.606   3.096   6.373
  105SOL    HW117457   3.587   3.081   6.465
  105SOL    HW217458   3.666   3.170   6.372
  106SOL     OW17459   5.041   4.065   6.523
  106SOL    HW117460   4.948   4.086   6.528
  106SOL    HW217461   5.043   3.975   6.492
  107SOL     OW17462   3.473   2.575   7.245
  107SOL    HW117463   3.397   2.569   7.187
  107SOL    HW217464   3.549   2.560   7.187
  108SOL     OW17465   5.875   5.389   0.035
  108SOL    HW117466   5.781   5.375   0.046
  108SOL    HW217467   5.916   5.310   0.071
  109SOL     OW17468   2.215   1.172   2.192
  109SOL    HW117469   2.205   1.228   2.270
  109SOL    HW217470   2.238   1.232   2.122
  110SOL     OW17471   3.073   0.280   0.540
  110SOL    HW117472   3.100   0.208   0.594
  110SOL    HW217473   3.137   0.349   0.559
  111SOL     OW17474   1.022   4.356   0.229
  111SOL    HW117475   1.078   4.330   0.303
  111SOL    HW217476   1.041   4.449   0.216
  112SOL     OW17477   0.348   3.389   7.552
  112SOL    HW117478   0.328   3.304   7.511
  112SOL    HW217479   0.438   3.380   7.582
  113SOL     OW17480   2.859   1.697   6.603
  113SOL    HW117481   2.950   1.720   6.624
  113SOL    HW217482   2.863   1.604   6.583
  114SOL     OW17483   2.506   6.093   6.141
  114SOL    HW117484   2.441   6.153   6.179
  114SOL    HW217485   2.589   6.119   6.182
  115SOL     OW17486   4.827   2.470   7.467
  115SOL    HW117487   4.899   2.436   7.414
  115SOL    HW217488   4.761   2.497   7.404
  116SOL     OW17489   2.274   1.420   1.644
  116SOL    HW117490   2.228   1.406   1.726
  116SOL    HW217491   2.363   1.443   1.670
  117SOL     OW17492   2.396   5.561   5.672
  117SOL    HW117493   2.319   5.514   5.640
  117SOL    HW217494   2.443   5.589   5.593
  118SOL     OW17495   0.474   3.204   1.456
  118SOL    HW117496   0.383   3.193   1.482
  118SOL    HW217497   0.520   3.132   1.499
  119SOL     OW17498   2.142   2.274   2.214
  119SOL    HW117499   2.142   2.359   2.258
  119SOL    HW217500   2.071   2.280   2.150
  120SOL     OW17501   0.645   0.828   0.231
  120SOL    HW117502   0.551   0.826   0.213
  120SOL    HW217503   0.685   0.814   0.145
  121SOL     OW17504   3.608   5.279   0.573
  121SOL    HW117505   3.670   5.279   0.500
  121SOL    HW217506   3.539   5.219   0.546
  122SOL     OW17507   4.748   5.365   0.774
  122SOL    HW117508   4.670   5.378   0.721
  122SOL    HW217509   4.801   5.443   0.758
  123SOL     OW17510   0.337   2.710   6.027
  123SOL    HW117511   0.407   2.645   6.026
  123SOL    HW217512   0.313   2.718   6.119
  124SOL     OW17513   4.195   5.342   6.127
  124SOL    HW117514   4.191   5.398   6.205
  124SOL    HW217515   4.282   5.301   6.131
  125SOL     OW17516   3.784   4.144   1.248
  125SOL    HW117517   3.709   4.132   1.306
  125SOL    HW217518   3.857   4.163   1.307
  126SOL     OW17519   4.490   2.698   6.738
  126SOL    HW117520   4.463   2.725   6.826
  126SOL    HW217521   4.496   2.780   6.689
  127SOL     OW17522   2.056   1.672   5.478
  127SOL    HW117523   2.006   1.728   5.539
  127SOL    HW217524   2.146   1.705   5.484
  128SOL     OW17525   3.659   3.870   0.017
  128SOL    HW117526   3.635   3.866  -0.075
  128SOL    HW217527   3.659   3.963   0.038
  129SOL     OW17528   5.491   0.637   5.733
  129SOL    HW117529   5.463   0.619   5.822
  129SOL    HW217530   5.583   0.661   5.740
  130SOL     OW17531   2.954   5.961   0.015
  130SOL    HW117532   3.005   5.880   0.027
  130SOL    HW217533   3.020   6.030   0.013
  131SOL     OW17534   0.823   4.186   5.921
  131SOL    HW117535   0.740   4.149   5.889
  131SOL    HW217536   0.836   4.145   6.006
  132SOL     OW17537   1.545   3.958   7.520
  132SOL    HW117538   1.578   3.874   7.488
  132SOL    HW217539   1.449   3.948   7.519
  133SOL     OW17540   4.273   6.305   6.745
  133SOL    HW117541   4.354   6.323   6.697
  133SOL    HW217542   4.279   6.213   6.768
  134SOL     OW17543   2.228   3.013   7.400
  134SOL    HW117544   2.155   3.068   7.371
  134SOL    HW217545   2.194   2.969   7.478
  135SOL     OW17546   1.215   3.929   6.085
  135SOL    HW117547   1.287   3.933   6.021
  135SOL    HW217548   1.244   3.984   6.157
  136SOL     OW17549   2.305   4.817   2.293
  136SOL    HW117550   2.240   4.751   2.267
  136SOL    HW217551   2.263   4.865   2.364
  137SOL     OW17552   4.114   4.536   1.062
  137SOL    HW117553   4.162   4.606   1.018
  137SOL    HW217554   4.071   4.488   0.991
  138SOL     OW17555   1.746   0.070   6.178
  138SOL    HW117556   1.665   0.027   6.206
  138SOL    HW217557   1.719   0.158   6.153
  139SOL     OW17558   3.385   5.284   6.938
  139SOL    HW117559   3.415   5.374   6.927
  139SOL    HW217560   3.293   5.286   6.910
  140SOL     OW17561   1.884   1.668   7.120
  140SOL    HW117562   1.802   1.617   7.126
  140SOL    HW217563   1.911   1.659   7.029
  141SOL     OW17564   0.596   6.199   1.572
  141SOL    HW117565   0.589   6.278   1.517
  141SOL    HW217566   0.618   6.129   1.511
  142SOL     OW17567   3.292   1.556   7.173
  142SOL    HW117568   3.262   1.549   7.264
  142SOL    HW217569   3.322   1.647   7.165
  143SOL     OW17570   0.115   0.598   1.113
  143SOL    HW117571   0.145   0.604   1.204
  143SOL    HW217572   0.098   0.504   1.100
  144SOL     OW17573   6.301   4.408   7.359
  144SOL    HW117574   6.235   4.397   7.427
  144SOL    HW217575   6.274   4.348   7.289
  145SOL     OW17576   3.099   0.601   6.590
  145SOL    HW117577   3.058   0.515   6.581
  145SOL    HW217578   3.037   0.661   6.548
  146SOL     OW17579   5.968   3.512   1.648
  146SOL    HW117580   5.952   3.422   1.679
  146SOL    HW217581   6.058   3.531   1.675
  147SOL     OW17582   0.660   0.037   0.419
  147SOL    HW117583   0.644  -0.056   0.430
  147SOL    HW217584   0.626   0.077   0.499
  148SOL     OW17585   3.902   2.964   6.338
  148SOL    HW117586   3.885   3.043   6.287
  148SOL    HW217587   3.941   2.902   6.276
  149SOL     OW17588   0.136   6.312   1.445
  149SOL    HW117589   0.137   6.220   1.471
  149SOL    HW217590   0.225   6.331   1.416
  150SOL     OW17591   4.933   0.964   0.601
  150SOL    HW117592   5.000   0.895   0.602
  150SOL    HW217593   4.899   0.962   0.512
  151SOL     OW17594   4.905   5.002   1.114
  151SOL    HW117595   4.949   5.013   1.198
  151SOL    HW217596   4.885   4.909   1.109
  152SOL     OW17597   4.919   2.663   7.715
  152SOL    HW117598   4.864   2.616   7.650
  152SOL    HW217599   4.922   2.607   7.791
  153SOL     OW17600   2.341   5.048   1.104
  153SOL    HW117601   2.273   5.114   1.111
  153SOL    HW217602   2.420   5.091   1.137
  154SOL     OW17603   3.751   5.698   6.747
  154SOL    HW117604   3.723   5.786   6.723
  154SOL    HW217605   3.757   5.651   6.664
  155SOL     OW17606   5.146   5.673   6.931
  155SOL    HW117607   5.172   5.607   6.996
  155SOL    HW217608   5.157   5.757   6.977
  156SOL     OW17609   2.312   3.565   0.466
  156SOL    HW117610   2.293   3.586   0.375
  156SOL    HW217611   2.251   3.495   0.489
  157SOL     OW17612   6.015   1.270   6.231
  157SOL    HW117613   5.984   1.194   6.182
  157SOL    HW217614   6.110   1.261   6.230
  158SOL     OW17615   0.576   1.431   0.402
  158SOL    HW117616   0.516   1.488   0.450
  158SOL    HW217617   0.656   1.430   0.456
  159SOL     OW17618   1.901   3.193   6.750
  159SOL    HW117619   1.830   3.258   6.750
  159SOL    HW217620   1.972   3.235   6.800
  160SOL     OW17621   4.529   2.068   0.898
  160SOL    HW117622   4.507   1.989   0.848
  160SOL    HW217623   4.623   2.060   0.914
  161SOL     OW17624   0.231   2.533   1.621
  161SOL    HW117625   0.256   2.604   1.680
  161SOL    HW217626   0.245   2.453   1.672
  162SOL     OW17627   2.027   1.807   1.381
  162SOL    HW117628   2.117   1.836   1.396
  162SOL    HW217629   1.973   1.879   1.413
  163SOL     OW17630   1.836   1.523   5.357
  163SOL    HW117631   1.909   1.574   5.391
  163SOL    HW217632   1.872   1.482   5.277
  164SOL     OW17633   4.326   4.632   6.516
  164SOL    HW117634   4.417   4.627   6.488
  164SOL    HW217635   4.276   4.638   6.434
  165SOL     OW17636   0.950   1.220   0.096
  165SOL    HW117637   0.894   1.286   0.056
  165SOL    HW217638   1.001   1.184   0.024
  166SOL     OW17639   2.495   4.440   7.212
  166SOL    HW117640   2.474   4.366   7.269
  166SOL    HW217641   2.417   4.452   7.158
  167SOL     OW17642   1.416   5.107   5.849
  167SOL    HW117643   1.473   5.163   5.797
  167SOL    HW217644   1.444   5.018   5.827
  168SOL     OW17645   1.593   2.687   0.700
  168SOL    HW117646   1.572   2.737   0.779
  168SOL    HW217647   1.688   2.677   0.702
  169SOL     OW17648   3.121   4.602   1.477
  169SOL    HW117649   3.216   4.594   1.481
  169SOL    HW217650   3.089   4.511   1.475
  170SOL     OW17651   4.664   1.840   7.099
  170SOL    HW117652   4.678   1.841   7.194
  170SOL    HW217653   4.698   1.925   7.069
  171SOL     OW17654   6.110   0.105   6.843
  171SOL    HW117655   6.144   0.104   6.932
  171SOL    HW217656   6.114   0.013   6.815
  172SOL     OW17657   4.218   1.040   1.990
  172SOL    HW117658   4.258   1.122   2.019
  172SOL    HW217659   4.292   0.987   1.960
  173SOL     OW17660   1.139   1.653   6.903
  173SOL    HW117661   1.096   1.594   6.965
  173SOL    HW217662   1.230   1.654   6.931
  174SOL     OW17663   0.097   5.595   6.111
  174SOL    HW117664   0.131   5.683   6.131
  174SOL    HW217665   0.139   5.538   6.174
  175SOL     OW17666   0.776   3.222   7.618
  175SOL    HW117667   0.815   3.224   7.530
  175SOL    HW217668   0.851   3.215   7.677
  176SOL     OW17669   3.218   5.778   0.535
  176SOL    HW117670   3.195   5.758   0.626
  176SOL    HW217671   3.150   5.838   0.507
  177SOL     OW17672   0.481   5.300   7.156
  177SOL    HW117673   0.451   5.234   7.219
  177SOL    HW217674   0.569   5.323   7.187
  178SOL     OW17675   4.371   4.175   7.470
  178SOL    HW117676   4.393   4.096   7.519
  178SOL    HW217677   4.427   4.243   7.509
  179SOL     OW17678   0.599   4.308   6.065
  179SOL    HW117679   0.632   4.363   6.136
  179SOL    HW217680   0.657   4.232   6.065
  180SOL     OW17681   3.972   2.329   7.295
  180SOL    HW117682   3.888   2.341   7.338
  180SOL    HW217683   4.022   2.270   7.352
  181SOL     OW17684   5.463   2.441   0.892
  181SOL    HW117685   5.409   2.471   0.965
  181SOL    HW217686   5.546   2.415   0.933
  182SOL     OW17687   0.769   5.062   0.387
  182SOL    HW117688   0.840   5.032   0.444
  182SOL    HW217689   0.800   5.146   0.353
  183SOL     OW17690   4.755   1.534   6.250
  183SOL    HW117691   4.820   1.603   6.246
  183SOL    HW217692   4.747   1.503   6.160
  184SOL     OW17693   2.858   4.121   1.283
  184SOL    HW117694   2.815   4.146   1.201
  184SOL    HW217695   2.951   4.141   1.268
  185SOL     OW17696   4.551   4.878   7.010
  185SOL    HW117697   4.549   4.963   7.054
  185SOL    HW217698   4.544   4.898   6.917
  186SOL     OW17699   5.298   4.366   7.613
  186SOL    HW117700   5.364   4.300   7.592
  186SOL    HW217701   5.214   4.323   7.592
  187SOL     OW17702   1.959   2.274   6.867
  187SOL    HW117703   1.962   2.194   6.814
  187SOL    HW217704   1.955   2.243   6.957
  188SOL     OW17705   5.580   5.321   0.339
  188SOL    HW117706   5.526   5.301   0.415
  188SOL    HW217707   5.627   5.240   0.321
  189SOL     OW17708   1.332   4.475   0.616
  189SOL    HW117709   1.251   4.448   0.659
  189SOL    HW217710   1.303   4.539   0.550
  190SOL     OW17711   2.588   5.579   6.066
  190SOL    HW117712   2.530   5.648   6.033
  190SOL    HW217713   2.656   5.571   5.999
  191SOL     OW17714   3.437   5.918   0.513
  191SOL    HW117715   3.433   5.982   0.584
  191SOL    HW217716   3.358   5.866   0.523
  192SOL     OW17717   4.732   6.065   0.971
  192SOL    HW117718   4.723   6.158   0.992
  192SOL    HW217719   4.647   6.027   0.991
  193SOL     OW17720   0.926   5.382   1.522
  193SOL    HW117721   0.943   5.427   1.605
  193SOL    HW217722   0.910   5.453   1.459
  194SOL     OW17723   6.250   5.871   6.037
  194SOL    HW117724   6.201   5.808   5.983
  194SOL    HW217725   6.337   5.874   5.998
  195SOL     OW17726   0.149   1.911   1.207
  195SOL    HW117727   0.204   1.909   1.285
  195SOL    HW217728   0.209   1.929   1.135
  196SOL     OW17729   0.065   5.049   7.456
  196SOL    HW117730   0.113   5.002   7.524
  196SOL    HW217731   0.032   4.979   7.399
  197SOL     OW17732   1.564   0.048   0.355
  197SOL    HW117733   1.507  -0.003   0.411
  197SOL    HW217734   1.609  -0.017   0.300
  198SOL     OW17735   1.758   0.275   0.452
  198SOL    HW117736   1.782   0.221   0.526
  198SOL    HW217737   1.679   0.234   0.417
  199SOL     OW17738   3.416   2.766   6.113
  199SOL    HW117739   3.382   2.802   6.195
  199SOL    HW217740   3.347   2.785   6.048
  200SOL     OW17741   2.463   4.395   6.295
  200SOL    HW117742   2.491   4.318   6.245
  200SOL    HW217743   2.541   4.423   6.342
  201SOL     OW17744   4.108   1.673   2.470
  201SOL    HW117745   4.187   1.618   2.468
  201SOL    HW217746   4.036   1.611   2.471
  202SOL     OW17747   6.060   5.283   6.700
  202SOL    HW117748   5.985   5.294   6.641
  202SOL    HW217749   6.057   5.191   6.726
  203SOL     OW17750   1.097   0.855   7.766
  203SOL    HW117751   1.139   0.852   7.851
  203SOL    HW217752   1.102   0.766   7.733
  204SOL     OW17753   0.504   3.944   0.663
  204SOL    HW117754   0.528   3.851   0.664
  204SOL    HW217755   0.578   3.987   0.619
  205SOL     OW17756   5.332   4.463   7.333
  205SOL    HW117757   5.331   4.473   7.429
  205SOL    HW217758   5.311   4.551   7.300
  206SOL     OW17759   4.244   1.938   6.697
  206SOL    HW117760   4.298   2.014   6.676
  206SOL    HW217761   4.301   1.881   6.749
  207SOL     OW17762   5.286   3.248   0.014
  207SOL    HW117763   5.334   3.176   0.054
  207SOL    HW217764   5.346   3.282  -0.053
  208SOL     OW17765   2.243   3.164   0.974
  208SOL    HW117766   2.266   3.108   1.048
  208SOL    HW217767   2.156   3.199   0.996
  209SOL     OW17768   6.421   1.953   7.783
  209SOL    HW117769   6.429   1.910   7.869
  209SOL    HW217770   6.504   1.935   7.739
  210SOL     OW17771   4.109   0.898   7.456
  210SOL    HW117772   4.073   0.809   7.456
  210SOL    HW217773   4.202   0.886   7.471
  211SOL     OW17774   4.643   5.979   6.637
  211SOL    HW117775   4.632   6.071   6.613
  211SOL    HW217776   4.564   5.957   6.686
  212SOL     OW17777   0.249   3.052   6.136
  212SOL    HW117778   0.292   3.056   6.222
  212SOL    HW217779   0.156   3.044   6.156
  213SOL     OW17780   4.324   4.290   5.571
  213SOL    HW117781   4.246   4.292   5.515
  213SOL    HW217782   4.376   4.218   5.536
  214SOL     OW17783   1.377   6.167   7.285
  214SOL    HW117784   1.326   6.123   7.217
  214SOL    HW217785   1.460   6.189   7.244
  215SOL     OW17786   4.199   6.112   5.835
  215SOL    HW117787   4.243   6.169   5.772
  215SOL    HW217788   4.249   6.030   5.833
  216SOL     OW17789   5.890   4.013   1.014
  216SOL    HW117790   5.952   4.076   0.977
  216SOL    HW217791   5.890   3.940   0.952
  217SOL     OW17792   5.160   3.695   1.251
  217SOL    HW117793   5.065   3.683   1.258
  217SOL    HW217794   5.192   3.694   1.341
  218SOL     OW17795   3.759   6.220   1.041
  218SOL    HW117796   3.746   6.312   1.064
  218SOL    HW217797   3.726   6.214   0.951
  219SOL     OW17798   0.211   0.574   1.377
  219SOL    HW117799   0.179   0.492   1.414
  219SOL    HW217800   0.202   0.638   1.448
  220SOL     OW17801   4.737   2.548   0.572
  220SOL    HW117802   4.650   2.509   0.569
  220SOL    HW217803   4.748   2.576   0.663
  221SOL     OW17804   3.244   5.006   2.308
  221SOL    HW117805   3.214   4.915   2.317
  221SOL    HW217806   3.312   5.016   2.374
  222SOL     OW17807   0.922   5.563   0.536
  222SOL    HW117808   1.012   5.598   0.535
  222SOL    HW217809   0.867   5.640   0.549
  223SOL     OW17810   2.267   3.377   5.621
  223SOL    HW117811   2.336   3.326   5.666
  223SOL    HW217812   2.312   3.418   5.548
  224SOL     OW17813   4.420   4.877   2.074
  224SOL    HW117814   4.425   4.789   2.111
  224SOL    HW217815   4.511   4.900   2.054
  225SOL     OW17816   5.233   0.830   1.129
  225SOL    HW117817   5.199   0.872   1.050
  225SOL    HW217818   5.312   0.880   1.150
  226SOL     OW17819   2.681   0.919   0.279
  226SOL    HW117820   2.643   0.974   0.347
  226SOL    HW217821   2.609   0.863   0.249
  227SOL     OW17822   4.484   3.158   1.663
  227SOL    HW117823   4.459   3.068   1.685
  227SOL    HW217824   4.534   3.188   1.739
  228SOL     OW17825   3.274   3.206   7.198
  228SOL    HW117826   3.313   3.256   7.270
  228SOL    HW217827   3.294   3.115   7.219
  229SOL     OW17828   5.303   1.891   6.239
  229SOL    HW117829   5.339   1.814   6.282
  229SOL    HW217830   5.248   1.933   6.305
  230SOL     OW17831   3.869   2.567   6.824
  230SOL    HW117832   3.848   2.661   6.827
  230SOL    HW217833   3.886   2.544   6.915
  231SOL     OW17834   4.451   0.916   1.043
  231SOL    HW117835   4.513   0.988   1.058
  231SOL    HW217836   4.365   0.958   1.048
  232SOL     OW17837   1.198   5.735   1.074
  232SOL    HW117838   1.190   5.708   1.165
  232SOL    HW217839   1.111   5.768   1.051
  233SOL     OW17840   5.853   2.991   0.876
  233SOL    HW117841   5.795   2.968   0.804
  233SOL    HW217842   5.794   3.006   0.950
  234SOL     OW17843   0.934   1.990   0.512
  234SOL    HW117844   0.977   1.968   0.429
  234SOL    HW217845   1.001   1.974   0.577
  235SOL     OW17846   2.203   2.342   6.181
  235SOL    HW117847   2.170   2.430   6.198
  235SOL    HW217848   2.298   2.351   6.178
  236SOL     OW17849   5.468   0.759   6.989
  236SOL    HW117850   5.397   0.794   7.042
  236SOL    HW217851   5.482   0.670   7.021
  237SOL     OW17852   0.665   5.652   7.573
  237SOL    HW117853   0.741   5.662   7.515
  237SOL    HW217854   0.590   5.650   7.514
  238SOL     OW17855   1.354   4.793   6.407
  238SOL    HW117856   1.419   4.843   6.358
  238SOL    HW217857   1.345   4.711   6.358
  239SOL     OW17858   5.685   1.571   0.833
  239SOL    HW117859   5.667   1.546   0.742
  239SOL    HW217860   5.663   1.493   0.884
  240SOL     OW17861   0.932   5.062   0.106
  240SOL    HW117862   0.845   5.101   0.103
  240SOL    HW217863   0.992   5.136   0.115
  241SOL     OW17864   2.655   1.018   6.749
  241SOL    HW117865   2.738   0.971   6.738
  241SOL    HW217866   2.682   1.109   6.766
  242SOL     OW17867   3.928   6.206   5.369
  242SOL    HW117868   3.950   6.135   5.309
  242SOL    HW217869   3.878   6.268   5.316
  243SOL     OW17870   0.490   6.389   7.635
  243SOL    HW117871   0.563   6.448   7.616
  243SOL    HW217872   0.519   6.304   7.602
  244SOL     OW17873   6.200   4.996   0.287
  244SOL    HW117874   6.131   5.052   0.253
  244SOL    HW217875   6.278   5.053   0.291
  245SOL     OW17876   2.298   4.645   7.096
  245SOL    HW117877   2.273   4.562   7.055
  245SOL    HW217878   2.346   4.692   7.028
  246SOL     OW17879   6.307   2.381   1.488
  246SOL    HW117880   6.357   2.391   1.569
  246SOL    HW217881   6.346   2.446   1.428
  247SOL     OW17882   0.473   4.396   6.802
  247SOL    HW117883   0.413   4.405   6.728
  247SOL    HW217884   0.503   4.305   6.799
  248SOL     OW17885   2.134   3.315   1.860
  248SOL    HW117886   2.124   3.318   1.764
  248SOL    HW217887   2.143   3.407   1.885
  249SOL     OW17888   5.859   5.998   6.411
  249SOL    HW117889   5.786   6.054   6.385
  249SOL    HW217890   5.864   5.931   6.342
  250SOL     OW17891   4.519   0.105   0.219
  250SOL    HW117892   4.482   0.019   0.201
  250SOL    HW217893   4.470   0.136   0.295
  251SOL     OW17894   4.680   4.331   6.652
  251SOL    HW117895   4.695   4.241   6.621
  251SOL    HW217896   4.587   4.334   6.673
  252SOL     OW17897   2.212   3.944   0.534
  252SOL    HW117898   2.265   3.996   0.475
  252SOL    HW217899   2.275   3.899   0.590
  253SOL     OW17900   5.212   0.035   0.308
  253SOL    HW117901   5.147   0.089   0.354
  253SOL    HW217902   5.290   0.040   0.362
  254SOL     OW17903   4.932   0.700   7.805
  254SOL    HW117904   4.921   0.668   7.716
  254SOL    HW217905   4.986   0.633   7.847
  255SOL     OW17906   0.817   1.351   7.128
  255SOL    HW117907   0.750   1.378   7.066
  255SOL    HW217908   0.769   1.319   7.204
  256SOL     OW17909   4.260   1.489   7.580
  256SOL    HW117910   4.205   1.424   7.536
  256SOL    HW217911   4.215   1.507   7.662
  257SOL     OW17912   0.453   3.584   6.527
  257SOL    HW117913   0.419   3.519   6.466
  257SOL    HW217914   0.439   3.668   6.484
  258SOL     OW17915   5.938   2.627   5.720
  258SOL    HW117916   5.878   2.702   5.722
  258SOL    HW217917   6.020   2.662   5.685
  259SOL     OW17918   2.901   5.106   1.517
  259SOL    HW117919   2.914   5.014   1.493
  259SOL    HW217920   2.830   5.104   1.581
  260SOL     OW17921   6.238   3.661   7.675
  260SOL    HW117922   6.270   3.712   7.751
  260SOL    HW217923   6.142   3.668   7.681
  261SOL     OW17924   1.917   0.178   7.099
  261SOL    HW117925   1.993   0.234   7.112
  261SOL    HW217926   1.849   0.215   7.156
  262SOL     OW17927   3.421   5.987   6.386
  262SOL    HW117928   3.476   5.913   6.360
  262SOL    HW217929   3.390   5.964   6.474
  263SOL     OW17930   2.558   1.586   6.544
  263SOL    HW117931   2.493   1.649   6.512
  263SOL    HW217932   2.642   1.625   6.520
  264SOL     OW17933   0.884   5.751   5.530
  264SOL    HW117934   0.846   5.827   5.485
  264SOL    HW217935   0.815   5.686   5.530
  265SOL     OW17936   1.534   6.403   6.308
  265SOL    HW117937   1.500   6.475   6.362
  265SOL    HW217938   1.494   6.325   6.346
  266SOL     OW17939   3.656   1.176   0.096
  266SOL    HW117940   3.618   1.220   0.021
  266SOL    HW217941   3.649   1.082   0.075
  267SOL     OW17942   2.260   4.006   1.909
  267SOL    HW117943   2.231   4.001   2.000
  267SOL    HW217944   2.225   3.926   1.869
  268SOL     OW17945   1.438   1.626   0.667
  268SOL    HW117946   1.527   1.624   0.631
  268SOL    HW217947   1.435   1.551   0.727
  269SOL     OW17948   3.636   1.597   0.645
  269SOL    HW117949   3.624   1.628   0.555
  269SOL    HW217950   3.731   1.590   0.654
  270SOL     OW17951   3.825   0.872   6.473
  270SOL    HW117952   3.743   0.830   6.498
  270SOL    HW217953   3.851   0.830   6.391
  271SOL     OW17954   3.882   5.134   0.747
  271SOL    HW117955   3.859   5.043   0.762
  271SOL    HW217956   3.815   5.184   0.793
  272SOL     OW17957   3.517   2.289   5.881
  272SOL    HW117958   3.505   2.195   5.892
  272SOL    HW217959   3.543   2.300   5.790
  273SOL     OW17960   0.429   4.861   7.049
  273SOL    HW117961   0.364   4.914   7.094
  273SOL    HW217962   0.403   4.770   7.067
  274SOL     OW17963   4.896   4.873   6.671
  274SOL    HW117964   4.909   4.851   6.579
  274SOL    HW217965   4.969   4.832   6.716
  275SOL     OW17966   4.482   2.406   1.061
  275SOL    HW117967   4.525   2.491   1.051
  275SOL    HW217968   4.433   2.393   0.980
  276SOL     OW17969   3.838   6.000   5.520
  276SOL    HW117970   3.875   6.075   5.474
  276SOL    HW217971   3.753   6.031   5.552
  277SOL     OW17972   0.793   1.423   2.300
  277SOL    HW117973   0.877   1.432   2.255
  277SOL    HW217974   0.762   1.336   2.275
  278SOL     OW17975   4.694   5.835   7.108
  278SOL    HW117976   4.681   5.927   7.129
  278SOL    HW217977   4.763   5.806   7.168
  279SOL     OW17978   5.231   0.779   6.669
  279SOL    HW117979   5.236   0.863   6.623
  279SOL    HW217980   5.314   0.772   6.717
  280SOL     OW17981   5.948   3.961   2.102
  280SOL    HW117982   5.917   4.014   2.029
  280SOL    HW217983   5.936   3.871   2.073
  281SOL     OW17984   1.524   0.323   7.741
  281SOL    HW117985   1.475   0.386   7.688
  281SOL    HW217986   1.591   0.289   7.681
  282SOL     OW17987   2.000   4.663   1.264
  282SOL    HW117988   1.930   4.713   1.306
  282SOL    HW217989   2.071   4.726   1.251
  283SOL     OW17990   2.550   6.035   7.494
  283SOL    HW117991   2.596   6.091   7.432
  283SOL    HW217992   2.482   6.092   7.531
  284SOL     OW17993   3.705   2.842   1.931
  284SOL    HW117994   3.712   2.748   1.946
  284SOL    HW217995   3.772   2.880   1.988
  285SOL     OW17996   4.964   5.802   1.107
  285SOL    HW117997   4.934   5.811   1.016
  285SOL    HW217998   4.883   5.792   1.158
  286SOL     OW17999   4.088   0.063   6.657
  286SOL    HW118000   4.135   0.147   6.657
  286SOL    HW218001   4.156  -0.002   6.675
  287SOL     OW18002   3.594   5.574   1.830
  287SOL    HW118003   3.558   5.558   1.917
  287SOL    HW218004   3.528   5.628   1.786
  288SOL     OW18005   5.911   5.202   0.254
  288SOL    HW118006   5.911   5.195   0.349
  288SOL    HW218007   5.990   5.251   0.233
  289SOL     OW18008   4.896   0.718   1.236
  289SOL    HW118009   4.966   0.726   1.301
  289SOL    HW218010   4.888   0.624   1.222
  290SOL     OW18011   3.378   3.518   0.238
  290SOL    HW118012   3.330   3.444   0.274
  290SOL    HW218013   3.460   3.481   0.206
  291SOL     OW18014   3.502   3.644   1.517
  291SOL    HW118015   3.412   3.615   1.503
  291SOL    HW218016   3.507   3.664   1.611
  292SOL     OW18017   3.978   4.147   6.210
  292SOL    HW118018   3.966   4.238   6.236
  292SOL    HW218019   4.073   4.136   6.207
  293SOL     OW18020   2.578   3.626   0.816
  293SOL    HW118021   2.666   3.644   0.783
  293SOL    HW218022   2.564   3.533   0.796
  294SOL     OW18023   5.169   1.297   7.637
  294SOL    HW118024   5.091   1.311   7.584
  294SOL    HW218025   5.184   1.203   7.633
  295SOL     OW18026   3.634   5.793   0.888
  295SOL    HW118027   3.652   5.872   0.837
  295SOL    HW218028   3.720   5.754   0.904
  296SOL     OW18029   2.778   5.300   5.585
  296SOL    HW118030   2.751   5.372   5.642
  296SOL    HW218031   2.704   5.238   5.589
  297SOL     OW18032   0.612   2.984   1.577
  297SOL    HW118033   0.615   2.913   1.514
  297SOL    HW218034   0.618   2.941   1.663
  298SOL     OW18035   6.130   5.927   1.578
  298SOL    HW118036   6.058   5.890   1.527
  298SOL    HW218037   6.104   5.912   1.669
  299SOL     OW18038   0.387   4.173   0.154
  299SOL    HW118039   0.329   4.136   0.088
  299SOL    HW218040   0.354   4.262   0.167
  300SOL     OW18041   4.025   3.965   5.757
  300SOL    HW118042   4.044   4.059   5.754
  300SOL    HW218043   3.929   3.960   5.761
  301SOL     OW18044   4.890   1.269   0.992
  301SOL    HW118045   4.801   1.294   1.014
  301SOL    HW218046   4.884   1.231   0.904
  302SOL     OW18047   3.830   2.069   6.808
  302SOL    HW118048   3.866   2.093   6.893
  302SOL    HW218049   3.855   2.141   6.750
  303SOL     OW18050   4.860   0.244   5.519
  303SOL    HW118051   4.914   0.183   5.568
  303SOL    HW218052   4.903   0.329   5.530
  304SOL     OW18053   2.675   4.155   1.509
  304SOL    HW118054   2.743   4.148   1.442
  304SOL    HW218055   2.666   4.249   1.523
  305SOL     OW18056   2.494   6.382   7.374
  305SOL    HW118057   2.408   6.345   7.355
  305SOL    HW218058   2.520   6.424   7.292
  306SOL     OW18059   3.175   2.700   4.940
  306SOL    HW118060   3.166   2.794   4.923
  306SOL    HW218061   3.264   2.679   4.915
  307SOL     OW18062   5.984   2.032   6.508
  307SOL    HW118063   6.053   1.966   6.502
  307SOL    HW218064   5.903   1.984   6.493
  308SOL     OW18065   1.804   4.463   7.199
  308SOL    HW118066   1.787   4.520   7.273
  308SOL    HW218067   1.809   4.522   7.124
  309SOL     OW18068   3.566   1.924   1.615
  309SOL    HW118069   3.595   1.909   1.705
  309SOL    HW218070   3.471   1.918   1.620
  310SOL     OW18071   5.451   3.447   6.448
  310SOL    HW118072   5.476   3.421   6.359
  310SOL    HW218073   5.509   3.397   6.505
  311SOL     OW18074   4.398   2.208   1.579
  311SOL    HW118075   4.328   2.151   1.611
  311SOL    HW218076   4.367   2.296   1.597
  312SOL     OW18077   1.445   1.085   1.058
  312SOL    HW118078   1.527   1.055   1.096
  312SOL    HW218079   1.437   1.036   0.976
  313SOL     OW18080   2.568   2.940   1.676
  313SOL    HW118081   2.476   2.932   1.703
  313SOL    HW218082   2.587   2.857   1.632
  314SOL     OW18083   6.309   2.962   0.920
  314SOL    HW118084   6.264   2.892   0.968
  314SOL    HW218085   6.246   2.988   0.853
  315SOL     OW18086   6.429   2.377   7.472
  315SOL    HW118087   6.342   2.412   7.486
  315SOL    HW218088   6.487   2.437   7.519
  316SOL     OW18089   3.032   4.076   6.676
  316SOL    HW118090   3.051   4.129   6.599
  316SOL    HW218091   3.117   4.062   6.717
  317SOL     OW18092   2.073   3.894   0.226
  317SOL    HW118093   2.077   3.931   0.314
  317SOL    HW218094   1.979   3.879   0.211
  318SOL     OW18095   5.223   1.748   1.387
  318SOL    HW118096   5.298   1.797   1.355
  318SOL    HW218097   5.175   1.809   1.442
  319SOL     OW18098   5.226   0.141   0.030
  319SOL    HW118099   5.140   0.184   0.039
  319SOL    HW218100   5.248   0.113   0.119
  320SOL     OW18101   3.810   6.048   6.918
  320SOL    HW118102   3.877   5.983   6.940
  320SOL    HW218103   3.855   6.109   6.859
  321SOL     OW18104   2.391   1.559   7.779
  321SOL    HW118105   2.409   1.653   7.787
  321SOL    HW218106   2.306   1.547   7.821
  322SOL     OW18107   3.376   1.978   0.429
  322SOL    HW118108   3.348   2.063   0.395
  322SOL    HW218109   3.316   1.915   0.390
  323SOL     OW18110   1.789   4.603   7.423
  323SOL    HW118111   1.721   4.671   7.429
  323SOL    HW218112   1.872   4.651   7.426
  324SOL     OW18113   5.949   1.955   5.899
  324SOL    HW118114   6.020   1.901   5.864
  324SOL    HW218115   5.920   2.007   5.825
  325SOL     OW18116   1.099   1.765   0.929
  325SOL    HW118117   1.149   1.712   0.992
  325SOL    HW218118   1.053   1.829   0.984
  326SOL     OW18119   4.559   5.690   0.785
  326SOL    HW118120   4.557   5.692   0.881
  326SOL    HW218121   4.638   5.640   0.764
  327SOL     OW18122   1.036   2.105   7.569
  327SOL    HW118123   1.017   2.013   7.583
  327SOL    HW218124   0.995   2.126   7.485
  328SOL     OW18125   0.451   6.284   0.142
  328SOL    HW118126   0.536   6.280   0.097
  328SOL    HW218127   0.387   6.293   0.071
  329SOL     OW18128   3.400   1.236   7.534
  329SOL    HW118129   3.426   1.265   7.447
  329SOL    HW218130   3.404   1.140   7.529
  330SOL     OW18131   1.837   5.852   0.654
  330SOL    HW118132   1.768   5.885   0.596
  330SOL    HW218133   1.918   5.871   0.607
  331SOL     OW18134   0.727   1.705   6.964
  331SOL    HW118135   0.668   1.716   6.889
  331SOL    HW218136   0.678   1.651   7.026
  332SOL     OW18137   6.140   2.959   7.387
  332SOL    HW118138   6.074   2.999   7.443
  332SOL    HW218139   6.163   3.028   7.325
  333SOL     OW18140   2.338   3.643   1.811
  333SOL    HW118141   2.268   3.707   1.798
  333SOL    HW218142   2.326   3.614   1.902
  334SOL     OW18143   4.947   1.222   6.767
  334SOL    HW118144   4.892   1.297   6.744
  334SOL    HW218145   4.921   1.199   6.856
  335SOL     OW18146   5.565   3.226   0.298
  335SOL    HW118147   5.643   3.220   0.243
  335SOL    HW218148   5.583   3.300   0.356
  336SOL     OW18149   2.768   5.492   7.246
  336SOL    HW118150   2.704   5.423   7.227
  336SOL    HW218151   2.715   5.564   7.280
  337SOL     OW18152   0.171   5.701   6.648
  337SOL    HW118153   0.148   5.684   6.739
  337SOL    HW218154   0.227   5.779   6.651
  338SOL     OW18155   0.161   5.329   0.018
  338SOL    HW118156   0.084   5.291  -0.025
  338SOL    HW218157   0.206   5.254   0.057
  339SOL     OW18158   1.026   4.454   6.009
  339SOL    HW118159   1.080   4.438   5.932
  339SOL    HW218160   1.044   4.379   6.066
  340SOL     OW18161   5.192   5.062   5.742
  340SOL    HW118162   5.102   5.031   5.735
  340SOL    HW218163   5.185   5.158   5.739
  341SOL     OW18164   6.390   0.729   0.140
  341SOL    HW118165   6.460   0.787   0.111
  341SOL    HW218166   6.364   0.765   0.226
  342SOL     OW18167   0.843   4.776   7.734
  342SOL    HW118168   0.817   4.809   7.820
  342SOL    HW218169   0.780   4.815   7.672
  343SOL     OW18170   3.309   5.614   1.295
  343SOL    HW118171   3.368   5.684   1.267
  343SOL    HW218172   3.367   5.550   1.337
  344SOL     OW18173   5.798   5.264   1.540
  344SOL    HW118174   5.711   5.234   1.566
  344SOL    HW218175   5.836   5.300   1.620
  345SOL     OW18176   2.690   5.038   5.887
  345SOL    HW118177   2.731   4.998   5.965
  345SOL    HW218178   2.685   4.966   5.824
  346SOL     OW18179   5.262   2.479   7.487
  346SOL    HW118180   5.330   2.460   7.551
  346SOL    HW218181   5.291   2.560   7.445
  347SOL     OW18182   0.323   5.128   0.140
  347SOL    HW118183   0.384   5.132   0.213
  347SOL    HW218184   0.376   5.101   0.065
  348SOL     OW18185   2.658   1.812   0.121
  348SOL    HW118186   2.707   1.781   0.045
  348SOL    HW218187   2.570   1.829   0.088
  349SOL     OW18188   6.135   0.567   7.177
  349SOL    HW118189   6.219   0.553   7.133
  349SOL    HW218190   6.142   0.515   7.257
  350SOL     OW18191   6.294   0.438   7.729
  350SOL    HW118192   6.230   0.371   7.749
  350SOL    HW218193   6.258   0.484   7.651
  351SOL     OW18194   6.229   4.328   0.789
  351SOL    HW118195   6.141   4.360   0.772
  351SOL    HW218196   6.217   4.245   0.834
  352SOL     OW18197   5.695   3.204   6.591
  352SOL    HW118198   5.691   3.176   6.682
  352SOL    HW218199   5.761   3.273   6.590
  353SOL     OW18200   4.332   4.007   6.558
  353SOL    HW118201   4.254   4.055   6.587
  353SOL    HW218202   4.307   3.968   6.475
  354SOL     OW18203   1.563   3.544   5.997
  354SOL    HW118204   1.629   3.587   5.943
  354SOL    HW218205   1.510   3.494   5.935
  355SOL     OW18206   3.180   1.843   0.330
  355SOL    HW118207   3.102   1.824   0.382
  355SOL    HW218208   3.147   1.854   0.241
  356SOL     OW18209   0.411   3.293   5.719
  356SOL    HW118210   0.479   3.291   5.651
  356SOL    HW218211   0.451   3.250   5.795
  357SOL     OW18212   5.662   2.539   0.252
  357SOL    HW118213   5.609   2.484   0.309
  357SOL    HW218214   5.600   2.576   0.190
  358SOL     OW18215   2.763   2.999   2.349
  358SOL    HW118216   2.843   3.035   2.388
  358SOL    HW218217   2.793   2.953   2.271
  359SOL     OW18218   1.472   0.416   1.408
  359SOL    HW118219   1.550   0.383   1.452
  359SOL    HW218220   1.503   0.445   1.322
  360SOL     OW18221   2.007   6.237   7.167
  360SOL    HW118222   1.976   6.264   7.081
  360SOL    HW218223   1.931   6.247   7.224
  361SOL     OW18224   2.439   1.571   6.849
  361SOL    HW118225   2.532   1.558   6.868
  361SOL    HW218226   2.434   1.568   6.754
  362SOL     OW18227   3.132   1.011   6.551
  362SOL    HW118228   3.099   0.995   6.462
  362SOL    HW218229   3.159   1.103   6.550
  363SOL     OW18230   3.653   5.655   2.303
  363SOL    HW118231   3.716   5.607   2.355
  363SOL    HW218232   3.615   5.590   2.245
  364SOL     OW18233   4.071   4.277   5.830
  364SOL    HW118234   4.079   4.343   5.899
  364SOL    HW218235   4.156   4.232   5.831
  365SOL     OW18236   2.434   3.562   1.456
  365SOL    HW118237   2.491   3.557   1.379
  365SOL    HW218238   2.479   3.622   1.515
  366SOL     OW18239   3.573   1.923   6.837
  366SOL    HW118240   3.552   1.895   6.926
  366SOL    HW218241   3.666   1.944   6.840
  367SOL     OW18242   0.974   1.747   6.047
  367SOL    HW118243   1.017   1.769   6.130
  367SOL    HW218244   1.040   1.764   5.980
  368SOL     OW18245   0.812   3.624   7.042
  368SOL    HW118246   0.796   3.697   6.983
  368SOL    HW218247   0.741   3.628   7.106
  369SOL     OW18248   2.423   3.172   6.659
  369SOL    HW118249   2.374   3.090   6.661
  369SOL    HW218250   2.515   3.145   6.659
  370SOL     OW18251   3.244   4.191   6.866
  370SOL    HW118252   3.262   4.256   6.934
  370SOL    HW218253   3.150   4.198   6.850
  371SOL     OW18254   3.326   4.574   5.832
  371SOL    HW118255   3.344   4.663   5.802
  371SOL    HW218256   3.264   4.539   5.768
  372SOL     OW18257   0.336   5.488   7.680
  372SOL    HW118258   0.268   5.441   7.730
  372SOL    HW218259   0.322   5.464   7.588
  373SOL     OW18260   4.709   0.729   6.685
  373SOL    HW118261   4.676   0.705   6.771
  373SOL    HW218262   4.803   0.714   6.689
  374SOL     OW18263   4.624   0.454   1.638
  374SOL    HW118264   4.634   0.457   1.733
  374SOL    HW218265   4.589   0.540   1.615
  375SOL     OW18266   1.362   4.104   0.710
  375SOL    HW118267   1.426   4.175   0.699
  375SOL    HW218268   1.374   4.075   0.800
  376SOL     OW18269   1.417   6.208   0.127
  376SOL    HW118270   1.501   6.248   0.150
  376SOL    HW218271   1.388   6.256   0.050
  377SOL     OW18272   0.418   3.133   7.366
  377SOL    HW118273   0.469   3.054   7.350
  377SOL    HW218274   0.333   3.116   7.325
  378SOL     OW18275   2.151   2.705   7.436
  378SOL    HW118276   2.120   2.753   7.513
  378SOL    HW218277   2.073   2.659   7.404
  379SOL     OW18278   6.008   2.366   6.860
  379SOL    HW118279   5.944   2.299   6.837
  379SOL    HW218280   5.956   2.447   6.869
  380SOL     OW18281   5.486   0.399   7.539
  380SOL    HW118282   5.542   0.438   7.607
  380SOL    HW218283   5.498   0.456   7.463
  381SOL     OW18284   4.613   0.774   1.408
  381SOL    HW118285   4.617   0.733   1.322
  381SOL    HW218286   4.703   0.770   1.440
  382SOL     OW18287   6.393   5.642   0.138
  382SOL    HW118288   6.360   5.633   0.048
  382SOL    HW218289   6.487   5.630   0.131
  383SOL     OW18290   5.949   3.210   0.562
  383SOL    HW118291   5.932   3.127   0.517
  383SOL    HW218292   5.970   3.271   0.493
  384SOL     OW18293   3.039   1.584   5.733
  384SOL    HW118294   3.020   1.521   5.803
  384SOL    HW218295   3.110   1.544   5.683
  385SOL     OW18296   6.076   2.321   0.095
  385SOL    HW118297   6.004   2.308   0.033
  385SOL    HW218298   6.136   2.248   0.078
  386SOL     OW18299   4.090   2.695   5.923
  386SOL    HW118300   4.109   2.642   5.845
  386SOL    HW218301   4.005   2.735   5.905
  387SOL     OW18302   2.909   4.964   0.811
  387SOL    HW118303   2.928   4.873   0.786
  387SOL    HW218304   2.939   4.970   0.902
  388SOL     OW18305   5.413   2.544   6.286
  388SOL    HW118306   5.472   2.583   6.221
  388SOL    HW218307   5.467   2.482   6.334
  389SOL     OW18308   5.891   4.180   1.849
  389SOL    HW118309   5.956   4.233   1.895
  389SOL    HW218310   5.807   4.221   1.871
  390SOL     OW18311   5.428   5.227   0.538
  390SOL    HW118312   5.355   5.199   0.594
  390SOL    HW218313   5.495   5.161   0.550
  391SOL     OW18314   3.637   3.962   6.952
  391SOL    HW118315   3.662   4.052   6.934
  391SOL    HW218316   3.583   3.936   6.877
  392SOL     OW18317   0.398   2.052   0.192
  392SOL    HW118318   0.406   2.117   0.262
  392SOL    HW218319   0.415   1.968   0.235
  393SOL     OW18320   1.748   1.378   5.020
  393SOL    HW118321   1.762   1.286   5.043
  393SOL    HW218322   1.823   1.424   5.058
  394SOL     OW18323   1.564   5.774   1.154
  394SOL    HW118324   1.632   5.786   1.088
  394SOL    HW218325   1.503   5.845   1.139
  395SOL     OW18326   3.922   2.307   2.411
  395SOL    HW118327   3.862   2.282   2.482
  395SOL    HW218328   4.008   2.279   2.441
  396SOL     OW18329   4.995   4.900   1.399
  396SOL    HW118330   5.060   4.836   1.426
  396SOL    HW218331   5.045   4.980   1.384
  397SOL     OW18332   5.005   5.161   6.287
  397SOL    HW118333   4.955   5.097   6.238
  397SOL    HW218334   5.096   5.148   6.258
  398SOL     OW18335   5.751   0.006   6.520
  398SOL    HW118336   5.692  -0.048   6.468
  398SOL    HW218337   5.839  -0.018   6.490
  399SOL     OW18338   2.911   2.754   7.394
  399SOL    HW118339   2.895   2.679   7.336
  399SOL    HW218340   2.922   2.828   7.335
  400SOL     OW18341   5.565   1.812   5.824
  400SOL    HW118342   5.586   1.722   5.798
  400SOL    HW218343   5.488   1.803   5.879
  401SOL     OW18344   6.064   5.285   5.417
  401SOL    HW118345   6.124   5.359   5.412
  401SOL    HW218346   5.980   5.324   5.442
  402SOL     OW18347   1.192   1.911   1.461
  402SOL    HW118348   1.266   1.968   1.478
  402SOL    HW218349   1.195   1.845   1.531
  403SOL     OW18350   2.515   3.249   6.406
  403SOL    HW118351   2.449   3.282   6.467
  403SOL    HW218352   2.497   3.156   6.398
  404SOL     OW18353   5.377   0.914   1.399
  404SOL    HW118354   5.454   0.945   1.446
  404SOL    HW218355   5.400   0.924   1.306
  405SOL     OW18356   5.353   1.419   7.417
  405SOL    HW118357   5.372   1.513   7.419
  405SOL    HW218358   5.432   1.379   7.381
  406SOL     OW18359   1.295   4.627   7.114
  406SOL    HW118360   1.361   4.558   7.110
  406SOL    HW218361   1.345   4.706   7.134
  407SOL     OW18362   2.672   0.116   6.246
  407SOL    HW118363   2.665   0.047   6.180
  407SOL    HW218364   2.744   0.088   6.303
  408SOL     OW18365   5.286   2.538   1.093
  408SOL    HW118366   5.335   2.605   1.141
  408SOL    HW218367   5.196   2.570   1.093
  409SOL     OW18368   6.118   6.181   0.881
  409SOL    HW118369   6.112   6.267   0.922
  409SOL    HW218370   6.068   6.190   0.800
  410SOL     OW18371   5.248   3.141   6.905
  410SOL    HW118372   5.299   3.071   6.864
  410SOL    HW218373   5.275   3.221   6.858
  411SOL     OW18374   2.116   1.729   1.119
  411SOL    HW118375   2.102   1.634   1.110
  411SOL    HW218376   2.071   1.752   1.201
  412SOL     OW18377   5.547   1.609   0.522
  412SOL    HW118378   5.488   1.646   0.588
  412SOL    HW218379   5.508   1.632   0.439
  413SOL     OW18380   3.130   2.977   2.341
  413SOL    HW118381   3.219   2.994   2.313
  413SOL    HW218382   3.088   2.936   2.265
  414SOL     OW18383   2.169   5.023   6.689
  414SOL    HW118384   2.150   4.939   6.733
  414SOL    HW218385   2.093   5.077   6.709
  415SOL     OW18386   3.446   1.751   5.133
  415SOL    HW118387   3.539   1.742   5.154
  415SOL    HW218388   3.402   1.691   5.193
  416SOL     OW18389   5.755   1.661   5.556
  416SOL    HW118390   5.683   1.623   5.607
  416SOL    HW218391   5.716   1.737   5.513
  417SOL     OW18392   1.745   6.427   6.575
  417SOL    HW118393   1.701   6.373   6.640
  417SOL    HW218394   1.749   6.372   6.497
  418SOL     OW18395   0.354   1.038   0.869
  418SOL    HW118396   0.381   1.118   0.824
  418SOL    HW218397   0.432   0.982   0.864
  419SOL     OW18398   3.277   1.290   1.062
  419SOL    HW118399   3.335   1.360   1.092
  419SOL    HW218400   3.203   1.293   1.122
  420SOL     OW18401   0.265   5.591   0.464
  420SOL    HW118402   0.257   5.686   0.456
  420SOL    HW218403   0.284   5.577   0.556
  421SOL     OW18404   4.085   0.642   5.738
  421SOL    HW118405   4.045   0.714   5.690
  421SOL    HW218406   4.115   0.682   5.820
  422SOL     OW18407   3.795   0.491   6.739
  422SOL    HW118408   3.741   0.545   6.797
  422SOL    HW218409   3.732   0.436   6.692
  423SOL     OW18410   4.336   3.083   7.172
  423SOL    HW118411   4.425   3.076   7.137
  423SOL    HW218412   4.279   3.061   7.097
  424SOL     OW18413   2.279   3.664   0.135
  424SOL    HW118414   2.238   3.591   0.088
  424SOL    HW218415   2.205   3.718   0.163
  425SOL     OW18416   5.984   3.584   0.027
  425SOL    HW118417   5.914   3.604  -0.034
  425SOL    HW218418   6.009   3.669   0.063
  426SOL     OW18419   0.545   5.212   6.323
  426SOL    HW118420   0.459   5.219   6.366
  426SOL    HW218421   0.526   5.171   6.239
  427SOL     OW18422   5.526   4.020   7.212
  427SOL    HW118423   5.518   4.026   7.117
  427SOL    HW218424   5.523   4.111   7.242
  428SOL     OW18425   2.523   2.746   0.833
  428SOL    HW118426   2.454   2.810   0.816
  428SOL    HW218427   2.593   2.769   0.772
  429SOL     OW18428   1.050   3.956   6.975
  429SOL    HW118429   1.054   3.870   6.933
  429SOL    HW218430   1.088   3.941   7.062
  430SOL     OW18431   1.862   0.673   5.963
  430SOL    HW118432   1.931   0.608   5.951
  430SOL    HW218433   1.799   0.653   5.893
  431SOL     OW18434   0.684   1.599   1.538
  431SOL    HW118435   0.705   1.590   1.445
  431SOL    HW218436   0.751   1.549   1.583
  432SOL     OW18437   0.596   4.674   1.196
  432SOL    HW118438   0.669   4.699   1.254
  432SOL    HW218439   0.542   4.753   1.191
  433SOL     OW18440   0.188   0.904   1.745
  433SOL    HW118441   0.271   0.938   1.779
  433SOL    HW218442   0.123   0.969   1.772
  434SOL     OW18443   4.260   4.700   5.378
  434SOL    HW118444   4.212   4.675   5.457
  434SOL    HW218445   4.195   4.744   5.323
  435SOL     OW18446   5.108   2.660   0.696
  435SOL    HW118447   5.130   2.740   0.744
  435SOL    HW218448   5.017   2.642   0.722
  436SOL     OW18449   0.077   0.714   1.565
  436SOL    HW118450   0.115   0.757   1.641
  436SOL    HW218451   0.002   0.769   1.541
  437SOL     OW18452   0.058   2.812   2.442
  437SOL    HW118453   0.103   2.889   2.406
  437SOL    HW218454   0.091   2.738   2.390
  438SOL     OW18455   1.623   4.457   2.065
  438SOL    HW118456   1.661   4.545   2.064
  438SOL    HW218457   1.554   4.460   1.998
  439SOL     OW18458   1.283   6.289   5.734
  439SOL    HW118459   1.231   6.222   5.690
  439SOL    HW218460   1.360   6.243   5.766
  440SOL     OW18461   1.106   4.045   6.579
  440SOL    HW118462   1.048   4.038   6.503
  440SOL    HW218463   1.050   4.080   6.648
  441SOL     OW18464   4.070   1.286   6.578
  441SOL    HW118465   4.161   1.294   6.551
  441SOL    HW218466   4.057   1.192   6.590
  442SOL     OW18467   2.607   5.649   1.605
  442SOL    HW118468   2.669   5.708   1.561
  442SOL    HW218469   2.603   5.681   1.695
  443SOL     OW18470   5.037   6.248   0.363
  443SOL    HW118471   5.014   6.213   0.277
  443SOL    HW218472   5.073   6.334   0.346
  444SOL     OW18473   5.163   5.049   6.950
  444SOL    HW118474   5.203   5.042   7.037
  444SOL    HW218475   5.205   4.981   6.899
  445SOL     OW18476   2.973   0.955   6.758
  445SOL    HW118477   3.048   0.967   6.701
  445SOL    HW218478   2.968   0.860   6.771
  446SOL     OW18479   0.362   3.997   7.542
  446SOL    HW118480   0.321   3.915   7.515
  446SOL    HW218481   0.396   4.035   7.461
  447SOL     OW18482   1.489   2.217   0.463
  447SOL    HW118483   1.408   2.202   0.511
  447SOL    HW218484   1.486   2.310   0.438
  448SOL     OW18485   6.124   0.926   7.786
  448SOL    HW118486   6.117   0.906   7.880
  448SOL    HW218487   6.115   0.841   7.743
  449SOL     OW18488   3.619   3.926   7.558
  449SOL    HW118489   3.526   3.932   7.537
  449SOL    HW218490   3.656   3.869   7.490
  450SOL     OW18491   1.755   1.175   1.025
  450SOL    HW118492   1.736   1.238   0.956
  450SOL    HW218493   1.851   1.165   1.023
  451SOL     OW18494   2.054   2.592   6.213
  451SOL    HW118495   2.039   2.654   6.142
  451SOL    HW218496   2.093   2.645   6.283
  452SOL     OW18497   4.269   6.103   2.027
  452SOL    HW118498   4.205   6.068   2.089
  452SOL    HW218499   4.239   6.192   2.010
  453SOL     OW18500   4.654   2.894   7.120
  453SOL    HW118501   4.729   2.923   7.068
  453SOL    HW218502   4.597   2.851   7.057
  454SOL     OW18503   4.159   5.325   0.540
  454SOL    HW118504   4.207   5.282   0.611
  454SOL    HW218505   4.224   5.334   0.471
  455SOL     OW18506   5.163   2.436   6.405
  455SOL    HW118507   5.202   2.521   6.384
  455SOL    HW218508   5.201   2.375   6.342
  456SOL     OW18509   2.652   0.344   7.714
  456SOL    HW118510   2.667   0.251   7.732
  456SOL    HW218511   2.641   0.349   7.617
  457SOL     OW18512   1.713   6.011   1.350
  457SOL    HW118513   1.731   6.103   1.371
  457SOL    HW218514   1.706   5.969   1.436
  458SOL     OW18515   4.343   0.234   2.083
  458SOL    HW118516   4.254   0.262   2.104
  458SOL    HW218517   4.357   0.155   2.135
  459SOL     OW18518   5.317   1.730   0.659
  459SOL    HW118519   5.308   1.824   0.644
  459SOL    HW218520   5.251   1.710   0.725
  460SOL     OW18521   2.445   3.168   7.030
  460SOL    HW118522   2.435   3.106   6.958
  460SOL    HW218523   2.529   3.145   7.070
  461SOL     OW18524   2.752   4.456   1.518
  461SOL    HW118525   2.844   4.430   1.509
  461SOL    HW218526   2.741   4.470   1.612
  462SOL     OW18527   0.135   1.209   7.371
  462SOL    HW118528   0.049   1.222   7.331
  462SOL    HW218529   0.156   1.117   7.354
  463SOL     OW18530   4.559   0.466   6.463
  463SOL    HW118531   4.573   0.386   6.514
  463SOL    HW218532   4.524   0.529   6.526
  464SOL     OW18533   2.722   3.111   1.209
  464SOL    HW118534   2.774   3.097   1.130
  464SOL    HW218535   2.655   3.043   1.207
  465SOL     OW18536   4.922   4.900   7.442
  465SOL    HW118537   4.976   4.976   7.463
  465SOL    HW218538   4.902   4.861   7.527
  466SOL     OW18539   5.635   1.362   7.387
  466SOL    HW118540   5.662   1.419   7.459
  466SOL    HW218541   5.601   1.283   7.430
  467SOL     OW18542   0.270   2.391   7.157
  467SOL    HW118543   0.221   2.345   7.225
  467SOL    HW218544   0.211   2.459   7.126
  468SOL     OW18545   3.219   2.256   6.362
  468SOL    HW118546   3.246   2.347   6.352
  468SOL    HW218547   3.174   2.253   6.447
  469SOL     OW18548   4.985   4.374   6.692
  469SOL    HW118549   5.026   4.319   6.759
  469SOL    HW218550   4.892   4.370   6.710
  470SOL     OW18551   6.165   5.304   0.503
  470SOL    HW118552   6.244   5.334   0.459
  470SOL    HW218553   6.120   5.384   0.528
  471SOL     OW18554   0.381   5.916   5.486
  471SOL    HW118555   0.387   5.874   5.572
  471SOL    HW218556   0.374   6.009   5.505
  472SOL     OW18557   1.724   1.758   0.878
  472SOL    HW118558   1.718   1.731   0.787
  472SOL    HW218559   1.758   1.848   0.875
  473SOL     OW18560   2.359   6.256   6.282
  473SOL    HW118561   2.269   6.280   6.259
  473SOL    HW218562   2.405   6.340   6.287
  474SOL     OW18563   3.535   0.120   6.599
  474SOL    HW118564   3.599   0.126   6.528
  474SOL    HW218565   3.493   0.207   6.600
  475SOL     OW18566   1.222   2.292   0.591
  475SOL    HW118567   1.132   2.265   0.574
  475SOL    HW218568   1.215   2.361   0.658
  476SOL     OW18569   4.197   1.277   0.269
  476SOL    HW118570   4.102   1.281   0.261
  476SOL    HW218571   4.230   1.320   0.190
  477SOL     OW18572   0.790   3.491   5.775
  477SOL    HW118573   0.837   3.563   5.732
  477SOL    HW218574   0.837   3.477   5.857
  478SOL     OW18575   1.646   4.814   7.502
  478SOL    HW118576   1.678   4.807   7.592
  478SOL    HW218577   1.585   4.888   7.504
  479SOL     OW18578   5.178   0.396   1.380
  479SOL    HW118579   5.185   0.491   1.371
  479SOL    HW218580   5.114   0.370   1.314
  480SOL     OW18581   4.040   2.073   6.575
  480SOL    HW118582   4.108   2.012   6.604
  480SOL    HW218583   4.071   2.105   6.490
  481SOL     OW18584   5.171   0.987   6.090
  481SOL    HW118585   5.102   1.043   6.056
  481SOL    HW218586   5.125   0.908   6.119
  482SOL     OW18587   0.996   1.832   7.596
  482SOL    HW118588   1.053   1.766   7.635
  482SOL    HW218589   0.914   1.825   7.645
  483SOL     OW18590   6.292   2.829   6.979
  483SOL    HW118591   6.316   2.806   7.068
  483SOL    HW218592   6.224   2.765   6.955
  484SOL     OW18593   4.910   0.139   7.102
  484SOL    HW118594   4.951   0.052   7.105
  484SOL    HW218595   4.836   0.128   7.042
  485SOL     OW18596   1.839   1.789   6.817
  485SOL    HW118597   1.854   1.772   6.724
  485SOL    HW218598   1.750   1.758   6.833
  486SOL     OW18599   4.971   3.120   0.457
  486SOL    HW118600   5.012   3.062   0.520
  486SOL    HW218601   5.026   3.113   0.379
  487SOL     OW18602   5.122   5.796   1.645
  487SOL    HW118603   5.040   5.794   1.595
  487SOL    HW218604   5.109   5.866   1.709
  488SOL     OW18605   6.059   2.356   0.889
  488SOL    HW118606   6.097   2.272   0.864
  488SOL    HW218607   6.126   2.398   0.943
  489SOL     OW18608   3.752   5.374   2.045
  489SOL    HW118609   3.693   5.427   2.098
  489SOL    HW218610   3.808   5.437   2.000
  490SOL     OW18611   2.856   2.040   5.803
  490SOL    HW118612   2.767   2.013   5.780
  490SOL    HW218613   2.908   1.961   5.791
  491SOL     OW18614   3.175   4.739   2.350
  491SOL    HW118615   3.172   4.655   2.396
  491SOL    HW218616   3.205   4.717   2.262
  492SOL     OW18617   4.202   4.352   0.077
  492SOL    HW118618   4.107   4.345   0.068
  492SOL    HW218619   4.236   4.275   0.029
  493SOL     OW18620   6.054   4.279   2.029
  493SOL    HW118621   6.116   4.290   2.101
  493SOL    HW218622   6.029   4.368   2.004
  494SOL     OW18623   0.224   6.190   7.626
  494SOL    HW118624   0.190   6.115   7.675
  494SOL    HW218625   0.313   6.165   7.603
  495SOL     OW18626   1.808   6.083   1.086
  495SOL    HW118627   1.772   6.043   1.006
  495SOL    HW218628   1.770   6.031   1.157
  496SOL     OW18629   0.609   2.184   7.597
  496SOL    HW118630   0.529   2.200   7.546
  496SOL    HW218631   0.680   2.196   7.534
  497SOL     OW18632   1.738   1.554   7.637
  497SOL    HW118633   1.771   1.580   7.551
  497SOL    HW218634   1.732   1.459   7.633
  498SOL     OW18635   4.535   2.210   6.398
  498SOL    HW118636   4.495   2.292   6.372
  498SOL    HW218637   4.628   2.220   6.375
  499SOL     OW18638   2.750   6.091   2.312
  499SOL    HW118639   2.788   6.147   2.244
  499SOL    HW218640   2.761   6.002   2.277
  500SOL     OW18641   2.865   0.886   5.807
  500SOL    HW118642   2.793   0.849   5.756
  500SOL    HW218643   2.939   0.829   5.788
  501SOL     OW18644   4.121   3.777   0.013
  501SOL    HW118645   4.216   3.780   0.023
  501SOL    HW218646   4.093   3.868   0.015
  502SOL     OW18647   6.111   1.651   7.039
  502SOL    HW118648   6.076   1.695   6.962
  502SOL    HW218649   6.135   1.723   7.098
  503SOL     OW18650   4.117   0.655   1.272
  503SOL    HW118651   4.069   0.726   1.230
  503SOL    HW218652   4.172   0.698   1.337
  504SOL     OW18653   5.560   5.251   6.930
  504SOL    HW118654   5.571   5.210   7.016
  504SOL    HW218655   5.548   5.344   6.949
  505SOL     OW18656   1.081   1.723   6.297
  505SOL    HW118657   1.073   1.680   6.382
  505SOL    HW218658   1.150   1.789   6.310
  506SOL     OW18659   1.119   2.916   7.320
  506SOL    HW118660   1.115   2.969   7.240
  506SOL    HW218661   1.131   2.826   7.289
  507SOL     OW18662   2.760   5.774   6.698
  507SOL    HW118663   2.805   5.832   6.760
  507SOL    HW218664   2.688   5.826   6.663
  508SOL     OW18665   6.234   4.057   0.109
  508SOL    HW118666   6.159   4.000   0.126
  508SOL    HW218667   6.240   4.061   0.014
  509SOL     OW18668   2.237   5.226   0.914
  509SOL    HW118669   2.290   5.213   0.835
  509SOL    HW218670   2.169   5.158   0.909
  510SOL     OW18671   5.210   0.771   5.827
  510SOL    HW118672   5.118   0.748   5.839
  510SOL    HW218673   5.208   0.853   5.778
  511SOL     OW18674   5.873   1.250   0.093
  511SOL    HW118675   5.785   1.274   0.121
  511SOL    HW218676   5.876   1.274   0.000
  512SOL     OW18677   4.600   2.921   6.325
  512SOL    HW118678   4.515   2.877   6.327
  512SOL    HW218679   4.652   2.877   6.393
  513SOL     OW18680   3.721   2.317   7.433
  513SOL    HW118681   3.654   2.283   7.374
  513SOL    HW218682   3.717   2.259   7.510
  514SOL     OW18683   3.173   5.303   0.549
  514SOL    HW118684   3.211   5.338   0.469
  514SOL    HW218685   3.183   5.208   0.541
  515SOL     OW18686   0.723   4.529   0.972
  515SOL    HW118687   0.739   4.581   1.051
  515SOL    HW218688   0.656   4.578   0.925
  516SOL     OW18689   4.230   2.068   7.274
  516SOL    HW118690   4.160   2.008   7.299
  516SOL    HW218691   4.310   2.017   7.281
  517SOL     OW18692   4.643   4.398   6.327
  517SOL    HW118693   4.663   4.384   6.420
  517SOL    HW218694   4.613   4.313   6.295
  518SOL     OW18695   1.565   5.277   5.663
  518SOL    HW118696   1.513   5.356   5.656
  518SOL    HW218697   1.617   5.275   5.583
  519SOL     OW18698   5.861   1.090   6.069
  519SOL    HW118699   5.781   1.064   6.023
  519SOL    HW218700   5.929   1.092   6.001
  520SOL     OW18701   3.717   4.517   6.321
  520SOL    HW118702   3.788   4.489   6.263
  520SOL    HW218703   3.741   4.606   6.347
  521SOL     OW18704   1.586   5.990   6.372
  521SOL    HW118705   1.536   6.065   6.338
  521SOL    HW218706   1.571   5.993   6.467
  522SOL     OW18707   2.091   2.054   0.773
  522SOL    HW118708   2.080   2.017   0.860
  522SOL    HW218709   2.185   2.055   0.758
  523SOL     OW18710   5.648   5.446   0.723
  523SOL    HW118711   5.613   5.385   0.658
  523SOL    HW218712   5.705   5.504   0.673
  524SOL     OW18713   4.797   3.477   1.912
  524SOL    HW118714   4.884   3.446   1.887
  524SOL    HW218715   4.789   3.454   2.005
  525SOL     OW18716   0.184   3.460   6.070
  525SOL    HW118717   0.098   3.423   6.088
  525SOL    HW218718   0.173   3.509   5.989
  526SOL     OW18719   6.445   4.727   1.338
  526SOL    HW118720   6.479   4.638   1.349
  526SOL    HW218721   6.358   4.716   1.301
  527SOL     OW18722   0.022   5.018   1.638
  527SOL    HW118723  -0.009   4.928   1.642
  527SOL    HW218724   0.053   5.037   1.726
  528SOL     OW18725   3.330   5.353   0.242
  528SOL    HW118726   3.411   5.367   0.192
  528SOL    HW218727   3.335   5.417   0.313
  529SOL     OW18728   2.096   3.393   0.494
  529SOL    HW118729   2.095   3.324   0.428
  529SOL    HW218730   2.087   3.347   0.576
  530SOL     OW18731   2.723   4.443   0.728
  530SOL    HW118732   2.628   4.437   0.714
  530SOL    HW218733   2.749   4.354   0.749
  531SOL     OW18734   5.645   3.138   1.110
  531SOL    HW118735   5.733   3.173   1.095
  531SOL    HW218736   5.614   3.184   1.188
  532SOL     OW18737   4.248   2.684   7.449
  532SOL    HW118738   4.269   2.608   7.504
  532SOL    HW218739   4.244   2.648   7.360
  533SOL     OW18740   1.092   5.160   1.531
  533SOL    HW118741   1.050   5.076   1.546
  533SOL    HW218742   1.020   5.223   1.533
  534SOL     OW18743   2.586   1.351   1.372
  534SOL    HW118744   2.647   1.422   1.389
  534SOL    HW218745   2.615   1.281   1.431
  535SOL     OW18746   3.515   1.747   6.018
  535SOL    HW118747   3.594   1.713   5.975
  535SOL    HW218748   3.454   1.763   5.946
  536SOL     OW18749   6.181   5.789   0.958
  536SOL    HW118750   6.131   5.728   1.013
  536SOL    HW218751   6.242   5.733   0.911
  537SOL     OW18752   3.821   2.409   2.158
  537SOL    HW118753   3.862   2.391   2.242
  537SOL    HW218754   3.818   2.323   2.114
  538SOL     OW18755   6.374   2.172   6.420
  538SOL    HW118756   6.393   2.181   6.513
  538SOL    HW218757   6.321   2.249   6.399
  539SOL     OW18758   4.591   1.227   7.161
  539SOL    HW118759   4.528   1.241   7.231
  539SOL    HW218760   4.565   1.288   7.092
  540SOL     OW18761   0.485   4.920   6.793
  540SOL    HW118762   0.486   4.846   6.853
  540SOL    HW218763   0.483   4.997   6.850
  541SOL     OW18764   2.582   1.719   0.368
  541SOL    HW118765   2.646   1.769   0.420
  541SOL    HW218766   2.613   1.727   0.278
  542SOL     OW18767   0.207   4.630   6.539
  542SOL    HW118768   0.199   4.560   6.474
  542SOL    HW218769   0.228   4.708   6.487
  543SOL     OW18770   6.022   2.798   6.250
  543SOL    HW118771   5.929   2.783   6.267
  543SOL    HW218772   6.067   2.733   6.305
  544SOL     OW18773   3.754   4.828   1.675
  544SOL    HW118774   3.704   4.909   1.680
  544SOL    HW218775   3.731   4.791   1.590
  545SOL     OW18776   5.812   0.502   7.455
  545SOL    HW118777   5.736   0.492   7.397
  545SOL    HW218778   5.780   0.556   7.527
  546SOL     OW18779   1.368   0.327   1.056
  546SOL    HW118780   1.332   0.294   0.973
  546SOL    HW218781   1.398   0.248   1.101
  547SOL     OW18782   2.183   5.850   2.216
  547SOL    HW118783   2.136   5.773   2.246
  547SOL    HW218784   2.224   5.823   2.134
  548SOL     OW18785   5.079   5.501   7.497
  548SOL    HW118786   5.073   5.419   7.448
  548SOL    HW218787   5.051   5.478   7.585
  549SOL     OW18788   0.344   0.721   1.068
  549SOL    HW118789   0.374   0.734   0.978
  549SOL    HW218790   0.250   0.702   1.060
  550SOL     OW18791   4.718   4.455   1.221
  550SOL    HW118792   4.754   4.384   1.274
  550SOL    HW218793   4.747   4.535   1.264
  551SOL     OW18794   2.383   0.992   6.909
  551SOL    HW118795   2.371   1.081   6.942
  551SOL    HW218796   2.470   0.994   6.868
  552SOL     OW18797   6.104   0.912   0.600
  552SOL    HW118798   6.151   0.852   0.657
  552SOL    HW218799   6.033   0.946   0.654
  553SOL     OW18800   0.521   4.426   0.682
  553SOL    HW118801   0.602   4.475   0.672
  553SOL    HW218802   0.481   4.461   0.761
  554SOL     OW18803   0.452   2.201   0.864
  554SOL    HW118804   0.485   2.285   0.896
  554SOL    HW218805   0.394   2.224   0.791
  555SOL     OW18806   0.045   2.411   5.792
  555SOL    HW118807   0.035   2.501   5.761
  555SOL    HW218808   0.138   2.392   5.780
  556SOL     OW18809   3.093   2.909   0.493
  556SOL    HW118810   3.162   2.862   0.539
  556SOL    HW218811   3.031   2.841   0.467
  557SOL     OW18812   4.047   0.584   7.152
  557SOL    HW118813   4.028   0.514   7.089
  557SOL    HW218814   4.066   0.660   7.097
  558SOL     OW18815   6.011   3.891   7.339
  558SOL    HW118816   6.103   3.869   7.326
  558SOL    HW218817   5.965   3.842   7.271
  559SOL     OW18818   3.202   0.267   1.187
  559SOL    HW118819   3.199   0.171   1.178
  559SOL    HW218820   3.110   0.294   1.186
  560SOL     OW18821   3.830   1.421   6.521
  560SOL    HW118822   3.876   1.495   6.560
  560SOL    HW218823   3.899   1.355   6.509
  561SOL     OW18824   3.460   0.403   0.285
  561SOL    HW118825   3.507   0.389   0.203
  561SOL    HW218826   3.511   0.356   0.351
  562SOL     OW18827   5.699   2.151   5.400
  562SOL    HW118828   5.689   2.067   5.446
  562SOL    HW218829   5.788   2.179   5.420
  563SOL     OW18830   5.442   1.581   7.195
  563SOL    HW118831   5.348   1.570   7.184
  563SOL    HW218832   5.472   1.620   7.113
  564SOL     OW18833   0.904   5.747   7.471
  564SOL    HW118834   0.982   5.796   7.445
  564SOL    HW218835   0.860   5.805   7.533
  565SOL     OW18836   1.003   5.527   5.867
  565SOL    HW118837   1.001   5.431   5.857
  565SOL    HW218838   1.075   5.555   5.811
  566SOL     OW18839   2.291   4.249   0.770
  566SOL    HW118840   2.199   4.223   0.768
  566SOL    HW218841   2.339   4.168   0.748
  567SOL     OW18842   5.058   3.613   2.278
  567SOL    HW118843   5.086   3.561   2.203
  567SOL    HW218844   5.035   3.698   2.241
  568SOL     OW18845   0.150   2.673   0.953
  568SOL    HW118846   0.178   2.763   0.972
  568SOL    HW218847   0.076   2.683   0.894
  569SOL     OW18848   2.579   6.243   1.861
  569SOL    HW118849   2.519   6.182   1.904
  569SOL    HW218850   2.571   6.324   1.913
  570SOL     OW18851   4.337   4.989   0.938
  570SOL    HW118852   4.303   5.071   0.903
  570SOL    HW218853   4.424   5.012   0.972
  571SOL     OW18854   1.750   0.520   6.535
  571SOL    HW118855   1.742   0.475   6.451
  571SOL    HW218856   1.750   0.450   6.600
  572SOL     OW18857   1.793   2.982   1.936
  572SOL    HW118858   1.812   3.072   1.908
  572SOL    HW218859   1.747   2.943   1.861
  573SOL     OW18860   3.297   5.941   0.210
  573SOL    HW118861   3.222   5.917   0.265
  573SOL    HW218862   3.336   5.857   0.186
  574SOL     OW18863   3.424   3.651   0.768
  574SOL    HW118864   3.422   3.626   0.675
  574SOL    HW218865   3.332   3.661   0.792
  575SOL     OW18866   3.000   6.019   5.265
  575SOL    HW118867   3.053   6.099   5.265
  575SOL    HW218868   2.911   6.050   5.280
  576SOL     OW18869   4.540   0.905   7.073
  576SOL    HW118870   4.453   0.871   7.051
  576SOL    HW218871   4.524   0.964   7.146
  577SOL     OW18872   6.136   5.884   6.905
  577SOL    HW118873   6.107   5.795   6.926
  577SOL    HW218874   6.110   5.896   6.814
  578SOL     OW18875   5.236   4.008   1.963
  578SOL    HW118876   5.314   4.064   1.967
  578SOL    HW218877   5.169   4.056   2.011
  579SOL     OW18878   0.433   5.631   7.334
  579SOL    HW118879   0.439   5.624   7.239
  579SOL    HW218880   0.412   5.723   7.350
  580SOL     OW18881   2.744   2.755   7.022
  580SOL    HW118882   2.677   2.707   7.072
  580SOL    HW218883   2.746   2.712   6.937
  581SOL     OW18884   1.416   1.121   5.092
  581SOL    HW118885   1.457   1.085   5.013
  581SOL    HW218886   1.341   1.065   5.107
  582SOL     OW18887   4.016   6.387   0.792
  582SOL    HW118888   4.048   6.448   0.725
  582SOL    HW218889   3.988   6.443   0.864
  583SOL     OW18890   2.547   2.894   0.378
  583SOL    HW118891   2.628   2.882   0.427
  583SOL    HW218892   2.576   2.916   0.289
  584SOL     OW18893   4.274   5.149   1.229
  584SOL    HW118894   4.291   5.221   1.169
  584SOL    HW218895   4.352   5.144   1.285
  585SOL     OW18896   3.015   5.593   0.489
  585SOL    HW118897   2.951   5.612   0.557
  585SOL    HW218898   3.084   5.543   0.533
  586SOL     OW18899   5.078   4.260   0.087
  586SOL    HW118900   5.136   4.198   0.043
  586SOL    HW218901   5.035   4.209   0.156
  587SOL     OW18902   3.061   5.682   0.054
  587SOL    HW118903   3.144   5.652   0.017
  587SOL    HW218904   2.994   5.646  -0.004
  588SOL     OW18905   3.774   5.083   6.742
  588SOL    HW118906   3.829   5.127   6.677
  588SOL    HW218907   3.785   5.134   6.822
  589SOL     OW18908   0.380   3.633   7.365
  589SOL    HW118909   0.370   3.560   7.427
  589SOL    HW218910   0.292   3.652   7.335
  590SOL     OW18911   4.738   0.441   7.036
  590SOL    HW118912   4.807   0.493   7.077
  590SOL    HW218913   4.784   0.366   6.998
  591SOL     OW18914   1.553   5.243   2.295
  591SOL    HW118915   1.536   5.149   2.303
  591SOL    HW218916   1.608   5.263   2.371
  592SOL     OW18917   2.214   6.067   6.918
  592SOL    HW118918   2.170   6.151   6.904
  592SOL    HW218919   2.285   6.088   6.979
  593SOL     OW18920   2.922   2.546   1.991
  593SOL    HW118921   2.837   2.589   1.997
  593SOL    HW218922   2.940   2.514   2.080
  594SOL     OW18923   6.366   3.360   6.972
  594SOL    HW118924   6.284   3.331   6.933
  594SOL    HW218925   6.361   3.455   6.973
  595SOL     OW18926   3.957   0.091   0.990
  595SOL    HW118927   4.013   0.051   1.057
  595SOL    HW218928   3.878   0.117   1.038
  596SOL     OW18929   4.880   0.337   6.476
  596SOL    HW118930   4.956   0.289   6.507
  596SOL    HW218931   4.911   0.427   6.465
  597SOL     OW18932   2.858   3.003   0.013
  597SOL    HW118933   2.873   2.908   0.012
  597SOL    HW218934   2.937   3.040   0.051
  598SOL     OW18935   0.260   1.915   7.772
  598SOL    HW118936   0.305   1.832   7.754
  598SOL    HW218937   0.312   1.956   7.840
  599SOL     OW18938   2.107   1.814   0.025
  599SOL    HW118939   2.012   1.824   0.031
  599SOL    HW218940   2.121   1.756  -0.050
  600SOL     OW18941   4.243   2.027   0.391
  600SOL    HW118942   4.317   2.087   0.406
  600SOL    HW218943   4.241   2.015   0.296
  601SOL     OW18944   1.246   5.157   2.128
  601SOL    HW118945   1.266   5.250   2.136
  601SOL    HW218946   1.317   5.113   2.176
  602SOL     OW18947   3.900   1.267   0.207
  602SOL    HW118948   3.822   1.261   0.152
  602SOL    HW218949   3.867   1.287   0.294
  603SOL     OW18950   3.330   0.263   5.701
  603SOL    HW118951   3.330   0.167   5.709
  603SOL    HW218952   3.253   0.290   5.751
  604SOL     OW18953   3.811   4.385   1.089
  604SOL    HW118954   3.893   4.383   1.041
  604SOL    HW218955   3.798   4.295   1.120
  605SOL     OW18956   6.440   0.015   0.454
  605SOL    HW118957   6.405   0.034   0.541
  605SOL    HW218958   6.409  -0.074   0.436
  606SOL     OW18959   1.388   1.295   0.293
  606SOL    HW118960   1.454   1.329   0.233
  606SOL    HW218961   1.385   1.201   0.275
  607SOL     OW18962   4.297   5.809   0.023
  607SOL    HW118963   4.281   5.896  -0.013
  607SOL    HW218964   4.223   5.794   0.081
  608SOL     OW18965   0.647   5.892   6.776
  608SOL    HW118966   0.560   5.853   6.787
  608SOL    HW218967   0.702   5.820   6.745
  609SOL     OW18968   5.197   2.018   1.886
  609SOL    HW118969   5.287   2.015   1.855
  609SOL    HW218970   5.205   2.037   1.980
  610SOL     OW18971   3.252   0.713   1.850
  610SOL    HW118972   3.242   0.791   1.903
  610SOL    HW218973   3.296   0.743   1.770
  611SOL     OW18974   0.578   1.983   1.122
  611SOL    HW118975   0.611   2.007   1.209
  611SOL    HW218976   0.631   2.034   1.062
  612SOL     OW18977   4.453   5.461   7.768
  612SOL    HW118978   4.411   5.399   7.828
  612SOL    HW218979   4.500   5.522   7.825
  613SOL     OW18980   4.075   4.015   2.381
  613SOL    HW118981   4.127   4.065   2.444
  613SOL    HW218982   4.124   3.934   2.369
  614SOL     OW18983   4.500   3.242   7.447
  614SOL    HW118984   4.553   3.200   7.379
  614SOL    HW218985   4.563   3.267   7.515
  615SOL     OW18986   5.807   6.359   1.499
  615SOL    HW118987   5.888   6.378   1.451
  615SOL    HW218988   5.830   6.376   1.590
  616SOL     OW18989   0.577   2.733   6.394
  616SOL    HW118990   0.643   2.670   6.424
  616SOL    HW218991   0.600   2.750   6.303
  617SOL     OW18992   4.087   4.134   6.559
  617SOL    HW118993   4.042   4.193   6.618
  617SOL    HW218994   4.031   4.127   6.483
  618SOL     OW18995   4.167   0.904   0.275
  618SOL    HW118996   4.148   0.943   0.360
  618SOL    HW218997   4.229   0.834   0.294
  619SOL     OW18998   2.727   4.163   1.062
  619SOL    HW118999   2.745   4.147   0.970
  619SOL    HW219000   2.633   4.182   1.066
  620SOL     OW19001   2.534   0.278   6.917
  620SOL    HW119002   2.503   0.190   6.933
  620SOL    HW219003   2.573   0.274   6.830
  621SOL     OW19004   3.641   5.213   0.260
  621SOL    HW119005   3.587   5.171   0.327
  621SOL    HW219006   3.612   5.173   0.178
  622SOL     OW19007   1.027   5.633   6.968
  622SOL    HW119008   1.002   5.612   6.878
  622SOL    HW219009   0.956   5.689   7.000
  623SOL     OW19010   1.840   3.507   1.802
  623SOL    HW119011   1.799   3.532   1.720
  623SOL    HW219012   1.882   3.587   1.834
  624SOL     OW19013   1.854   0.630   0.222
  624SOL    HW119014   1.842   0.725   0.217
  624SOL    HW219015   1.921   0.610   0.156
  625SOL     OW19016   1.127   5.801   7.314
  625SOL    HW119017   1.209   5.795   7.363
  625SOL    HW219018   1.118   5.715   7.272
  626SOL     OW19019   2.531   1.515   7.537
  626SOL    HW119020   2.581   1.594   7.520
  626SOL    HW219021   2.468   1.540   7.605
  627SOL     OW19022   5.742   3.662   1.732
  627SOL    HW119023   5.798   3.599   1.687
  627SOL    HW219024   5.676   3.607   1.775
  628SOL     OW19025   5.579   6.235   1.339
  628SOL    HW119026   5.664   6.269   1.369
  628SOL    HW219027   5.595   6.205   1.250
  629SOL     OW19028   2.190   2.244   1.585
  629SOL    HW119029   2.257   2.182   1.614
  629SOL    HW219030   2.178   2.303   1.659
  630SOL     OW19031   6.283   0.007   6.121
  630SOL    HW119032   6.328   0.082   6.159
  630SOL    HW219033   6.199   0.042   6.091
  631SOL     OW19034   5.570   0.777   6.409
  631SOL    HW119035   5.562   0.785   6.504
  631SOL    HW219036   5.481   0.758   6.379
  632SOL     OW19037   5.027   4.212   6.927
  632SOL    HW119038   4.986   4.240   7.008
  632SOL    HW219039   4.959   4.163   6.881
  633SOL     OW19040   0.626   3.323   7.332
  633SOL    HW119041   0.561   3.252   7.333
  633SOL    HW219042   0.594   3.384   7.266
  634SOL     OW19043   0.718   0.577   0.115
  634SOL    HW119044   0.727   0.490   0.153
  634SOL    HW219045   0.649   0.619   0.166
  635SOL     OW19046   1.995   5.548   5.635
  635SOL    HW119047   1.989   5.502   5.552
  635SOL    HW219048   2.063   5.501   5.684
  636SOL     OW19049   1.894   4.997   1.216
  636SOL    HW119050   1.851   4.939   1.278
  636SOL    HW219051   1.894   5.083   1.259
  637SOL     OW19052   3.756   2.815   0.035
  637SOL    HW119053   3.735   2.887   0.094
  637SOL    HW219054   3.680   2.807  -0.022
  638SOL     OW19055   0.517   3.975   1.161
  638SOL    HW119056   0.431   3.939   1.139
  638SOL    HW219057   0.548   4.016   1.079
  639SOL     OW19058   5.327   3.680   1.635
  639SOL    HW119059   5.296   3.768   1.654
  639SOL    HW219060   5.347   3.643   1.721
  640SOL     OW19061   4.468   3.379   7.154
  640SOL    HW119062   4.378   3.399   7.178
  640SOL    HW219063   4.521   3.428   7.217
  641SOL     OW19064   1.612   4.436   5.482
  641SOL    HW119065   1.703   4.425   5.456
  641SOL    HW219066   1.611   4.418   5.576
  642SOL     OW19067   3.777   3.330   6.417
  642SOL    HW119068   3.865   3.315   6.452
  642SOL    HW219069   3.741   3.401   6.470
  643SOL     OW19070   4.417   1.135   2.435
  643SOL    HW119071   4.457   1.197   2.374
  643SOL    HW219072   4.476   1.059   2.434
  644SOL     OW19073   5.178   5.450   7.114
  644SOL    HW119074   5.249   5.443   7.179
  644SOL    HW219075   5.129   5.368   7.122
  645SOL     OW19076   1.091   0.080   0.350
  645SOL    HW119077   1.161   0.145   0.339
  645SOL    HW219078   1.137  -0.003   0.360
  646SOL     OW19079   4.325   6.041   6.827
  646SOL    HW119080   4.247   6.004   6.787
  646SOL    HW219081   4.360   5.969   6.880
  647SOL     OW19082   4.970   2.252   6.985
  647SOL    HW119083   4.998   2.181   7.044
  647SOL    HW219084   4.926   2.207   6.913
  648SOL     OW19085   6.054   6.028   2.160
  648SOL    HW119086   6.129   5.997   2.110
  648SOL    HW219087   6.073   6.120   2.179
  649SOL     OW19088   2.356   4.189   0.435
  649SOL    HW119089   2.318   4.229   0.356
  649SOL    HW219090   2.443   4.159   0.408
  650SOL     OW19091   1.940   2.017   0.189
  650SOL    HW119092   2.033   2.022   0.166
  650SOL    HW219093   1.939   1.997   0.282
  651SOL     OW19094   4.078   2.431   0.963
  651SOL    HW119095   4.069   2.368   1.035
  651SOL    HW219096   4.086   2.516   1.005
  652SOL     OW19097   1.630   3.283   2.185
  652SOL    HW119098   1.696   3.214   2.191
  652SOL    HW219099   1.557   3.251   2.238
  653SOL     OW19100   5.984   3.694   2.344
  653SOL    HW119101   6.046   3.651   2.285
  653SOL    HW219102   6.018   3.783   2.354
  654SOL     OW19103   2.167   6.265   0.507
  654SOL    HW119104   2.114   6.334   0.467
  654SOL    HW219105   2.161   6.283   0.600
  655SOL     OW19106   5.341   4.417   2.151
  655SOL    HW119107   5.245   4.414   2.152
  655SOL    HW219108   5.367   4.339   2.102
  656SOL     OW19109   0.221   5.777   5.943
  656SOL    HW119110   0.245   5.777   5.851
  656SOL    HW219111   0.130   5.807   5.945
  657SOL     OW19112   0.031   1.616   0.489
  657SOL    HW119113  -0.038   1.672   0.524
  657SOL    HW219114   0.084   1.591   0.563
  658SOL     OW19115   2.695   2.963   6.286
  658SOL    HW119116   2.674   2.909   6.363
  658SOL    HW219117   2.612   2.970   6.239
  659SOL     OW19118   0.581   5.914   0.838
  659SOL    HW119119   0.533   5.949   0.914
  659SOL    HW219120   0.655   5.867   0.876
  660SOL     OW19121   0.675   2.406   7.732
  660SOL    HW119122   0.652   2.482   7.678
  660SOL    HW219123   0.651   2.331   7.677
  661SOL     OW19124   5.140   0.770   0.642
  661SOL    HW119125   5.168   0.680   0.663
  661SOL    HW219126   5.212   0.806   0.591
  662SOL     OW19127   1.978   1.114   6.214
  662SOL    HW119128   1.992   1.039   6.155
  662SOL    HW219129   1.902   1.159   6.178
  663SOL     OW19130   3.129   2.341   5.777
  663SOL    HW119131   3.156   2.324   5.867
  663SOL    HW219132   3.210   2.333   5.726
  664SOL     OW19133   5.459   5.599   6.405
  664SOL    HW119134   5.545   5.614   6.443
  664SOL    HW219135   5.473   5.527   6.343
  665SOL     OW19136   3.034   3.804   7.410
  665SOL    HW119137   3.051   3.804   7.316
  665SOL    HW219138   2.984   3.885   7.425
  666SOL     OW19139   5.180   1.640   5.178
  666SOL    HW119140   5.150   1.550   5.173
  666SOL    HW219141   5.275   1.633   5.188
  667SOL     OW19142   5.764   2.941   7.085
  667SOL    HW119143   5.765   2.855   7.126
  667SOL    HW219144   5.687   2.985   7.121
  668SOL     OW19145   5.892   3.346   6.990
  668SOL    HW119146   5.877   3.344   7.085
  668SOL    HW219147   5.978   3.306   6.978
  669SOL     OW19148   6.270   1.064   6.063
  669SOL    HW119149   6.312   1.051   6.148
  669SOL    HW219150   6.186   1.018   6.070
  670SOL     OW19151   5.455   2.667   1.280
  670SOL    HW119152   5.503   2.641   1.359
  670SOL    HW219153   5.375   2.707   1.313
  671SOL     OW19154   2.992   6.266   7.761
  671SOL    HW119155   3.055   6.195   7.751
  671SOL    HW219156   3.045   6.341   7.789
  672SOL     OW19157   0.054   5.625   1.743
  672SOL    HW119158  -0.025   5.573   1.756
  672SOL    HW219159   0.046   5.661   1.654
  673SOL     OW19160   0.416   2.368   7.461
  673SOL    HW119161   0.334   2.382   7.507
  673SOL    HW219162   0.410   2.423   7.383
  674SOL     OW19163   3.741   4.140   0.018
  674SOL    HW119164   3.766   4.124  -0.073
  674SOL    HW219165   3.698   4.226   0.016
  675SOL     OW19166   5.141   0.536   6.564
  675SOL    HW119167   5.073   0.583   6.516
  675SOL    HW219168   5.197   0.605   6.599
  676SOL     OW19169   1.664   4.371   7.575
  676SOL    HW119170   1.585   4.411   7.610
  676SOL    HW219171   1.702   4.439   7.519
  677SOL     OW19172   4.815   4.070   6.819
  677SOL    HW119173   4.763   4.096   6.895
  677SOL    HW219174   4.750   4.044   6.753
  678SOL     OW19175   1.322   2.716   7.448
  678SOL    HW119176   1.257   2.662   7.403
  678SOL    HW219177   1.302   2.706   7.541
  679SOL     OW19178   3.204   0.856   6.962
  679SOL    HW119179   3.236   0.771   6.994
  679SOL    HW219180   3.167   0.898   7.040
  680SOL     OW19181   1.858   6.266   0.480
  680SOL    HW119182   1.861   6.291   0.571
  680SOL    HW219183   1.860   6.350   0.433
  681SOL     OW19184   5.068   4.058   5.038
  681SOL    HW119185   5.149   4.032   4.996
  681SOL    HW219186   5.010   3.982   5.029
  682SOL     OW19187   5.152   4.495   0.507
  682SOL    HW119188   5.214   4.446   0.454
  682SOL    HW219189   5.080   4.434   0.521
  683SOL     OW19190   5.456   2.369   0.325
  683SOL    HW119191   5.480   2.278   0.309
  683SOL    HW219192   5.372   2.364   0.371
  684SOL     OW19193   4.742   4.843   0.919
  684SOL    HW119194   4.755   4.931   0.883
  684SOL    HW219195   4.649   4.839   0.940
  685SOL     OW19196   0.836   0.583   6.188
  685SOL    HW119197   0.870   0.657   6.139
  685SOL    HW219198   0.913   0.530   6.209
  686SOL     OW19199   2.603   5.797   0.497
  686SOL    HW119200   2.601   5.889   0.522
  686SOL    HW219201   2.625   5.750   0.576
  687SOL     OW19202   1.520   5.126   0.326
  687SOL    HW119203   1.496   5.201   0.271
  687SOL    HW219204   1.581   5.075   0.272
  688SOL     OW19205   0.758   1.538   7.436
  688SOL    HW119206   0.688   1.564   7.494
  688SOL    HW219207   0.742   1.587   7.355
  689SOL     OW19208   0.907   0.021   6.277
  689SOL    HW119209   0.846   0.082   6.237
  689SOL    HW219210   0.854  -0.030   6.338
  690SOL     OW19211   5.396   4.135   0.235
  690SOL    HW119212   5.342   4.121   0.158
  690SOL    HW219213   5.343   4.101   0.308
  691SOL     OW19214   1.930   0.365   6.049
  691SOL    HW119215   1.989   0.291   6.035
  691SOL    HW219216   1.865   0.356   5.980
  692SOL     OW19217   4.998   5.171   0.279
  692SOL    HW119218   5.005   5.136   0.368
  692SOL    HW219219   5.077   5.141   0.235
  693SOL     OW19220   4.384   1.727   7.351
  693SOL    HW119221   4.322   1.687   7.412
  693SOL    HW219222   4.411   1.809   7.394
  694SOL     OW19223   5.656   0.752   5.415
  694SOL    HW119224   5.574   0.782   5.455
  694SOL    HW219225   5.716   0.740   5.489
  695SOL     OW19226   2.011   3.433   7.152
  695SOL    HW119227   1.946   3.461   7.217
  695SOL    HW219228   2.073   3.381   7.201
  696SOL     OW19229   2.775   3.801   6.925
  696SOL    HW119230   2.736   3.791   7.012
  696SOL    HW219231   2.812   3.890   6.926
  697SOL     OW19232   2.382   4.136   7.203
  697SOL    HW119233   2.311   4.154   7.264
  697SOL    HW219234   2.339   4.119   7.119
  698SOL     OW19235   4.449   5.372   5.849
  698SOL    HW119236   4.513   5.396   5.783
  698SOL    HW219237   4.382   5.440   5.845
  699SOL     OW19238   3.330   2.557   0.666
  699SOL    HW119239   3.336   2.645   0.630
  699SOL    HW219240   3.387   2.504   0.610
  700SOL     OW19241   1.087   5.275   0.214
  700SOL    HW119242   1.157   5.292   0.277
  700SOL    HW219243   1.006   5.283   0.264
  701SOL     OW19244   5.048   2.348   7.379
  701SOL    HW119245   5.060   2.324   7.287
  701SOL    HW219246   5.126   2.400   7.401
  702SOL     OW19247   2.120   5.482   0.540
  702SOL    HW119248   2.112   5.390   0.516
  702SOL    HW219249   2.212   5.494   0.561
  703SOL     OW19250   4.015   2.466   6.396
  703SOL    HW119251   3.940   2.413   6.421
  703SOL    HW219252   4.014   2.540   6.457
  704SOL     OW19253   6.439   2.941   6.796
  704SOL    HW119254   6.408   2.951   6.886
  704SOL    HW219255   6.502   3.012   6.784
  705SOL     OW19256   1.365   2.946   1.212
  705SOL    HW119257   1.427   2.881   1.245
  705SOL    HW219258   1.418   3.009   1.165
  706SOL     OW19259   3.641   3.872   0.634
  706SOL    HW119260   3.718   3.926   0.617
  706SOL    HW219261   3.641   3.859   0.729
  707SOL     OW19262   4.450   5.895   1.292
  707SOL    HW119263   4.459   5.966   1.228
  707SOL    HW219264   4.518   5.912   1.357
  708SOL     OW19265   3.798   0.963   6.764
  708SOL    HW119266   3.819   0.944   6.673
  708SOL    HW219267   3.800   0.878   6.808
  709SOL     OW19268   2.790   5.970   5.822
  709SOL    HW119269   2.763   6.012   5.741
  709SOL    HW219270   2.803   5.878   5.798
  710SOL     OW19271   6.242   3.528   5.706
  710SOL    HW119272   6.303   3.602   5.703
  710SOL    HW219273   6.212   3.518   5.616
  711SOL     OW19274   6.222   1.216   6.983
  711SOL    HW119275   6.164   1.265   7.041
  711SOL    HW219276   6.163   1.177   6.919
  712SOL     OW19277   1.116   3.091   1.231
  712SOL    HW119278   1.044   3.032   1.210
  712SOL    HW219279   1.194   3.048   1.195
  713SOL     OW19280   3.103   2.574   1.785
  713SOL    HW119281   3.034   2.576   1.851
  713SOL    HW219282   3.184   2.575   1.836
  714SOL     OW19283   1.858   5.197   5.960
  714SOL    HW119284   1.854   5.287   5.925
  714SOL    HW219285   1.835   5.206   6.052
  715SOL     OW19286   5.093   6.433   7.348
  715SOL    HW119287   5.056   6.393   7.427
  715SOL    HW219288   5.051   6.519   7.343
  716SOL     OW19289   1.390   1.004   6.193
  716SOL    HW119290   1.295   1.001   6.179
  716SOL    HW219291   1.403   1.076   6.254
  717SOL     OW19292   4.268   2.525   0.011
  717SOL    HW119293   4.281   2.441   0.053
  717SOL    HW219294   4.297   2.512  -0.078
  718SOL     OW19295   4.618   0.313   0.619
  718SOL    HW119296   4.690   0.334   0.679
  718SOL    HW219297   4.603   0.394   0.570
  719SOL     OW19298   1.017   6.145   7.426
  719SOL    HW119299   1.096   6.092   7.432
  719SOL    HW219300   1.047   6.235   7.443
  720SOL     OW19301   0.100   2.291   1.962
  720SOL    HW119302   0.141   2.219   2.011
  720SOL    HW219303   0.094   2.362   2.026
  721SOL     OW19304   5.448   0.391   5.614
  721SOL    HW119305   5.455   0.482   5.643
  721SOL    HW219306   5.433   0.396   5.520
  722SOL     OW19307   4.900   6.297   6.903
  722SOL    HW119308   4.916   6.236   6.975
  722SOL    HW219309   4.987   6.323   6.874
  723SOL     OW19310   1.962   3.763   6.663
  723SOL    HW119311   1.878   3.753   6.617
  723SOL    HW219312   1.993   3.673   6.675
  724SOL     OW19313   1.569   1.980   0.068
  724SOL    HW119314   1.517   2.052   0.032
  724SOL    HW219315   1.577   2.001   0.161
  725SOL     OW19316   5.231   2.298   0.450
  725SOL    HW119317   5.271   2.218   0.484
  725SOL    HW219318   5.137   2.285   0.460
  726SOL     OW19319   4.480   2.482   0.587
  726SOL    HW119320   4.480   2.570   0.626
  726SOL    HW219321   4.456   2.424   0.659
  727SOL     OW19322   2.523   0.166   0.982
  727SOL    HW119323   2.461   0.092   0.979
  727SOL    HW219324   2.488   0.230   0.921
  728SOL     OW19325   2.073   2.161   6.417
  728SOL    HW119326   2.141   2.096   6.399
  728SOL    HW219327   2.081   2.225   6.347
  729SOL     OW19328   4.766   4.817   2.121
  729SOL    HW119329   4.809   4.892   2.161
  729SOL    HW219330   4.831   4.747   2.126
  730SOL     OW19331   6.349   5.689   5.289
  730SOL    HW119332   6.429   5.740   5.276
  730SOL    HW219333   6.294   5.711   5.214
  731SOL     OW19334   2.970   1.077   1.368
  731SOL    HW119335   3.038   1.024   1.326
  731SOL    HW219336   2.954   1.033   1.452
  732SOL     OW19337   4.204   5.093   6.389
  732SOL    HW119338   4.151   5.055   6.459
  732SOL    HW219339   4.292   5.060   6.405
  733SOL     OW19340   1.641   4.722   7.770
  733SOL    HW119341   1.637   4.643   7.825
  733SOL    HW219342   1.573   4.779   7.805
  734SOL     OW19343   5.311   4.177   0.745
  734SOL    HW119344   5.362   4.237   0.691
  734SOL    HW219345   5.226   4.220   0.756
  735SOL     OW19346   0.114   2.179   7.334
  735SOL    HW119347   0.057   2.231   7.391
  735SOL    HW219348   0.193   2.163   7.385
  736SOL     OW19349   0.630   1.008   6.061
  736SOL    HW119350   0.615   1.079   5.999
  736SOL    HW219351   0.548   0.958   6.062
  737SOL     OW19352   0.591   4.145   6.721
  737SOL    HW119353   0.639   4.184   6.794
  737SOL    HW219354   0.643   4.166   6.644
  738SOL     OW19355   5.498   2.955   0.006
  738SOL    HW119356   5.524   3.038  -0.032
  738SOL    HW219357   5.509   2.966   0.100
  739SOL     OW19358   2.247   2.925   0.311
  739SOL    HW119359   2.320   2.928   0.374
  739SOL    HW219360   2.209   2.839   0.323
  740SOL     OW19361   3.961   5.193   0.003
  740SOL    HW119362   3.928   5.164   0.088
  740SOL    HW219363   4.027   5.127  -0.021
  741SOL     OW19364   5.439   3.589   7.350
  741SOL    HW119365   5.458   3.672   7.395
  741SOL    HW219366   5.352   3.564   7.380
  742SOL     OW19367   0.277   4.266   1.165
  742SOL    HW119368   0.353   4.277   1.107
  742SOL    HW219369   0.314   4.233   1.247
  743SOL     OW19370   4.231   2.781   0.612
  743SOL    HW119371   4.152   2.737   0.645
  743SOL    HW219372   4.221   2.780   0.517
  744SOL     OW19373   5.485   5.281   7.360
  744SOL    HW119374   5.393   5.307   7.356
  744SOL    HW219375   5.525   5.344   7.422
  745SOL     OW19376   3.455   4.708   7.170
  745SOL    HW119377   3.383   4.740   7.115
  745SOL    HW219378   3.446   4.758   7.252
  746SOL     OW19379   1.340   5.385   2.211
  746SOL    HW119380   1.372   5.474   2.197
  746SOL    HW219381   1.414   5.339   2.250
  747SOL     OW19382   3.677   3.956   6.044
  747SOL    HW119383   3.590   3.924   6.020
  747SOL    HW219384   3.728   3.950   5.964
  748SOL     OW19385   2.399   4.868   6.374
  748SOL    HW119386   2.458   4.944   6.377
  748SOL    HW219387   2.313   4.903   6.398
  749SOL     OW19388   0.687   3.519   2.314
  749SOL    HW119389   0.648   3.594   2.270
  749SOL    HW219390   0.781   3.528   2.298
  750SOL     OW19391   0.821   5.821   0.600
  750SOL    HW119392   0.792   5.912   0.601
  750SOL    HW219393   0.753   5.773   0.647
  751SOL     OW19394   3.373   5.725   6.859
  751SOL    HW119395   3.448   5.688   6.906
  751SOL    HW219396   3.408   5.805   6.818
  752SOL     OW19397   0.353   0.830   0.158
  752SOL    HW119398   0.375   0.857   0.069
  752SOL    HW219399   0.278   0.883   0.182
  753SOL     OW19400   4.856   0.171   1.074
  753SOL    HW119401   4.774   0.220   1.088
  753SOL    HW219402   4.854   0.147   0.981
  754SOL     OW19403   3.082   1.772   6.142
  754SOL    HW119404   3.120   1.805   6.224
  754SOL    HW219405   3.135   1.695   6.121
  755SOL     OW19406   2.141   2.078   1.269
  755SOL    HW119407   2.193   2.082   1.189
  755SOL    HW219408   2.192   2.022   1.328
  756SOL     OW19409   5.589   0.856   0.666
  756SOL    HW119410   5.573   0.763   0.680
  756SOL    HW219411   5.528   0.881   0.596
  757SOL     OW19412   2.100   5.957   6.706
  757SOL    HW119413   2.138   6.008   6.777
  757SOL    HW219414   2.044   6.019   6.659
  758SOL     OW19415   3.677   0.879   5.413
  758SOL    HW119416   3.612   0.899   5.345
  758SOL    HW219417   3.744   0.947   5.403
  759SOL     OW19418   5.446   5.615   7.767
  759SOL    HW119419   5.388   5.578   7.701
  759SOL    HW219420   5.402   5.696   7.795
  760SOL     OW19421   6.192   1.857   7.200
  760SOL    HW119422   6.149   1.943   7.195
  760SOL    HW219423   6.271   1.874   7.251
  761SOL     OW19424   0.061   5.390   6.576
  761SOL    HW119425   0.003   5.449   6.624
  761SOL    HW219426   0.085   5.323   6.641
  762SOL     OW19427   2.234   0.863   1.140
  762SOL    HW119428   2.303   0.863   1.206
  762SOL    HW219429   2.153   0.866   1.190
  763SOL     OW19430   6.065   1.389   7.136
  763SOL    HW119431   6.080   1.462   7.076
  763SOL    HW219432   6.000   1.422   7.198
  764SOL     OW19433   2.870   1.222   0.696
  764SOL    HW119434   2.931   1.148   0.694
  764SOL    HW219435   2.918   1.294   0.657
  765SOL     OW19436   3.333   2.809   1.570
  765SOL    HW119437   3.408   2.863   1.544
  765SOL    HW219438   3.348   2.791   1.663
  766SOL     OW19439   2.313   3.985   5.967
  766SOL    HW119440   2.395   3.947   5.997
  766SOL    HW219441   2.332   4.079   5.958
  767SOL     OW19442   5.581   2.937   7.375
  767SOL    HW119443   5.600   3.001   7.307
  767SOL    HW219444   5.525   2.983   7.437
  768SOL     OW19445   3.234   0.510   2.057
  768SOL    HW119446   3.177   0.552   2.121
  768SOL    HW219447   3.270   0.582   2.005
  769SOL     OW19448   2.351   5.473   6.184
  769SOL    HW119449   2.370   5.382   6.162
  769SOL    HW219450   2.429   5.521   6.155
  770SOL     OW19451   5.825   6.308   6.862
  770SOL    HW119452   5.881   6.360   6.805
  770SOL    HW219453   5.818   6.359   6.942
  771SOL     OW19454   2.919   1.616   0.995
  771SOL    HW119455   2.838   1.607   0.945
  771SOL    HW219456   2.898   1.581   1.081
  772SOL     OW19457   1.584   5.664   1.406
  772SOL    HW119458   1.557   5.705   1.323
  772SOL    HW219459   1.614   5.737   1.460
  773SOL     OW19460   5.003   2.785   0.293
  773SOL    HW119461   4.943   2.791   0.367
  773SOL    HW219462   5.006   2.874   0.257
  774SOL     OW19463   6.308   3.932   6.582
  774SOL    HW119464   6.255   4.003   6.544
  774SOL    HW219465   6.393   3.940   6.538
  775SOL     OW19466   5.373   6.288   5.634
  775SOL    HW119467   5.435   6.339   5.583
  775SOL    HW219468   5.296   6.344   5.641
  776SOL     OW19469   0.321   0.234   6.379
  776SOL    HW119470   0.254   0.301   6.370
  776SOL    HW219471   0.336   0.227   6.473
  777SOL     OW19472   2.109   5.208   1.203
  777SOL    HW119473   2.070   5.220   1.116
  777SOL    HW219474   2.041   5.236   1.264
  778SOL     OW19475   2.361   3.414   6.935
  778SOL    HW119476   2.413   3.443   6.860
  778SOL    HW219477   2.399   3.330   6.959
  779SOL     OW19478   4.893   5.847   1.456
  779SOL    HW119479   4.841   5.803   1.389
  779SOL    HW219480   4.830   5.867   1.526
  780SOL     OW19481   3.644   5.267   7.518
  780SOL    HW119482   3.705   5.317   7.572
  780SOL    HW219483   3.693   5.244   7.440
  781SOL     OW19484   5.360   0.099   0.517
  781SOL    HW119485   5.312   0.148   0.583
  781SOL    HW219486   5.405   0.030   0.566
  782SOL     OW19487   5.475   2.153   5.273
  782SOL    HW119488   5.558   2.156   5.320
  782SOL    HW219489   5.497   2.181   5.184
  783SOL     OW19490   1.569   2.278   5.897
  783SOL    HW119491   1.595   2.330   5.821
  783SOL    HW219492   1.643   2.220   5.913
  784SOL     OW19493   2.571   2.684   1.505
  784SOL    HW119494   2.584   2.621   1.576
  784SOL    HW219495   2.597   2.636   1.426
  785SOL     OW19496   6.214   2.300   7.268
  785SOL    HW119497   6.218   2.395   7.255
  785SOL    HW219498   6.259   2.286   7.351
  786SOL     OW19499   2.469   0.524   0.027
  786SOL    HW119500   2.543   0.473  -0.008
  786SOL    HW219501   2.409   0.533  -0.048
  787SOL     OW19502   3.705   5.866   6.057
  787SOL    HW119503   3.737   5.865   6.147
  787SOL    HW219504   3.673   5.955   6.044
  788SOL     OW19505   1.369   2.987   0.483
  788SOL    HW119506   1.387   3.042   0.559
  788SOL    HW219507   1.400   3.040   0.409
  789SOL     OW19508   3.214   0.229   0.210
  789SOL    HW119509   3.275   0.202   0.278
  789SOL    HW219510   3.197   0.321   0.230
  790SOL     OW19511   5.890   3.261   5.769
  790SOL    HW119512   5.900   3.171   5.738
  790SOL    HW219513   5.816   3.296   5.720
  791SOL     OW19514   4.015   0.386   6.926
  791SOL    HW119515   3.963   0.325   6.979
  791SOL    HW219516   3.961   0.402   6.849
  792SOL     OW19517   3.442   4.540   5.257
  792SOL    HW119518   3.465   4.452   5.228
  792SOL    HW219519   3.451   4.537   5.352
  793SOL     OW19520   3.351   1.273   6.869
  793SOL    HW119521   3.382   1.218   6.798
  793SOL    HW219522   3.428   1.320   6.899
  794SOL     OW19523   4.081   3.842   1.767
  794SOL    HW119524   4.011   3.899   1.737
  794SOL    HW219525   4.050   3.753   1.749
  795SOL     OW19526   1.152   3.626   0.203
  795SOL    HW119527   1.202   3.548   0.177
  795SOL    HW219528   1.075   3.591   0.248
  796SOL     OW19529   4.389   0.503   1.381
  796SOL    HW119530   4.423   0.576   1.432
  796SOL    HW219531   4.362   0.543   1.298
  797SOL     OW19532   5.691   2.864   0.711
  797SOL    HW119533   5.755   2.793   0.713
  797SOL    HW219534   5.607   2.822   0.733
  798SOL     OW19535   1.657   1.003   7.464
  798SOL    HW119536   1.619   0.967   7.384
  798SOL    HW219537   1.647   0.934   7.529
  799SOL     OW19538   2.027   0.895   6.070
  799SOL    HW119539   2.111   0.909   6.026
  799SOL    HW219540   1.979   0.836   6.011
  800SOL     OW19541   5.590   4.977   6.389
  800SOL    HW119542   5.636   5.000   6.308
  800SOL    HW219543   5.546   5.057   6.416
  801SOL     OW19544   5.239   3.930   5.995
  801SOL    HW119545   5.262   3.848   5.952
  801SOL    HW219546   5.278   3.998   5.940
  802SOL     OW19547   3.698   3.283   0.750
  802SOL    HW119548   3.626   3.252   0.804
  802SOL    HW219549   3.696   3.379   0.760
  803SOL     OW19550   5.947   1.471   6.775
  803SOL    HW119551   5.965   1.508   6.689
  803SOL    HW219552   5.968   1.378   6.767
  804SOL     OW19553   2.956   2.006   7.025
  804SOL    HW119554   3.006   2.050   7.094
  804SOL    HW219555   2.890   1.956   7.072
  805SOL     OW19556   5.567   1.411   1.993
  805SOL    HW119557   5.576   1.394   1.899
  805SOL    HW219558   5.524   1.333   2.027
  806SOL     OW19559   4.104   6.000   7.278
  806SOL    HW119560   4.058   5.951   7.210
  806SOL    HW219561   4.178   6.042   7.232
  807SOL     OW19562   5.845   5.429   1.119
  807SOL    HW119563   5.822   5.377   1.196
  807SOL    HW219564   5.771   5.488   1.106
  808SOL     OW19565   4.360   1.430   0.101
  808SOL    HW119566   4.429   1.436   0.035
  808SOL    HW219567   4.405   1.395   0.178
  809SOL     OW19568   4.924   3.237   5.402
  809SOL    HW119569   4.927   3.325   5.364
  809SOL    HW219570   4.844   3.199   5.365
  810SOL     OW19571   2.569   0.984   7.758
  810SOL    HW119572   2.629   1.022   7.821
  810SOL    HW219573   2.626   0.940   7.695
  811SOL     OW19574   4.440   4.133   0.236
  811SOL    HW119575   4.418   4.057   0.289
  811SOL    HW219576   4.470   4.198   0.299
  812SOL     OW19577   6.075   0.931   6.437
  812SOL    HW119578   6.121   1.011   6.462
  812SOL    HW219579   6.111   0.863   6.495
  813SOL     OW19580   1.517   4.828   2.080
  813SOL    HW119581   1.596   4.817   2.027
  813SOL    HW219582   1.478   4.741   2.085
  814SOL     OW19583   0.388   2.302   1.758
  814SOL    HW119584   0.426   2.242   1.823
  814SOL    HW219585   0.312   2.255   1.725
  815SOL     OW19586   5.612   0.485   0.378
  815SOL    HW119587   5.707   0.484   0.370
  815SOL    HW219588   5.586   0.395   0.358
  816SOL     OW19589   0.249   4.724   6.285
  816SOL    HW119590   0.276   4.635   6.261
  816SOL    HW219591   0.204   4.757   6.208
  817SOL     OW19592   3.409   1.730   0.688
  817SOL    HW119593   3.392   1.713   0.781
  817SOL    HW219594   3.491   1.684   0.671
  818SOL     OW19595   2.895   3.430   1.004
  818SOL    HW119596   2.816   3.377   0.988
  818SOL    HW219597   2.951   3.413   0.929
  819SOL     OW19598   3.364   2.973   0.927
  819SOL    HW119599   3.339   2.883   0.947
  819SOL    HW219600   3.304   3.027   0.978
  820SOL     OW19601   2.787   5.839   1.503
  820SOL    HW119602   2.811   5.878   1.586
  820SOL    HW219603   2.865   5.851   1.447
  821SOL     OW19604   1.404   2.615   1.917
  821SOL    HW119605   1.425   2.690   1.862
  821SOL    HW219606   1.490   2.578   1.940
  822SOL     OW19607   6.384   2.430   0.077
  822SOL    HW119608   6.409   2.357   0.020
  822SOL    HW219609   6.310   2.471   0.033
  823SOL     OW19610   1.138   1.179   1.798
  823SOL    HW119611   1.229   1.166   1.825
  823SOL    HW219612   1.144   1.233   1.719
  824SOL     OW19613   1.746   0.783   1.365
  824SOL    HW119614   1.775   0.703   1.321
  824SOL    HW219615   1.689   0.752   1.436
  825SOL     OW19616   0.960   6.341   7.723
  825SOL    HW119617   0.960   6.382   7.809
  825SOL    HW219618   0.971   6.414   7.660
  826SOL     OW19619   1.838   5.951   7.534
  826SOL    HW119620   1.932   5.964   7.541
  826SOL    HW219621   1.802   5.990   7.614
  827SOL     OW19622   1.057   1.456   7.092
  827SOL    HW119623   1.075   1.490   7.180
  827SOL    HW219624   0.969   1.420   7.098
  828SOL     OW19625   1.966   2.512   1.582
  828SOL    HW119626   1.916   2.431   1.592
  828SOL    HW219627   1.902   2.582   1.595
  829SOL     OW19628   2.350   3.449   1.117
  829SOL    HW119629   2.427   3.478   1.165
  829SOL    HW219630   2.380   3.374   1.065
  830SOL     OW19631   0.104   0.313   1.454
  830SOL    HW119632   0.101   0.252   1.381
  830SOL    HW219633   0.124   0.259   1.531
  831SOL     OW19634   1.964   5.102   5.432
  831SOL    HW119635   2.056   5.123   5.414
  831SOL    HW219636   1.968   5.020   5.482
  832SOL     OW19637   1.628   1.808   7.520
  832SOL    HW119638   1.701   1.755   7.553
  832SOL    HW219639   1.558   1.745   7.505
  833SOL     OW19640   2.814   1.558   6.897
  833SOL    HW119641   2.907   1.574   6.879
  833SOL    HW219642   2.789   1.489   6.835
  834SOL     OW19643   3.473   0.356   5.488
  834SOL    HW119644   3.430   0.317   5.564
  834SOL    HW219645   3.514   0.435   5.523
  835SOL     OW19646   3.969   5.820   6.955
  835SOL    HW119647   3.905   5.751   6.938
  835SOL    HW219648   4.045   5.797   6.901
  836SOL     OW19649   6.192   4.813   6.251
  836SOL    HW119650   6.189   4.882   6.186
  836SOL    HW219651   6.208   4.733   6.201
  837SOL     OW19652   1.032   3.002   7.593
  837SOL    HW119653   1.052   2.973   7.504
  837SOL    HW219654   1.115   3.035   7.627
  838SOL     OW19655   3.074   3.530   1.551
  838SOL    HW119656   3.031   3.460   1.502
  838SOL    HW219657   3.153   3.489   1.586
  839SOL     OW19658   0.729   2.501   0.395
  839SOL    HW119659   0.808   2.545   0.426
  839SOL    HW219660   0.758   2.451   0.319
  840SOL     OW19661   0.693   4.550   1.751
  840SOL    HW119662   0.694   4.565   1.656
  840SOL    HW219663   0.647   4.468   1.762
  841SOL     OW19664   2.294   2.342   0.325
  841SOL    HW119665   2.269   2.320   0.415
  841SOL    HW219666   2.212   2.351   0.278
  842SOL     OW19667   3.548   0.741   6.333
  842SOL    HW119668   3.568   0.694   6.251
  842SOL    HW219669   3.452   0.751   6.332
  843SOL     OW19670   2.191   1.309   2.421
  843SOL    HW119671   2.267   1.321   2.478
  843SOL    HW219672   2.115   1.321   2.479
  844SOL     OW19673   2.503   1.328   5.946
  844SOL    HW119674   2.582   1.275   5.958
  844SOL    HW219675   2.529   1.397   5.886
  845SOL     OW19676   2.855   5.402   5.922
  845SOL    HW119677   2.878   5.458   5.848
  845SOL    HW219678   2.760   5.391   5.914
  846SOL     OW19679   2.267   5.860   6.159
  846SOL    HW119680   2.269   5.861   6.254
  846SOL    HW219681   2.259   5.767   6.137
  847SOL     OW19682   5.538   5.730   6.087
  847SOL    HW119683   5.445   5.753   6.091
  847SOL    HW219684   5.539   5.640   6.052
  848SOL     OW19685   3.897   6.054   1.579
  848SOL    HW119686   3.909   6.108   1.657
  848SOL    HW219687   3.803   6.037   1.577
  849SOL     OW19688   1.203   3.717   7.042
  849SOL    HW119689   1.293   3.723   7.073
  849SOL    HW219690   1.151   3.705   7.122
  850SOL     OW19691   5.178   0.736   2.400
  850SOL    HW119692   5.183   0.682   2.321
  850SOL    HW219693   5.269   0.757   2.420
  851SOL     OW19694   0.075   3.782   7.615
  851SOL    HW119695   0.039   3.777   7.706
  851SOL    HW219696   0.078   3.690   7.586
  852SOL     OW19697   5.704   6.119   0.177
  852SOL    HW119698   5.696   6.179   0.102
  852SOL    HW219699   5.796   6.125   0.203
  853SOL     OW19700   3.146   4.669   6.715
  853SOL    HW119701   3.073   4.608   6.719
  853SOL    HW219702   3.113   4.749   6.757
  854SOL     OW19703   2.259   3.425   7.544
  854SOL    HW119704   2.278   3.447   7.634
  854SOL    HW219705   2.286   3.334   7.535
  855SOL     OW19706   3.282   0.015   1.139
  855SOL    HW119707   3.304  -0.056   1.199
  855SOL    HW219708   3.335  -0.002   1.061
  856SOL     OW19709   0.559   1.417   7.722
  856SOL    HW119710   0.508   1.392   7.798
  856SOL    HW219711   0.493   1.432   7.652
  857SOL     OW19712   4.002   2.225   1.130
  857SOL    HW119713   3.944   2.195   1.200
  857SOL    HW219714   4.016   2.147   1.076
  858SOL     OW19715   1.884   3.002   7.123
  858SOL    HW119716   1.906   3.092   7.145
  858SOL    HW219717   1.820   2.975   7.189
  859SOL     OW19718   3.013   1.849   5.694
  859SOL    HW119719   3.070   1.855   5.617
  859SOL    HW219720   3.028   1.762   5.729
  860SOL     OW19721   6.076   0.237   7.241
  860SOL    HW119722   6.162   0.242   7.199
  860SOL    HW219723   6.096   0.231   7.334
  861SOL     OW19724   2.239   4.697   0.999
  861SOL    HW119725   2.155   4.736   0.973
  861SOL    HW219726   2.249   4.721   1.091
  862SOL     OW19727   2.125   6.107   1.256
  862SOL    HW119728   2.138   6.017   1.225
  862SOL    HW219729   2.209   6.150   1.239
  863SOL     OW19730   6.032   2.099   7.225
  863SOL    HW119731   6.112   2.145   7.251
  863SOL    HW219732   6.033   2.101   7.129
  864SOL     OW19733   3.346   2.209   0.288
  864SOL    HW119734   3.406   2.282   0.271
  864SOL    HW219735   3.259   2.246   0.272
  865SOL     OW19736   3.843   6.139   7.758
  865SOL    HW119737   3.835   6.230   7.728
  865SOL    HW219738   3.846   6.087   7.677
  866SOL     OW19739   3.040   6.046   2.131
  866SOL    HW119740   2.991   5.964   2.135
  866SOL    HW219741   2.973   6.113   2.114
  867SOL     OW19742   0.233   0.169   1.008
  867SOL    HW119743   0.295   0.169   0.936
  867SOL    HW219744   0.151   0.201   0.970
  868SOL     OW19745   4.473   0.407   7.065
  868SOL    HW119746   4.565   0.413   7.089
  868SOL    HW219747   4.436   0.346   7.129
  869SOL     OW19748   3.143   3.637   0.881
  869SOL    HW119749   3.116   3.551   0.852
  869SOL    HW219750   3.169   3.625   0.973
  870SOL     OW19751   5.264   5.348   6.380
  870SOL    HW119752   5.269   5.437   6.345
  870SOL    HW219753   5.229   5.360   6.469
  871SOL     OW19754   0.558   3.468   1.440
  871SOL    HW119755   0.541   3.374   1.437
  871SOL    HW219756   0.636   3.480   1.386
  872SOL     OW19757   0.852   2.715   0.566
  872SOL    HW119758   0.769   2.737   0.609
  872SOL    HW219759   0.890   2.647   0.621
  873SOL     OW19760   2.023   5.698   1.310
  873SOL    HW119761   1.976   5.737   1.384
  873SOL    HW219762   1.972   5.620   1.288
  874SOL     OW19763   4.046   0.910   1.099
  874SOL    HW119764   3.950   0.916   1.087
  874SOL    HW219765   4.072   0.839   1.040
  875SOL     OW19766   1.174   1.666   7.711
  875SOL    HW119767   1.203   1.596   7.651
  875SOL    HW219768   1.204   1.639   7.797
  876SOL     OW19769   1.306   4.129   6.261
  876SOL    HW119770   1.340   4.218   6.266
  876SOL    HW219771   1.306   4.097   6.351
  877SOL     OW19772   3.739   2.222   0.442
  877SOL    HW119773   3.826   2.204   0.480
  877SOL    HW219774   3.678   2.178   0.501
  878SOL     OW19775   0.038   0.840   0.402
  878SOL    HW119776   0.063   0.911   0.343
  878SOL    HW219777  -0.004   0.883   0.476
  879SOL     OW19778   1.690   1.070   0.717
  879SOL    HW119779   1.763   1.127   0.738
  879SOL    HW219780   1.701   1.049   0.624
  880SOL     OW19781   3.840   0.733   0.072
  880SOL    HW119782   3.890   0.733   0.154
  880SOL    HW219783   3.753   0.701   0.097
  881SOL     OW19784   1.501   3.772   1.571
  881SOL    HW119785   1.415   3.766   1.613
  881SOL    HW219786   1.484   3.813   1.486
  882SOL     OW19787   1.399   4.997   6.944
  882SOL    HW119788   1.306   5.018   6.943
  882SOL    HW219789   1.443   5.078   6.970
  883SOL     OW19790   1.522   4.114   1.155
  883SOL    HW119791   1.536   4.183   1.091
  883SOL    HW219792   1.608   4.099   1.194
  884SOL     OW19793   2.970   1.489   7.744
  884SOL    HW119794   2.912   1.414   7.730
  884SOL    HW219795   3.022   1.465   7.820
  885SOL     OW19796   6.213   3.007   1.783
  885SOL    HW119797   6.189   3.078   1.843
  885SOL    HW219798   6.298   2.976   1.816
  886SOL     OW19799   5.898   2.928   6.651
  886SOL    HW119800   5.986   2.925   6.689
  886SOL    HW219801   5.841   2.949   6.725
  887SOL     OW19802   5.055   5.980   1.817
  887SOL    HW119803   5.026   6.063   1.781
  887SOL    HW219804   5.084   6.000   1.906
  888SOL     OW19805   0.765   0.268   7.127
  888SOL    HW119806   0.836   0.326   7.153
  888SOL    HW219807   0.742   0.221   7.206
  889SOL     OW19808   5.235   6.106   0.117
  889SOL    HW119809   5.220   6.195   0.084
  889SOL    HW219810   5.316   6.112   0.167
  890SOL     OW19811   0.846   1.258   0.770
  890SOL    HW119812   0.907   1.279   0.700
  890SOL    HW219813   0.893   1.195   0.824
  891SOL     OW19814   5.596   0.998   1.590
  891SOL    HW119815   5.630   0.934   1.652
  891SOL    HW219816   5.672   1.024   1.538
  892SOL     OW19817   0.978   4.839   6.186
  892SOL    HW119818   0.886   4.862   6.193
  892SOL    HW219819   1.015   4.858   6.272
  893SOL     OW19820   2.871   0.930   7.015
  893SOL    HW119821   2.906   0.942   6.927
  893SOL    HW219822   2.947   0.940   7.073
  894SOL     OW19823   2.332   2.470   0.985
  894SOL    HW119824   2.427   2.466   0.991
  894SOL    HW219825   2.314   2.483   0.892
  895SOL     OW19826   2.669   1.857   1.252
  895SOL    HW119827   2.764   1.850   1.264
  895SOL    HW219828   2.644   1.935   1.302
  896SOL     OW19829   5.506   1.456   0.269
  896SOL    HW119830   5.443   1.526   0.289
  896SOL    HW219831   5.485   1.387   0.332
  897SOL     OW19832   1.474   6.328   1.640
  897SOL    HW119833   1.527   6.403   1.667
  897SOL    HW219834   1.536   6.256   1.632
  898SOL     OW19835   1.796   1.241   6.713
  898SOL    HW119836   1.825   1.150   6.724
  898SOL    HW219837   1.828   1.267   6.627
  899SOL     OW19838   1.873   2.576   0.028
  899SOL    HW119839   1.804   2.510   0.019
  899SOL    HW219840   1.840   2.652  -0.021
  900SOL     OW19841   0.381   0.094   7.429
  900SOL    HW119842   0.407   0.028   7.494
  900SOL    HW219843   0.332   0.045   7.363
  901SOL     OW19844   3.411   6.139   0.082
  901SOL    HW119845   3.373   6.065   0.130
  901SOL    HW219846   3.503   6.140   0.109
  902SOL     OW19847   2.672   5.692   1.885
  902SOL    HW119848   2.697   5.784   1.883
  902SOL    HW219849   2.587   5.690   1.928
  903SOL     OW19850   4.973   3.819   0.711
  903SOL    HW119851   4.985   3.819   0.806
  903SOL    HW219852   4.938   3.905   0.690
  904SOL     OW19853   5.461   0.286   6.758
  904SOL    HW119854   5.465   0.357   6.822
  904SOL    HW219855   5.528   0.308   6.693
  905SOL     OW19856   0.706   2.376   7.054
  905SOL    HW119857   0.634   2.439   7.061
  905SOL    HW219858   0.781   2.428   7.024
  906SOL     OW19859   0.213   4.917   7.653
  906SOL    HW119860   0.226   4.839   7.600
  906SOL    HW219861   0.302   4.945   7.676
  907SOL     OW19862   0.965   4.946   5.620
  907SOL    HW119863   1.007   4.995   5.691
  907SOL    HW219864   0.958   5.009   5.548
  908SOL     OW19865   0.732   0.618   6.433
  908SOL    HW119866   0.726   0.596   6.340
  908SOL    HW219867   0.818   0.658   6.443
  909SOL     OW19868   4.465   5.837   6.958
  909SOL    HW119869   4.543   5.812   7.007
  909SOL    HW219870   4.392   5.803   7.010
  910SOL     OW19871   5.281   0.391   0.308
  910SOL    HW119872   5.365   0.356   0.338
  910SOL    HW219873   5.216   0.328   0.340
  911SOL     OW19874   4.890   4.633   7.305
  911SOL    HW119875   4.937   4.652   7.224
  911SOL    HW219876   4.887   4.717   7.351
  912SOL     OW19877   3.799   5.958   6.582
  912SOL    HW119878   3.738   6.027   6.609
  912SOL    HW219879   3.883   6.003   6.574
  913SOL     OW19880   0.816   3.534   2.004
  913SOL    HW119881   0.796   3.619   2.044
  913SOL    HW219882   0.864   3.486   2.072
  914SOL     OW19883   4.224   2.767   1.528
  914SOL    HW119884   4.254   2.728   1.610
  914SOL    HW219885   4.224   2.694   1.466
  915SOL     OW19886   0.580   5.536   1.290
  915SOL    HW119887   0.528   5.613   1.270
  915SOL    HW219888   0.646   5.566   1.352
  916SOL     OW19889   3.975   3.954   0.812
  916SOL    HW119890   3.924   3.873   0.813
  916SOL    HW219891   4.007   3.964   0.901
  917SOL     OW19892   2.539   6.015   1.514
  917SOL    HW119893   2.497   5.990   1.432
  917SOL    HW219894   2.617   5.959   1.519
  918SOL     OW19895   5.347   3.721   0.365
  918SOL    HW119896   5.274   3.764   0.321
  918SOL    HW219897   5.321   3.628   0.367
  919SOL     OW19898   3.374   2.568   1.460
  919SOL    HW119899   3.416   2.532   1.538
  919SOL    HW219900   3.371   2.663   1.477
  920SOL     OW19901   0.609   2.444   0.898
  920SOL    HW119902   0.684   2.412   0.948
  920SOL    HW219903   0.609   2.538   0.912
  921SOL     OW19904   5.884   2.200   6.143
  921SOL    HW119905   5.810   2.191   6.203
  921SOL    HW219906   5.846   2.190   6.056
  922SOL     OW19907   0.338   5.695   6.336
  922SOL    HW119908   0.411   5.702   6.397
  922SOL    HW219909   0.302   5.608   6.351
  923SOL     OW19910   1.675   6.342   2.187
  923SOL    HW119911   1.741   6.411   2.188
  923SOL    HW219912   1.727   6.261   2.184
  924SOL     OW19913   1.777   2.015   0.902
  924SOL    HW119914   1.862   2.001   0.944
  924SOL    HW219915   1.799   2.038   0.812
  925SOL     OW19916   0.963   4.537   7.712
  925SOL    HW119917   0.926   4.625   7.703
  925SOL    HW219918   1.034   4.549   7.775
  926SOL     OW19919   0.624   6.222   6.196
  926SOL    HW119920   0.647   6.276   6.120
  926SOL    HW219921   0.664   6.267   6.271
  927SOL     OW19922   5.224   4.820   0.853
  927SOL    HW119923   5.135   4.823   0.818
  927SOL    HW219924   5.251   4.729   0.844
  928SOL     OW19925   1.990   4.518   6.937
  928SOL    HW119926   1.928   4.450   6.963
  928SOL    HW219927   2.063   4.470   6.898
  929SOL     OW19928   1.207   1.488   5.910
  929SOL    HW119929   1.230   1.580   5.919
  929SOL    HW219930   1.259   1.443   5.976
  930SOL     OW19931   5.712   5.066   6.155
  930SOL    HW119932   5.753   4.985   6.124
  930SOL    HW219933   5.781   5.132   6.146
  931SOL     OW19934   4.317   5.977   7.498
  931SOL    HW119935   4.240   5.956   7.445
  931SOL    HW219936   4.379   5.907   7.480
  932SOL     OW19937   5.167   4.040   2.435
  932SOL    HW119938   5.187   4.123   2.478
  932SOL    HW219939   5.235   4.031   2.368
  933SOL     OW19940   4.647   5.345   1.899
  933SOL    HW119941   4.731   5.348   1.854
  933SOL    HW219942   4.582   5.338   1.829
  934SOL     OW19943   5.189   3.166   6.399
  934SOL    HW119944   5.246   3.124   6.335
  934SOL    HW219945   5.245   3.229   6.444
  935SOL     OW19946   1.058   3.716   7.296
  935SOL    HW119947   1.043   3.768   7.375
  935SOL    HW219948   0.973   3.714   7.252
  936SOL     OW19949   1.806   0.470   0.754
  936SOL    HW119950   1.850   0.546   0.716
  936SOL    HW219951   1.718   0.501   0.776
  937SOL     OW19952   6.353   6.256   7.491
  937SOL    HW119953   6.361   6.287   7.581
  937SOL    HW219954   6.259   6.251   7.476
  938SOL     OW19955   5.938   2.474   5.381
  938SOL    HW119956   5.904   2.427   5.304
  938SOL    HW219957   5.912   2.419   5.455
  939SOL     OW19958   1.116   4.982   6.824
  939SOL    HW119959   1.053   5.045   6.859
  939SOL    HW219960   1.067   4.900   6.818
  940SOL     OW19961   6.378   0.290   7.435
  940SOL    HW119962   6.365   0.202   7.402
  940SOL    HW219963   6.380   0.281   7.530
  941SOL     OW19964   0.421   0.823   6.067
  941SOL    HW119965   0.369   0.788   5.995
  941SOL    HW219966   0.380   0.787   6.146
  942SOL     OW19967   2.437   2.231   2.245
  942SOL    HW119968   2.356   2.187   2.271
  942SOL    HW219969   2.416   2.269   2.159
  943SOL     OW19970   1.712   2.121   0.654
  943SOL    HW119971   1.629   2.073   0.649
  943SOL    HW219972   1.688   2.212   0.638
  944SOL     OW19973   3.931   1.847   1.316
  944SOL    HW119974   3.917   1.753   1.327
  944SOL    HW219975   4.000   1.854   1.251
  945SOL     OW19976   5.199   2.237   7.179
  945SOL    HW119977   5.259   2.166   7.153
  945SOL    HW219978   5.255   2.314   7.185
  946SOL     OW19979   2.908   4.496   6.734
  946SOL    HW119980   2.952   4.429   6.785
  946SOL    HW219981   2.815   4.484   6.754
  947SOL     OW19982   1.863   4.699   5.867
  947SOL    HW119983   1.835   4.710   5.958
  947SOL    HW219984   1.800   4.637   5.830
  948SOL     OW19985   0.600   1.128   7.612
  948SOL    HW119986   0.505   1.121   7.596
  948SOL    HW219987   0.628   1.201   7.557
  949SOL     OW19988   4.415   2.721   6.981
  949SOL    HW119989   4.355   2.792   6.959
  949SOL    HW219990   4.375   2.679   7.057
  950SOL     OW19991   1.866   3.448   7.404
  950SOL    HW119992   1.911   3.476   7.483
  950SOL    HW219993   1.780   3.418   7.433
  951SOL     OW19994   2.667   3.444   7.084
  951SOL    HW119995   2.730   3.465   7.015
  951SOL    HW219996   2.585   3.483   7.054
  952SOL     OW19997   4.776   4.687   6.239
  952SOL    HW119998   4.818   4.657   6.158
  952SOL    HW219999   4.723   4.612   6.266
  953SOL     OW20000   1.532   1.340   7.372
  953SOL    HW120001   1.490   1.301   7.449
  953SOL    HW220002   1.499   1.290   7.298
  954SOL     OW20003   6.344   4.008   1.210
  954SOL    HW120004   6.428   4.005   1.164
  954SOL    HW220005   6.336   4.099   1.240
  955SOL     OW20006   0.455   1.971   0.732
  955SOL    HW120007   0.545   1.973   0.699
  955SOL    HW220008   0.448   2.048   0.788
  956SOL     OW20009   2.664   5.910   6.052
  956SOL    HW120010   2.596   5.972   6.078
  956SOL    HW220011   2.703   5.948   5.974
  957SOL     OW20012   5.158   5.268   7.372
  957SOL    HW120013   5.079   5.247   7.322
  957SOL    HW220014   5.149   5.220   7.454
  958SOL     OW20015   4.055   4.766   5.833
  958SOL    HW120016   4.002   4.833   5.788
  958SOL    HW220017   4.084   4.809   5.913
  959SOL     OW20018   0.554   4.869   0.877
  959SOL    HW120019   0.524   4.958   0.897
  959SOL    HW220020   0.649   4.874   0.882
  960SOL     OW20021   3.001   1.222   6.867
  960SOL    HW120022   3.092   1.234   6.894
  960SOL    HW220023   3.002   1.142   6.815
  961SOL     OW20024   2.484   1.255   5.159
  961SOL    HW120025   2.459   1.347   5.170
  961SOL    HW220026   2.416   1.218   5.103
  962SOL     OW20027   5.064   0.523   6.111
  962SOL    HW120028   5.063   0.481   6.025
  962SOL    HW220029   5.066   0.617   6.093
  963SOL     OW20030   5.678   2.626   1.766
  963SOL    HW120031   5.673   2.531   1.776
  963SOL    HW220032   5.736   2.640   1.692
  964SOL     OW20033   3.737   4.315   0.794
  964SOL    HW120034   3.770   4.285   0.709
  964SOL    HW220035   3.813   4.315   0.851
  965SOL     OW20036   0.780   0.397   1.590
  965SOL    HW120037   0.829   0.477   1.612
  965SOL    HW220038   0.829   0.359   1.517
  966SOL     OW20039   2.323   0.791   7.078
  966SOL    HW120040   2.296   0.732   7.008
  966SOL    HW220041   2.351   0.871   7.032
  967SOL     OW20042   5.259   3.847   7.686
  967SOL    HW120043   5.193   3.833   7.753
  967SOL    HW220044   5.312   3.767   7.688
  968SOL     OW20045   6.325   3.234   0.980
  968SOL    HW120046   6.308   3.143   1.004
  968SOL    HW220047   6.320   3.236   0.885
  969SOL     OW20048   5.445   4.613   6.953
  969SOL    HW120049   5.531   4.621   6.912
  969SOL    HW220050   5.397   4.553   6.895
  970SOL     OW20051   5.054   0.258   2.198
  970SOL    HW120052   5.010   0.338   2.225
  970SOL    HW220053   5.143   0.285   2.177
  971SOL     OW20054   5.825   4.282   7.572
  971SOL    HW120055   5.760   4.344   7.540
  971SOL    HW220056   5.840   4.223   7.499
  972SOL     OW20057   4.734   1.117   6.220
  972SOL    HW120058   4.724   1.161   6.136
  972SOL    HW220059   4.828   1.123   6.239
  973SOL     OW20060   5.350   0.769   0.470
  973SOL    HW120061   5.395   0.784   0.387
  973SOL    HW220062   5.333   0.675   0.471
  974SOL     OW20063   1.495   2.722   7.175
  974SOL    HW120064   1.440   2.714   7.253
  974SOL    HW220065   1.493   2.635   7.135
  975SOL     OW20066   4.582   5.925   1.707
  975SOL    HW120067   4.643   5.856   1.734
  975SOL    HW220068   4.495   5.885   1.714
  976SOL     OW20069   6.034   4.201   7.268
  976SOL    HW120070   6.080   4.141   7.327
  976SOL    HW220071   6.059   4.173   7.180
  977SOL     OW20072   6.062   6.440   0.987
  977SOL    HW120073   6.029   6.518   1.032
  977SOL    HW220074   5.992   6.416   0.927
  978SOL     OW20075   2.726   4.638   1.308
  978SOL    HW120076   2.721   4.603   1.397
  978SOL    HW220077   2.664   4.585   1.258
  979SOL     OW20078   5.068   1.820   5.877
  979SOL    HW120079   5.004   1.835   5.807
  979SOL    HW220080   5.036   1.743   5.923
  980SOL     OW20081   5.064   4.037   6.178
  980SOL    HW120082   5.041   3.958   6.226
  980SOL    HW220083   5.101   4.005   6.095
  981SOL     OW20084   3.239   5.141   2.078
  981SOL    HW120085   3.315   5.200   2.073
  981SOL    HW220086   3.255   5.088   2.156
  982SOL     OW20087   6.297   1.358   2.228
  982SOL    HW120088   6.345   1.307   2.163
  982SOL    HW220089   6.208   1.322   2.225
  983SOL     OW20090   3.418   1.611   5.403
  983SOL    HW120091   3.483   1.594   5.472
  983SOL    HW220092   3.334   1.602   5.446
  984SOL     OW20093   1.095   0.480   5.353
  984SOL    HW120094   1.033   0.448   5.287
  984SOL    HW220095   1.110   0.406   5.411
  985SOL     OW20096   0.580   3.517   6.773
  985SOL    HW120097   0.539   3.555   6.696
  985SOL    HW220098   0.670   3.548   6.771
  986SOL     OW20099   3.593   2.040   0.588
  986SOL    HW120100   3.523   2.007   0.531
  986SOL    HW220101   3.565   2.015   0.676
  987SOL     OW20102   0.719   4.040   2.624
  987SOL    HW120103   0.654   3.977   2.655
  987SOL    HW220104   0.701   4.119   2.674
  988SOL     OW20105   0.234   4.893   1.517
  988SOL    HW120106   0.174   4.952   1.562
  988SOL    HW220107   0.177   4.827   1.477
  989SOL     OW20108   4.805   6.118   1.778
  989SOL    HW120109   4.752   6.146   1.852
  989SOL    HW220110   4.743   6.108   1.706
  990SOL     OW20111   0.849   4.055   7.187
  990SOL    HW120112   0.809   4.025   7.105
  990SOL    HW220113   0.943   4.044   7.173
  991SOL     OW20114   1.389   1.486   7.678
  991SOL    HW120115   1.415   1.424   7.747
  991SOL    HW220116   1.426   1.570   7.709
  992SOL     OW20117   2.314   1.673   0.441
  992SOL    HW120118   2.307   1.578   0.448
  992SOL    HW220119   2.408   1.690   0.442
  993SOL     OW20120   4.200   6.208   0.345
  993SOL    HW120121   4.260   6.163   0.404
  993SOL    HW220122   4.256   6.238   0.273
  994SOL     OW20123   4.866   3.442   7.036
  994SOL    HW120124   4.783   3.406   7.008
  994SOL    HW220125   4.916   3.367   7.069
  995SOL     OW20126   4.170   2.249   2.485
  995SOL    HW120127   4.216   2.326   2.451
  995SOL    HW220128   4.234   2.204   2.539
  996SOL     OW20129   1.482   0.533   6.265
  996SOL    HW120130   1.545   0.595   6.230
  996SOL    HW220131   1.438   0.498   6.188
  997SOL     OW20132   5.788   5.221   6.568
  997SOL    HW120133   5.816   5.177   6.488
  997SOL    HW220134   5.706   5.264   6.544
  998SOL     OW20135   4.063   0.393   0.962
  998SOL    HW120136   3.977   0.351   0.968
  998SOL    HW220137   4.110   0.342   0.895
  999SOL     OW20138   4.832   5.797   1.801
  999SOL    HW120139   4.865   5.878   1.841
  999SOL    HW220140   4.767   5.765   1.862
 1000SOL     OW20141   2.946   5.754   0.282
 1000SOL    HW120142   2.993   5.727   0.203
 1000SOL    HW220143   2.973   5.691   0.349
 1001SOL     OW20144   3.180   0.013   0.050
 1001SOL    HW120145   3.265  -0.014   0.017
 1001SOL    HW220146   3.198   0.087   0.108
 1002SOL     OW20147   4.387   2.951   4.986
 1002SOL    HW120148   4.452   3.002   4.938
 1002SOL    HW220149   4.430   2.924   5.066
 1003SOL     OW20150   3.267   0.021   1.480
 1003SOL    HW120151   3.324   0.071   1.538
 1003SOL    HW220152   3.321  -0.051   1.449
 1004SOL     OW20153   0.208   4.348   7.640
 1004SOL    HW120154   0.295   4.307   7.636
 1004SOL    HW220155   0.172   4.319   7.726
 1005SOL     OW20156   0.559   5.365   6.677
 1005SOL    HW120157   0.650   5.352   6.651
 1005SOL    HW220158   0.509   5.334   6.601
 1006SOL     OW20159   4.695   5.304   0.128
 1006SOL    HW120160   4.672   5.396   0.122
 1006SOL    HW220161   4.690   5.284   0.222
 1007SOL     OW20162   1.530   6.388   5.982
 1007SOL    HW120163   1.506   6.305   5.941
 1007SOL    HW220164   1.446   6.431   6.000
 1008SOL     OW20165   2.782   3.660   7.353
 1008SOL    HW120166   2.867   3.674   7.393
 1008SOL    HW220167   2.773   3.564   7.349
 1009SOL     OW20168   2.254   4.391   6.976
 1009SOL    HW120169   2.253   4.296   6.983
 1009SOL    HW220170   2.300   4.409   6.894
 1010SOL     OW20171   1.454   0.236   5.799
 1010SOL    HW120172   1.542   0.206   5.777
 1010SOL    HW220173   1.395   0.172   5.759
 1011SOL     OW20174   5.915   4.389   1.088
 1011SOL    HW120175   5.869   4.382   1.171
 1011SOL    HW220176   5.854   4.437   1.031
 1012SOL     OW20177   3.570   1.125   6.738
 1012SOL    HW120178   3.593   1.039   6.774
 1012SOL    HW220179   3.648   1.179   6.752
 1013SOL     OW20180   6.418   1.238   6.753
 1013SOL    HW120181   6.429   1.333   6.757
 1013SOL    HW220182   6.362   1.217   6.827
 1014SOL     OW20183   0.001   1.711   6.747
 1014SOL    HW120184   0.004   1.778   6.815
 1014SOL    HW220185   0.057   1.746   6.677
 1015SOL     OW20186   4.889   6.365   6.334
 1015SOL    HW120187   4.838   6.384   6.255
 1015SOL    HW220188   4.949   6.439   6.342
 1016SOL     OW20189   0.064   0.897   1.161
 1016SOL    HW120190   0.152   0.918   1.190
 1016SOL    HW220191   0.016   0.878   1.242
 1017SOL     OW20192   1.434   0.891   1.794
 1017SOL    HW120193   1.459   0.958   1.857
 1017SOL    HW220194   1.464   0.809   1.834
 1018SOL     OW20195   2.616   0.149   1.779
 1018SOL    HW120196   2.534   0.198   1.780
 1018SOL    HW220197   2.632   0.127   1.871
 1019SOL     OW20198   1.787   0.365   6.780
 1019SOL    HW120199   1.712   0.323   6.821
 1019SOL    HW220200   1.819   0.426   6.846
 1020SOL     OW20201   1.421   4.583   6.637
 1020SOL    HW120202   1.483   4.518   6.673
 1020SOL    HW220203   1.453   4.667   6.670
 1021SOL     OW20204   1.251   1.259   0.064
 1021SOL    HW120205   1.335   1.223   0.035
 1021SOL    HW220206   1.191   1.240  -0.008
 1022SOL     OW20207   1.866   1.663   7.410
 1022SOL    HW120208   1.870   1.648   7.316
 1022SOL    HW220209   1.847   1.757   7.418
 1023SOL     OW20210   3.125   4.415   0.716
 1023SOL    HW120211   3.101   4.490   0.771
 1023SOL    HW220212   3.087   4.340   0.761
 1024SOL     OW20213   5.300   4.325   1.192
 1024SOL    HW120214   5.249   4.248   1.219
 1024SOL    HW220215   5.329   4.364   1.274
 1025SOL     OW20216   4.646   3.239   1.862
 1025SOL    HW120217   4.678   3.326   1.887
 1025SOL    HW220218   4.724   3.183   1.865
 1026SOL     OW20219   2.657   0.765   7.054
 1026SOL    HW120220   2.729   0.828   7.048
 1026SOL    HW220221   2.584   0.816   7.088
 1027SOL     OW20222   1.451   6.116   0.586
 1027SOL    HW120223   1.500   6.109   0.668
 1027SOL    HW220224   1.452   6.210   0.565
 1028SOL     OW20225   2.646   1.975   6.464
 1028SOL    HW120226   2.608   1.984   6.551
 1028SOL    HW220227   2.580   2.009   6.405
 1029SOL     OW20228   4.901   0.511   7.584
 1029SOL    HW120229   4.932   0.476   7.500
 1029SOL    HW220230   4.814   0.471   7.595
 1030SOL     OW20231   2.988   4.911   1.064
 1030SOL    HW120232   3.004   4.817   1.068
 1030SOL    HW220233   2.928   4.929   1.137
 1031SOL     OW20234   2.972   4.031   2.117
 1031SOL    HW120235   2.880   4.031   2.094
 1031SOL    HW220236   2.998   3.939   2.116
 1032SOL     OW20237   1.158   3.314   0.245
 1032SOL    HW120238   1.178   3.222   0.229
 1032SOL    HW220239   1.088   3.313   0.311
 1033SOL     OW20240   4.950   1.170   5.991
 1033SOL    HW120241   4.974   1.156   5.899
 1033SOL    HW220242   4.855   1.172   5.991
 1034SOL     OW20243   4.582   0.406   5.496
 1034SOL    HW120244   4.550   0.345   5.431
 1034SOL    HW220245   4.655   0.360   5.538
 1035SOL     OW20246   5.624   1.415   6.765
 1035SOL    HW120247   5.688   1.419   6.694
 1035SOL    HW220248   5.644   1.335   6.812
 1036SOL     OW20249   4.568   4.503   7.592
 1036SOL    HW120250   4.585   4.411   7.617
 1036SOL    HW220251   4.486   4.525   7.636
 1037SOL     OW20252   0.785   3.010   6.283
 1037SOL    HW120253   0.788   3.079   6.217
 1037SOL    HW220254   0.736   2.939   6.242
 1038SOL     OW20255   6.294   5.424   0.903
 1038SOL    HW120256   6.368   5.378   0.864
 1038SOL    HW220257   6.266   5.368   0.976
 1039SOL     OW20258   2.169   1.554   6.768
 1039SOL    HW120259   2.107   1.507   6.825
 1039SOL    HW220260   2.253   1.545   6.812
 1040SOL     OW20261   3.974   2.037   5.617
 1040SOL    HW120262   3.962   1.978   5.692
 1040SOL    HW220263   4.011   2.117   5.655
 1041SOL     OW20264   5.433   0.999   0.078
 1041SOL    HW120265   5.413   0.908   0.100
 1041SOL    HW220266   5.367   1.023   0.013
 1042SOL     OW20267   0.686   0.317   0.216
 1042SOL    HW120268   0.614   0.285   0.270
 1042SOL    HW220269   0.765   0.298   0.267
 1043SOL     OW20270   3.765   0.755   7.534
 1043SOL    HW120271   3.775   0.836   7.584
 1043SOL    HW220272   3.723   0.695   7.595
 1044SOL     OW20273   2.285   1.794   2.261
 1044SOL    HW120274   2.368   1.787   2.309
 1044SOL    HW220275   2.304   1.755   2.175
 1045SOL     OW20276   5.075   3.439   6.837
 1045SOL    HW120277   5.112   3.493   6.908
 1045SOL    HW220278   4.992   3.407   6.873
 1046SOL     OW20279   4.993   4.789   7.671
 1046SOL    HW120280   5.010   4.701   7.707
 1046SOL    HW220281   4.984   4.844   7.749
 1047SOL     OW20282   2.077   1.148   0.548
 1047SOL    HW120283   2.014   1.166   0.618
 1047SOL    HW220284   2.082   1.230   0.499
 1048SOL     OW20285   5.156   1.471   7.153
 1048SOL    HW120286   5.064   1.468   7.127
 1048SOL    HW220287   5.167   1.395   7.209
 1049SOL     OW20288   4.988   6.110   1.351
 1049SOL    HW120289   4.966   6.016   1.354
 1049SOL    HW220290   5.015   6.126   1.261
 1050SOL     OW20291   4.992   5.903   0.284
 1050SOL    HW120292   5.067   5.844   0.297
 1050SOL    HW220293   5.032   5.988   0.265
 1051SOL     OW20294   5.797   0.304   0.739
 1051SOL    HW120295   5.721   0.251   0.763
 1051SOL    HW220296   5.850   0.246   0.683
 1052SOL     OW20297   0.023   1.631   6.181
 1052SOL    HW120298   0.093   1.604   6.121
 1052SOL    HW220299   0.064   1.632   6.268
 1053SOL     OW20300   5.185   2.494   1.560
 1053SOL    HW120301   5.279   2.472   1.562
 1053SOL    HW220302   5.170   2.538   1.643
 1054SOL     OW20303   4.212   4.776   7.471
 1054SOL    HW120304   4.269   4.781   7.395
 1054SOL    HW220305   4.217   4.684   7.499
 1055SOL     OW20306   0.472   1.764   1.378
 1055SOL    HW120307   0.447   1.802   1.463
 1055SOL    HW220308   0.565   1.745   1.387
 1056SOL     OW20309   5.459   6.134   0.273
 1056SOL    HW120310   5.441   6.057   0.327
 1056SOL    HW220311   5.538   6.112   0.224
 1057SOL     OW20312   1.885   2.076   1.384
 1057SOL    HW120313   1.969   2.073   1.339
 1057SOL    HW220314   1.821   2.095   1.315
 1058SOL     OW20315   0.335   1.749   7.290
 1058SOL    HW120316   0.318   1.783   7.203
 1058SOL    HW220317   0.317   1.655   7.284
 1059SOL     OW20318   4.493   3.331   6.075
 1059SOL    HW120319   4.452   3.264   6.128
 1059SOL    HW220320   4.577   3.348   6.118
 1060SOL     OW20321   3.792   6.275   6.381
 1060SOL    HW120322   3.818   6.353   6.430
 1060SOL    HW220323   3.722   6.235   6.434
 1061SOL     OW20324   1.574   1.647   6.225
 1061SOL    HW120325   1.574   1.683   6.136
 1061SOL    HW220326   1.496   1.591   6.228
 1062SOL     OW20327   1.273   0.900   0.733
 1062SOL    HW120328   1.234   0.879   0.818
 1062SOL    HW220329   1.199   0.906   0.673
 1063SOL     OW20330   4.808   1.578   1.495
 1063SOL    HW120331   4.760   1.608   1.573
 1063SOL    HW220332   4.808   1.483   1.502
 1064SOL     OW20333   2.062   2.931   6.902
 1064SOL    HW120334   1.999   3.003   6.907
 1064SOL    HW220335   2.079   2.906   6.993
 1065SOL     OW20336   3.202   5.026   0.476
 1065SOL    HW120337   3.175   4.938   0.450
 1065SOL    HW220338   3.213   5.022   0.570
 1066SOL     OW20339   3.104   6.324   6.068
 1066SOL    HW120340   3.088   6.244   6.118
 1066SOL    HW220341   3.133   6.387   6.133
 1067SOL     OW20342   2.697   1.205   5.756
 1067SOL    HW120343   2.660   1.275   5.702
 1067SOL    HW220344   2.674   1.125   5.710
 1068SOL     OW20345   2.479   0.667   7.541
 1068SOL    HW120346   2.553   0.607   7.533
 1068SOL    HW220347   2.499   0.739   7.481
 1069SOL     OW20348   5.228   1.899   0.854
 1069SOL    HW120349   5.184   1.814   0.858
 1069SOL    HW220350   5.177   1.955   0.913
 1070SOL     OW20351   3.581   4.021   7.216
 1070SOL    HW120352   3.597   4.014   7.122
 1070SOL    HW220353   3.609   3.937   7.251
 1071SOL     OW20354   1.115   3.849   0.816
 1071SOL    HW120355   1.153   3.762   0.827
 1071SOL    HW220356   1.029   3.833   0.777
 1072SOL     OW20357   0.559   5.376   0.044
 1072SOL    HW120358   0.640   5.417   0.012
 1072SOL    HW220359   0.491   5.409  -0.014
 1073SOL     OW20360   0.666   0.740   1.436
 1073SOL    HW120361   0.708   0.740   1.522
 1073SOL    HW220362   0.738   0.754   1.374
 1074SOL     OW20363   3.012   0.439   5.998
 1074SOL    HW120364   3.063   0.515   5.970
 1074SOL    HW220365   3.049   0.366   5.949
 1075SOL     OW20366   0.685   1.062   6.944
 1075SOL    HW120367   0.679   1.039   6.851
 1075SOL    HW220368   0.599   1.097   6.965
 1076SOL     OW20369   3.176   4.560   7.044
 1076SOL    HW120370   3.187   4.627   6.977
 1076SOL    HW220371   3.136   4.606   7.118
 1077SOL     OW20372   0.915   2.618   7.035
 1077SOL    HW120373   0.900   2.622   7.130
 1077SOL    HW220374   0.879   2.700   7.002
 1078SOL     OW20375   3.303   0.951   1.955
 1078SOL    HW120376   3.281   1.042   1.938
 1078SOL    HW220377   3.393   0.941   1.922
 1079SOL     OW20378   1.923   5.615   7.513
 1079SOL    HW120379   1.921   5.574   7.426
 1079SOL    HW220380   1.962   5.701   7.499
 1080SOL     OW20381   3.148   5.661   0.800
 1080SOL    HW120382   3.090   5.586   0.795
 1080SOL    HW220383   3.231   5.625   0.832
 1081SOL     OW20384   0.281   3.424   1.110
 1081SOL    HW120385   0.220   3.352   1.130
 1081SOL    HW220386   0.272   3.484   1.184
 1082SOL     OW20387   4.896   3.860   6.001
 1082SOL    HW120388   4.896   3.824   5.912
 1082SOL    HW220389   4.920   3.786   6.056
 1083SOL     OW20390   0.349   0.696   0.790
 1083SOL    HW120391   0.337   0.606   0.760
 1083SOL    HW220392   0.283   0.747   0.743
 1084SOL     OW20393   0.789   1.496   0.564
 1084SOL    HW120394   0.881   1.513   0.542
 1084SOL    HW220395   0.788   1.489   0.659
 1085SOL     OW20396   2.442   2.209   1.264
 1085SOL    HW120397   2.361   2.242   1.304
 1085SOL    HW220398   2.412   2.152   1.193
 1086SOL     OW20399   2.861   4.655   0.639
 1086SOL    HW120400   2.943   4.649   0.688
 1086SOL    HW220401   2.799   4.603   0.690
 1087SOL     OW20402   4.120   1.897   5.436
 1087SOL    HW120403   4.086   1.967   5.492
 1087SOL    HW220404   4.043   1.847   5.410
 1088SOL     OW20405   2.413   5.732   1.022
 1088SOL    HW120406   2.491   5.700   1.068
 1088SOL    HW220407   2.365   5.782   1.087
 1089SOL     OW20408   5.922   5.054   0.795
 1089SOL    HW120409   5.876   5.136   0.811
 1089SOL    HW220410   5.933   5.014   0.882
 1090SOL     OW20411   5.385   3.741   1.064
 1090SOL    HW120412   5.350   3.708   0.982
 1090SOL    HW220413   5.314   3.730   1.127
 1091SOL     OW20414   2.146   3.434   0.038
 1091SOL    HW120415   2.181   3.345   0.028
 1091SOL    HW220416   2.064   3.422   0.085
 1092SOL     OW20417   0.087   1.853   1.967
 1092SOL    HW120418   0.130   1.861   2.052
 1092SOL    HW220419   0.098   1.761   1.944
 1093SOL     OW20420   4.749   6.161   7.150
 1093SOL    HW120421   4.840   6.135   7.166
 1093SOL    HW220422   4.727   6.219   7.223
 1094SOL     OW20423   4.210   1.376   7.048
 1094SOL    HW120424   4.302   1.361   7.025
 1094SOL    HW220425   4.167   1.396   6.965
 1095SOL     OW20426   2.840   3.668   0.764
 1095SOL    HW120427   2.860   3.666   0.670
 1095SOL    HW220428   2.926   3.665   0.806
 1096SOL     OW20429   0.584   3.417   7.691
 1096SOL    HW120430   0.653   3.352   7.679
 1096SOL    HW220431   0.626   3.491   7.735
 1097SOL     OW20432   2.507   5.490   1.347
 1097SOL    HW120433   2.517   5.532   1.433
 1097SOL    HW220434   2.484   5.561   1.288
 1098SOL     OW20435   0.930   2.551   7.759
 1098SOL    HW120436   0.926   2.605   7.839
 1098SOL    HW220437   0.857   2.490   7.768
 1099SOL     OW20438   4.331   4.441   0.305
 1099SOL    HW120439   4.259   4.426   0.243
 1099SOL    HW220440   4.373   4.521   0.273
 1100SOL     OW20441   5.990   4.400   0.703
 1100SOL    HW120442   5.915   4.352   0.737
 1100SOL    HW220443   5.955   4.487   0.683
 1101SOL     OW20444   2.422   3.538   7.342
 1101SOL    HW120445   2.357   3.517   7.409
 1101SOL    HW220446   2.492   3.475   7.357
 1102SOL     OW20447   2.773   0.950   0.667
 1102SOL    HW120448   2.774   0.986   0.578
 1102SOL    HW220449   2.717   1.011   0.716
 1103SOL     OW20450   5.523   0.040   5.472
 1103SOL    HW120451   5.506   0.130   5.444
 1103SOL    HW220452   5.560  -0.002   5.395
 1104SOL     OW20453   5.817   1.063   1.427
 1104SOL    HW120454   5.757   1.126   1.387
 1104SOL    HW220455   5.891   1.058   1.367
 1105SOL     OW20456   2.682   3.093   0.687
 1105SOL    HW120457   2.696   3.154   0.614
 1105SOL    HW220458   2.732   3.015   0.662
 1106SOL     OW20459   3.239   3.980   7.044
 1106SOL    HW120460   3.262   4.067   7.010
 1106SOL    HW220461   3.322   3.942   7.070
 1107SOL     OW20462   0.970   5.489   7.362
 1107SOL    HW120463   0.961   5.584   7.370
 1107SOL    HW220464   1.062   5.475   7.342
 1108SOL     OW20465   2.576   2.130   1.502
 1108SOL    HW120466   2.604   2.198   1.564
 1108SOL    HW220467   2.588   2.170   1.416
 1109SOL     OW20468   5.673   3.990   7.644
 1109SOL    HW120469   5.760   4.014   7.612
 1109SOL    HW220470   5.686   3.970   7.738
 1110SOL     OW20471   5.802   3.433   1.932
 1110SOL    HW120472   5.714   3.470   1.930
 1110SOL    HW220473   5.832   3.448   2.022
 1111SOL     OW20474   5.474   3.157   1.448
 1111SOL    HW120475   5.432   3.228   1.497
 1111SOL    HW220476   5.563   3.187   1.433
 1112SOL     OW20477   1.985   2.569   2.042
 1112SOL    HW120478   1.976   2.474   2.042
 1112SOL    HW220479   2.027   2.590   2.125
 1113SOL     OW20480   1.956   1.403   6.932
 1113SOL    HW120481   1.878   1.431   6.884
 1113SOL    HW220482   1.994   1.333   6.879
 1114SOL     OW20483   6.365   1.165   0.832
 1114SOL    HW120484   6.385   1.217   0.754
 1114SOL    HW220485   6.434   1.099   0.835
 1115SOL     OW20486   2.778   0.339   7.123
 1115SOL    HW120487   2.694   0.385   7.132
 1115SOL    HW220488   2.839   0.405   7.093
 1116SOL     OW20489   6.364   5.654   7.057
 1116SOL    HW120490   6.286   5.638   7.005
 1116SOL    HW220491   6.333   5.651   7.148
 1117SOL     OW20492   3.437   3.830   5.905
 1117SOL    HW120493   3.346   3.801   5.900
 1117SOL    HW220494   3.458   3.859   5.816
 1118SOL     OW20495   5.806   0.910   0.047
 1118SOL    HW120496   5.851   0.962  -0.020
 1118SOL    HW220497   5.722   0.954   0.059
 1119SOL     OW20498   0.149   3.874   7.360
 1119SOL    HW120499   0.113   3.833   7.438
 1119SOL    HW220500   0.080   3.869   7.295
 1120SOL     OW20501   3.346   6.411   6.181
 1120SOL    HW120502   3.423   6.458   6.213
 1120SOL    HW220503   3.376   6.320   6.173
 1121SOL     OW20504   3.197   3.698   0.134
 1121SOL    HW120505   3.119   3.652   0.103
 1121SOL    HW220506   3.264   3.630   0.142
 1122SOL     OW20507   3.787   0.324   6.036
 1122SOL    HW120508   3.701   0.357   6.008
 1122SOL    HW220509   3.850   0.374   5.984
 1123SOL     OW20510   4.280   0.918   6.626
 1123SOL    HW120511   4.242   0.994   6.581
 1123SOL    HW220512   4.267   0.937   6.719
 1124SOL     OW20513   5.887   1.902   2.309
 1124SOL    HW120514   5.803   1.934   2.343
 1124SOL    HW220515   5.933   1.981   2.280
 1125SOL     OW20516   5.684   6.165   7.275
 1125SOL    HW120517   5.660   6.072   7.269
 1125SOL    HW220518   5.778   6.164   7.291
 1126SOL     OW20519   4.334   0.511   7.529
 1126SOL    HW120520   4.341   0.416   7.524
 1126SOL    HW220521   4.381   0.543   7.452
 1127SOL     OW20522   5.208   6.302   6.882
 1127SOL    HW120523   5.252   6.382   6.852
 1127SOL    HW220524   5.277   6.254   6.928
 1128SOL     OW20525   1.232   2.252   6.553
 1128SOL    HW120526   1.253   2.336   6.593
 1128SOL    HW220527   1.279   2.187   6.605
 1129SOL     OW20528   4.683   4.148   2.206
 1129SOL    HW120529   4.615   4.154   2.273
 1129SOL    HW220530   4.756   4.105   2.249
 1130SOL     OW20531   3.600   2.913   0.296
 1130SOL    HW120532   3.681   2.961   0.312
 1130SOL    HW220533   3.536   2.981   0.272
 1131SOL     OW20534   0.659   2.828   0.700
 1131SOL    HW120535   0.626   2.765   0.764
 1131SOL    HW220536   0.584   2.887   0.685
 1132SOL     OW20537   6.114   2.071   7.498
 1132SOL    HW120538   6.117   1.997   7.559
 1132SOL    HW220539   6.061   2.041   7.425
 1133SOL     OW20540   5.244   1.478   0.566
 1133SOL    HW120541   5.323   1.436   0.599
 1133SOL    HW220542   5.250   1.568   0.596
 1134SOL     OW20543   5.836   0.861   0.995
 1134SOL    HW120544   5.890   0.923   0.946
 1134SOL    HW220545   5.868   0.867   1.085
 1135SOL     OW20546   0.379   4.592   7.137
 1135SOL    HW120547   0.404   4.501   7.118
 1135SOL    HW220548   0.289   4.586   7.169
 1136SOL     OW20549   3.849   5.893   7.215
 1136SOL    HW120550   3.859   5.860   7.126
 1136SOL    HW220551   3.766   5.940   7.214
 1137SOL     OW20552   1.724   6.029   0.490
 1137SOL    HW120553   1.705   6.014   0.398
 1137SOL    HW220554   1.759   6.118   0.493
 1138SOL     OW20555   4.414   2.326   0.347
 1138SOL    HW120556   4.422   2.399   0.408
 1138SOL    HW220557   4.501   2.288   0.342
 1139SOL     OW20558   6.097   2.906   5.090
 1139SOL    HW120559   6.028   2.895   5.025
 1139SOL    HW220560   6.074   2.845   5.160
 1140SOL     OW20561   3.153   6.236   0.264
 1140SOL    HW120562   3.234   6.267   0.304
 1140SOL    HW220563   3.135   6.297   0.193
 1141SOL     OW20564   0.196   1.999   5.768
 1141SOL    HW120565   0.214   2.084   5.809
 1141SOL    HW220566   0.180   1.940   5.842
 1142SOL     OW20567   3.054   2.270   6.568
 1142SOL    HW120568   3.048   2.206   6.639
 1142SOL    HW220569   2.966   2.271   6.529
 1143SOL     OW20570   0.044   3.234   7.725
 1143SOL    HW120571   0.068   3.166   7.787
 1143SOL    HW220572   0.054   3.192   7.637
 1144SOL     OW20573   4.243   1.102   1.020
 1144SOL    HW120574   4.159   1.123   1.063
 1144SOL    HW220575   4.228   1.123   0.928
 1145SOL     OW20576   3.646   2.392   5.673
 1145SOL    HW120577   3.715   2.455   5.694
 1145SOL    HW220578   3.637   2.397   5.578
 1146SOL     OW20579   0.977   4.974   0.714
 1146SOL    HW120580   1.065   4.967   0.751
 1146SOL    HW220581   0.989   5.022   0.633
 1147SOL     OW20582   4.658   6.163   0.303
 1147SOL    HW120583   4.686   6.193   0.389
 1147SOL    HW220584   4.739   6.139   0.259
 1148SOL     OW20585   4.544   0.030   6.120
 1148SOL    HW120586   4.532   0.091   6.047
 1148SOL    HW220587   4.632  -0.006   6.107
 1149SOL     OW20588   2.393   2.450   0.056
 1149SOL    HW120589   2.363   2.480   0.141
 1149SOL    HW220590   2.327   2.483  -0.006
 1150SOL     OW20591   5.630   3.308   6.221
 1150SOL    HW120592   5.548   3.338   6.182
 1150SOL    HW220593   5.634   3.215   6.201
 1151SOL     OW20594   3.843   5.744   5.583
 1151SOL    HW120595   3.749   5.733   5.572
 1151SOL    HW220596   3.857   5.839   5.578
 1152SOL     OW20597   2.314   1.744   7.413
 1152SOL    HW120598   2.372   1.811   7.449
 1152SOL    HW220599   2.270   1.707   7.489
 1153SOL     OW20600   3.302   4.885   5.315
 1153SOL    HW120601   3.264   4.866   5.401
 1153SOL    HW220602   3.343   4.803   5.288
 1154SOL     OW20603   4.488   0.246   1.855
 1154SOL    HW120604   4.428   0.237   1.928
 1154SOL    HW220605   4.544   0.319   1.879
 1155SOL     OW20606   4.305   1.730   0.641
 1155SOL    HW120607   4.239   1.758   0.577
 1155SOL    HW220608   4.257   1.674   0.702
 1156SOL     OW20609   2.133   0.340   7.189
 1156SOL    HW120610   2.140   0.374   7.278
 1156SOL    HW220611   2.218   0.358   7.150
 1157SOL     OW20612   0.392   1.796   1.978
 1157SOL    HW120613   0.354   1.802   2.066
 1157SOL    HW220614   0.357   1.714   1.943
 1158SOL     OW20615   6.376   3.552   7.204
 1158SOL    HW120616   6.386   3.459   7.227
 1158SOL    HW220617   6.458   3.574   7.160
 1159SOL     OW20618   0.249   1.471   7.373
 1159SOL    HW120619   0.200   1.404   7.325
 1159SOL    HW220620   0.341   1.446   7.363
 1160SOL     OW20621   0.322   4.474   0.203
 1160SOL    HW120622   0.403   4.491   0.252
 1160SOL    HW220623   0.338   4.511   0.117
 1161SOL     OW20624   1.660   3.643   7.724
 1161SOL    HW120625   1.686   3.723   7.677
 1161SOL    HW220626   1.678   3.661   7.816
 1162SOL     OW20627   3.698   5.208   1.324
 1162SOL    HW120628   3.698   5.282   1.262
 1162SOL    HW220629   3.700   5.249   1.410
 1163SOL     OW20630   3.997   3.034   0.019
 1163SOL    HW120631   4.081   3.009  -0.018
 1163SOL    HW220632   3.932   2.994  -0.039
 1164SOL     OW20633   5.250   3.908   6.787
 1164SOL    HW120634   5.155   3.912   6.792
 1164SOL    HW220635   5.270   3.909   6.693
 1165SOL     OW20636   3.955   0.488   0.479
 1165SOL    HW120637   4.043   0.519   0.457
 1165SOL    HW220638   3.955   0.396   0.452
 1166SOL     OW20639   4.478   1.600   7.682
 1166SOL    HW120640   4.402   1.579   7.628
 1166SOL    HW220641   4.463   1.690   7.712
 1167SOL     OW20642   3.830   0.147   6.981
 1167SOL    HW120643   3.746   0.162   6.939
 1167SOL    HW220644   3.849   0.054   6.966
 1168SOL     OW20645   2.506   6.135   5.324
 1168SOL    HW120646   2.416   6.125   5.355
 1168SOL    HW220647   2.511   6.227   5.296
 1169SOL     OW20648   0.909   4.027   6.156
 1169SOL    HW120649   0.938   3.984   6.236
 1169SOL    HW220650   0.915   3.960   6.089
 1170SOL     OW20651   3.259   4.853   1.306
 1170SOL    HW120652   3.181   4.830   1.358
 1170SOL    HW220653   3.331   4.847   1.368
 1171SOL     OW20654   5.392   4.773   1.271
 1171SOL    HW120655   5.451   4.741   1.203
 1171SOL    HW220656   5.322   4.817   1.223
 1172SOL     OW20657   0.648   1.699   6.359
 1172SOL    HW120658   0.653   1.701   6.263
 1172SOL    HW220659   0.571   1.752   6.380
 1173SOL     OW20660   3.606   3.064   2.076
 1173SOL    HW120661   3.629   3.028   1.990
 1173SOL    HW220662   3.585   3.156   2.059
 1174SOL     OW20663   0.033   1.990   0.921
 1174SOL    HW120664   0.005   2.071   0.966
 1174SOL    HW220665   0.039   1.925   0.991
 1175SOL     OW20666   4.610   3.539   6.207
 1175SOL    HW120667   4.608   3.598   6.132
 1175SOL    HW220668   4.703   3.530   6.228
 1176SOL     OW20669   4.387   3.842   0.306
 1176SOL    HW120670   4.394   3.848   0.210
 1176SOL    HW220671   4.417   3.753   0.326
 1177SOL     OW20672   6.407   2.175   1.116
 1177SOL    HW120673   6.485   2.146   1.164
 1177SOL    HW220674   6.398   2.268   1.140
 1178SOL     OW20675   2.058   4.843   7.697
 1178SOL    HW120676   2.049   4.926   7.744
 1178SOL    HW220677   2.047   4.775   7.763
 1179SOL     OW20678   0.057   4.906   1.115
 1179SOL    HW120679   0.070   4.837   1.049
 1179SOL    HW220680   0.015   4.861   1.188
 1180SOL     OW20681   2.532   3.508   6.698
 1180SOL    HW120682   2.611   3.523   6.750
 1180SOL    HW220683   2.537   3.574   6.628
 1181SOL     OW20684   5.487   3.781   5.308
 1181SOL    HW120685   5.497   3.863   5.357
 1181SOL    HW220686   5.574   3.741   5.311
 1182SOL     OW20687   4.067   5.843   0.824
 1182SOL    HW120688   4.057   5.826   0.730
 1182SOL    HW220689   4.005   5.783   0.865
 1183SOL     OW20690   2.624   4.367   0.449
 1183SOL    HW120691   2.597   4.342   0.361
 1183SOL    HW220692   2.719   4.371   0.445
 1184SOL     OW20693   2.163   2.341   6.608
 1184SOL    HW120694   2.196   2.298   6.687
 1184SOL    HW220695   2.161   2.272   6.542
 1185SOL     OW20696   4.319   3.542   6.230
 1185SOL    HW120697   4.298   3.470   6.171
 1185SOL    HW220698   4.414   3.539   6.240
 1186SOL     OW20699   5.845   2.265   7.774
 1186SOL    HW120700   5.783   2.215   7.722
 1186SOL    HW220701   5.838   2.227   7.861
 1187SOL     OW20702   4.116   4.586   6.099
 1187SOL    HW120703   4.189   4.528   6.121
 1187SOL    HW220704   4.151   4.674   6.110
 1188SOL     OW20705   0.932   0.007   6.638
 1188SOL    HW120706   0.950  -0.051   6.564
 1188SOL    HW220707   0.921  -0.051   6.713
 1189SOL     OW20708   2.251   3.363   1.372
 1189SOL    HW120709   2.306   3.429   1.413
 1189SOL    HW220710   2.281   3.359   1.281
 1190SOL     OW20711   2.801   1.535   1.215
 1190SOL    HW120712   2.724   1.589   1.232
 1190SOL    HW220713   2.812   1.483   1.295
 1191SOL     OW20714   5.923   1.204   2.112
 1191SOL    HW120715   5.987   1.170   2.174
 1191SOL    HW220716   5.891   1.285   2.152
 1192SOL     OW20717   2.801   5.471   1.172
 1192SOL    HW120718   2.792   5.423   1.090
 1192SOL    HW220719   2.896   5.483   1.183
 1193SOL     OW20720   0.362   1.764   6.055
 1193SOL    HW120721   0.280   1.765   6.006
 1193SOL    HW220722   0.360   1.844   6.108
 1194SOL     OW20723   5.040   0.325   0.723
 1194SOL    HW120724   4.971   0.369   0.772
 1194SOL    HW220725   5.104   0.300   0.790
 1195SOL     OW20726   6.161   0.407   1.027
 1195SOL    HW120727   6.109   0.488   1.025
 1195SOL    HW220728   6.096   0.337   1.036
 1196SOL     OW20729   4.540   1.969   2.258
 1196SOL    HW120730   4.598   1.909   2.212
 1196SOL    HW220731   4.584   1.985   2.342
 1197SOL     OW20732   4.710   6.148   6.182
 1197SOL    HW120733   4.799   6.140   6.216
 1197SOL    HW220734   4.710   6.230   6.133
 1198SOL     OW20735   2.751   3.832   1.329
 1198SOL    HW120736   2.764   3.794   1.242
 1198SOL    HW220737   2.806   3.910   1.330
 1199SOL     OW20738   4.203   1.719   1.860
 1199SOL    HW120739   4.247   1.737   1.943
 1199SOL    HW220740   4.114   1.694   1.885
 1200SOL     OW20741   4.522   5.248   1.690
 1200SOL    HW120742   4.533   5.153   1.690
 1200SOL    HW220743   4.488   5.268   1.603
 1201SOL     OW20744   2.913   3.179   6.804
 1201SOL    HW120745   2.888   3.089   6.822
 1201SOL    HW220746   3.005   3.184   6.831
 1202SOL     OW20747   5.734   5.957   1.876
 1202SOL    HW120748   5.778   6.039   1.853
 1202SOL    HW220749   5.646   5.983   1.902
 1203SOL     OW20750   3.265   3.149   1.476
 1203SOL    HW120751   3.281   3.110   1.563
 1203SOL    HW220752   3.222   3.232   1.495
 1204SOL     OW20753   6.236   3.318   1.676
 1204SOL    HW120754   6.194   3.287   1.756
 1204SOL    HW220755   6.329   3.301   1.689
 1205SOL     OW20756   5.894   0.283   1.909
 1205SOL    HW120757   5.873   0.201   1.951
 1205SOL    HW220758   5.886   0.348   1.979
 1206SOL     OW20759   1.914   0.744   2.142
 1206SOL    HW120760   1.972   0.758   2.217
 1206SOL    HW220761   1.951   0.668   2.097
 1207SOL     OW20762   5.259   3.015   1.418
 1207SOL    HW120763   5.251   3.061   1.334
 1207SOL    HW220764   5.339   3.049   1.458
 1208SOL     OW20765   0.302   6.038   6.504
 1208SOL    HW120766   0.228   6.041   6.444
 1208SOL    HW220767   0.378   6.021   6.448
 1209SOL     OW20768   5.439   1.506   5.227
 1209SOL    HW120769   5.534   1.514   5.227
 1209SOL    HW220770   5.421   1.433   5.167
 1210SOL     OW20771   3.750   1.324   6.782
 1210SOL    HW120772   3.752   1.412   6.819
 1210SOL    HW220773   3.776   1.336   6.690
 1211SOL     OW20774   2.003   4.714   7.468
 1211SOL    HW120775   2.023   4.763   7.547
 1211SOL    HW220776   2.084   4.668   7.446
 1212SOL     OW20777   4.751   5.222   1.328
 1212SOL    HW120778   4.809   5.274   1.383
 1212SOL    HW220779   4.780   5.131   1.341
 1213SOL     OW20780   5.226   4.994   7.223
 1213SOL    HW120781   5.261   5.061   7.282
 1213SOL    HW220782   5.264   4.912   7.255
 1214SOL     OW20783   0.092   2.646   0.438
 1214SOL    HW120784   0.121   2.587   0.369
 1214SOL    HW220785   0.059   2.588   0.507
 1215SOL     OW20786   0.990   6.437   6.001
 1215SOL    HW120787   0.949   6.443   6.087
 1215SOL    HW220788   0.925   6.474   5.941
 1216SOL     OW20789   4.834   3.375   2.173
 1216SOL    HW120790   4.811   3.286   2.200
 1216SOL    HW220791   4.869   3.415   2.252
 1217SOL     OW20792   5.760   2.751   5.952
 1217SOL    HW120793   5.750   2.660   5.924
 1217SOL    HW220794   5.779   2.799   5.871
 1218SOL     OW20795   1.565   0.653   7.756
 1218SOL    HW120796   1.656   0.647   7.726
 1218SOL    HW220797   1.566   0.613   7.843
 1219SOL     OW20798   1.019   3.122   6.694
 1219SOL    HW120799   0.944   3.089   6.745
 1219SOL    HW220800   1.062   3.043   6.661
 1220SOL     OW20801   0.063   2.761   6.223
 1220SOL    HW120802   0.153   2.737   6.246
 1220SOL    HW220803   0.072   2.845   6.178
 1221SOL     OW20804   1.293   3.783   6.648
 1221SOL    HW120805   1.222   3.736   6.693
 1221SOL    HW220806   1.368   3.724   6.655
 1222SOL     OW20807   4.377   0.180   1.596
 1222SOL    HW120808   4.452   0.145   1.548
 1222SOL    HW220809   4.413   0.207   1.680
 1223SOL     OW20810   2.447   4.738   1.253
 1223SOL    HW120811   2.444   4.644   1.269
 1223SOL    HW220812   2.449   4.778   1.340
 1224SOL     OW20813   6.383   4.760   1.645
 1224SOL    HW120814   6.398   4.673   1.683
 1224SOL    HW220815   6.398   4.748   1.551
 1225SOL     OW20816   5.460   6.079   7.475
 1225SOL    HW120817   5.417   6.160   7.445
 1225SOL    HW220818   5.421   6.010   7.422
 1226SOL     OW20819   5.006   4.477   6.247
 1226SOL    HW120820   4.967   4.389   6.237
 1226SOL    HW220821   4.966   4.528   6.177
 1227SOL     OW20822   2.608   2.583   0.596
 1227SOL    HW120823   2.562   2.593   0.512
 1227SOL    HW220824   2.673   2.653   0.596
 1228SOL     OW20825   3.120   5.876   7.331
 1228SOL    HW120826   3.165   5.823   7.265
 1228SOL    HW220827   3.031   5.842   7.334
 1229SOL     OW20828   5.256   1.308   1.359
 1229SOL    HW120829   5.179   1.256   1.333
 1229SOL    HW220830   5.298   1.255   1.426
 1230SOL     OW20831   4.960   4.339   0.647
 1230SOL    HW120832   4.877   4.386   0.659
 1230SOL    HW220833   4.995   4.329   0.735
 1231SOL     OW20834   0.130   4.034   1.018
 1231SOL    HW120835   0.082   4.024   0.936
 1231SOL    HW220836   0.133   4.128   1.033
 1232SOL     OW20837   0.728   5.008   7.062
 1232SOL    HW120838   0.671   5.067   7.014
 1232SOL    HW220839   0.669   4.942   7.099
 1233SOL     OW20840   4.195   1.663   0.090
 1233SOL    HW120841   4.103   1.646   0.106
 1233SOL    HW220842   4.239   1.580   0.111
 1234SOL     OW20843   4.576   2.865   5.188
 1234SOL    HW120844   4.573   2.801   5.258
 1234SOL    HW220845   4.600   2.815   5.110
 1235SOL     OW20846   3.824   3.723   0.304
 1235SOL    HW120847   3.908   3.768   0.302
 1235SOL    HW220848   3.764   3.784   0.345
 1236SOL     OW20849   3.558   4.295   1.849
 1236SOL    HW120850   3.571   4.383   1.885
 1236SOL    HW220851   3.546   4.309   1.755
 1237SOL     OW20852   3.112   4.036   6.176
 1237SOL    HW120853   3.048   4.010   6.109
 1237SOL    HW220854   3.181   4.081   6.127
 1238SOL     OW20855   3.607   2.588   6.546
 1238SOL    HW120856   3.693   2.629   6.545
 1238SOL    HW220857   3.545   2.661   6.541
 1239SOL     OW20858   3.543   2.429   1.309
 1239SOL    HW120859   3.495   2.476   1.377
 1239SOL    HW220860   3.614   2.489   1.284
 1240SOL     OW20861   1.376   5.950   0.150
 1240SOL    HW120862   1.400   6.041   0.166
 1240SOL    HW220863   1.367   5.912   0.238
 1241SOL     OW20864   1.372   5.942   1.074
 1241SOL    HW120865   1.307   5.873   1.056
 1241SOL    HW220866   1.344   6.015   1.019
 1242SOL     OW20867   1.479   1.197   7.156
 1242SOL    HW120868   1.527   1.229   7.080
 1242SOL    HW220869   1.498   1.103   7.160
 1243SOL     OW20870   5.495   0.850   7.358
 1243SOL    HW120871   5.547   0.928   7.342
 1243SOL    HW220872   5.418   0.860   7.301
 1244SOL     OW20873   0.589   2.761   0.976
 1244SOL    HW120874   0.515   2.819   0.958
 1244SOL    HW220875   0.565   2.717   1.058
 1245SOL     OW20876   0.658   2.805   6.712
 1245SOL    HW120877   0.697   2.871   6.654
 1245SOL    HW220878   0.565   2.830   6.717
 1246SOL     OW20879   2.906   4.236   1.745
 1246SOL    HW120880   2.856   4.162   1.778
 1246SOL    HW220881   2.867   4.313   1.787
 1247SOL     OW20882   4.204   4.613   1.553
 1247SOL    HW120883   4.280   4.565   1.518
 1247SOL    HW220884   4.201   4.693   1.500
 1248SOL     OW20885   5.068   2.677   7.271
 1248SOL    HW120886   5.150   2.702   7.313
 1248SOL    HW220887   5.007   2.664   7.344
 1249SOL     OW20888   5.539   0.243   0.865
 1249SOL    HW120889   5.463   0.239   0.923
 1249SOL    HW220890   5.568   0.334   0.869
 1250SOL     OW20891   5.118   3.300   6.142
 1250SOL    HW120892   5.114   3.259   6.229
 1250SOL    HW220893   5.033   3.343   6.132
 1251SOL     OW20894   4.876   0.656   0.622
 1251SOL    HW120895   4.948   0.684   0.679
 1251SOL    HW220896   4.909   0.669   0.533
 1252SOL     OW20897   1.340   0.595   5.390
 1252SOL    HW120898   1.299   0.680   5.372
 1252SOL    HW220899   1.274   0.531   5.363
 1253SOL     OW20900   4.364   2.092   2.606
 1253SOL    HW120901   4.339   2.008   2.568
 1253SOL    HW220902   4.458   2.099   2.591
 1254SOL     OW20903   2.659   5.749   6.268
 1254SOL    HW120904   2.663   5.831   6.221
 1254SOL    HW220905   2.660   5.681   6.200
 1255SOL     OW20906   3.478   0.956   1.047
 1255SOL    HW120907   3.472   0.869   1.008
 1255SOL    HW220908   3.456   0.943   1.139
 1256SOL     OW20909   1.879   5.753   1.533
 1256SOL    HW120910   1.804   5.808   1.555
 1256SOL    HW220911   1.883   5.688   1.603
 1257SOL     OW20912   3.331   6.067   0.732
 1257SOL    HW120913   3.321   6.047   0.825
 1257SOL    HW220914   3.252   6.030   0.691
 1258SOL     OW20915   3.752   0.711   5.968
 1258SOL    HW120916   3.772   0.697   5.875
 1258SOL    HW220917   3.812   0.780   5.996
 1259SOL     OW20918   2.245   0.100   1.209
 1259SOL    HW120919   2.254   0.165   1.279
 1259SOL    HW220920   2.232   0.152   1.130
 1260SOL     OW20921   0.860   1.207   6.768
 1260SOL    HW120922   0.804   1.179   6.696
 1260SOL    HW220923   0.849   1.140   6.835
 1261SOL     OW20924   5.522   0.235   0.349
 1261SOL    HW120925   5.478   0.200   0.426
 1261SOL    HW220926   5.525   0.162   0.287
 1262SOL     OW20927   2.722   1.721   7.431
 1262SOL    HW120928   2.674   1.778   7.370
 1262SOL    HW220929   2.801   1.698   7.383
 1263SOL     OW20930   1.668   4.544   5.755
 1263SOL    HW120931   1.713   4.464   5.725
 1263SOL    HW220932   1.583   4.513   5.787
 1264SOL     OW20933   3.557   6.223   6.536
 1264SOL    HW120934   3.473   6.178   6.526
 1264SOL    HW220935   3.535   6.316   6.529
 1265SOL     OW20936   0.067   3.418   5.246
 1265SOL    HW120937  -0.012   3.365   5.249
 1265SOL    HW220938   0.109   3.394   5.163
 1266SOL     OW20939   3.966   4.466   1.515
 1266SOL    HW120940   3.948   4.540   1.457
 1266SOL    HW220941   4.057   4.478   1.542
 1267SOL     OW20942   0.673   4.368   5.434
 1267SOL    HW120943   0.588   4.341   5.399
 1267SOL    HW220944   0.674   4.332   5.523
 1268SOL     OW20945   2.933   1.975   6.470
 1268SOL    HW120946   2.838   1.964   6.472
 1268SOL    HW220947   2.955   2.004   6.559
 1269SOL     OW20948   0.719   1.933   0.666
 1269SOL    HW120949   0.701   1.867   0.598
 1269SOL    HW220950   0.815   1.941   0.666
 1270SOL     OW20951   3.938   4.365   5.584
 1270SOL    HW120952   3.943   4.331   5.674
 1270SOL    HW220953   4.017   4.332   5.542
 1271SOL     OW20954   0.901   6.329   6.871
 1271SOL    HW120955   0.976   6.269   6.874
 1271SOL    HW220956   0.832   6.279   6.827
 1272SOL     OW20957   4.000   1.806   6.366
 1272SOL    HW120958   4.074   1.855   6.332
 1272SOL    HW220959   4.025   1.784   6.456
 1273SOL     OW20960   3.322   0.427   7.159
 1273SOL    HW120961   3.394   0.408   7.099
 1273SOL    HW220962   3.341   0.515   7.191
 1274SOL     OW20963   6.134   5.617   0.262
 1274SOL    HW120964   6.218   5.585   0.231
 1274SOL    HW220965   6.122   5.575   0.347
 1275SOL     OW20966   3.952   2.103   1.879
 1275SOL    HW120967   3.896   2.057   1.816
 1275SOL    HW220968   3.893   2.129   1.949
 1276SOL     OW20969   1.481   3.592   6.743
 1276SOL    HW120970   1.524   3.601   6.827
 1276SOL    HW220971   1.455   3.500   6.739
 1277SOL     OW20972   1.433   3.402   7.262
 1277SOL    HW120973   1.387   3.463   7.320
 1277SOL    HW220974   1.435   3.445   7.177
 1278SOL     OW20975   3.421   2.295   7.473
 1278SOL    HW120976   3.463   2.381   7.478
 1278SOL    HW220977   3.400   2.283   7.381
 1279SOL     OW20978   0.203   2.205   1.220
 1279SOL    HW120979   0.228   2.149   1.294
 1279SOL    HW220980   0.247   2.166   1.144
 1280SOL     OW20981   0.415   5.969   7.656
 1280SOL    HW120982   0.343   5.924   7.702
 1280SOL    HW220983   0.492   5.915   7.675
 1281SOL     OW20984   4.302   5.267   0.085
 1281SOL    HW120985   4.274   5.228   0.167
 1281SOL    HW220986   4.302   5.194   0.022
 1282SOL     OW20987   6.436   2.063   1.464
 1282SOL    HW120988   6.464   2.041   1.375
 1282SOL    HW220989   6.358   2.117   1.451
 1283SOL     OW20990   5.534   0.585   2.245
 1283SOL    HW120991   5.529   0.514   2.181
 1283SOL    HW220992   5.612   0.564   2.297
 1284SOL     OW20993   4.616   2.194   7.497
 1284SOL    HW120994   4.622   2.278   7.453
 1284SOL    HW220995   4.673   2.202   7.574
 1285SOL     OW20996   2.766   1.170   6.014
 1285SOL    HW120997   2.809   1.087   6.033
 1285SOL    HW220998   2.731   1.160   5.925
 1286SOL     OW20999   6.116   4.341   7.535
 1286SOL    HW121000   6.025   4.361   7.559
 1286SOL    HW221001   6.163   4.341   7.619
 1287SOL     OW21002   2.177   2.973   6.506
 1287SOL    HW121003   2.155   2.886   6.472
 1287SOL    HW221004   2.205   2.957   6.596
 1288SOL     OW21005   0.740   1.844   7.379
 1288SOL    HW121006   0.833   1.832   7.359
 1288SOL    HW221007   0.716   1.926   7.337
 1289SOL     OW21008   0.490   4.596   7.674
 1289SOL    HW121009   0.546   4.566   7.748
 1289SOL    HW221010   0.477   4.518   7.621
 1290SOL     OW21011   1.221   0.548   1.162
 1290SOL    HW121012   1.248   0.458   1.141
 1290SOL    HW221013   1.297   0.601   1.136
 1291SOL     OW21014   2.621   6.130   0.921
 1291SOL    HW121015   2.597   6.132   1.014
 1291SOL    HW221016   2.555   6.075   0.880
 1292SOL     OW21017   4.314   0.485   0.348
 1292SOL    HW121018   4.345   0.576   0.346
 1292SOL    HW221019   4.285   0.467   0.259
 1293SOL     OW21020   1.873   1.661   2.026
 1293SOL    HW121021   1.942   1.596   2.038
 1293SOL    HW221022   1.897   1.734   2.083
 1294SOL     OW21023   0.185   5.760   2.131
 1294SOL    HW121024   0.193   5.744   2.225
 1294SOL    HW221025   0.090   5.767   2.116
 1295SOL     OW21026   5.372   0.648   6.020
 1295SOL    HW121027   5.312   0.691   5.959
 1295SOL    HW221028   5.360   0.554   6.004
 1296SOL     OW21029   5.862   1.484   6.305
 1296SOL    HW121030   5.777   1.440   6.293
 1296SOL    HW221031   5.926   1.413   6.304
 1297SOL     OW21032   0.298   0.637   6.418
 1297SOL    HW121033   0.361   0.708   6.431
 1297SOL    HW221034   0.342   0.578   6.356
 1298SOL     OW21035   1.836   0.200   0.712
 1298SOL    HW121036   1.821   0.294   0.707
 1298SOL    HW221037   1.895   0.189   0.787
 1299SOL     OW21038   0.913   4.578   6.235
 1299SOL    HW121039   0.912   4.672   6.219
 1299SOL    HW221040   0.958   4.541   6.159
 1300SOL     OW21041   4.800   0.361   1.484
 1300SOL    HW121042   4.732   0.392   1.544
 1300SOL    HW221043   4.876   0.416   1.503
 1301SOL     OW21044   2.676   2.351   0.731
 1301SOL    HW121045   2.624   2.420   0.688
 1301SOL    HW221046   2.738   2.399   0.786
 1302SOL     OW21047   4.365   5.868   0.653
 1302SOL    HW121048   4.297   5.862   0.720
 1302SOL    HW221049   4.429   5.801   0.678
 1303SOL     OW21050   2.877   3.759   1.574
 1303SOL    HW121051   2.919   3.680   1.608
 1303SOL    HW221052   2.837   3.731   1.492
 1304SOL     OW21053   3.773   5.269   7.270
 1304SOL    HW121054   3.847   5.329   7.261
 1304SOL    HW221055   3.733   5.268   7.183
 1305SOL     OW21056   5.140   5.175   1.624
 1305SOL    HW121057   5.156   5.178   1.718
 1305SOL    HW221058   5.136   5.081   1.604
 1306SOL     OW21059   3.419   2.810   6.506
 1306SOL    HW121060   3.377   2.853   6.432
 1306SOL    HW221061   3.376   2.847   6.583
 1307SOL     OW21062   3.765   1.433   6.132
 1307SOL    HW121063   3.698   1.460   6.195
 1307SOL    HW221064   3.840   1.490   6.151
 1308SOL     OW21065   2.003   6.101   0.901
 1308SOL    HW121066   1.955   6.111   0.983
 1308SOL    HW221067   2.026   6.008   0.898
 1309SOL     OW21068   2.740   5.908   6.941
 1309SOL    HW121069   2.821   5.877   6.982
 1309SOL    HW221070   2.682   5.929   7.015
 1310SOL     OW21071   1.156   4.178   7.443
 1310SOL    HW121072   1.107   4.258   7.426
 1310SOL    HW221073   1.217   4.202   7.513
 1311SOL     OW21074   5.569   3.823   7.440
 1311SOL    HW121075   5.567   3.875   7.520
 1311SOL    HW221076   5.545   3.885   7.371
 1312SOL     OW21077   0.554   5.708   0.668
 1312SOL    HW121078   0.554   5.768   0.743
 1312SOL    HW221079   0.485   5.645   0.688
 1313SOL     OW21080   6.255   1.818   1.977
 1313SOL    HW121081   6.223   1.774   1.898
 1313SOL    HW221082   6.345   1.786   1.988
 1314SOL     OW21083   2.662   6.406   6.682
 1314SOL    HW121084   2.592   6.464   6.652
 1314SOL    HW221085   2.654   6.405   6.777
 1315SOL     OW21086   4.456   2.704   0.749
 1315SOL    HW121087   4.375   2.727   0.705
 1315SOL    HW221088   4.496   2.788   0.773
 1316SOL     OW21089   5.714   4.850   0.442
 1316SOL    HW121090   5.792   4.875   0.392
 1316SOL    HW221091   5.728   4.758   0.465
 1317SOL     OW21092   2.967   2.885   7.068
 1317SOL    HW121093   2.887   2.832   7.063
 1317SOL    HW221094   3.021   2.853   6.995
 1318SOL     OW21095   4.972   2.275   0.856
 1318SOL    HW121096   5.023   2.204   0.818
 1318SOL    HW221097   5.037   2.338   0.887
 1319SOL     OW21098   5.106   3.122   0.764
 1319SOL    HW121099   5.165   3.172   0.708
 1319SOL    HW221100   5.133   3.031   0.753
 1320SOL     OW21101   1.607   4.552   0.199
 1320SOL    HW121102   1.671   4.578   0.265
 1320SOL    HW221103   1.620   4.458   0.189
 1321SOL     OW21104   1.550   1.330   5.254
 1321SOL    HW121105   1.612   1.371   5.193
 1321SOL    HW221106   1.501   1.268   5.200
 1322SOL     OW21107   1.675   0.816   2.048
 1322SOL    HW121108   1.747   0.761   2.080
 1322SOL    HW221109   1.627   0.760   1.987
 1323SOL     OW21110   6.036   1.650   1.109
 1323SOL    HW121111   6.096   1.581   1.136
 1323SOL    HW221112   5.986   1.611   1.036
 1324SOL     OW21113   1.818   5.304   0.964
 1324SOL    HW121114   1.782   5.386   0.999
 1324SOL    HW221115   1.856   5.328   0.880
 1325SOL     OW21116   3.430   1.558   0.058
 1325SOL    HW121117   3.494   1.486   0.066
 1325SOL    HW221118   3.384   1.540  -0.023
 1326SOL     OW21119   0.856   2.662   7.285
 1326SOL    HW121120   0.770   2.619   7.289
 1326SOL    HW221121   0.860   2.717   7.363
 1327SOL     OW21122   2.484   5.605   6.909
 1327SOL    HW121123   2.525   5.669   6.851
 1327SOL    HW221124   2.512   5.520   6.874
 1328SOL     OW21125   5.803   2.801   7.728
 1328SOL    HW121126   5.714   2.828   7.703
 1328SOL    HW221127   5.795   2.708   7.747
 1329SOL     OW21128   3.324   3.868   7.502
 1329SOL    HW121129   3.327   3.863   7.597
 1329SOL    HW221130   3.265   3.797   7.476
 1330SOL     OW21131   2.829   5.876   2.133
 1330SOL    HW121132   2.810   5.900   2.042
 1330SOL    HW221133   2.760   5.814   2.157
 1331SOL     OW21134   4.695   0.729   0.250
 1331SOL    HW121135   4.744   0.711   0.330
 1331SOL    HW221136   4.749   0.695   0.180
 1332SOL     OW21137   5.944   0.214   1.074
 1332SOL    HW121138   5.859   0.217   1.030
 1332SOL    HW221139   5.925   0.231   1.166
 1333SOL     OW21140   4.574   1.835   1.276
 1333SOL    HW121141   4.525   1.901   1.227
 1333SOL    HW221142   4.596   1.879   1.359
 1334SOL     OW21143   3.750   3.159   1.483
 1334SOL    HW121144   3.835   3.115   1.481
 1334SOL    HW221145   3.768   3.243   1.525
 1335SOL     OW21146   2.236   0.309   6.609
 1335SOL    HW121147   2.145   0.277   6.613
 1335SOL    HW221148   2.243   0.370   6.683
 1336SOL     OW21149   4.652   4.232   0.586
 1336SOL    HW121150   4.685   4.267   0.504
 1336SOL    HW221151   4.612   4.149   0.562
 1337SOL     OW21152   0.094   4.190   6.085
 1337SOL    HW121153   0.184   4.210   6.059
 1337SOL    HW221154   0.043   4.203   6.005
 1338SOL     OW21155   6.144   5.929   6.618
 1338SOL    HW121156   6.217   5.986   6.592
 1338SOL    HW221157   6.112   5.893   6.535
 1339SOL     OW21158   4.472   1.655   6.371
 1339SOL    HW121159   4.507   1.571   6.403
 1339SOL    HW221160   4.511   1.664   6.284
 1340SOL     OW21161   2.063   5.913   0.142
 1340SOL    HW121162   2.154   5.941   0.136
 1340SOL    HW221163   2.040   5.927   0.234
 1341SOL     OW21164   0.374   2.730   7.646
 1341SOL    HW121165   0.345   2.779   7.724
 1341SOL    HW221166   0.470   2.727   7.654
 1342SOL     OW21167   6.362   4.610   6.890
 1342SOL    HW121168   6.383   4.623   6.798
 1342SOL    HW221169   6.432   4.555   6.923
 1343SOL     OW21170   5.233   4.996   7.718
 1343SOL    HW121171   5.327   5.014   7.718
 1343SOL    HW221172   5.225   4.905   7.690
 1344SOL     OW21173   6.184   4.647   1.267
 1344SOL    HW121174   6.200   4.571   1.212
 1344SOL    HW221175   6.101   4.628   1.311
 1345SOL     OW21176   2.733   2.122   6.864
 1345SOL    HW121177   2.680   2.048   6.835
 1345SOL    HW221178   2.780   2.090   6.941
 1346SOL     OW21179   0.861   5.698   2.051
 1346SOL    HW121180   0.840   5.619   2.101
 1346SOL    HW221181   0.827   5.681   1.963
 1347SOL     OW21182   2.538   5.251   1.203
 1347SOL    HW121183   2.611   5.244   1.142
 1347SOL    HW221184   2.550   5.335   1.246
 1348SOL     OW21185   5.917   4.439   7.290
 1348SOL    HW121186   5.977   4.498   7.336
 1348SOL    HW221187   5.961   4.354   7.292
 1349SOL     OW21188   0.046   3.215   1.727
 1349SOL    HW121189   0.087   3.216   1.814
 1349SOL    HW221190   0.030   3.122   1.710
 1350SOL     OW21191   1.984   0.076   0.977
 1350SOL    HW121192   1.997   0.024   1.057
 1350SOL    HW221193   2.069   0.115   0.959
 1351SOL     OW21194   1.170   3.529   0.773
 1351SOL    HW121195   1.100   3.468   0.749
 1351SOL    HW221196   1.160   3.541   0.868
 1352SOL     OW21197   2.209   0.650   7.547
 1352SOL    HW121198   2.186   0.697   7.467
 1352SOL    HW221199   2.305   0.644   7.545
 1353SOL     OW21200   6.296   4.667   7.229
 1353SOL    HW121201   6.238   4.627   7.294
 1353SOL    HW221202   6.316   4.597   7.167
 1354SOL     OW21203   3.053   1.262   1.921
 1354SOL    HW121204   3.068   1.339   1.975
 1354SOL    HW221205   3.141   1.233   1.895
 1355SOL     OW21206   1.388   4.203   7.122
 1355SOL    HW121207   1.350   4.255   7.052
 1355SOL    HW221208   1.424   4.267   7.183
 1356SOL     OW21209   5.023   1.561   0.021
 1356SOL    HW121210   5.113   1.563  -0.013
 1356SOL    HW221211   5.032   1.595   0.111
 1357SOL     OW21212   3.232   1.000   1.615
 1357SOL    HW121213   3.137   1.008   1.621
 1357SOL    HW221214   3.266   1.064   1.678
 1358SOL     OW21215   5.932   4.125   6.771
 1358SOL    HW121216   5.899   4.210   6.798
 1358SOL    HW221217   6.010   4.145   6.719
 1359SOL     OW21218   3.487   4.145   5.806
 1359SOL    HW121219   3.563   4.199   5.788
 1359SOL    HW221220   3.513   4.057   5.780
 1360SOL     OW21221   1.613   3.144   0.317
 1360SOL    HW121222   1.547   3.201   0.356
 1360SOL    HW221223   1.694   3.196   0.319
 1361SOL     OW21224   5.332   3.502   5.694
 1361SOL    HW121225   5.406   3.479   5.637
 1361SOL    HW221226   5.259   3.514   5.633
 1362SOL     OW21227   6.057   6.135   1.145
 1362SOL    HW121228   6.111   6.141   1.066
 1362SOL    HW221229   6.070   6.046   1.177
 1363SOL     OW21230   5.912   4.622   0.055
 1363SOL    HW121231   5.924   4.715   0.040
 1363SOL    HW221232   5.834   4.599   0.004
 1364SOL     OW21233   3.020   5.254   0.969
 1364SOL    HW121234   2.930   5.252   0.935
 1364SOL    HW221235   3.013   5.218   1.057
 1365SOL     OW21236   3.374   3.103   0.263
 1365SOL    HW121237   3.447   3.147   0.307
 1365SOL    HW221238   3.358   3.155   0.185
 1366SOL     OW21239   0.987   3.234   6.449
 1366SOL    HW121240   1.005   3.170   6.380
 1366SOL    HW221241   1.005   3.187   6.531
 1367SOL     OW21242   2.217   4.250   1.615
 1367SOL    HW121243   2.224   4.182   1.681
 1367SOL    HW221244   2.230   4.205   1.532
 1368SOL     OW21245   2.710   3.529   7.627
 1368SOL    HW121246   2.658   3.600   7.588
 1368SOL    HW221247   2.712   3.550   7.723
 1369SOL     OW21248   3.898   4.535   7.574
 1369SOL    HW121249   3.876   4.473   7.505
 1369SOL    HW221250   3.901   4.620   7.530
 1370SOL     OW21251   0.653   3.300   5.586
 1370SOL    HW121252   0.712   3.233   5.621
 1370SOL    HW221253   0.669   3.377   5.642
 1371SOL     OW21254   5.515   4.085   0.916
 1371SOL    HW121255   5.494   4.075   1.009
 1371SOL    HW221256   5.434   4.118   0.876
 1372SOL     OW21257   5.277   6.128   6.638
 1372SOL    HW121258   5.194   6.128   6.590
 1372SOL    HW221259   5.253   6.160   6.725
 1373SOL     OW21260   5.548   2.689   7.090
 1373SOL    HW121261   5.530   2.781   7.072
 1373SOL    HW221262   5.523   2.643   7.010
 1374SOL     OW21263   6.096   2.454   1.839
 1374SOL    HW121264   6.118   2.509   1.764
 1374SOL    HW221265   6.159   2.480   1.907
 1375SOL     OW21266   2.670   5.045   6.744
 1375SOL    HW121267   2.618   5.012   6.671
 1375SOL    HW221268   2.761   5.039   6.714
 1376SOL     OW21269   6.331   0.992   7.376
 1376SOL    HW121270   6.326   1.077   7.333
 1376SOL    HW221271   6.243   0.977   7.410
 1377SOL     OW21272   1.496   3.610   7.061
 1377SOL    HW121273   1.571   3.553   7.046
 1377SOL    HW221274   1.534   3.691   7.094
 1378SOL     OW21275   1.737   0.760   0.587
 1378SOL    HW121276   1.825   0.739   0.619
 1378SOL    HW221277   1.691   0.793   0.664
 1379SOL     OW21278   5.555   1.116   7.285
 1379SOL    HW121279   5.625   1.113   7.220
 1379SOL    HW221280   5.481   1.156   7.240
 1380SOL     OW21281   1.739   2.675   2.371
 1380SOL    HW121282   1.739   2.748   2.310
 1380SOL    HW221283   1.656   2.629   2.353
 1381SOL     OW21284   1.025   0.885   0.584
 1381SOL    HW121285   1.025   0.791   0.600
 1381SOL    HW221286   0.966   0.897   0.511
 1382SOL     OW21287   5.708   3.268   1.414
 1382SOL    HW121288   5.759   3.326   1.358
 1382SOL    HW221289   5.687   3.320   1.491
 1383SOL     OW21290   0.298   1.193   6.219
 1383SOL    HW121291   0.307   1.245   6.139
 1383SOL    HW221292   0.321   1.104   6.192
 1384SOL     OW21293   5.221   3.103   5.964
 1384SOL    HW121294   5.135   3.064   5.974
 1384SOL    HW221295   5.212   3.191   6.002
 1385SOL     OW21296   4.639   1.672   6.677
 1385SOL    HW121297   4.663   1.608   6.611
 1385SOL    HW221298   4.636   1.756   6.631
 1386SOL     OW21299   6.342   4.884   6.897
 1386SOL    HW121300   6.345   4.804   6.949
 1386SOL    HW221301   6.433   4.903   6.877
 1387SOL     OW21302   4.811   2.041   2.367
 1387SOL    HW121303   4.887   2.014   2.418
 1387SOL    HW221304   4.825   2.002   2.280
 1388SOL     OW21305   2.657   3.205   1.619
 1388SOL    HW121306   2.596   3.266   1.660
 1388SOL    HW221307   2.626   3.118   1.646
 1389SOL     OW21308   4.690   1.639   1.730
 1389SOL    HW121309   4.716   1.705   1.795
 1389SOL    HW221310   4.654   1.567   1.782
 1390SOL     OW21311   1.084   2.178   1.359
 1390SOL    HW121312   1.137   2.098   1.358
 1390SOL    HW221313   1.115   2.227   1.435
 1391SOL     OW21314   0.928   3.368   2.174
 1391SOL    HW121315   0.984   3.291   2.160
 1391SOL    HW221316   0.979   3.424   2.232
 1392SOL     OW21317   6.076   0.316   0.533
 1392SOL    HW121318   6.088   0.346   0.444
 1392SOL    HW221319   6.054   0.396   0.582
 1393SOL     OW21320   4.025   0.197   7.143
 1393SOL    HW121321   4.084   0.125   7.119
 1393SOL    HW221322   3.945   0.178   7.093
 1394SOL     OW21323   6.151   2.356   0.463
 1394SOL    HW121324   6.183   2.308   0.387
 1394SOL    HW221325   6.106   2.290   0.515
 1395SOL     OW21326   4.651   1.837   5.879
 1395SOL    HW121327   4.656   1.908   5.815
 1395SOL    HW221328   4.662   1.758   5.828
 1396SOL     OW21329   3.479   4.471   6.044
 1396SOL    HW121330   3.524   4.394   6.009
 1396SOL    HW221331   3.454   4.521   5.967
 1397SOL     OW21332   2.972   5.248   6.397
 1397SOL    HW121333   3.036   5.318   6.380
 1397SOL    HW221334   2.890   5.295   6.413
 1398SOL     OW21335   6.101   3.900   1.211
 1398SOL    HW121336   6.032   3.950   1.167
 1398SOL    HW221337   6.176   3.959   1.214
 1399SOL     OW21338   1.638   4.407   6.709
 1399SOL    HW121339   1.728   4.399   6.677
 1399SOL    HW221340   1.603   4.318   6.704
 1400SOL     OW21341   4.165   5.000   7.015
 1400SOL    HW121342   4.131   5.081   6.976
 1400SOL    HW221343   4.248   4.985   6.971
 1401SOL     OW21344   3.804   2.172   0.782
 1401SOL    HW121345   3.726   2.147   0.832
 1401SOL    HW221346   3.837   2.090   0.746
 1402SOL     OW21347   2.181   1.873   6.670
 1402SOL    HW121348   2.240   1.895   6.742
 1402SOL    HW221349   2.136   1.794   6.699
 1403SOL     OW21350   4.308   3.429   7.595
 1403SOL    HW121351   4.276   3.516   7.570
 1403SOL    HW221352   4.370   3.406   7.525
 1404SOL     OW21353   2.757   2.498   5.508
 1404SOL    HW121354   2.752   2.513   5.602
 1404SOL    HW221355   2.682   2.441   5.489
 1405SOL     OW21356   1.373   0.873   5.581
 1405SOL    HW121357   1.307   0.899   5.646
 1405SOL    HW221358   1.326   0.870   5.498
 1406SOL     OW21359   4.000   0.397   1.351
 1406SOL    HW121360   4.020   0.487   1.324
 1406SOL    HW221361   4.086   0.358   1.368
 1407SOL     OW21362   3.687   3.966   0.373
 1407SOL    HW121363   3.639   3.959   0.455
 1407SOL    HW221364   3.627   3.929   0.308
 1408SOL     OW21365   0.294   4.986   6.391
 1408SOL    HW121366   0.201   4.990   6.414
 1408SOL    HW221367   0.306   4.900   6.350
 1409SOL     OW21368   5.697   5.852   5.704
 1409SOL    HW121369   5.658   5.784   5.650
 1409SOL    HW221370   5.639   5.859   5.780
 1410SOL     OW21371   5.074   1.888   7.530
 1410SOL    HW121372   5.044   1.974   7.561
 1410SOL    HW221373   4.993   1.841   7.511
 1411SOL     OW21374   5.624   6.160   6.374
 1411SOL    HW121375   5.584   6.246   6.360
 1411SOL    HW221376   5.575   6.122   6.448
 1412SOL     OW21377   4.001   1.865   6.864
 1412SOL    HW121378   3.940   1.929   6.828
 1412SOL    HW221379   4.088   1.901   6.845
 1413SOL     OW21380   2.043   4.438   1.572
 1413SOL    HW121381   2.011   4.410   1.486
 1413SOL    HW221382   2.107   4.371   1.596
 1414SOL     OW21383   3.097   3.111   6.402
 1414SOL    HW121384   3.009   3.144   6.388
 1414SOL    HW221385   3.141   3.180   6.453
 1415SOL     OW21386   0.979   0.697   1.067
 1415SOL    HW121387   0.985   0.660   1.155
 1415SOL    HW221388   0.899   0.750   1.070
 1416SOL     OW21389   2.645   4.815   0.331
 1416SOL    HW121390   2.709   4.770   0.276
 1416SOL    HW221391   2.568   4.759   0.329
 1417SOL     OW21392   5.570   2.372   0.629
 1417SOL    HW121393   5.532   2.418   0.705
 1417SOL    HW221394   5.587   2.442   0.566
 1418SOL     OW21395   1.736   4.045   0.692
 1418SOL    HW121396   1.680   4.123   0.692
 1418SOL    HW221397   1.710   3.997   0.770
 1419SOL     OW21398   6.270   5.935   1.991
 1419SOL    HW121399   6.271   5.839   1.996
 1419SOL    HW221400   6.360   5.960   1.971
 1420SOL     OW21401   3.076   5.444   6.096
 1420SOL    HW121402   3.047   5.509   6.160
 1420SOL    HW221403   2.996   5.407   6.061
 1421SOL     OW21404   2.635   5.590   0.012
 1421SOL    HW121405   2.637   5.501   0.046
 1421SOL    HW221406   2.609   5.644   0.087
 1422SOL     OW21407   6.017   1.796   6.816
 1422SOL    HW121408   6.055   1.732   6.756
 1422SOL    HW221409   5.935   1.822   6.774
 1423SOL     OW21410   2.351   0.842   0.023
 1423SOL    HW121411   2.415   0.914   0.020
 1423SOL    HW221412   2.375   0.786  -0.051
 1424SOL     OW21413   4.634   3.146   1.224
 1424SOL    HW121414   4.687   3.204   1.280
 1424SOL    HW221415   4.678   3.149   1.139
 1425SOL     OW21416   6.156   4.286   0.452
 1425SOL    HW121417   6.148   4.350   0.523
 1425SOL    HW221418   6.246   4.253   0.460
 1426SOL     OW21419   4.283   3.954   1.313
 1426SOL    HW121420   4.294   4.006   1.234
 1426SOL    HW221421   4.201   3.984   1.351
 1427SOL     OW21422   2.557   2.886   6.605
 1427SOL    HW121423   2.481   2.875   6.662
 1427SOL    HW221424   2.606   2.959   6.644
 1428SOL     OW21425   5.558   1.226   7.615
 1428SOL    HW121426   5.589   1.229   7.708
 1428SOL    HW221427   5.464   1.241   7.622
 1429SOL     OW21428   0.099   4.328   0.087
 1429SOL    HW121429   0.066   4.267   0.153
 1429SOL    HW221430   0.175   4.368   0.128
 1430SOL     OW21431   3.563   2.774   1.234
 1430SOL    HW121432   3.589   2.856   1.275
 1430SOL    HW221433   3.632   2.712   1.258
 1431SOL     OW21434   5.814   2.585   0.607
 1431SOL    HW121435   5.815   2.563   0.700
 1431SOL    HW221436   5.906   2.586   0.581
 1432SOL     OW21437   2.989   3.497   6.017
 1432SOL    HW121438   2.989   3.586   6.052
 1432SOL    HW221439   2.896   3.474   6.009
 1433SOL     OW21440   0.275   0.134   0.461
 1433SOL    HW121441   0.314   0.121   0.375
 1433SOL    HW221442   0.188   0.094   0.455
 1434SOL     OW21443   5.265   0.408   5.932
 1434SOL    HW121444   5.308   0.349   5.869
 1434SOL    HW221445   5.182   0.430   5.892
 1435SOL     OW21446   1.697   4.010   1.340
 1435SOL    HW121447   1.791   3.994   1.332
 1435SOL    HW221448   1.680   4.010   1.434
 1436SOL     OW21449   5.106   1.663   0.836
 1436SOL    HW121450   5.015   1.684   0.857
 1436SOL    HW221451   5.125   1.585   0.887
 1437SOL     OW21452   6.278   2.985   7.642
 1437SOL    HW121453   6.203   2.933   7.613
 1437SOL    HW221454   6.325   2.929   7.705
 1438SOL     OW21455   0.313   4.668   6.790
 1438SOL    HW121456   0.267   4.630   6.716
 1438SOL    HW221457   0.283   4.618   6.866
 1439SOL     OW21458   4.404   0.739   0.295
 1439SOL    HW121459   4.423   0.743   0.389
 1439SOL    HW221460   4.489   0.751   0.253
 1440SOL     OW21461   0.012   5.320   1.928
 1440SOL    HW121462  -0.064   5.360   1.971
 1440SOL    HW221463   0.084   5.381   1.943
 1441SOL     OW21464   2.302   2.739   1.154
 1441SOL    HW121465   2.274   2.728   1.245
 1441SOL    HW221466   2.283   2.654   1.113
 1442SOL     OW21467   3.528   3.097   6.639
 1442SOL    HW121468   3.452   3.048   6.669
 1442SOL    HW221469   3.522   3.181   6.684
 1443SOL     OW21470   3.918   1.616   7.671
 1443SOL    HW121471   3.942   1.574   7.755
 1443SOL    HW221472   3.857   1.555   7.630
 1444SOL     OW21473   2.511   0.753   0.518
 1444SOL    HW121474   2.504   0.745   0.424
 1444SOL    HW221475   2.488   0.844   0.536
 1445SOL     OW21476   3.434   5.116   0.074
 1445SOL    HW121477   3.389   5.200   0.083
 1445SOL    HW221478   3.517   5.139   0.030
 1446SOL     OW21479   4.957   0.643   6.402
 1446SOL    HW121480   4.955   0.649   6.307
 1446SOL    HW221481   4.952   0.733   6.433
 1447SOL     OW21482   1.920   0.140   1.306
 1447SOL    HW121483   1.963   0.064   1.266
 1447SOL    HW221484   1.944   0.215   1.250
 1448SOL     OW21485   0.762   5.345   0.676
 1448SOL    HW121486   0.825   5.416   0.662
 1448SOL    HW221487   0.812   5.265   0.661
 1449SOL     OW21488   3.853   5.719   1.803
 1449SOL    HW121489   3.873   5.676   1.886
 1449SOL    HW221490   3.763   5.692   1.783
 1450SOL     OW21491   4.838   2.644   0.835
 1450SOL    HW121492   4.786   2.584   0.887
 1450SOL    HW221493   4.848   2.722   0.890
 1451SOL     OW21494   0.661   1.646   2.220
 1451SOL    HW121495   0.723   1.598   2.275
 1451SOL    HW221496   0.581   1.594   2.223
 1452SOL     OW21497   6.162   2.946   6.061
 1452SOL    HW121498   6.111   2.906   6.131
 1452SOL    HW221499   6.103   2.946   5.985
 1453SOL     OW21500   2.636   2.204   0.481
 1453SOL    HW121501   2.647   2.272   0.546
 1453SOL    HW221502   2.618   2.251   0.400
 1454SOL     OW21503   4.976   2.004   5.483
 1454SOL    HW121504   5.031   1.956   5.421
 1454SOL    HW221505   4.933   2.071   5.429
 1455SOL     OW21506   0.898   1.930   6.342
 1455SOL    HW121507   0.978   1.878   6.331
 1455SOL    HW221508   0.827   1.866   6.333
 1456SOL     OW21509   1.033   4.114   0.648
 1456SOL    HW121510   0.963   4.055   0.619
 1456SOL    HW221511   1.096   4.056   0.691
 1457SOL     OW21512   4.388   2.461   7.562
 1457SOL    HW121513   4.418   2.412   7.486
 1457SOL    HW221514   4.460   2.521   7.583
 1458SOL     OW21515   5.424   0.820   5.543
 1458SOL    HW121516   5.429   0.764   5.620
 1458SOL    HW221517   5.354   0.883   5.563
 1459SOL     OW21518   5.531   0.468   7.049
 1459SOL    HW121519   5.513   0.375   7.061
 1459SOL    HW221520   5.612   0.471   6.999
 1460SOL     OW21521   3.407   2.465   0.190
 1460SOL    HW121522   3.490   2.479   0.144
 1460SOL    HW221523   3.383   2.552   0.222
 1461SOL     OW21524   5.365   5.188   1.306
 1461SOL    HW121525   5.386   5.267   1.357
 1461SOL    HW221526   5.436   5.181   1.242
 1462SOL     OW21527   4.810   2.299   7.750
 1462SOL    HW121528   4.888   2.249   7.773
 1462SOL    HW221529   4.840   2.364   7.687
 1463SOL     OW21530   4.808   6.335   6.634
 1463SOL    HW121531   4.863   6.408   6.604
 1463SOL    HW221532   4.839   6.316   6.722
 1464SOL     OW21533   4.931   2.268   5.847
 1464SOL    HW121534   4.908   2.295   5.758
 1464SOL    HW221535   4.856   2.296   5.900
 1465SOL     OW21536   1.464   3.752   6.134
 1465SOL    HW121537   1.453   3.813   6.061
 1465SOL    HW221538   1.501   3.673   6.094
 1466SOL     OW21539   0.329   2.686   6.311
 1466SOL    HW121540   0.411   2.728   6.338
 1466SOL    HW221541   0.291   2.654   6.393
 1467SOL     OW21542   4.123   5.335   7.450
 1467SOL    HW121543   4.117   5.387   7.530
 1467SOL    HW221544   4.155   5.249   7.479
 1468SOL     OW21545   0.422   5.906   1.522
 1468SOL    HW121546   0.492   5.947   1.471
 1468SOL    HW221547   0.467   5.845   1.580
 1469SOL     OW21548   1.879   6.321   0.768
 1469SOL    HW121549   1.909   6.244   0.815
 1469SOL    HW221550   1.864   6.387   0.836
 1470SOL     OW21551   4.705   4.963   1.443
 1470SOL    HW121552   4.791   4.927   1.465
 1470SOL    HW221553   4.652   4.948   1.521
 1471SOL     OW21554   5.716   2.231   0.220
 1471SOL    HW121555   5.712   2.323   0.247
 1471SOL    HW221556   5.731   2.183   0.302
 1472SOL     OW21557   2.723   4.441   6.478
 1472SOL    HW121558   2.710   4.408   6.567
 1472SOL    HW221559   2.714   4.536   6.486
 1473SOL     OW21560   1.015   0.601   0.600
 1473SOL    HW121561   0.988   0.513   0.626
 1473SOL    HW221562   1.030   0.595   0.507
 1474SOL     OW21563   5.790   4.821   7.354
 1474SOL    HW121564   5.720   4.758   7.370
 1474SOL    HW221565   5.816   4.806   7.263
 1475SOL     OW21566   6.267   0.864   0.820
 1475SOL    HW121567   6.265   0.787   0.876
 1475SOL    HW221568   6.359   0.888   0.815
 1476SOL     OW21569   1.227   4.964   0.787
 1476SOL    HW121570   1.289   4.921   0.846
 1476SOL    HW221571   1.272   4.967   0.702
 1477SOL     OW21572   5.771   0.624   1.674
 1477SOL    HW121573   5.756   0.557   1.742
 1477SOL    HW221574   5.777   0.706   1.723
 1478SOL     OW21575   2.551   2.609   7.263
 1478SOL    HW121576   2.461   2.597   7.232
 1478SOL    HW221577   2.542   2.627   7.357
 1479SOL     OW21578   4.504   1.903   1.785
 1479SOL    HW121579   4.487   1.830   1.845
 1479SOL    HW221580   4.419   1.921   1.745
 1480SOL     OW21581   1.143   3.635   6.791
 1480SOL    HW121582   1.118   3.543   6.790
 1480SOL    HW221583   1.183   3.648   6.877
 1481SOL     OW21584   5.476   1.239   6.094
 1481SOL    HW121585   5.459   1.152   6.058
 1481SOL    HW221586   5.461   1.298   6.020
 1482SOL     OW21587   2.463   3.806   6.999
 1482SOL    HW121588   2.545   3.820   7.045
 1482SOL    HW221589   2.395   3.830   7.062
 1483SOL     OW21590   1.109   2.843   6.698
 1483SOL    HW121591   1.166   2.785   6.649
 1483SOL    HW221592   1.115   2.813   6.789
 1484SOL     OW21593   4.998   3.118   7.716
 1484SOL    HW121594   4.970   3.113   7.623
 1484SOL    HW221595   5.046   3.037   7.732
 1485SOL     OW21596   0.857   1.041   5.277
 1485SOL    HW121597   0.860   1.135   5.298
 1485SOL    HW221598   0.931   1.003   5.324
 1486SOL     OW21599   1.750   4.978   6.249
 1486SOL    HW121600   1.741   5.071   6.226
 1486SOL    HW221601   1.752   4.978   6.345
 1487SOL     OW21602   5.986   6.130   0.307
 1487SOL    HW121603   5.912   6.120   0.368
 1487SOL    HW221604   6.021   6.042   0.298
 1488SOL     OW21605   0.831   1.198   1.484
 1488SOL    HW121606   0.789   1.145   1.552
 1488SOL    HW221607   0.836   1.286   1.522
 1489SOL     OW21608   0.444   0.991   1.795
 1489SOL    HW121609   0.527   1.019   1.755
 1489SOL    HW221610   0.462   0.903   1.828
 1490SOL     OW21611   4.551   2.937   0.789
 1490SOL    HW121612   4.510   2.955   0.873
 1490SOL    HW221613   4.559   3.023   0.747
 1491SOL     OW21614   3.813   2.024   6.398
 1491SOL    HW121615   3.869   1.997   6.471
 1491SOL    HW221616   3.773   1.943   6.366
 1492SOL     OW21617   0.392   0.394   6.996
 1492SOL    HW121618   0.364   0.422   7.082
 1492SOL    HW221619   0.472   0.444   6.979
 1493SOL     OW21620   0.004   3.328   7.352
 1493SOL    HW121621   0.050   3.249   7.379
 1493SOL    HW221622  -0.028   3.366   7.434
 1494SOL     OW21623  -0.001   2.384   1.730
 1494SOL    HW121624  -0.003   2.342   1.816
 1494SOL    HW221625   0.079   2.351   1.690
 1495SOL     OW21626   3.602   0.778   6.614
 1495SOL    HW121627   3.590   0.733   6.530
 1495SOL    HW221628   3.515   0.811   6.637
 1496SOL     OW21629   2.936   3.756   6.069
 1496SOL    HW121630   2.905   3.771   6.159
 1496SOL    HW221631   2.940   3.843   6.030
 1497SOL     OW21632   0.412   0.562   5.834
 1497SOL    HW121633   0.345   0.577   5.900
 1497SOL    HW221634   0.490   0.537   5.884
 1498SOL     OW21635   6.057   1.590   2.079
 1498SOL    HW121636   6.068   1.581   1.984
 1498SOL    HW221637   6.145   1.611   2.111
 1499SOL     OW21638   3.696   5.417   2.457
 1499SOL    HW121639   3.665   5.458   2.538
 1499SOL    HW221640   3.791   5.423   2.461
 1500SOL     OW21641   0.905   4.355   2.160
 1500SOL    HW121642   0.922   4.365   2.067
 1500SOL    HW221643   0.812   4.373   2.170
 1501SOL     OW21644   6.152   3.353   5.487
 1501SOL    HW121645   6.153   3.267   5.527
 1501SOL    HW221646   6.213   3.346   5.413
 1502SOL     OW21647   1.822   6.296   6.334
 1502SOL    HW121648   1.790   6.374   6.290
 1502SOL    HW221649   1.790   6.223   6.280
 1503SOL     OW21650   1.750   4.326   1.481
 1503SOL    HW121651   1.674   4.271   1.500
 1503SOL    HW221652   1.814   4.265   1.443
 1504SOL     OW21653   2.194   1.109   7.400
 1504SOL    HW121654   2.169   1.158   7.478
 1504SOL    HW221655   2.132   1.140   7.333
 1505SOL     OW21656   4.851   0.111   0.797
 1505SOL    HW121657   4.888   0.177   0.737
 1505SOL    HW221658   4.925   0.055   0.821
 1506SOL     OW21659   4.573   6.134   1.495
 1506SOL    HW121660   4.659   6.177   1.494
 1506SOL    HW221661   4.574   6.082   1.575
 1507SOL     OW21662   2.788   0.635   7.565
 1507SOL    HW121663   2.829   0.614   7.481
 1507SOL    HW221664   2.769   0.729   7.561
 1508SOL     OW21665   4.194   3.654   5.539
 1508SOL    HW121666   4.280   3.622   5.510
 1508SOL    HW221667   4.132   3.587   5.509
 1509SOL     OW21668   5.548   5.996   2.278
 1509SOL    HW121669   5.537   6.071   2.336
 1509SOL    HW221670   5.640   5.997   2.255
 1510SOL     OW21671   1.352   5.490   1.012
 1510SOL    HW121672   1.311   5.576   1.002
 1510SOL    HW221673   1.281   5.427   1.000
 1511SOL     OW21674   1.450   2.078   1.164
 1511SOL    HW121675   1.374   2.135   1.171
 1511SOL    HW221676   1.418   1.991   1.184
 1512SOL     OW21677   5.562   2.641   7.420
 1512SOL    HW121678   5.624   2.585   7.466
 1512SOL    HW221679   5.616   2.709   7.380
 1513SOL     OW21680   4.891   2.411   1.501
 1513SOL    HW121681   4.932   2.333   1.465
 1513SOL    HW221682   4.963   2.472   1.517
 1514SOL     OW21683   2.887   2.731   0.136
 1514SOL    HW121684   2.913   2.692   0.053
 1514SOL    HW221685   2.795   2.705   0.147
 1515SOL     OW21686   3.233   2.887   7.241
 1515SOL    HW121687   3.266   2.846   7.162
 1515SOL    HW221688   3.144   2.915   7.218
 1516SOL     OW21689   3.518   6.427   7.090
 1516SOL    HW121690   3.541   6.338   7.065
 1516SOL    HW221691   3.424   6.434   7.069
 1517SOL     OW21692   0.499   4.062   2.274
 1517SOL    HW121693   0.494   4.151   2.240
 1517SOL    HW221694   0.408   4.035   2.284
 1518SOL     OW21695   0.131   4.078   2.290
 1518SOL    HW121696   0.162   4.003   2.342
 1518SOL    HW221697   0.148   4.154   2.344
 1519SOL     OW21698   0.057   3.860   1.524
 1519SOL    HW121699   0.152   3.852   1.516
 1519SOL    HW221700   0.036   3.937   1.471
 1520SOL     OW21701   3.064   2.014   6.010
 1520SOL    HW121702   3.043   1.932   6.055
 1520SOL    HW221703   2.981   2.043   5.972
 1521SOL     OW21704   4.913   4.374   1.009
 1521SOL    HW121705   4.869   4.415   1.083
 1521SOL    HW221706   4.843   4.358   0.946
 1522SOL     OW21707   3.981   5.855   1.260
 1522SOL    HW121708   4.044   5.868   1.332
 1522SOL    HW221709   3.983   5.938   1.212
 1523SOL     OW21710   6.387   1.541   5.797
 1523SOL    HW121711   6.458   1.506   5.851
 1523SOL    HW221712   6.325   1.469   5.787
 1524SOL     OW21713   6.217   6.424   0.176
 1524SOL    HW121714   6.122   6.433   0.181
 1524SOL    HW221715   6.234   6.332   0.195
 1525SOL     OW21716   4.791   2.770   6.437
 1525SOL    HW121717   4.862   2.820   6.398
 1525SOL    HW221718   4.807   2.679   6.411
 1526SOL     OW21719   4.575   1.226   2.234
 1526SOL    HW121720   4.615   1.312   2.246
 1526SOL    HW221721   4.525   1.234   2.153
 1527SOL     OW21722   1.976   3.204   1.030
 1527SOL    HW121723   1.976   3.177   1.122
 1527SOL    HW221724   1.913   3.277   1.027
 1528SOL     OW21725   2.247   1.339   0.367
 1528SOL    HW121726   2.241   1.252   0.328
 1528SOL    HW221727   2.234   1.399   0.294
 1529SOL     OW21728   0.214   1.657   1.388
 1529SOL    HW121729   0.183   1.670   1.478
 1529SOL    HW221730   0.307   1.679   1.392
 1530SOL     OW21731   2.351   6.030   0.558
 1530SOL    HW121732   2.298   6.106   0.532
 1530SOL    HW221733   2.372   5.986   0.476
 1531SOL     OW21734   2.802   3.649   5.767
 1531SOL    HW121735   2.896   3.634   5.757
 1531SOL    HW221736   2.795   3.700   5.848
 1532SOL     OW21737   6.240   6.442   7.694
 1532SOL    HW121738   6.240   6.402   7.780
 1532SOL    HW221739   6.331   6.465   7.676
 1533SOL     OW21740   2.546   4.300   0.196
 1533SOL    HW121741   2.473   4.245   0.167
 1533SOL    HW221742   2.529   4.385   0.154
 1534SOL     OW21743   3.935   6.293   1.350
 1534SOL    HW121744   3.935   6.385   1.379
 1534SOL    HW221745   3.939   6.243   1.431
 1535SOL     OW21746   5.612   3.650   7.123
 1535SOL    HW121747   5.559   3.720   7.086
 1535SOL    HW221748   5.561   3.619   7.198
 1536SOL     OW21749   0.690   3.574   0.099
 1536SOL    HW121750   0.694   3.532   0.185
 1536SOL    HW221751   0.780   3.601   0.081
 1537SOL     OW21752   0.309   5.942   6.170
 1537SOL    HW121753   0.288   5.890   6.093
 1537SOL    HW221754   0.343   5.878   6.234
 1538SOL     OW21755   2.574   3.901   0.025
 1538SOL    HW121756   2.614   3.814   0.028
 1538SOL    HW221757   2.633   3.955   0.078
 1539SOL     OW21758   5.843   0.759   5.622
 1539SOL    HW121759   5.903   0.833   5.635
 1539SOL    HW221760   5.886   0.685   5.665
 1540SOL     OW21761   0.283   2.468   1.355
 1540SOL    HW121762   0.248   2.468   1.444
 1540SOL    HW221763   0.339   2.390   1.350
 1541SOL     OW21764   6.175   1.859   7.679
 1541SOL    HW121765   6.191   1.777   7.728
 1541SOL    HW221766   6.254   1.910   7.695
 1542SOL     OW21767   4.083   1.480   6.771
 1542SOL    HW121768   4.094   1.551   6.708
 1542SOL    HW221769   4.087   1.400   6.717
 1543SOL     OW21770   5.617   0.106   5.945
 1543SOL    HW121771   5.668   0.076   5.870
 1543SOL    HW221772   5.670   0.083   6.021
 1544SOL     OW21773   2.373   2.169   7.779
 1544SOL    HW121774   2.391   2.260   7.805
 1544SOL    HW221775   2.348   2.125   7.860
 1545SOL     OW21776   5.295   4.118   7.775
 1545SOL    HW121777   5.350   4.156   7.707
 1545SOL    HW221778   5.304   4.024   7.763
 1546SOL     OW21779   2.465   3.026   0.865
 1546SOL    HW121780   2.520   3.068   0.798
 1546SOL    HW221781   2.399   3.092   0.885
 1547SOL     OW21782   2.995   2.114   7.288
 1547SOL    HW121783   2.990   2.031   7.336
 1547SOL    HW221784   2.905   2.147   7.289
 1548SOL     OW21785   4.794   3.901   0.427
 1548SOL    HW121786   4.756   3.830   0.479
 1548SOL    HW221787   4.718   3.953   0.398
 1549SOL     OW21788   5.910   3.123   1.532
 1549SOL    HW121789   5.907   3.173   1.613
 1549SOL    HW221790   5.863   3.177   1.468
 1550SOL     OW21791   5.934   6.218   6.568
 1550SOL    HW121792   5.915   6.154   6.499
 1550SOL    HW221793   5.899   6.178   6.648
 1551SOL     OW21794   3.213   5.039   1.115
 1551SOL    HW121795   3.224   4.974   1.184
 1551SOL    HW221796   3.128   5.019   1.076
 1552SOL     OW21797   3.302   5.918   1.802
 1552SOL    HW121798   3.287   5.963   1.885
 1552SOL    HW221799   3.222   5.934   1.752
 1553SOL     OW21800   5.792   4.363   6.821
 1553SOL    HW121801   5.772   4.394   6.909
 1553SOL    HW221802   5.721   4.399   6.766
 1554SOL     OW21803   2.570   0.515   7.202
 1554SOL    HW121804   2.547   0.607   7.215
 1554SOL    HW221805   2.488   0.474   7.175
 1555SOL     OW21806   5.986   3.787   6.570
 1555SOL    HW121807   6.026   3.869   6.540
 1555SOL    HW221808   5.959   3.804   6.660
 1556SOL     OW21809   2.257   0.515   6.821
 1556SOL    HW121810   2.182   0.562   6.858
 1556SOL    HW221811   2.308   0.583   6.776
 1557SOL     OW21812   1.122   0.325   6.773
 1557SOL    HW121813   1.052   0.264   6.795
 1557SOL    HW221814   1.101   0.404   6.822
 1558SOL     OW21815   1.817   2.181   5.944
 1558SOL    HW121816   1.848   2.135   5.866
 1558SOL    HW221817   1.840   2.122   6.016
 1559SOL     OW21818   4.949   0.839   7.433
 1559SOL    HW121819   4.974   0.928   7.409
 1559SOL    HW221820   4.855   0.845   7.453
 1560SOL     OW21821   2.471   4.020   0.701
 1560SOL    HW121822   2.515   4.028   0.617
 1560SOL    HW221823   2.439   3.930   0.703
 1561SOL     OW21824   3.141   6.097   1.106
 1561SOL    HW121825   3.130   6.157   1.032
 1561SOL    HW221826   3.132   6.010   1.068
 1562SOL     OW21827   5.571   2.252   7.348
 1562SOL    HW121828   5.494   2.290   7.307
 1562SOL    HW221829   5.624   2.219   7.275
 1563SOL     OW21830   2.427   5.203   0.714
 1563SOL    HW121831   2.421   5.116   0.752
 1563SOL    HW221832   2.520   5.215   0.696
 1564SOL     OW21833   4.581   4.903   6.743
 1564SOL    HW121834   4.671   4.934   6.744
 1564SOL    HW221835   4.585   4.818   6.698
 1565SOL     OW21836   2.301   4.478   7.665
 1565SOL    HW121837   2.271   4.388   7.659
 1565SOL    HW221838   2.284   4.516   7.578
 1566SOL     OW21839   3.708   1.924   7.382
 1566SOL    HW121840   3.736   1.848   7.433
 1566SOL    HW221841   3.651   1.973   7.441
 1567SOL     OW21842   2.857   1.460   6.492
 1567SOL    HW121843   2.935   1.446   6.439
 1567SOL    HW221844   2.786   1.420   6.442
 1568SOL     OW21845   5.519   2.265   0.050
 1568SOL    HW121846   5.544   2.193  -0.008
 1568SOL    HW221847   5.589   2.269   0.115
 1569SOL     OW21848   2.132   4.554   6.410
 1569SOL    HW121849   2.160   4.555   6.319
 1569SOL    HW221850   2.156   4.468   6.442
 1570SOL     OW21851   0.065   2.475   1.128
 1570SOL    HW121852   0.139   2.416   1.145
 1570SOL    HW221853   0.099   2.537   1.063
 1571SOL     OW21854   0.017   3.369   1.348
 1571SOL    HW121855   0.065   3.295   1.311
 1571SOL    HW221856  -0.075   3.345   1.337
 1572SOL     OW21857   0.367   1.120   7.069
 1572SOL    HW121858   0.342   1.028   7.061
 1572SOL    HW221859   0.288   1.168   7.046
 1573SOL     OW21860   5.486   1.631   6.926
 1573SOL    HW121861   5.522   1.710   6.887
 1573SOL    HW221862   5.520   1.560   6.872
 1574SOL     OW21863   0.343   1.051   7.543
 1574SOL    HW121864   0.312   1.007   7.463
 1574SOL    HW221865   0.295   1.008   7.613
 1575SOL     OW21866   6.104   3.103   0.752
 1575SOL    HW121867   6.057   3.162   0.694
 1575SOL    HW221868   6.042   3.084   0.822
 1576SOL     OW21869   2.128   0.561   5.894
 1576SOL    HW121870   2.084   0.593   5.816
 1576SOL    HW221871   2.215   0.603   5.891
 1577SOL     OW21872   6.189   3.200   7.194
 1577SOL    HW121873   6.172   3.279   7.246
 1577SOL    HW221874   6.268   3.221   7.145
 1578SOL     OW21875   0.041   0.435   6.455
 1578SOL    HW121876   0.048   0.515   6.506
 1578SOL    HW221877   0.014   0.368   6.518
 1579SOL     OW21878   5.167   0.545   0.130
 1579SOL    HW121879   5.206   0.502   0.206
 1579SOL    HW221880   5.240   0.565   0.072
 1580SOL     OW21881   3.238   2.837   5.244
 1580SOL    HW121882   3.158   2.887   5.254
 1580SOL    HW221883   3.306   2.890   5.286
 1581SOL     OW21884   4.877   3.783   6.622
 1581SOL    HW121885   4.942   3.713   6.613
 1581SOL    HW221886   4.901   3.826   6.704
 1582SOL     OW21887   4.923   4.095   0.778
 1582SOL    HW121888   4.841   4.137   0.802
 1582SOL    HW221889   4.964   4.073   0.862
 1583SOL     OW21890   0.172   3.766   0.739
 1583SOL    HW121891   0.161   3.741   0.830
 1583SOL    HW221892   0.198   3.858   0.742
 1584SOL     OW21893   3.709   1.480   1.538
 1584SOL    HW121894   3.633   1.437   1.499
 1584SOL    HW221895   3.784   1.430   1.507
 1585SOL     OW21896   6.032   3.825   0.619
 1585SOL    HW121897   5.978   3.800   0.694
 1585SOL    HW221898   6.008   3.915   0.601
 1586SOL     OW21899   0.248   4.010   0.751
 1586SOL    HW121900   0.271   4.024   0.843
 1586SOL    HW221901   0.330   3.985   0.709
 1587SOL     OW21902   5.262   1.958   7.316
 1587SOL    HW121903   5.214   1.904   7.379
 1587SOL    HW221904   5.274   2.042   7.360
 1588SOL     OW21905   5.902   2.291   1.675
 1588SOL    HW121906   5.817   2.324   1.703
 1588SOL    HW221907   5.965   2.334   1.732
 1589SOL     OW21908   1.347   4.572   6.228
 1589SOL    HW121909   1.440   4.595   6.225
 1589SOL    HW221910   1.318   4.578   6.137
 1590SOL     OW21911   5.607   2.374   6.035
 1590SOL    HW121912   5.516   2.391   6.014
 1590SOL    HW221913   5.627   2.292   5.990
 1591SOL     OW21914   3.186   5.148   5.382
 1591SOL    HW121915   3.104   5.149   5.430
 1591SOL    HW221916   3.203   5.056   5.363
 1592SOL     OW21917   1.240   3.121   5.886
 1592SOL    HW121918   1.328   3.158   5.893
 1592SOL    HW221919   1.181   3.196   5.892
 1593SOL     OW21920   1.451   1.409   0.866
 1593SOL    HW121921   1.422   1.382   0.953
 1593SOL    HW221922   1.437   1.331   0.812
 1594SOL     OW21923   2.618   3.993   0.476
 1594SOL    HW121924   2.614   3.901   0.448
 1594SOL    HW221925   2.712   4.012   0.481
 1595SOL     OW21926   1.236   5.562   7.133
 1595SOL    HW121927   1.178   5.579   7.059
 1595SOL    HW221928   1.324   5.582   7.100
 1596SOL     OW21929   2.153   2.396   7.243
 1596SOL    HW121930   2.221   2.450   7.202
 1596SOL    HW221931   2.144   2.431   7.331
 1597SOL     OW21932   0.266   2.629   6.566
 1597SOL    HW121933   0.343   2.584   6.602
 1597SOL    HW221934   0.196   2.564   6.569
 1598SOL     OW21935   0.332   4.134   1.414
 1598SOL    HW121936   0.327   4.044   1.446
 1598SOL    HW221937   0.242   4.167   1.420
 1599SOL     OW21938   4.862   3.701   1.197
 1599SOL    HW121939   4.779   3.747   1.206
 1599SOL    HW221940   4.840   3.620   1.151
 1600SOL     OW21941   2.857   4.227   6.380
 1600SOL    HW121942   2.944   4.260   6.402
 1600SOL    HW221943   2.798   4.299   6.399
 1601SOL     OW21944   0.295   5.436   7.414
 1601SOL    HW121945   0.348   5.513   7.394
 1601SOL    HW221946   0.318   5.373   7.346
 1602SOL     OW21947   5.784   4.348   0.085
 1602SOL    HW121948   5.873   4.347   0.120
 1602SOL    HW221949   5.794   4.333  -0.009
 1603SOL     OW21950   2.091   2.078   6.119
 1603SOL    HW121951   2.109   2.172   6.113
 1603SOL    HW221952   2.155   2.038   6.061
 1604SOL     OW21953   6.294   2.985   5.281
 1604SOL    HW121954   6.270   2.916   5.342
 1604SOL    HW221955   6.267   2.952   5.195
 1605SOL     OW21956   3.470   4.864   7.402
 1605SOL    HW121957   3.398   4.902   7.452
 1605SOL    HW221958   3.539   4.849   7.468
 1606SOL     OW21959   1.756   5.007   0.222
 1606SOL    HW121960   1.757   4.914   0.246
 1606SOL    HW221961   1.784   5.008   0.131
 1607SOL     OW21962   3.855   1.245   1.457
 1607SOL    HW121963   3.766   1.233   1.491
 1607SOL    HW221964   3.903   1.170   1.490
 1608SOL     OW21965   0.734   3.523   0.575
 1608SOL    HW121966   0.681   3.513   0.498
 1608SOL    HW221967   0.703   3.605   0.615
 1609SOL     OW21968   2.844   2.568   1.604
 1609SOL    HW121969   2.763   2.551   1.652
 1609SOL    HW221970   2.912   2.569   1.672
 1610SOL     OW21971   1.767   6.430   5.396
 1610SOL    HW121972   1.697   6.472   5.346
 1610SOL    HW221973   1.789   6.352   5.346
 1611SOL     OW21974   0.179   1.317   6.996
 1611SOL    HW121975   0.107   1.381   6.991
 1611SOL    HW221976   0.135   1.233   7.008
 1612SOL     OW21977   0.907   5.221   1.847
 1612SOL    HW121978   0.926   5.295   1.790
 1612SOL    HW221979   0.812   5.210   1.841
 1613SOL     OW21980   3.589   6.085   5.605
 1613SOL    HW121981   3.546   6.155   5.654
 1613SOL    HW221982   3.520   6.046   5.552
 1614SOL     OW21983   1.254   1.842   7.430
 1614SOL    HW121984   1.162   1.841   7.402
 1614SOL    HW221985   1.280   1.750   7.430
 1615SOL     OW21986   2.376   0.065   6.028
 1615SOL    HW121987   2.414   0.045   6.114
 1615SOL    HW221988   2.419   0.004   5.968
 1616SOL     OW21989   2.331   6.156   7.624
 1616SOL    HW121990   2.270   6.145   7.551
 1616SOL    HW221991   2.345   6.251   7.629
 1617SOL     OW21992   5.071   6.235   1.673
 1617SOL    HW121993   4.985   6.212   1.638
 1617SOL    HW221994   5.091   6.319   1.631
 1618SOL     OW21995   3.860   3.659   1.302
 1618SOL    HW121996   3.780   3.610   1.282
 1618SOL    HW221997   3.850   3.685   1.393
 1619SOL     OW21998   5.444   3.949   6.232
 1619SOL    HW121999   5.497   4.020   6.195
 1619SOL    HW222000   5.359   3.957   6.191
 1620SOL     OW22001   2.321   5.720   0.773
 1620SOL    HW122002   2.336   5.727   0.867
 1620SOL    HW222003   2.311   5.626   0.758
 1621SOL     OW22004   2.140   2.260   0.561
 1621SOL    HW122005   2.152   2.198   0.633
 1621SOL    HW222006   2.059   2.233   0.519
 1622SOL     OW22007   1.114   5.476   2.011
 1622SOL    HW122008   1.022   5.464   2.036
 1622SOL    HW222009   1.163   5.466   2.093
 1623SOL     OW22010   5.136   1.412   0.991
 1623SOL    HW122011   5.122   1.470   1.065
 1623SOL    HW222012   5.060   1.354   0.991
 1624SOL     OW22013   5.565   3.385   0.533
 1624SOL    HW122014   5.627   3.357   0.600
 1624SOL    HW222015   5.554   3.479   0.547
 1625SOL     OW22016   2.500   1.780   1.754
 1625SOL    HW122017   2.467   1.837   1.684
 1625SOL    HW222018   2.500   1.693   1.715
 1626SOL     OW22019   1.486   1.614   1.655
 1626SOL    HW122020   1.416   1.678   1.671
 1626SOL    HW222021   1.536   1.613   1.736
 1627SOL     OW22022   2.858   2.357   5.781
 1627SOL    HW122023   2.948   2.324   5.774
 1627SOL    HW222024   2.805   2.279   5.797
 1628SOL     OW22025   3.158   0.514   0.005
 1628SOL    HW122026   3.236   0.459   0.008
 1628SOL    HW222027   3.096   0.465  -0.049
 1629SOL     OW22028   1.171   3.999   7.222
 1629SOL    HW122029   1.253   4.034   7.188
 1629SOL    HW222030   1.160   4.040   7.308
 1630SOL     OW22031   2.289   2.954   0.032
 1630SOL    HW122032   2.269   2.950   0.125
 1630SOL    HW222033   2.348   2.880   0.016
 1631SOL     OW22034   5.006   3.311   0.955
 1631SOL    HW122035   5.065   3.375   0.914
 1631SOL    HW222036   5.031   3.228   0.916
 1632SOL     OW22037   4.983   5.277   7.171
 1632SOL    HW122038   4.901   5.327   7.179
 1632SOL    HW222039   4.970   5.223   7.093
 1633SOL     OW22040   4.271   4.219   0.808
 1633SOL    HW122041   4.289   4.266   0.726
 1633SOL    HW222042   4.323   4.139   0.802
 1634SOL     OW22043   2.635   3.675   6.090
 1634SOL    HW122044   2.646   3.581   6.076
 1634SOL    HW222045   2.708   3.700   6.146
 1635SOL     OW22046   3.729   2.322   1.077
 1635SOL    HW122047   3.817   2.286   1.087
 1635SOL    HW222048   3.711   2.365   1.160
 1636SOL     OW22049   5.432   6.272   0.661
 1636SOL    HW122050   5.343   6.263   0.696
 1636SOL    HW222051   5.479   6.197   0.698
 1637SOL     OW22052   0.030   1.281   1.719
 1637SOL    HW122053   0.077   1.334   1.783
 1637SOL    HW222054   0.015   1.197   1.763
 1638SOL     OW22055   1.338   1.477   6.272
 1638SOL    HW122056   1.257   1.428   6.284
 1638SOL    HW222057   1.381   1.433   6.199
 1639SOL     OW22058   4.333   1.318   6.495
 1639SOL    HW122059   4.402   1.373   6.533
 1639SOL    HW222060   4.377   1.270   6.424
 1640SOL     OW22061   0.478   5.119   0.358
 1640SOL    HW122062   0.447   5.075   0.437
 1640SOL    HW222063   0.573   5.115   0.363
 1641SOL     OW22064   4.281   2.816   5.694
 1641SOL    HW122065   4.283   2.755   5.768
 1641SOL    HW222066   4.254   2.899   5.732
 1642SOL     OW22067   2.043   6.397   5.333
 1642SOL    HW122068   2.052   6.329   5.399
 1642SOL    HW222069   1.951   6.424   5.338
 1643SOL     OW22070   6.430   5.987   6.550
 1643SOL    HW122071   6.442   5.894   6.530
 1643SOL    HW222072   6.455   6.032   6.469
 1644SOL     OW22073   4.666   4.619   6.628
 1644SOL    HW122074   4.619   4.551   6.676
 1644SOL    HW222075   4.758   4.607   6.653
 1645SOL     OW22076   4.487   6.386   2.043
 1645SOL    HW122077   4.562   6.357   2.095
 1645SOL    HW222078   4.432   6.433   2.106
 1646SOL     OW22079   2.101   3.309   6.891
 1646SOL    HW122080   2.083   3.307   6.985
 1646SOL    HW222081   2.197   3.314   6.886
 1647SOL     OW22082   2.623   5.067   6.399
 1647SOL    HW122083   2.632   5.134   6.331
 1647SOL    HW222084   2.694   5.005   6.381
 1648SOL     OW22085   5.416   3.979   6.518
 1648SOL    HW122086   5.425   3.970   6.423
 1648SOL    HW222087   5.377   4.066   6.530
 1649SOL     OW22088   0.542   4.470   0.356
 1649SOL    HW122089   0.604   4.407   0.320
 1649SOL    HW222090   0.545   4.456   0.450
 1650SOL     OW22091  -0.002   5.012   7.801
 1650SOL    HW122092   0.071   4.970   7.755
 1650SOL    HW222093  -0.023   4.951   7.871
 1651SOL     OW22094   4.763   1.298   1.580
 1651SOL    HW122095   4.728   1.328   1.664
 1651SOL    HW222096   4.720   1.214   1.565
 1652SOL     OW22097   2.033   0.568   1.960
 1652SOL    HW122098   2.108   0.626   1.974
 1652SOL    HW222099   2.067   0.498   1.905
 1653SOL     OW22100   4.199   1.661   5.584
 1653SOL    HW122101   4.152   1.736   5.547
 1653SOL    HW222102   4.287   1.695   5.602
 1654SOL     OW22103   5.229   4.714   0.180
 1654SOL    HW122104   5.308   4.685   0.135
 1654SOL    HW222105   5.255   4.718   0.272
 1655SOL     OW22106   5.983   5.853   1.798
 1655SOL    HW122107   6.011   5.809   1.878
 1655SOL    HW222108   5.890   5.871   1.811
 1656SOL     OW22109   3.703   5.430   5.273
 1656SOL    HW122110   3.620   5.418   5.228
 1656SOL    HW222111   3.748   5.346   5.266
 1657SOL     OW22112   1.157   4.612   6.717
 1657SOL    HW122113   1.120   4.630   6.631
 1657SOL    HW222114   1.250   4.595   6.701
 1658SOL     OW22115   6.416   2.041   5.565
 1658SOL    HW122116   6.455   1.969   5.515
 1658SOL    HW222117   6.430   2.017   5.657
 1659SOL     OW22118   2.642   5.705   1.171
 1659SOL    HW122119   2.711   5.744   1.118
 1659SOL    HW222120   2.662   5.611   1.172
 1660SOL     OW22121   0.448   1.765   1.026
 1660SOL    HW122122   0.514   1.827   1.058
 1660SOL    HW222123   0.395   1.745   1.103
 1661SOL     OW22124   3.881   1.092   7.386
 1661SOL    HW122125   3.948   1.039   7.431
 1661SOL    HW222126   3.880   1.058   7.297
 1662SOL     OW22127   6.095   0.176   7.503
 1662SOL    HW122128   6.071   0.177   7.595
 1662SOL    HW222129   6.152   0.098   7.494
 1663SOL     OW22130   2.092   3.522   2.084
 1663SOL    HW122131   2.043   3.500   2.164
 1663SOL    HW222132   2.041   3.593   2.045
 1664SOL     OW22133   1.213   1.070   7.105
 1664SOL    HW122134   1.207   1.024   7.021
 1664SOL    HW222135   1.262   1.150   7.086
 1665SOL     OW22136   0.585   5.164   6.912
 1665SOL    HW122137   0.515   5.208   6.961
 1665SOL    HW222138   0.584   5.207   6.826
 1666SOL     OW22139   4.924   3.627   6.142
 1666SOL    HW122140   4.933   3.588   6.229
 1666SOL    HW222141   4.894   3.556   6.087
 1667SOL     OW22142   2.737   1.358   6.717
 1667SOL    HW122143   2.691   1.418   6.658
 1667SOL    HW222144   2.830   1.368   6.694
 1668SOL     OW22145   2.666   0.856   1.343
 1668SOL    HW122146   2.744   0.851   1.288
 1668SOL    HW222147   2.700   0.877   1.430
 1669SOL     OW22148   6.154   2.602   1.615
 1669SOL    HW122149   6.166   2.522   1.564
 1669SOL    HW222150   6.239   2.646   1.611
 1670SOL     OW22151   1.466   2.570   6.890
 1670SOL    HW122152   1.532   2.639   6.897
 1670SOL    HW222153   1.477   2.519   6.970
 1671SOL     OW22154   0.041   1.123   7.714
 1671SOL    HW122155   0.046   1.092   7.622
 1671SOL    HW222156  -0.009   1.205   7.709
 1672SOL     OW22157   5.963   1.219   7.410
 1672SOL    HW122158   6.050   1.230   7.447
 1672SOL    HW222159   5.948   1.300   7.360
 1673SOL     OW22160   5.376   1.166   7.047
 1673SOL    HW122161   5.331   1.161   6.962
 1673SOL    HW222162   5.403   1.257   7.055
 1674SOL     OW22163   2.562   1.334   7.340
 1674SOL    HW122164   2.643   1.282   7.343
 1674SOL    HW222165   2.565   1.388   7.419
 1675SOL     OW22166   5.823   5.268   0.886
 1675SOL    HW122167   5.833   5.330   0.958
 1675SOL    HW222168   5.773   5.317   0.819
 1676SOL     OW22169   2.838   3.195   6.328
 1676SOL    HW122170   2.777   3.122   6.315
 1676SOL    HW222171   2.782   3.272   6.338
 1677SOL     OW22172   0.319   2.915   1.139
 1677SOL    HW122173   0.413   2.903   1.149
 1677SOL    HW222174   0.309   2.967   1.060
 1678SOL     OW22175   6.289   4.563   6.160
 1678SOL    HW122176   6.354   4.504   6.198
 1678SOL    HW222177   6.336   4.608   6.089
 1679SOL     OW22178   2.336   0.065   6.976
 1679SOL    HW122179   2.266   0.053   6.912
 1679SOL    HW222180   2.295   0.114   7.047
 1680SOL     OW22181   5.840   3.320   1.088
 1680SOL    HW122182   5.902   3.380   1.130
 1680SOL    HW222183   5.837   3.348   0.997
 1681SOL     OW22184   4.135   1.273   7.447
 1681SOL    HW122185   4.097   1.207   7.388
 1681SOL    HW222186   4.165   1.222   7.522
 1682SOL     OW22187   4.915   4.061   7.213
 1682SOL    HW122188   4.910   4.088   7.304
 1682SOL    HW222189   5.000   4.016   7.206
 1683SOL     OW22190   1.394   5.472   1.379
 1683SOL    HW122191   1.322   5.527   1.348
 1683SOL    HW222192   1.470   5.531   1.381
 1684SOL     OW22193   2.324   2.927   6.763
 1684SOL    HW122194   2.240   2.951   6.801
 1684SOL    HW222195   2.381   2.912   6.838
 1685SOL     OW22196   1.230   5.867   6.885
 1685SOL    HW122197   1.136   5.860   6.870
 1685SOL    HW222198   1.265   5.780   6.865
 1686SOL     OW22199   5.255   5.164   0.741
 1686SOL    HW122200   5.279   5.253   0.765
 1686SOL    HW222201   5.189   5.139   0.806
 1687SOL     OW22202   2.925   1.967   0.685
 1687SOL    HW122203   2.933   2.062   0.686
 1687SOL    HW222204   3.015   1.935   0.679
 1688SOL     OW22205   5.928   1.990   0.040
 1688SOL    HW122206   6.002   1.936   0.011
 1688SOL    HW222207   5.875   2.002  -0.039
 1689SOL     OW22208   4.379   5.460   1.960
 1689SOL    HW122209   4.309   5.515   1.925
 1689SOL    HW222210   4.450   5.469   1.896
 1690SOL     OW22211   2.036   3.676   0.516
 1690SOL    HW122212   2.064   3.587   0.498
 1690SOL    HW222213   2.109   3.731   0.486
 1691SOL     OW22214   5.434   0.158   7.649
 1691SOL    HW122215   5.357   0.169   7.706
 1691SOL    HW222216   5.443   0.241   7.602
 1692SOL     OW22217   1.635   4.282   0.168
 1692SOL    HW122218   1.670   4.256   0.083
 1692SOL    HW222219   1.623   4.200   0.215
 1693SOL     OW22220   5.347   3.074   0.253
 1693SOL    HW122221   5.427   3.118   0.282
 1693SOL    HW222222   5.337   3.001   0.313
 1694SOL     OW22223   0.637   2.042   0.026
 1694SOL    HW122224   0.565   2.058   0.087
 1694SOL    HW222225   0.605   2.075  -0.058
 1695SOL     OW22226   1.656   0.885   1.035
 1695SOL    HW122227   1.616   0.872   0.949
 1695SOL    HW222228   1.735   0.937   1.017
 1696SOL     OW22229   4.454   6.406   0.780
 1696SOL    HW122230   4.511   6.389   0.855
 1696SOL    HW222231   4.373   6.358   0.799
 1697SOL     OW22232   0.069   0.153   1.898
 1697SOL    HW122233   0.122   0.233   1.908
 1697SOL    HW222234   0.132   0.082   1.896
 1698SOL     OW22235   1.623   5.343   6.616
 1698SOL    HW122236   1.529   5.345   6.629
 1698SOL    HW222237   1.644   5.250   6.605
 1699SOL     OW22238   3.211   1.247   6.179
 1699SOL    HW122239   3.243   1.286   6.098
 1699SOL    HW222240   3.290   1.237   6.233
 1700SOL     OW22241   5.482   4.179   7.562
 1700SOL    HW122242   5.546   4.112   7.587
 1700SOL    HW222243   5.508   4.206   7.474
 1701SOL     OW22244   6.325   6.324   6.839
 1701SOL    HW122245   6.408   6.283   6.814
 1701SOL    HW222246   6.278   6.333   6.757
 1702SOL     OW22247   0.201   3.969   6.235
 1702SOL    HW122248   0.165   3.895   6.186
 1702SOL    HW222249   0.205   4.040   6.170
 1703SOL     OW22250   2.349   6.426   0.908
 1703SOL    HW122251   2.332   6.332   0.905
 1703SOL    HW222252   2.327   6.457   0.820
 1704SOL     OW22253   3.446   1.247   6.283
 1704SOL    HW122254   3.529   1.202   6.298
 1704SOL    HW222255   3.460   1.335   6.318
 1705SOL     OW22256   3.488   0.670   5.828
 1705SOL    HW122257   3.473   0.678   5.734
 1705SOL    HW222258   3.563   0.612   5.836
 1706SOL     OW22259   2.209   1.584   0.184
 1706SOL    HW122260   2.252   1.629   0.256
 1706SOL    HW222261   2.135   1.641   0.161
 1707SOL     OW22262   3.995   3.548   0.112
 1707SOL    HW122263   3.976   3.483   0.045
 1707SOL    HW222264   4.028   3.624   0.063
 1708SOL     OW22265   2.096   2.392   1.366
 1708SOL    HW122266   2.036   2.455   1.408
 1708SOL    HW222267   2.104   2.321   1.430
 1709SOL     OW22268   5.397   5.544   5.781
 1709SOL    HW122269   5.403   5.533   5.686
 1709SOL    HW222270   5.317   5.595   5.794
 1710SOL     OW22271   1.019   1.890   7.298
 1710SOL    HW122272   1.055   1.979   7.299
 1710SOL    HW222273   0.997   1.874   7.206
 1711SOL     OW22274   1.764   3.979   0.102
 1711SOL    HW122275   1.750   3.889   0.075
 1711SOL    HW222276   1.725   4.032   0.032
 1712SOL     OW22277   3.474   0.047   0.930
 1712SOL    HW122278   3.489   0.132   0.889
 1712SOL    HW222279   3.447  -0.009   0.857
 1713SOL     OW22280   2.848   5.903   1.054
 1713SOL    HW122281   2.810   5.989   1.034
 1713SOL    HW222282   2.926   5.898   0.999
 1714SOL     OW22283   5.478   2.142   1.046
 1714SOL    HW122284   5.536   2.096   1.107
 1714SOL    HW222285   5.441   2.213   1.098
 1715SOL     OW22286   3.939   2.136   7.066
 1715SOL    HW122287   3.969   2.052   7.103
 1715SOL    HW222288   3.969   2.202   7.128
 1716SOL     OW22289   0.834   5.795   7.133
 1716SOL    HW122290   0.832   5.885   7.165
 1716SOL    HW222291   0.744   5.765   7.139
 1717SOL     OW22292   5.509   2.975   0.530
 1717SOL    HW122293   5.563   2.948   0.457
 1717SOL    HW222294   5.562   2.954   0.607
 1718SOL     OW22295   2.144   3.179   0.283
 1718SOL    HW122296   2.231   3.214   0.266
 1718SOL    HW222297   2.159   3.086   0.301
 1719SOL     OW22298   4.589   1.975   1.527
 1719SOL    HW122299   4.566   1.929   1.608
 1719SOL    HW222300   4.505   1.984   1.481
 1720SOL     OW22301   6.355   3.568   6.171
 1720SOL    HW122302   6.310   3.604   6.095
 1720SOL    HW222303   6.288   3.517   6.217
 1721SOL     OW22304   4.993   1.176   1.666
 1721SOL    HW122305   4.920   1.233   1.646
 1721SOL    HW222306   4.983   1.101   1.607
 1722SOL     OW22307   1.065   1.349   0.606
 1722SOL    HW122308   1.080   1.302   0.524
 1722SOL    HW222309   1.116   1.430   0.596
 1723SOL     OW22310   5.421   4.625   1.738
 1723SOL    HW122311   5.465   4.669   1.666
 1723SOL    HW222312   5.387   4.696   1.794
 1724SOL     OW22313   3.834   3.247   0.272
 1724SOL    HW122314   3.800   3.322   0.321
 1724SOL    HW222315   3.926   3.269   0.256
 1725SOL     OW22316   0.253   0.943   7.319
 1725SOL    HW122317   0.317   0.925   7.250
 1725SOL    HW222318   0.172   0.903   7.287
 1726SOL     OW22319   1.938   6.137   6.577
 1726SOL    HW122320   1.887   6.200   6.525
 1726SOL    HW222321   1.883   6.120   6.654
 1727SOL     OW22322   3.625   3.187   5.962
 1727SOL    HW122323   3.627   3.226   5.875
 1727SOL    HW222324   3.586   3.101   5.949
 1728SOL     OW22325   5.628   5.577   1.067
 1728SOL    HW122326   5.588   5.492   1.049
 1728SOL    HW222327   5.559   5.627   1.112
 1729SOL     OW22328   5.601   3.282   1.726
 1729SOL    HW122329   5.567   3.364   1.763
 1729SOL    HW222330   5.677   3.261   1.781
 1730SOL     OW22331   6.041   5.372   7.617
 1730SOL    HW122332   6.114   5.320   7.648
 1730SOL    HW222333   5.978   5.370   7.691
 1731SOL     OW22334   1.171   3.024   6.335
 1731SOL    HW122335   1.152   2.971   6.257
 1731SOL    HW222336   1.224   2.966   6.390
 1732SOL     OW22337   3.663   2.833   1.518
 1732SOL    HW122338   3.678   2.911   1.571
 1732SOL    HW222339   3.750   2.796   1.503
 1733SOL     OW22340   0.722   0.161   6.665
 1733SOL    HW122341   0.725   0.248   6.624
 1733SOL    HW222342   0.802   0.118   6.637
 1734SOL     OW22343   3.353   0.681   7.286
 1734SOL    HW122344   3.428   0.740   7.292
 1734SOL    HW222345   3.309   0.688   7.371
 1735SOL     OW22346   1.730   4.200   7.295
 1735SOL    HW122347   1.650   4.239   7.330
 1735SOL    HW222348   1.780   4.274   7.262
 1736SOL     OW22349   1.639   5.733   7.647
 1736SOL    HW122350   1.726   5.767   7.667
 1736SOL    HW222351   1.580   5.806   7.667
 1737SOL     OW22352   3.753   5.408   6.789
 1737SOL    HW122353   3.706   5.359   6.721
 1737SOL    HW222354   3.779   5.489   6.745
 1738SOL     OW22355   1.894   5.238   1.373
 1738SOL    HW122356   1.865   5.329   1.362
 1738SOL    HW222357   1.849   5.208   1.452
 1739SOL     OW22358   5.331   3.688   6.498
 1739SOL    HW122359   5.391   3.616   6.477
 1739SOL    HW222360   5.384   3.767   6.489
 1740SOL     OW22361   2.488   2.875   5.884
 1740SOL    HW122362   2.576   2.902   5.857
 1740SOL    HW222363   2.464   2.937   5.953
 1741SOL     OW22364   5.812   1.090   7.603
 1741SOL    HW122365   5.728   1.127   7.577
 1741SOL    HW222366   5.876   1.135   7.548
 1742SOL     OW22367   0.117   2.901   0.348
 1742SOL    HW122368   0.108   2.807   0.364
 1742SOL    HW222369   0.115   2.940   0.435
 1743SOL     OW22370   0.043   4.454   0.787
 1743SOL    HW122371   0.027   4.518   0.718
 1743SOL    HW222372  -0.030   4.392   0.780
 1744SOL     OW22373   6.184   3.553   1.873
 1744SOL    HW122374   6.271   3.546   1.832
 1744SOL    HW222375   6.159   3.463   1.892
 1745SOL     OW22376   1.636   4.655   6.323
 1745SOL    HW122377   1.674   4.695   6.401
 1745SOL    HW222378   1.620   4.564   6.348
 1746SOL     OW22379   4.832   0.890   5.752
 1746SOL    HW122380   4.885   0.816   5.782
 1746SOL    HW222381   4.892   0.964   5.753
 1747SOL     OW22382   4.733   5.848   2.111
 1747SOL    HW122383   4.649   5.888   2.087
 1747SOL    HW222384   4.787   5.922   2.139
 1748SOL     OW22385   4.086   3.811   0.353
 1748SOL    HW122386   4.174   3.816   0.315
 1748SOL    HW222387   4.074   3.895   0.397
 1749SOL     OW22388   2.037   5.797   1.840
 1749SOL    HW122389   1.971   5.729   1.827
 1749SOL    HW222390   2.091   5.765   1.912
 1750SOL     OW22391   4.454   5.457   1.458
 1750SOL    HW122392   4.531   5.483   1.508
 1750SOL    HW222393   4.383   5.511   1.492
 1751SOL     OW22394   5.975   2.313   7.543
 1751SOL    HW122395   6.035   2.239   7.533
 1751SOL    HW222396   5.922   2.290   7.619
 1752SOL     OW22397   5.020   5.569   6.341
 1752SOL    HW122398   5.109   5.572   6.305
 1752SOL    HW222399   4.975   5.504   6.287
 1753SOL     OW22400   2.358   4.457   6.738
 1753SOL    HW122401   2.387   4.375   6.698
 1753SOL    HW222402   2.339   4.515   6.664
 1754SOL     OW22403   2.177   3.588   7.010
 1754SOL    HW122404   2.240   3.518   6.992
 1754SOL    HW222405   2.102   3.542   7.047
 1755SOL     OW22406   4.882   0.109   2.347
 1755SOL    HW122407   4.956   0.140   2.294
 1755SOL    HW222408   4.878   0.170   2.420
 1756SOL     OW22409   4.399   0.170   6.333
 1756SOL    HW122410   4.409   0.157   6.428
 1756SOL    HW222411   4.453   0.101   6.294
 1757SOL     OW22412   3.819   2.793   0.553
 1757SOL    HW122413   3.820   2.761   0.464
 1757SOL    HW222414   3.816   2.888   0.545
 1758SOL     OW22415   3.495   0.876   7.041
 1758SOL    HW122416   3.423   0.939   7.050
 1758SOL    HW222417   3.538   0.878   7.126
 1759SOL     OW22418   3.755   3.881   1.156
 1759SOL    HW122419   3.805   3.958   1.182
 1759SOL    HW222420   3.777   3.815   1.221
 1760SOL     OW22421   2.671   2.266   1.133
 1760SOL    HW122422   2.593   2.243   1.184
 1760SOL    HW222423   2.684   2.359   1.148
 1761SOL     OW22424   3.304   3.371   7.412
 1761SOL    HW122425   3.256   3.393   7.492
 1761SOL    HW222426   3.277   3.438   7.349
 1762SOL     OW22427   0.443   2.959   0.889
 1762SOL    HW122428   0.361   2.990   0.850
 1762SOL    HW222429   0.491   3.038   0.913
 1763SOL     OW22430   5.844   3.334   7.258
 1763SOL    HW122431   5.844   3.244   7.292
 1763SOL    HW222432   5.903   3.381   7.318
 1764SOL     OW22433   1.000   2.722   6.496
 1764SOL    HW122434   0.944   2.758   6.427
 1764SOL    HW222435   1.022   2.798   6.550
 1765SOL     OW22436   6.288   1.296   6.262
 1765SOL    HW122437   6.360   1.358   6.247
 1765SOL    HW222438   6.330   1.219   6.299
 1766SOL     OW22439   5.627   2.838   6.557
 1766SOL    HW122440   5.614   2.743   6.561
 1766SOL    HW222441   5.722   2.849   6.555
 1767SOL     OW22442   5.472   2.445   1.558
 1767SOL    HW122443   5.532   2.452   1.484
 1767SOL    HW222444   5.523   2.401   1.626
 1768SOL     OW22445   2.983   1.049   7.601
 1768SOL    HW122446   3.028   1.101   7.535
 1768SOL    HW222447   3.035   1.061   7.680
 1769SOL     OW22448   5.829   2.144   0.468
 1769SOL    HW122449   5.921   2.131   0.493
 1769SOL    HW222450   5.783   2.153   0.551
 1770SOL     OW22451   6.121   3.341   5.902
 1770SOL    HW122452   6.028   3.334   5.880
 1770SOL    HW222453   6.160   3.387   5.827
 1771SOL     OW22454   5.807   0.613   1.402
 1771SOL    HW122455   5.788   0.611   1.495
 1771SOL    HW222456   5.723   0.599   1.359
 1772SOL     OW22457   4.953   1.667   7.371
 1772SOL    HW122458   5.003   1.637   7.295
 1772SOL    HW222459   4.922   1.586   7.412
 1773SOL     OW22460   4.978   6.046   6.264
 1773SOL    HW122461   4.985   5.951   6.270
 1773SOL    HW222462   5.035   6.079   6.334
 1774SOL     OW22463   0.278   0.565   7.685
 1774SOL    HW122464   0.286   0.513   7.603
 1774SOL    HW222465   0.339   0.524   7.745
 1775SOL     OW22466   2.317   3.524   6.339
 1775SOL    HW122467   2.290   3.502   6.428
 1775SOL    HW222468   2.396   3.577   6.350
 1776SOL     OW22469   3.271   2.911   6.312
 1776SOL    HW122470   3.235   2.939   6.228
 1776SOL    HW222471   3.227   2.965   6.377
 1777SOL     OW22472   0.731   5.470   7.002
 1777SOL    HW122473   0.715   5.394   7.057
 1777SOL    HW222474   0.826   5.479   7.001
 1778SOL     OW22475   6.212   2.792   0.061
 1778SOL    HW122476   6.179   2.731   0.127
 1778SOL    HW222477   6.138   2.806   0.002
 1779SOL     OW22478   2.569   2.560   7.550
 1779SOL    HW122479   2.629   2.543   7.622
 1779SOL    HW222480   2.553   2.654   7.553
 1780SOL     OW22481   3.736   4.267   6.929
 1780SOL    HW122482   3.662   4.271   6.868
 1780SOL    HW222483   3.716   4.332   6.996
 1781SOL     OW22484   2.407   0.303   1.517
 1781SOL    HW122485   2.403   0.317   1.612
 1781SOL    HW222486   2.315   0.310   1.489
 1782SOL     OW22487   1.585   1.432   0.119
 1782SOL    HW122488   1.571   1.514   0.073
 1782SOL    HW222489   1.670   1.443   0.162
 1783SOL     OW22490   1.385   0.291   7.452
 1783SOL    HW122491   1.450   0.342   7.404
 1783SOL    HW222492   1.321   0.265   7.385
 1784SOL     OW22493   0.685   1.999   6.928
 1784SOL    HW122494   0.701   1.992   6.834
 1784SOL    HW222495   0.703   1.911   6.962
 1785SOL     OW22496   0.308   4.900   0.487
 1785SOL    HW122497   0.268   4.960   0.548
 1785SOL    HW222498   0.317   4.818   0.533
 1786SOL     OW22499   2.661   2.602   0.193
 1786SOL    HW122500   2.594   2.609   0.260
 1786SOL    HW222501   2.651   2.512   0.159
 1787SOL     OW22502   3.246   5.865   7.594
 1787SOL    HW122503   3.254   5.776   7.631
 1787SOL    HW222504   3.222   5.851   7.503
 1788SOL     OW22505   4.436   1.588   0.442
 1788SOL    HW122506   4.500   1.641   0.395
 1788SOL    HW222507   4.384   1.651   0.492
 1789SOL     OW22508   2.331   6.396   5.363
 1789SOL    HW122509   2.333   6.326   5.428
 1789SOL    HW222510   2.244   6.389   5.323
 1790SOL     OW22511   0.840   3.908   0.076
 1790SOL    HW122512   0.855   3.971   0.146
 1790SOL    HW222513   0.749   3.923   0.050
 1791SOL     OW22514   2.981   5.613   6.701
 1791SOL    HW122515   2.896   5.653   6.681
 1791SOL    HW222516   2.960   5.522   6.723
 1792SOL     OW22517   5.562   5.769   0.819
 1792SOL    HW122518   5.493   5.703   0.811
 1792SOL    HW222519   5.641   5.726   0.789
 1793SOL     OW22520   6.396   6.016   7.638
 1793SOL    HW122521   6.368   6.083   7.575
 1793SOL    HW222522   6.362   6.046   7.724
 1794SOL     OW22523   5.990   6.234   7.719
 1794SOL    HW122524   6.076   6.216   7.756
 1794SOL    HW222525   6.006   6.247   7.624
 1795SOL     OW22526   4.524   6.235   6.624
 1795SOL    HW122527   4.570   6.251   6.707
 1795SOL    HW222528   4.556   6.303   6.565
 1796SOL     OW22529   5.030   0.327   0.020
 1796SOL    HW122530   5.081   0.396   0.063
 1796SOL    HW222531   4.940   0.357   0.026
 1797SOL     OW22532   2.369   5.319   5.495
 1797SOL    HW122533   2.402   5.380   5.429
 1797SOL    HW222534   2.448   5.284   5.537
 1798SOL     OW22535   1.762   5.287   5.468
 1798SOL    HW122536   1.826   5.221   5.441
 1798SOL    HW222537   1.790   5.366   5.422
 1799SOL     OW22538   4.938   2.805   7.483
 1799SOL    HW122539   4.857   2.776   7.442
 1799SOL    HW222540   4.934   2.769   7.571
 1800SOL     OW22541   5.779   0.732   6.828
 1800SOL    HW122542   5.768   0.643   6.796
 1800SOL    HW222543   5.735   0.733   6.913
 1801SOL     OW22544   1.437   4.904   0.963
 1801SOL    HW122545   1.527   4.930   0.943
 1801SOL    HW222546   1.431   4.908   1.058
 1802SOL     OW22547   0.374   3.123   7.736
 1802SOL    HW122548   0.314   3.173   7.680
 1802SOL    HW222549   0.330   3.116   7.821
 1803SOL     OW22550   5.390   3.382   6.908
 1803SOL    HW122551   5.468   3.434   6.893
 1803SOL    HW222552   5.334   3.438   6.962
 1804SOL     OW22553   0.013   2.049   1.779
 1804SOL    HW122554  -0.056   2.109   1.809
 1804SOL    HW222555   0.049   2.013   1.860
 1805SOL     OW22556   2.320   5.888   0.308
 1805SOL    HW122557   2.292   5.810   0.260
 1805SOL    HW222558   2.351   5.948   0.239
 1806SOL     OW22559   0.380   1.437   6.723
 1806SOL    HW122560   0.366   1.395   6.638
 1806SOL    HW222561   0.308   1.407   6.777
 1807SOL     OW22562   2.916   4.031   0.492
 1807SOL    HW122563   3.004   4.052   0.522
 1807SOL    HW222564   2.891   4.105   0.438
 1808SOL     OW22565   2.307   3.414   6.594
 1808SOL    HW122566   2.375   3.453   6.649
 1808SOL    HW222567   2.303   3.323   6.622
 1809SOL     OW22568   2.073   3.653   7.615
 1809SOL    HW122569   2.148   3.695   7.656
 1809SOL    HW222570   2.065   3.569   7.658
 1810SOL     OW22571   5.516   2.675   6.066
 1810SOL    HW122572   5.610   2.665   6.056
 1810SOL    HW222573   5.498   2.763   6.032
 1811SOL     OW22574   0.657   3.226   1.219
 1811SOL    HW122575   0.717   3.151   1.219
 1811SOL    HW222576   0.583   3.197   1.272
 1812SOL     OW22577   1.575   2.404   1.764
 1812SOL    HW122578   1.640   2.377   1.830
 1812SOL    HW222579   1.564   2.326   1.710
 1813SOL     OW22580   2.108   1.198   1.839
 1813SOL    HW122581   2.171   1.233   1.902
 1813SOL    HW222582   2.028   1.248   1.854
 1814SOL     OW22583   2.795   2.780   1.055
 1814SOL    HW122584   2.813   2.693   1.090
 1814SOL    HW222585   2.700   2.788   1.055
 1815SOL     OW22586   2.346   6.184   1.671
 1815SOL    HW122587   2.434   6.212   1.645
 1815SOL    HW222588   2.343   6.091   1.647
 1816SOL     OW22589   5.845   2.741   0.366
 1816SOL    HW122590   5.812   2.695   0.442
 1816SOL    HW222591   5.830   2.681   0.293
 1817SOL     OW22592   2.058   4.249   1.136
 1817SOL    HW122593   1.965   4.253   1.117
 1817SOL    HW222594   2.088   4.170   1.091
 1818SOL     OW22595   2.839   3.548   6.431
 1818SOL    HW122596   2.804   3.628   6.393
 1818SOL    HW222597   2.800   3.543   6.518
 1819SOL     OW22598   5.110   2.009   0.284
 1819SOL    HW122599   5.121   2.044   0.196
 1819SOL    HW222600   5.083   1.918   0.270
 1820SOL     OW22601   2.665   5.766   0.240
 1820SOL    HW122602   2.629   5.770   0.328
 1820SOL    HW222603   2.759   5.769   0.252
 1821SOL     OW22604   5.891   1.488   7.352
 1821SOL    HW122605   5.895   1.558   7.418
 1821SOL    HW222606   5.798   1.466   7.346
 1822SOL     OW22607   3.444   2.126   6.647
 1822SOL    HW122608   3.473   2.051   6.698
 1822SOL    HW222609   3.468   2.104   6.557
 1823SOL     OW22610   4.207   5.721   6.708
 1823SOL    HW122611   4.237   5.734   6.618
 1823SOL    HW222612   4.275   5.667   6.749
 1824SOL     OW22613   2.402   4.250   6.539
 1824SOL    HW122614   2.474   4.192   6.562
 1824SOL    HW222615   2.423   4.282   6.451
 1825SOL     OW22616   2.730   5.370   1.953
 1825SOL    HW122617   2.669   5.428   1.907
 1825SOL    HW222618   2.762   5.422   2.026
 1826SOL     OW22619   3.660   4.433   5.590
 1826SOL    HW122620   3.742   4.431   5.541
 1826SOL    HW222621   3.686   4.437   5.682
 1827SOL     OW22622   4.326   2.271   6.169
 1827SOL    HW122623   4.385   2.201   6.142
 1827SOL    HW222624   4.343   2.341   6.106
 1828SOL     OW22625   3.073   5.282   1.440
 1828SOL    HW122626   3.157   5.276   1.486
 1828SOL    HW222627   3.016   5.220   1.486
 1829SOL     OW22628   3.324   5.066   1.831
 1829SOL    HW122629   3.293   5.090   1.918
 1829SOL    HW222630   3.258   5.005   1.798
 1830SOL     OW22631   2.289   6.090   2.256
 1830SOL    HW122632   2.226   6.019   2.247
 1830SOL    HW222633   2.235   6.169   2.258
 1831SOL     OW22634   1.893   3.762   6.047
 1831SOL    HW122635   1.853   3.813   5.976
 1831SOL    HW222636   1.986   3.763   6.027
 1832SOL     OW22637   4.425   5.552   6.799
 1832SOL    HW122638   4.432   5.457   6.806
 1832SOL    HW222639   4.516   5.583   6.799
 1833SOL     OW22640   0.983   3.829   6.387
 1833SOL    HW122641   0.944   3.744   6.364
 1833SOL    HW222642   1.076   3.818   6.367
 1834SOL     OW22643   0.414   1.876   1.617
 1834SOL    HW122644   0.358   1.798   1.616
 1834SOL    HW222645   0.394   1.919   1.700
 1835SOL     OW22646   4.468   3.294   0.144
 1835SOL    HW122647   4.558   3.325   0.152
 1835SOL    HW222648   4.467   3.210   0.188
 1836SOL     OW22649   1.485   2.926   6.962
 1836SOL    HW122650   1.501   2.854   7.023
 1836SOL    HW222651   1.530   2.899   6.881
 1837SOL     OW22652   0.112   0.988   0.182
 1837SOL    HW122653   0.102   1.029   0.097
 1837SOL    HW222654   0.167   1.049   0.232
 1838SOL     OW22655   0.855   4.406   5.731
 1838SOL    HW122656   0.760   4.396   5.730
 1838SOL    HW222657   0.884   4.354   5.805
 1839SOL     OW22658   5.501   3.513   1.514
 1839SOL    HW122659   5.476   3.432   1.558
 1839SOL    HW222660   5.431   3.574   1.535
 1840SOL     OW22661   3.589   3.063   1.809
 1840SOL    HW122662   3.497   3.089   1.800
 1840SOL    HW222663   3.586   2.968   1.818
 1841SOL     OW22664   6.206   1.880   6.567
 1841SOL    HW122665   6.216   1.787   6.547
 1841SOL    HW222666   6.280   1.900   6.625
 1842SOL     OW22667   3.224   6.035   6.942
 1842SOL    HW122668   3.296   5.994   6.895
 1842SOL    HW222669   3.161   6.060   6.874
 1843SOL     OW22670   4.203   1.296   2.509
 1843SOL    HW122671   4.261   1.220   2.507
 1843SOL    HW222672   4.257   1.367   2.474
 1844SOL     OW22673   0.468   1.091   6.672
 1844SOL    HW122674   0.389   1.096   6.724
 1844SOL    HW222675   0.504   1.004   6.690
 1845SOL     OW22676   5.767   1.873   6.389
 1845SOL    HW122677   5.796   1.888   6.299
 1845SOL    HW222678   5.731   1.785   6.389
 1846SOL     OW22679   2.222   5.042   2.034
 1846SOL    HW122680   2.157   5.108   2.013
 1846SOL    HW222681   2.175   4.977   2.086
 1847SOL     OW22682   5.789   6.031   6.934
 1847SOL    HW122683   5.826   6.014   6.848
 1847SOL    HW222684   5.779   6.126   6.938
 1848SOL     OW22685   3.471   3.709   1.154
 1848SOL    HW122686   3.518   3.627   1.144
 1848SOL    HW222687   3.380   3.683   1.172
 1849SOL     OW22688   4.538   3.707   7.303
 1849SOL    HW122689   4.600   3.731   7.234
 1849SOL    HW222690   4.453   3.737   7.271
 1850SOL     OW22691   4.800   1.000   0.366
 1850SOL    HW122692   4.715   0.991   0.408
 1850SOL    HW222693   4.788   0.964   0.278
 1851SOL     OW22694   5.647   6.361   7.457
 1851SOL    HW122695   5.555   6.376   7.480
 1851SOL    HW222696   5.644   6.289   7.394
 1852SOL     OW22697   0.347   2.827   0.579
 1852SOL    HW122698   0.389   2.760   0.526
 1852SOL    HW222699   0.254   2.819   0.558
 1853SOL     OW22700   3.571   5.275   1.866
 1853SOL    HW122701   3.502   5.279   1.932
 1853SOL    HW222702   3.650   5.305   1.912
 1854SOL     OW22703   0.998   4.764   1.108
 1854SOL    HW122704   1.075   4.815   1.132
 1854SOL    HW222705   1.031   4.674   1.100
 1855SOL     OW22706   4.955   0.923   7.023
 1855SOL    HW122707   5.039   0.950   7.060
 1855SOL    HW222708   4.912   1.005   6.999
 1856SOL     OW22709   2.179   3.749   6.006
 1856SOL    HW122710   2.234   3.826   6.022
 1856SOL    HW222711   2.198   3.691   6.080
 1857SOL     OW22712   5.794   0.674   7.697
 1857SOL    HW122713   5.762   0.746   7.750
 1857SOL    HW222714   5.884   0.698   7.674
 1858SOL     OW22715   5.686   3.410   0.034
 1858SOL    HW122716   5.660   3.491   0.077
 1858SOL    HW222717   5.758   3.376   0.088
 1859SOL     OW22718   5.561   1.800   6.720
 1859SOL    HW122719   5.531   1.729   6.664
 1859SOL    HW222720   5.518   1.878   6.686
 1860SOL     OW22721   1.484   0.708   1.129
 1860SOL    HW122722   1.548   0.643   1.099
 1860SOL    HW222723   1.529   0.792   1.117
 1861SOL     OW22724   5.885   4.887   6.055
 1861SOL    HW122725   5.960   4.945   6.041
 1861SOL    HW222726   5.883   4.832   5.976
 1862SOL     OW22727   2.146   2.538   7.724
 1862SOL    HW122728   2.153   2.627   7.689
 1862SOL    HW222729   2.055   2.530   7.752
 1863SOL     OW22730   2.309   4.797   1.516
 1863SOL    HW122731   2.225   4.817   1.475
 1863SOL    HW222732   2.339   4.881   1.551
 1864SOL     OW22733   5.139   1.844   5.353
 1864SOL    HW122734   5.127   1.762   5.305
 1864SOL    HW222735   5.231   1.867   5.338
 1865SOL     OW22736   3.611   1.717   1.424
 1865SOL    HW122737   3.620   1.790   1.486
 1865SOL    HW222738   3.647   1.641   1.470
 1866SOL     OW22739   4.321   0.199   0.411
 1866SOL    HW122740   4.278   0.279   0.384
 1866SOL    HW222741   4.354   0.217   0.499
 1867SOL     OW22742   4.896   1.841   5.693
 1867SOL    HW122743   4.910   1.882   5.608
 1867SOL    HW222744   4.828   1.894   5.735
 1868SOL     OW22745   5.243   5.152   1.893
 1868SOL    HW122746   5.179   5.131   1.961
 1868SOL    HW222747   5.321   5.180   1.942
 1869SOL     OW22748   3.038   4.618   0.885
 1869SOL    HW122749   3.107   4.647   0.945
 1869SOL    HW222750   2.961   4.605   0.940
 1870SOL     OW22751   1.364   3.135   0.722
 1870SOL    HW122752   1.283   3.184   0.734
 1870SOL    HW222753   1.365   3.072   0.794
 1871SOL     OW22754   6.031   3.052   7.031
 1871SOL    HW122755   6.077   3.089   7.107
 1871SOL    HW222756   5.954   3.009   7.068
 1872SOL     OW22757   1.786   2.430   0.428
 1872SOL    HW122758   1.691   2.432   0.428
 1872SOL    HW222759   1.808   2.366   0.361
 1873SOL     OW22760   3.282   2.046   1.546
 1873SOL    HW122761   3.223   2.096   1.489
 1873SOL    HW222762   3.360   2.102   1.553
 1874SOL     OW22763   3.897   5.256   0.495
 1874SOL    HW122764   3.861   5.222   0.576
 1874SOL    HW222765   3.992   5.248   0.506
 1875SOL     OW22766   3.721   4.111   6.306
 1875SOL    HW122767   3.703   4.055   6.230
 1875SOL    HW222768   3.806   4.150   6.287
 1876SOL     OW22769   0.440   3.097   0.550
 1876SOL    HW122770   0.416   3.011   0.584
 1876SOL    HW222771   0.438   3.087   0.456
 1877SOL     OW22772   2.380   2.529   6.376
 1877SOL    HW122773   2.411   2.461   6.436
 1877SOL    HW222774   2.406   2.500   6.289
 1878SOL     OW22775   2.768   2.084   0.109
 1878SOL    HW122776   2.711   2.144   0.157
 1878SOL    HW222777   2.753   1.999   0.150
 1879SOL     OW22778   4.487   4.407   7.324
 1879SOL    HW122779   4.496   4.456   7.406
 1879SOL    HW222780   4.575   4.405   7.287
 1880SOL     OW22781   4.897   3.353   7.329
 1880SOL    HW122782   4.893   3.261   7.358
 1880SOL    HW222783   4.822   3.395   7.371
 1881SOL     OW22784   4.093   5.525   0.307
 1881SOL    HW122785   4.098   5.515   0.402
 1881SOL    HW222786   4.008   5.488   0.283
 1882SOL     OW22787   1.662   0.471   7.482
 1882SOL    HW122788   1.728   0.495   7.547
 1882SOL    HW222789   1.622   0.554   7.456
 1883SOL     OW22790   3.975   6.099   1.153
 1883SOL    HW122791   3.975   6.159   1.227
 1883SOL    HW222792   3.899   6.125   1.101
 1884SOL     OW22793   2.746   2.868   1.883
 1884SOL    HW122794   2.691   2.888   1.807
 1884SOL    HW222795   2.713   2.784   1.915
 1885SOL     OW22796   2.408   5.025   1.839
 1885SOL    HW122797   2.370   5.055   1.921
 1885SOL    HW222798   2.339   5.039   1.774
 1886SOL     OW22799   2.883   4.058   7.577
 1886SOL    HW122800   2.893   4.046   7.671
 1886SOL    HW222801   2.959   4.111   7.551
 1887SOL     OW22802   3.719   5.838   0.598
 1887SOL    HW122803   3.758   5.751   0.592
 1887SOL    HW222804   3.630   5.827   0.567
 1888SOL     OW22805   1.887   3.679   1.065
 1888SOL    HW122806   1.888   3.674   0.969
 1888SOL    HW222807   1.962   3.627   1.092
 1889SOL     OW22808   6.027   4.234   6.258
 1889SOL    HW122809   6.017   4.261   6.167
 1889SOL    HW222810   6.015   4.315   6.309
 1890SOL     OW22811   1.105   1.965   0.713
 1890SOL    HW122812   1.156   2.038   0.747
 1890SOL    HW222813   1.098   1.903   0.786
 1891SOL     OW22814   3.591   4.724   6.115
 1891SOL    HW122815   3.564   4.632   6.110
 1891SOL    HW222816   3.670   4.729   6.061
 1892SOL     OW22817   0.213   5.236   1.180
 1892SOL    HW122818   0.167   5.204   1.102
 1892SOL    HW222819   0.162   5.312   1.209
 1893SOL     OW22820   3.774   4.216   5.975
 1893SOL    HW122821   3.850   4.193   6.030
 1893SOL    HW222822   3.703   4.162   6.010
 1894SOL     OW22823   6.057   5.621   7.513
 1894SOL    HW122824   6.064   5.662   7.600
 1894SOL    HW222825   6.041   5.528   7.532
 1895SOL     OW22826   1.599   4.079   1.601
 1895SOL    HW122827   1.631   4.035   1.680
 1895SOL    HW222828   1.506   4.058   1.598
 1896SOL     OW22829   5.609   1.367   6.293
 1896SOL    HW122830   5.614   1.293   6.354
 1896SOL    HW222831   5.562   1.333   6.217
 1897SOL     OW22832   5.817   3.225   0.215
 1897SOL    HW122833   5.880   3.248   0.283
 1897SOL    HW222834   5.863   3.165   0.158
 1898SOL     OW22835   5.978   6.208   0.637
 1898SOL    HW122836   6.001   6.291   0.595
 1898SOL    HW222837   5.948   6.153   0.565
 1899SOL     OW22838   2.729   5.972   5.329
 1899SOL    HW122839   2.661   6.040   5.328
 1899SOL    HW222840   2.682   5.892   5.305
 1900SOL     OW22841   3.352   3.348   0.895
 1900SOL    HW122842   3.389   3.311   0.975
 1900SOL    HW222843   3.424   3.397   0.855
 1901SOL     OW22844   2.792   0.267   0.976
 1901SOL    HW122845   2.709   0.224   0.960
 1901SOL    HW222846   2.805   0.323   0.899
 1902SOL     OW22847   6.082   2.575   0.192
 1902SOL    HW122848   6.072   2.501   0.132
 1902SOL    HW222849   6.047   2.543   0.275
 1903SOL     OW22850   3.398   4.362   1.644
 1903SOL    HW122851   3.320   4.401   1.683
 1903SOL    HW222852   3.394   4.384   1.552
 1904SOL     OW22853   5.272   4.041   0.437
 1904SOL    HW122854   5.313   3.966   0.480
 1904SOL    HW222855   5.180   4.035   0.461
 1905SOL     OW22856   4.441   4.496   1.403
 1905SOL    HW122857   4.433   4.564   1.336
 1905SOL    HW222858   4.527   4.510   1.441
 1906SOL     OW22859   2.033   5.260   6.384
 1906SOL    HW122860   2.116   5.303   6.403
 1906SOL    HW222861   1.970   5.331   6.376
 1907SOL     OW22862   0.746   4.812   1.848
 1907SOL    HW122863   0.841   4.810   1.859
 1907SOL    HW222864   0.728   4.742   1.785
 1908SOL     OW22865   1.355   6.337   7.710
 1908SOL    HW122866   1.298   6.413   7.717
 1908SOL    HW222867   1.442   6.373   7.691
 1909SOL     OW22868   5.858   1.649   1.680
 1909SOL    HW122869   5.917   1.633   1.607
 1909SOL    HW222870   5.775   1.673   1.640
 1910SOL     OW22871   3.334   4.265   5.620
 1910SOL    HW122872   3.293   4.347   5.647
 1910SOL    HW222873   3.364   4.225   5.702
 1911SOL     OW22874   0.631   5.833   7.764
 1911SOL    HW122875   0.653   5.785   7.685
 1911SOL    HW222876   0.711   5.879   7.787
 1912SOL     OW22877   6.380   0.041   1.010
 1912SOL    HW122878   6.289   0.029   1.037
 1912SOL    HW222879   6.394   0.136   1.015
 1913SOL     OW22880   0.888   3.303   7.325
 1913SOL    HW122881   0.914   3.270   7.239
 1913SOL    HW222882   0.793   3.292   7.327
 1914SOL     OW22883   0.069   1.909   6.310
 1914SOL    HW122884   0.033   1.829   6.273
 1914SOL    HW222885  -0.003   1.972   6.305
 1915SOL     OW22886   6.282   4.677   2.056
 1915SOL    HW122887   6.348   4.715   2.113
 1915SOL    HW222888   6.199   4.692   2.101
 1916SOL     OW22889   3.035   5.211   5.897
 1916SOL    HW122890   2.973   5.277   5.927
 1916SOL    HW222891   3.038   5.222   5.802
 1917SOL     OW22892   1.687   5.720   0.867
 1917SOL    HW122893   1.754   5.689   0.806
 1917SOL    HW222894   1.620   5.652   0.866
 1918SOL     OW22895   1.175   1.609   0.611
 1918SOL    HW122896   1.143   1.696   0.584
 1918SOL    HW222897   1.270   1.618   0.610
 1919SOL     OW22898   0.398   5.907   0.252
 1919SOL    HW122899   0.386   5.893   0.346
 1919SOL    HW222900   0.422   5.822   0.218
 1920SOL     OW22901   0.568   0.753   1.741
 1920SOL    HW122902   0.563   0.659   1.723
 1920SOL    HW222903   0.649   0.781   1.698
 1921SOL     OW22904   0.133   2.377   6.492
 1921SOL    HW122905   0.175   2.293   6.475
 1921SOL    HW222906   0.067   2.386   6.423
 1922SOL     OW22907   3.399   2.385   6.701
 1922SOL    HW122908   3.394   2.293   6.676
 1922SOL    HW222909   3.421   2.431   6.620
 1923SOL     OW22910   5.899   5.373   1.749
 1923SOL    HW122911   5.962   5.425   1.699
 1923SOL    HW222912   5.927   5.383   1.840
 1924SOL     OW22913   1.456   4.228   5.401
 1924SOL    HW122914   1.516   4.302   5.415
 1924SOL    HW222915   1.397   4.259   5.332
 1925SOL     OW22916   0.606   0.221   7.607
 1925SOL    HW122917   0.620   0.299   7.554
 1925SOL    HW222918   0.556   0.250   7.685
 1926SOL     OW22919   3.359   2.354   5.613
 1926SOL    HW122920   3.352   2.375   5.520
 1926SOL    HW222921   3.445   2.387   5.640
 1927SOL     OW22922   4.122   0.029   0.329
 1927SOL    HW122923   4.201   0.062   0.373
 1927SOL    HW222924   4.145  -0.060   0.302
 1928SOL     OW22925   3.131   3.862   6.385
 1928SOL    HW122926   3.134   3.908   6.301
 1928SOL    HW222927   3.222   3.863   6.416
 1929SOL     OW22928   1.196   2.637   0.544
 1929SOL    HW122929   1.236   2.652   0.459
 1929SOL    HW222930   1.108   2.674   0.535
 1930SOL     OW22931   4.149   4.807   1.001
 1930SOL    HW122932   4.232   4.853   0.987
 1930SOL    HW222933   4.121   4.780   0.914
 1931SOL     OW22934   1.659   3.624   5.672
 1931SOL    HW122935   1.613   3.542   5.692
 1931SOL    HW222936   1.643   3.639   5.579
 1932SOL     OW22937   6.254   2.404   6.483
 1932SOL    HW122938   6.224   2.421   6.572
 1932SOL    HW222939   6.269   2.490   6.445
 1933SOL     OW22940   0.861   3.884   6.689
 1933SOL    HW122941   0.939   3.915   6.643
 1933SOL    HW222942   0.863   3.929   6.773
 1934SOL     OW22943   5.335   5.065   2.210
 1934SOL    HW122944   5.394   5.124   2.162
 1934SOL    HW222945   5.260   5.054   2.152
 1935SOL     OW22946   6.203   2.885   2.380
 1935SOL    HW122947   6.296   2.866   2.396
 1935SOL    HW222948   6.192   2.976   2.409
 1936SOL     OW22949   0.070   6.446   6.569
 1936SOL    HW122950   0.165   6.438   6.582
 1936SOL    HW222951   0.032   6.377   6.623
 1937SOL     OW22952   2.744   5.951   1.854
 1937SOL    HW122953   2.676   6.016   1.836
 1937SOL    HW222954   2.817   5.977   1.799
 1938SOL     OW22955   3.095   6.024   0.639
 1938SOL    HW122956   3.006   6.051   0.665
 1938SOL    HW222957   3.088   6.003   0.546
 1939SOL     OW22958   1.858   5.780   0.031
 1939SOL    HW122959   1.801   5.759   0.105
 1939SOL    HW222960   1.926   5.836   0.068
 1940SOL     OW22961   0.133   4.434   5.844
 1940SOL    HW122962   0.084   4.474   5.772
 1940SOL    HW222963   0.186   4.505   5.879
 1941SOL     OW22964   3.050   5.825   1.342
 1941SOL    HW122965   3.035   5.904   1.289
 1941SOL    HW222966   3.069   5.757   1.278
 1942SOL     OW22967   0.090   2.388   6.199
 1942SOL    HW122968   0.161   2.436   6.157
 1942SOL    HW222969   0.081   2.308   6.147
 1943SOL     OW22970   3.538   5.749   6.334
 1943SOL    HW122971   3.629   5.723   6.345
 1943SOL    HW222972   3.495   5.671   6.297
 1944SOL     OW22973   5.443   4.757   6.596
 1944SOL    HW122974   5.360   4.787   6.559
 1944SOL    HW222975   5.509   4.792   6.536
 1945SOL     OW22976   2.366   0.881   5.657
 1945SOL    HW122977   2.309   0.842   5.591
 1945SOL    HW222978   2.428   0.811   5.680
 1946SOL     OW22979   2.978   2.244   7.772
 1946SOL    HW122980   2.914   2.217   7.837
 1946SOL    HW222981   3.056   2.266   7.823
 1947SOL     OW22982   5.217   5.896   2.094
 1947SOL    HW122983   5.185   5.985   2.086
 1947SOL    HW222984   5.195   5.870   2.184
 1948SOL     OW22985   5.548   2.666   2.171
 1948SOL    HW122986   5.627   2.658   2.223
 1948SOL    HW222987   5.526   2.759   2.174
 1949SOL     OW22988   0.029   4.299   6.859
 1949SOL    HW122989   0.028   4.323   6.766
 1949SOL    HW222990  -0.029   4.224   6.866
 1950SOL     OW22991   4.627   0.308   1.023
 1950SOL    HW122992   4.583   0.350   1.097
 1950SOL    HW222993   4.557   0.289   0.961
 1951SOL     OW22994   3.425   4.808   1.526
 1951SOL    HW122995   3.461   4.775   1.609
 1951SOL    HW222996   3.485   4.878   1.500
 1952SOL     OW22997   4.529   5.969   6.342
 1952SOL    HW122998   4.471   5.966   6.267
 1952SOL    HW222999   4.600   6.027   6.315
 1953SOL     OW23000   3.466   4.352   0.724
 1953SOL    HW123001   3.428   4.265   0.740
 1953SOL    HW223002   3.551   4.348   0.767
 1954SOL     OW23003   6.358   0.346   0.671
 1954SOL    HW123004   6.383   0.333   0.579
 1954SOL    HW223005   6.321   0.434   0.673
 1955SOL     OW23006   3.034   4.838   7.526
 1955SOL    HW123007   3.120   4.860   7.561
 1955SOL    HW223008   2.974   4.898   7.571
 1956SOL     OW23009   0.830   0.790   6.015
 1956SOL    HW123010   0.776   0.757   5.942
 1956SOL    HW223011   0.773   0.853   6.060
 1957SOL     OW23012   0.908   3.750   7.533
 1957SOL    HW123013   0.969   3.709   7.596
 1957SOL    HW223014   0.843   3.682   7.516
 1958SOL     OW23015   1.552   0.845   0.782
 1958SOL    HW123016   1.464   0.861   0.747
 1958SOL    HW223017   1.602   0.923   0.757
 1959SOL     OW23018   2.539   2.960   7.369
 1959SOL    HW123019   2.585   3.010   7.302
 1959SOL    HW223020   2.468   2.916   7.323
 1960SOL     OW23021   3.590   4.363   7.772
 1960SOL    HW123022   3.612   4.422   7.700
 1960SOL    HW223023   3.508   4.397   7.806
 1961SOL     OW23024   1.185   0.621   0.365
 1961SOL    HW123025   1.217   0.622   0.275
 1961SOL    HW223026   1.223   0.542   0.404
 1962SOL     OW23027   6.186   2.168   1.354
 1962SOL    HW123028   6.226   2.245   1.394
 1962SOL    HW223029   6.135   2.203   1.281
 1963SOL     OW23030   1.514   2.419   7.120
 1963SOL    HW123031   1.591   2.363   7.131
 1963SOL    HW223032   1.439   2.360   7.125
 1964SOL     OW23033   4.335   3.514   5.934
 1964SOL    HW123034   4.399   3.544   5.870
 1964SOL    HW223035   4.381   3.448   5.986
 1965SOL     OW23036   6.201   1.325   0.990
 1965SOL    HW123037   6.256   1.252   0.962
 1965SOL    HW223038   6.160   1.356   0.910
 1966SOL     OW23039   5.065   1.637   0.273
 1966SOL    HW123040   5.104   1.590   0.346
 1966SOL    HW223041   4.971   1.630   0.288
 1967SOL     OW23042   4.763   3.102   6.109
 1967SOL    HW123043   4.815   3.142   6.179
 1967SOL    HW223044   4.716   3.030   6.153
 1968SOL     OW23045   5.499   0.807   6.729
 1968SOL    HW123046   5.591   0.817   6.706
 1968SOL    HW223047   5.496   0.814   6.824
 1969SOL     OW23048   4.457   4.676   0.939
 1969SOL    HW123049   4.538   4.625   0.937
 1969SOL    HW223050   4.400   4.634   0.875
 1970SOL     OW23051   3.561   2.102   1.137
 1970SOL    HW123052   3.616   2.179   1.121
 1970SOL    HW223053   3.472   2.136   1.138
 1971SOL     OW23054   1.076   5.423   6.694
 1971SOL    HW123055   1.086   5.347   6.638
 1971SOL    HW223056   1.033   5.488   6.640
 1972SOL     OW23057   3.455   0.885   1.307
 1972SOL    HW123058   3.536   0.919   1.344
 1972SOL    HW223059   3.448   0.796   1.343
 1973SOL     OW23060   1.892   4.523   6.590
 1973SOL    HW123061   1.889   4.429   6.575
 1973SOL    HW223062   1.977   4.550   6.555
 1974SOL     OW23063   3.595   0.853   7.295
 1974SOL    HW123064   3.667   0.790   7.290
 1974SOL    HW223065   3.626   0.921   7.355
 1975SOL     OW23066   3.905   1.578   1.298
 1975SOL    HW123067   3.917   1.584   1.203
 1975SOL    HW223068   3.829   1.522   1.309
 1976SOL     OW23069   4.385   5.232   6.656
 1976SOL    HW123070   4.411   5.142   6.634
 1976SOL    HW223071   4.400   5.239   6.750
 1977SOL     OW23072   0.517   1.506   0.849
 1977SOL    HW123073   0.464   1.567   0.797
 1977SOL    HW223074   0.590   1.559   0.879
 1978SOL     OW23075   2.266   3.083   1.221
 1978SOL    HW123076   2.322   3.007   1.237
 1978SOL    HW223077   2.290   3.147   1.288
 1979SOL     OW23078   6.064   2.132   0.620
 1979SOL    HW123079   6.061   2.037   0.602
 1979SOL    HW223080   6.124   2.141   0.693
 1980SOL     OW23081   3.212   2.520   6.273
 1980SOL    HW123082   3.258   2.589   6.224
 1980SOL    HW223083   3.121   2.526   6.243
 1981SOL     OW23084   4.711   0.784   1.757
 1981SOL    HW123085   4.766   0.835   1.817
 1981SOL    HW223086   4.639   0.753   1.812
 1982SOL     OW23087   6.236   3.006   6.432
 1982SOL    HW123088   6.148   3.036   6.454
 1982SOL    HW223089   6.239   3.010   6.336
 1983SOL     OW23090   3.412   6.263   0.369
 1983SOL    HW123091   3.438   6.186   0.318
 1983SOL    HW223092   3.477   6.269   0.439
 1984SOL     OW23093   0.717   1.457   1.311
 1984SOL    HW123094   0.806   1.458   1.277
 1984SOL    HW223095   0.665   1.420   1.240
 1985SOL     OW23096   4.797   3.348   1.322
 1985SOL    HW123097   4.803   3.379   1.231
 1985SOL    HW223098   4.881   3.371   1.360
 1986SOL     OW23099   5.754   2.191   0.735
 1986SOL    HW123100   5.697   2.254   0.691
 1986SOL    HW223101   5.813   2.245   0.788
 1987SOL     OW23102   5.099   1.390   2.139
 1987SOL    HW123103   5.153   1.426   2.210
 1987SOL    HW223104   5.147   1.312   2.111
 1988SOL     OW23105   0.970   3.983   0.372
 1988SOL    HW123106   1.025   4.043   0.322
 1988SOL    HW223107   0.975   3.900   0.324
 1989SOL     OW23108   0.006   4.731   0.165
 1989SOL    HW123109   0.075   4.783   0.207
 1989SOL    HW223110   0.003   4.650   0.216
 1990SOL     OW23111   2.501   0.582   2.035
 1990SOL    HW123112   2.582   0.625   2.063
 1990SOL    HW223113   2.518   0.555   1.945
 1991SOL     OW23114   6.073   3.941   2.342
 1991SOL    HW123115   6.152   3.993   2.328
 1991SOL    HW223116   6.026   3.947   2.259
 1992SOL     OW23117   1.633   3.427   7.544
 1992SOL    HW123118   1.542   3.445   7.518
 1992SOL    HW223119   1.649   3.490   7.615
 1993SOL     OW23120   5.327   3.041   1.912
 1993SOL    HW123121   5.363   2.988   1.841
 1993SOL    HW223122   5.261   3.096   1.869
 1994SOL     OW23123   5.221   5.523   6.149
 1994SOL    HW123124   5.206   5.485   6.062
 1994SOL    HW223125   5.260   5.609   6.130
 1995SOL     OW23126   4.579   1.144   0.826
 1995SOL    HW123127   4.669   1.165   0.801
 1995SOL    HW223128   4.580   1.140   0.921
 1996SOL     OW23129   5.023   0.435   1.110
 1996SOL    HW123130   5.091   0.416   1.045
 1996SOL    HW223131   4.960   0.363   1.101
 1997SOL     OW23132   4.500   4.966   2.396
 1997SOL    HW123133   4.421   4.981   2.345
 1997SOL    HW223134   4.530   4.880   2.368
 1998SOL     OW23135   2.994   5.612   6.296
 1998SOL    HW123136   3.066   5.577   6.348
 1998SOL    HW223137   2.916   5.599   6.351
 1999SOL     OW23138   5.174   4.046   5.294
 1999SOL    HW123139   5.108   4.033   5.363
 1999SOL    HW223140   5.123   4.051   5.213
 2000SOL     OW23141   5.636   1.833   7.208
 2000SOL    HW123142   5.711   1.777   7.188
 2000SOL    HW223143   5.582   1.779   7.267
 2001SOL     OW23144   3.024   0.105   0.942
 2001SOL    HW123145   2.988   0.160   1.012
 2001SOL    HW223146   2.962   0.115   0.869
 2002SOL     OW23147   0.323   6.171   0.890
 2002SOL    HW123148   0.379   6.204   0.960
 2002SOL    HW223149   0.240   6.217   0.902
 2003SOL     OW23150   0.811   2.097   6.095
 2003SOL    HW123151   0.858   2.015   6.087
 2003SOL    HW223152   0.725   2.079   6.057
 2004SOL     OW23153   1.765   3.652   7.233
 2004SOL    HW123154   1.837   3.715   7.246
 2004SOL    HW223155   1.767   3.598   7.312
 2005SOL     OW23156   0.433   0.888   1.461
 2005SOL    HW123157   0.383   0.886   1.543
 2005SOL    HW223158   0.507   0.830   1.477
 2006SOL     OW23159   1.483   4.041   5.628
 2006SOL    HW123160   1.576   4.056   5.644
 2006SOL    HW223161   1.457   4.113   5.571
 2007SOL     OW23162   4.859   1.734   0.927
 2007SOL    HW123163   4.846   1.828   0.919
 2007SOL    HW223164   4.840   1.714   1.018
 2008SOL     OW23165   1.164   6.101   7.705
 2008SOL    HW123166   1.216   6.180   7.714
 2008SOL    HW223167   1.074   6.133   7.694
 2009SOL     OW23168   0.885   5.560   0.930
 2009SOL    HW123169   0.871   5.472   0.966
 2009SOL    HW223170   0.969   5.554   0.884
 2010SOL     OW23171   1.121   0.433   7.458
 2010SOL    HW123172   1.209   0.418   7.491
 2010SOL    HW223173   1.066   0.373   7.508
 2011SOL     OW23174   4.537   4.972   1.184
 2011SOL    HW123175   4.593   4.996   1.257
 2011SOL    HW223176   4.573   5.019   1.108
 2012SOL     OW23177   2.067   3.708   5.427
 2012SOL    HW123178   2.027   3.775   5.371
 2012SOL    HW223179   2.125   3.659   5.368
 2013SOL     OW23180   2.483   5.904   1.286
 2013SOL    HW123181   2.540   5.832   1.259
 2013SOL    HW223182   2.406   5.861   1.324
 2014SOL     OW23183   3.510   4.594   1.738
 2014SOL    HW123184   3.481   4.600   1.829
 2014SOL    HW223185   3.501   4.501   1.716
 2015SOL     OW23186   2.136   2.308   1.069
 2015SOL    HW123187   2.206   2.368   1.045
 2015SOL    HW223188   2.114   2.330   1.159
 2016SOL     OW23189   0.332   6.289   6.666
 2016SOL    HW123190   0.266   6.227   6.697
 2016SOL    HW223191   0.336   6.355   6.735
 2017SOL     OW23192   4.482   4.677   0.265
 2017SOL    HW123193   4.525   4.719   0.191
 2017SOL    HW223194   4.532   4.707   0.342
 2018SOL     OW23195   1.361   1.134   7.519
 2018SOL    HW123196   1.332   1.099   7.603
 2018SOL    HW223197   1.321   1.076   7.454
 2019SOL     OW23198   3.225   0.048   6.617
 2019SOL    HW123199   3.321   0.045   6.625
 2019SOL    HW223200   3.206   0.137   6.590
 2020SOL     OW23201   1.005   4.783   7.113
 2020SOL    HW123202   1.093   4.748   7.101
 2020SOL    HW223203   0.974   4.800   7.024
 2021SOL     OW23204   0.574   5.906   7.095
 2021SOL    HW123205   0.612   5.978   7.144
 2021SOL    HW223206   0.599   5.922   7.004
 2022SOL     OW23207   3.840   3.183   6.157
 2022SOL    HW123208   3.830   3.277   6.168
 2022SOL    HW223209   3.770   3.159   6.096
 2023SOL     OW23210   3.313   1.587   6.194
 2023SOL    HW123211   3.387   1.528   6.209
 2023SOL    HW223212   3.352   1.674   6.194
 2024SOL     OW23213   2.873   4.867   7.105
 2024SOL    HW123214   2.789   4.905   7.078
 2024SOL    HW223215   2.849   4.785   7.148
 2025SOL     OW23216   1.579   0.094   0.702
 2025SOL    HW123217   1.577   0.171   0.759
 2025SOL    HW223218   1.672   0.073   0.693
 2026SOL     OW23219   2.205   3.845   7.136
 2026SOL    HW123220   2.186   3.757   7.104
 2026SOL    HW223221   2.250   3.831   7.220
 2027SOL     OW23222   4.955   0.488   6.856
 2027SOL    HW123223   5.020   0.488   6.926
 2027SOL    HW223224   4.972   0.568   6.806
 2028SOL     OW23225   2.403   1.494   5.236
 2028SOL    HW123226   2.434   1.530   5.319
 2028SOL    HW223227   2.314   1.529   5.226
 2029SOL     OW23228   4.015   4.291   0.913
 2029SOL    HW123229   4.079   4.311   0.844
 2029SOL    HW223230   4.018   4.196   0.922
 2030SOL     OW23231   5.220   1.172   6.805
 2030SOL    HW123232   5.228   1.108   6.734
 2030SOL    HW223233   5.131   1.207   6.795
 2031SOL     OW23234   5.736   2.074   7.224
 2031SOL    HW123235   5.697   1.988   7.237
 2031SOL    HW223236   5.830   2.059   7.233
 2032SOL     OW23237   1.818   0.623   7.627
 2032SOL    HW123238   1.872   0.691   7.585
 2032SOL    HW223239   1.881   0.568   7.674
 2033SOL     OW23240   5.333   2.887   7.584
 2033SOL    HW123241   5.404   2.898   7.647
 2033SOL    HW223242   5.302   2.976   7.567
 2034SOL     OW23243   0.502   1.109   0.511
 2034SOL    HW123244   0.548   1.159   0.444
 2034SOL    HW223245   0.516   1.158   0.591
 2035SOL     OW23246   4.202   4.332   1.265
 2035SOL    HW123247   4.143   4.351   1.192
 2035SOL    HW223248   4.239   4.417   1.289
 2036SOL     OW23249   4.089   5.767   0.209
 2036SOL    HW123250   4.080   5.686   0.258
 2036SOL    HW223251   4.026   5.760   0.138
 2037SOL     OW23252   4.657   4.226   0.854
 2037SOL    HW123253   4.641   4.226   0.759
 2037SOL    HW223254   4.612   4.148   0.886
 2038SOL     OW23255   0.656   6.013   0.244
 2038SOL    HW123256   0.568   5.977   0.236
 2038SOL    HW223257   0.646   6.092   0.297
 2039SOL     OW23258   5.569   1.535   2.288
 2039SOL    HW123259   5.620   1.613   2.270
 2039SOL    HW223260   5.584   1.478   2.212
 2040SOL     OW23261   1.791   5.287   6.983
 2040SOL    HW123262   1.840   5.369   6.975
 2040SOL    HW223263   1.823   5.249   7.065
 2041SOL     OW23264   1.186   5.815   7.646
 2041SOL    HW123265   1.183   5.909   7.625
 2041SOL    HW223266   1.106   5.799   7.698
 2042SOL     OW23267   0.722   3.078   7.186
 2042SOL    HW123268   0.727   3.165   7.146
 2042SOL    HW223269   0.808   3.039   7.169
 2043SOL     OW23270   6.075   3.618   0.943
 2043SOL    HW123271   6.167   3.616   0.917
 2043SOL    HW223272   6.077   3.616   1.039
 2044SOL     OW23273   3.875   2.625   7.311
 2044SOL    HW123274   3.906   2.576   7.388
 2044SOL    HW223275   3.872   2.716   7.341
 2045SOL     OW23276   3.576   1.219   1.500
 2045SOL    HW123277   3.553   1.203   1.592
 2045SOL    HW223278   3.499   1.192   1.451
 2046SOL     OW23279   2.801   6.204   7.179
 2046SOL    HW123280   2.819   6.279   7.235
 2046SOL    HW223281   2.875   6.145   7.192
 2047SOL     OW23282   4.557   5.095   0.680
 2047SOL    HW123283   4.644   5.057   0.664
 2047SOL    HW223284   4.498   5.019   0.680
 2048SOL     OW23285   4.258   4.886   2.289
 2048SOL    HW123286   4.239   4.796   2.316
 2048SOL    HW223287   4.282   4.880   2.197
 2049SOL     OW23288   0.943   2.692   5.525
 2049SOL    HW123289   0.857   2.710   5.562
 2049SOL    HW223290   0.978   2.779   5.503
 2050SOL     OW23291   2.966   0.437   0.195
 2050SOL    HW123292   2.999   0.472   0.112
 2050SOL    HW223293   2.901   0.372   0.170
 2051SOL     OW23294   1.858   3.246   1.847
 2051SOL    HW123295   1.771   3.277   1.821
 2051SOL    HW223296   1.912   3.325   1.847
 2052SOL     OW23297   4.398   4.318   6.626
 2052SOL    HW123298   4.314   4.351   6.660
 2052SOL    HW223299   4.375   4.237   6.581
 2053SOL     OW23300   0.826   4.006   7.477
 2053SOL    HW123301   0.863   4.032   7.392
 2053SOL    HW223302   0.873   3.926   7.500
 2054SOL     OW23303   3.416   5.791   2.240
 2054SOL    HW123304   3.501   5.765   2.277
 2054SOL    HW223305   3.359   5.716   2.258
 2055SOL     OW23306   4.458   0.696   1.624
 2055SOL    HW123307   4.491   0.725   1.709
 2055SOL    HW223308   4.514   0.740   1.560
 2056SOL     OW23309   0.664   6.076   5.728
 2056SOL    HW123310   0.570   6.070   5.749
 2056SOL    HW223311   0.677   6.013   5.658
 2057SOL     OW23312   3.147   5.363   5.653
 2057SOL    HW123313   3.078   5.425   5.677
 2057SOL    HW223314   3.104   5.300   5.596
 2058SOL     OW23315   3.820   2.907   5.949
 2058SOL    HW123316   3.789   2.834   5.896
 2058SOL    HW223317   3.747   2.928   6.007
 2059SOL     OW23318   4.190   2.037   1.765
 2059SOL    HW123319   4.160   1.966   1.709
 2059SOL    HW223320   4.111   2.065   1.813
 2060SOL     OW23321   5.194   3.549   7.058
 2060SOL    HW123322   5.231   3.637   7.068
 2060SOL    HW223323   5.180   3.518   7.147
 2061SOL     OW23324   0.531   5.975   6.375
 2061SOL    HW123325   0.583   5.896   6.361
 2061SOL    HW223326   0.554   6.032   6.302
 2062SOL     OW23327   6.232   4.323   7.057
 2062SOL    HW123328   6.182   4.378   6.996
 2062SOL    HW223329   6.248   4.242   7.009
 2063SOL     OW23330   3.177   0.786   0.085
 2063SOL    HW123331   3.102   0.782   0.144
 2063SOL    HW223332   3.171   0.705   0.033
 2064SOL     OW23333   3.042   6.152   5.637
 2064SOL    HW123334   3.099   6.122   5.707
 2064SOL    HW223335   3.071   6.242   5.619
 2065SOL     OW23336   2.445   6.194   6.717
 2065SOL    HW123337   2.352   6.185   6.699
 2065SOL    HW223338   2.487   6.177   6.632
 2066SOL     OW23339   1.947   2.722   2.611
 2066SOL    HW123340   1.992   2.638   2.603
 2066SOL    HW223341   1.896   2.730   2.530
 2067SOL     OW23342   3.515   2.612   6.856
 2067SOL    HW123343   3.548   2.603   6.767
 2067SOL    HW223344   3.462   2.533   6.871
 2068SOL     OW23345   3.497   0.645   5.565
 2068SOL    HW123346   3.550   0.695   5.503
 2068SOL    HW223347   3.411   0.686   5.563
 2069SOL     OW23348   2.664   0.592   6.793
 2069SOL    HW123349   2.751   0.629   6.777
 2069SOL    HW223350   2.624   0.650   6.857
 2070SOL     OW23351   3.429   0.297   6.049
 2070SOL    HW123352   3.481   0.327   5.975
 2070SOL    HW223353   3.353   0.254   6.009
 2071SOL     OW23354   4.903   2.085   1.216
 2071SOL    HW123355   4.830   2.142   1.241
 2071SOL    HW223356   4.969   2.101   1.284
 2072SOL     OW23357   1.323   0.859   7.268
 2072SOL    HW123358   1.235   0.850   7.305
 2072SOL    HW223359   1.317   0.936   7.211
 2073SOL     OW23360   0.946   1.608   0.761
 2073SOL    HW123361   1.039   1.591   0.774
 2073SOL    HW223362   0.931   1.693   0.803
 2074SOL     OW23363   2.814   3.164   0.400
 2074SOL    HW123364   2.839   3.143   0.310
 2074SOL    HW223365   2.875   3.233   0.426
 2075SOL     OW23366   5.277   4.180   1.575
 2075SOL    HW123367   5.329   4.232   1.636
 2075SOL    HW223368   5.270   4.094   1.617
 2076SOL     OW23369   1.315   2.207   7.026
 2076SOL    HW123370   1.322   2.142   6.957
 2076SOL    HW223371   1.252   2.170   7.087
 2077SOL     OW23372   2.047   3.153   6.272
 2077SOL    HW123373   2.087   3.122   6.353
 2077SOL    HW223374   2.060   3.082   6.209
 2078SOL     OW23375   0.809   2.979   1.226
 2078SOL    HW123376   0.751   2.908   1.253
 2078SOL    HW223377   0.876   2.936   1.173
 2079SOL     OW23378   3.936   4.719   6.627
 2079SOL    HW123379   3.972   4.741   6.713
 2079SOL    HW223380   3.845   4.693   6.645
 2080SOL     OW23381   2.867   5.328   6.796
 2080SOL    HW123382   2.773   5.339   6.778
 2080SOL    HW223383   2.869   5.285   6.882
 2081SOL     OW23384   4.250   0.181   7.497
 2081SOL    HW123385   4.284   0.151   7.413
 2081SOL    HW223386   4.161   0.213   7.478
 2082SOL     OW23387   4.489   1.108   6.331
 2082SOL    HW123388   4.504   1.036   6.392
 2082SOL    HW223389   4.565   1.105   6.272
 2083SOL     OW23390   5.339   6.325   7.795
 2083SOL    HW123391   5.428   6.325   7.761
 2083SOL    HW223392   5.307   6.414   7.778
 2084SOL     OW23393   1.857   0.299   1.096
 2084SOL    HW123394   1.787   0.341   1.045
 2084SOL    HW223395   1.904   0.246   1.033
 2085SOL     OW23396   4.926   5.560   1.716
 2085SOL    HW123397   4.884   5.638   1.752
 2085SOL    HW223398   4.982   5.593   1.646
 2086SOL     OW23399   0.561   4.663   6.923
 2086SOL    HW123400   0.505   4.645   6.999
 2086SOL    HW223401   0.536   4.596   6.859
 2087SOL     OW23402   4.865   5.361   6.164
 2087SOL    HW123403   4.902   5.361   6.076
 2087SOL    HW223404   4.908   5.287   6.208
 2088SOL     OW23405   1.360   3.252   7.493
 2088SOL    HW123406   1.417   3.282   7.422
 2088SOL    HW223407   1.275   3.293   7.474
 2089SOL     OW23408   0.203   5.325   0.378
 2089SOL    HW123409   0.251   5.318   0.296
 2089SOL    HW223410   0.236   5.406   0.419
 2090SOL     OW23411   5.040   4.758   7.092
 2090SOL    HW123412   5.110   4.754   7.157
 2090SOL    HW223413   5.034   4.851   7.069
 2091SOL     OW23414   2.044   1.912   6.999
 2091SOL    HW123415   2.075   1.833   7.042
 2091SOL    HW223416   1.970   1.883   6.947
 2092SOL     OW23417   4.281   4.802   0.052
 2092SOL    HW123418   4.327   4.727   0.014
 2092SOL    HW223419   4.336   4.878   0.029
 2093SOL     OW23420   3.175   1.887   6.389
 2093SOL    HW123421   3.186   1.808   6.442
 2093SOL    HW223422   3.088   1.920   6.414
 2094SOL     OW23423   2.904   5.762   7.194
 2094SOL    HW123424   2.850   5.683   7.189
 2094SOL    HW223425   2.944   5.769   7.108
 2095SOL     OW23426   4.855   2.425   1.035
 2095SOL    HW123427   4.857   2.346   1.089
 2095SOL    HW223428   4.897   2.398   0.953
 2096SOL     OW23429   6.416   5.913   1.597
 2096SOL    HW123430   6.322   5.930   1.590
 2096SOL    HW223431   6.428   5.824   1.566
 2097SOL     OW23432   4.655   3.743   7.048
 2097SOL    HW123433   4.652   3.747   6.953
 2097SOL    HW223434   4.743   3.774   7.071
 2098SOL     OW23435   1.435   5.868   0.433
 2098SOL    HW123436   1.443   5.954   0.475
 2098SOL    HW223437   1.488   5.810   0.487
 2099SOL     OW23438   3.549   3.273   1.059
 2099SOL    HW123439   3.546   3.253   1.153
 2099SOL    HW223440   3.612   3.210   1.024
 2100SOL     OW23441   2.169   3.230   1.594
 2100SOL    HW123442   2.192   3.289   1.521
 2100SOL    HW223443   2.162   3.144   1.554
 2101SOL     OW23444   5.571   5.038   7.474
 2101SOL    HW123445   5.641   4.997   7.423
 2101SOL    HW223446   5.525   5.094   7.412
 2102SOL     OW23447   0.789   2.857   6.963
 2102SOL    HW123448   0.825   2.940   6.932
 2102SOL    HW223449   0.756   2.815   6.883
 2103SOL     OW23450   4.558   1.096   1.889
 2103SOL    HW123451   4.514   1.012   1.880
 2103SOL    HW223452   4.499   1.149   1.942
 2104SOL     OW23453   2.440   1.469   6.168
 2104SOL    HW123454   2.447   1.421   6.086
 2104SOL    HW223455   2.478   1.555   6.149
 2105SOL     OW23456   5.747   0.903   1.811
 2105SOL    HW123457   5.713   0.967   1.873
 2105SOL    HW223458   5.795   0.840   1.865
 2106SOL     OW23459   3.824   3.135   0.581
 2106SOL    HW123460   3.909   3.116   0.620
 2106SOL    HW223461   3.780   3.190   0.646
 2107SOL     OW23462   4.861   0.748   1.540
 2107SOL    HW123463   4.906   0.664   1.554
 2107SOL    HW223464   4.812   0.763   1.621
 2108SOL     OW23465   3.539   1.780   1.180
 2108SOL    HW123466   3.558   1.752   1.270
 2108SOL    HW223467   3.564   1.872   1.178
 2109SOL     OW23468   2.440   1.551   7.198
 2109SOL    HW123469   2.460   1.602   7.277
 2109SOL    HW223470   2.491   1.471   7.207
 2110SOL     OW23471   4.331   4.501   2.481
 2110SOL    HW123472   4.295   4.565   2.421
 2110SOL    HW223473   4.379   4.553   2.546
 2111SOL     OW23474   4.753   4.083   6.432
 2111SOL    HW123475   4.667   4.112   6.402
 2111SOL    HW223476   4.778   4.015   6.369
 2112SOL     OW23477   5.114   1.343   6.163
 2112SOL    HW123478   5.064   1.272   6.125
 2112SOL    HW223479   5.171   1.301   6.227
 2113SOL     OW23480   2.017   2.050   2.272
 2113SOL    HW123481   2.081   2.116   2.243
 2113SOL    HW223482   1.932   2.090   2.254
 2114SOL     OW23483   3.201   2.561   5.274
 2114SOL    HW123484   3.208   2.655   5.256
 2114SOL    HW223485   3.290   2.528   5.263
 2115SOL     OW23486   4.580   0.877   6.477
 2115SOL    HW123487   4.525   0.808   6.515
 2115SOL    HW223488   4.663   0.870   6.524
 2116SOL     OW23489   0.530   1.101   0.144
 2116SOL    HW123490   0.568   1.047   0.075
 2116SOL    HW223491   0.599   1.163   0.166
 2117SOL     OW23492   0.362   4.295   1.863
 2117SOL    HW123493   0.302   4.237   1.816
 2117SOL    HW223494   0.346   4.277   1.955
 2118SOL     OW23495   5.428   4.837   2.308
 2118SOL    HW123496   5.391   4.920   2.278
 2118SOL    HW223497   5.365   4.771   2.278
 2119SOL     OW23498   5.955   4.870   0.314
 2119SOL    HW123499   5.979   4.779   0.299
 2119SOL    HW223500   6.033   4.920   0.290
 2120SOL     OW23501   0.420   2.639   0.315
 2120SOL    HW123502   0.481   2.694   0.267
 2120SOL    HW223503   0.357   2.610   0.249
 2121SOL     OW23504   1.103   1.344   1.577
 2121SOL    HW123505   1.091   1.428   1.622
 2121SOL    HW223506   1.146   1.367   1.495
 2122SOL     OW23507   4.813   0.062   0.343
 2122SOL    HW123508   4.765  -0.020   0.343
 2122SOL    HW223509   4.754   0.126   0.382
 2123SOL     OW23510   0.916   4.478   5.475
 2123SOL    HW123511   0.903   4.452   5.566
 2123SOL    HW223512   0.836   4.451   5.431
 2124SOL     OW23513   0.081   3.418   6.365
 2124SOL    HW123514   0.172   3.431   6.339
 2124SOL    HW223515   0.032   3.481   6.313
 2125SOL     OW23516   0.037   0.829   7.184
 2125SOL    HW123517   0.001   0.741   7.182
 2125SOL    HW223518  -0.021   0.879   7.240
 2126SOL     OW23519   1.077   4.467   7.066
 2126SOL    HW123520   0.993   4.503   7.037
 2126SOL    HW223521   1.135   4.543   7.072
 2127SOL     OW23522   1.320   2.287   6.009
 2127SOL    HW123523   1.274   2.254   5.932
 2127SOL    HW223524   1.409   2.302   5.979
 2128SOL     OW23525   0.540   3.580   0.350
 2128SOL    HW123526   0.557   3.672   0.329
 2128SOL    HW223527   0.469   3.583   0.414
 2129SOL     OW23528   2.108   5.058   7.332
 2129SOL    HW123529   2.036   4.997   7.316
 2129SOL    HW223530   2.162   5.014   7.398
 2130SOL     OW23531   2.797   0.261   0.526
 2130SOL    HW123532   2.802   0.191   0.590
 2130SOL    HW223533   2.888   0.289   0.514
 2131SOL     OW23534   6.059   5.880   1.235
 2131SOL    HW123535   6.080   5.787   1.246
 2131SOL    HW223536   5.984   5.895   1.292
 2132SOL     OW23537   5.359   2.534   5.714
 2132SOL    HW123538   5.343   2.546   5.620
 2132SOL    HW223539   5.446   2.571   5.729
 2133SOL     OW23540   4.901   5.311   1.531
 2133SOL    HW123541   4.988   5.272   1.525
 2133SOL    HW223542   4.886   5.323   1.624
 2134SOL     OW23543   1.325   2.391   7.402
 2134SOL    HW123544   1.315   2.297   7.417
 2134SOL    HW223545   1.270   2.432   7.469
 2135SOL     OW23546   1.616   3.439   0.558
 2135SOL    HW123547   1.644   3.442   0.467
 2135SOL    HW223548   1.521   3.449   0.553
 2136SOL     OW23549   1.884   3.442   0.128
 2136SOL    HW123550   1.807   3.499   0.126
 2136SOL    HW223551   1.864   3.378   0.196
 2137SOL     OW23552   4.866   1.400   2.058
 2137SOL    HW123553   4.811   1.429   2.131
 2137SOL    HW223554   4.956   1.409   2.090
 2138SOL     OW23555   4.886   6.311   1.084
 2138SOL    HW123556   4.920   6.357   1.161
 2138SOL    HW223557   4.911   6.220   1.097
 2139SOL     OW23558   1.235   0.645   7.109
 2139SOL    HW123559   1.273   0.730   7.131
 2139SOL    HW223560   1.310   0.585   7.108
 2140SOL     OW23561   3.157   3.353   0.301
 2140SOL    HW123562   3.132   3.261   0.289
 2140SOL    HW223563   3.122   3.376   0.387
 2141SOL     OW23564   2.114   4.516   0.845
 2141SOL    HW123565   2.161   4.588   0.886
 2141SOL    HW223566   2.182   4.454   0.819
 2142SOL     OW23567   1.383   0.407   0.443
 2142SOL    HW123568   1.341   0.430   0.525
 2142SOL    HW223569   1.467   0.452   0.445
 2143SOL     OW23570   4.803   2.825   5.428
 2143SOL    HW123571   4.814   2.794   5.518
 2143SOL    HW223572   4.718   2.790   5.400
 2144SOL     OW23573   5.830   3.460   2.234
 2144SOL    HW123574   5.862   3.524   2.298
 2144SOL    HW223575   5.908   3.411   2.208
 2145SOL     OW23576   1.094   2.016   0.251
 2145SOL    HW123577   1.121   2.106   0.266
 2145SOL    HW223578   1.017   2.023   0.194
 2146SOL     OW23579   1.212   0.561   0.088
 2146SOL    HW123580   1.220   0.573  -0.007
 2146SOL    HW223581   1.137   0.503   0.099
 2147SOL     OW23582   4.351   6.108   0.547
 2147SOL    HW123583   4.290   6.130   0.617
 2147SOL    HW223584   4.354   6.013   0.547
 2148SOL     OW23585   2.955   3.310   1.264
 2148SOL    HW123586   2.876   3.299   1.316
 2148SOL    HW223587   2.924   3.328   1.176
 2149SOL     OW23588   1.422   3.297   6.730
 2149SOL    HW123589   1.505   3.299   6.682
 2149SOL    HW223590   1.448   3.294   6.822
 2150SOL     OW23591   0.515   3.716   7.584
 2150SOL    HW123592   0.484   3.716   7.494
 2150SOL    HW223593   0.591   3.657   7.583
 2151SOL     OW23594   1.341   0.067   5.593
 2151SOL    HW123595   1.365   0.022   5.512
 2151SOL    HW223596   1.306  -0.001   5.650
 2152SOL     OW23597   6.356   5.994   7.221
 2152SOL    HW123598   6.281   5.939   7.243
 2152SOL    HW223599   6.422   5.973   7.287
 2153SOL     OW23600   5.622   5.109   1.904
 2153SOL    HW123601   5.547   5.151   1.947
 2153SOL    HW223602   5.698   5.148   1.946
 2154SOL     OW23603   5.070   5.545   5.699
 2154SOL    HW123604   4.976   5.556   5.689
 2154SOL    HW223605   5.089   5.573   5.788
 2155SOL     OW23606   3.061   5.030   6.252
 2155SOL    HW123607   3.043   5.042   6.159
 2155SOL    HW223608   3.045   5.116   6.291
 2156SOL     OW23609   0.936   4.384   1.584
 2156SOL    HW123610   1.013   4.412   1.535
 2156SOL    HW223611   0.866   4.382   1.519
 2157SOL     OW23612   1.410   2.988   7.362
 2157SOL    HW123613   1.375   3.045   7.431
 2157SOL    HW223614   1.361   2.907   7.370
 2158SOL     OW23615   4.788   3.760   0.130
 2158SOL    HW123616   4.755   3.847   0.152
 2158SOL    HW223617   4.830   3.729   0.210
 2159SOL     OW23618   3.270   3.595   7.227
 2159SOL    HW123619   3.206   3.661   7.253
 2159SOL    HW223620   3.333   3.643   7.172
 2160SOL     OW23621   4.093   3.641   1.125
 2160SOL    HW123622   4.039   3.639   1.204
 2160SOL    HW223623   4.050   3.582   1.064
 2161SOL     OW23624   3.802   5.067   1.105
 2161SOL    HW123625   3.889   5.036   1.130
 2161SOL    HW223626   3.778   5.129   1.174
 2162SOL     OW23627   1.679   4.912   7.080
 2162SOL    HW123628   1.604   4.867   7.119
 2162SOL    HW223629   1.721   4.955   7.154
 2163SOL     OW23630   4.506   4.307   5.906
 2163SOL    HW123631   4.481   4.377   5.846
 2163SOL    HW223632   4.572   4.346   5.962
 2164SOL     OW23633   0.772   2.407   1.723
 2164SOL    HW123634   0.761   2.502   1.716
 2164SOL    HW223635   0.840   2.395   1.789
 2165SOL     OW23636   4.616   5.785   7.464
 2165SOL    HW123637   4.553   5.782   7.536
 2165SOL    HW223638   4.695   5.745   7.500
 2166SOL     OW23639   5.156   4.383   0.925
 2166SOL    HW123640   5.206   4.350   1.000
 2166SOL    HW223641   5.070   4.402   0.961
 2167SOL     OW23642   4.564   5.668   1.860
 2167SOL    HW123643   4.507   5.732   1.901
 2167SOL    HW223644   4.584   5.605   1.929
 2168SOL     OW23645   4.757   3.921   6.215
 2168SOL    HW123646   4.824   3.924   6.147
 2168SOL    HW223647   4.675   3.906   6.167
 2169SOL     OW23648   1.299   2.477   6.701
 2169SOL    HW123649   1.235   2.434   6.759
 2169SOL    HW223650   1.361   2.519   6.760
 2170SOL     OW23651   0.529   2.503   1.601
 2170SOL    HW123652   0.472   2.561   1.651
 2170SOL    HW223653   0.529   2.421   1.650
 2171SOL     OW23654   2.027   1.969   1.010
 2171SOL    HW123655   2.054   1.881   1.036
 2171SOL    HW223656   2.058   2.026   1.080
 2172SOL     OW23657   2.163   1.135   1.571
 2172SOL    HW123658   2.163   1.220   1.529
 2172SOL    HW223659   2.140   1.153   1.662
 2173SOL     OW23660   4.777   0.401   0.807
 2173SOL    HW123661   4.737   0.344   0.873
 2173SOL    HW223662   4.791   0.484   0.853
 2174SOL     OW23663   4.491   4.487   5.586
 2174SOL    HW123664   4.419   4.425   5.601
 2174SOL    HW223665   4.536   4.453   5.509
 2175SOL     OW23666   5.281   4.571   0.778
 2175SOL    HW123667   5.236   4.556   0.695
 2175SOL    HW223668   5.254   4.498   0.833
 2176SOL     OW23669   3.528   2.843   7.709
 2176SOL    HW123670   3.439   2.837   7.742
 2176SOL    HW223671   3.526   2.794   7.625
 2177SOL     OW23672   0.962   2.326   7.397
 2177SOL    HW123673   0.944   2.413   7.362
 2177SOL    HW223674   0.876   2.284   7.403
 2178SOL     OW23675   2.255   2.791   6.193
 2178SOL    HW123676   2.230   2.772   6.283
 2178SOL    HW223677   2.190   2.855   6.163
 2179SOL     OW23678   4.744   5.737   1.264
 2179SOL    HW123679   4.752   5.652   1.308
 2179SOL    HW223680   4.671   5.725   1.203
 2180SOL     OW23681   4.228   3.893   5.619
 2180SOL    HW123682   4.155   3.901   5.680
 2180SOL    HW223683   4.222   3.803   5.586
 2181SOL     OW23684   2.336   2.543   1.761
 2181SOL    HW123685   2.373   2.576   1.844
 2181SOL    HW223686   2.256   2.498   1.787
 2182SOL     OW23687   3.396   1.653   0.988
 2182SOL    HW123688   3.482   1.615   0.974
 2182SOL    HW223689   3.412   1.730   1.043
 2183SOL     OW23690   3.727   3.468   7.638
 2183SOL    HW123691   3.792   3.410   7.678
 2183SOL    HW223692   3.719   3.541   7.702
 2184SOL     OW23693   4.543   4.151   6.267
 2184SOL    HW123694   4.447   4.159   6.264
 2184SOL    HW223695   4.564   4.096   6.191
 2185SOL     OW23696   4.651   3.735   6.469
 2185SOL    HW123697   4.743   3.751   6.490
 2185SOL    HW223698   4.654   3.677   6.392
 2186SOL     OW23699   0.314   1.908   6.779
 2186SOL    HW123700   0.270   1.876   6.700
 2186SOL    HW223701   0.351   1.993   6.753
 2187SOL     OW23702   4.405   4.736   1.203
 2187SOL    HW123703   4.402   4.693   1.118
 2187SOL    HW223704   4.446   4.820   1.186
 2188SOL     OW23705   3.040   4.670   6.456
 2188SOL    HW123706   3.088   4.706   6.530
 2188SOL    HW223707   3.025   4.578   6.480
 2189SOL     OW23708   0.693   4.696   1.478
 2189SOL    HW123709   0.639   4.770   1.508
 2189SOL    HW223710   0.767   4.738   1.434
 2190SOL     OW23711   3.008   6.384   0.516
 2190SOL    HW123712   3.007   6.428   0.432
 2190SOL    HW223713   2.977   6.296   0.499
 2191SOL     OW23714   5.216   5.319   5.787
 2191SOL    HW123715   5.180   5.402   5.757
 2191SOL    HW223716   5.307   5.338   5.808
 2192SOL     OW23717   4.331   0.996   7.240
 2192SOL    HW123718   4.312   0.922   7.298
 2192SOL    HW223719   4.248   1.041   7.231
 2193SOL     OW23720   2.479   2.578   6.699
 2193SOL    HW123721   2.436   2.612   6.778
 2193SOL    HW223722   2.566   2.617   6.700
 2194SOL     OW23723   5.616   3.774   6.631
 2194SOL    HW123724   5.555   3.846   6.613
 2194SOL    HW223725   5.670   3.806   6.704
 2195SOL     OW23726   3.955   3.323   7.735
 2195SOL    HW123727   3.953   3.247   7.794
 2195SOL    HW223728   3.973   3.286   7.647
 2196SOL     OW23729   5.800   2.895   1.524
 2196SOL    HW123730   5.714   2.931   1.543
 2196SOL    HW223731   5.858   2.972   1.520
 2197SOL     OW23732   2.756   0.078   7.774
 2197SOL    HW123733   2.769  -0.016   7.786
 2197SOL    HW223734   2.795   0.097   7.689
 2198SOL     OW23735   5.440   5.950   6.531
 2198SOL    HW123736   5.367   5.917   6.480
 2198SOL    HW223737   5.402   6.020   6.585
 2199SOL     OW23738   0.197   1.698   1.667
 2199SOL    HW123739   0.238   1.658   1.744
 2199SOL    HW223740   0.133   1.759   1.703
 2200SOL     OW23741   1.794   6.175   7.342
 2200SOL    HW123742   1.778   6.241   7.409
 2200SOL    HW223743   1.789   6.092   7.389
 2201SOL     OW23744   5.922   6.433   5.536
 2201SOL    HW123745   5.901   6.339   5.542
 2201SOL    HW223746   5.995   6.437   5.474
 2202SOL     OW23747   4.344   4.884   2.626
 2202SOL    HW123748   4.402   4.842   2.690
 2202SOL    HW223749   4.402   4.913   2.556
 2203SOL     OW23750   4.184   4.215   7.247
 2203SOL    HW123751   4.183   4.268   7.167
 2203SOL    HW223752   4.274   4.222   7.279
 2204SOL     OW23753   4.001   2.652   0.674
 2204SOL    HW123754   3.933   2.711   0.640
 2204SOL    HW223755   3.959   2.566   0.673
 2205SOL     OW23756   3.604   4.465   7.129
 2205SOL    HW123757   3.676   4.458   7.192
 2205SOL    HW223758   3.570   4.554   7.141
 2206SOL     OW23759   1.975   5.384   0.066
 2206SOL    HW123760   1.900   5.408   0.011
 2206SOL    HW223761   1.978   5.452   0.133
 2207SOL     OW23762   1.168   4.552   1.068
 2207SOL    HW123763   1.239   4.552   1.004
 2207SOL    HW223764   1.111   4.480   1.042
 2208SOL     OW23765   0.584   3.817   0.238
 2208SOL    HW123766   0.587   3.903   0.195
 2208SOL    HW223767   0.609   3.756   0.169
 2209SOL     OW23768   1.053   0.448   6.268
 2209SOL    HW123769   1.139   0.433   6.308
 2209SOL    HW223770   0.992   0.400   6.324
 2210SOL     OW23771   6.360   2.785   7.268
 2210SOL    HW123772   6.291   2.829   7.318
 2210SOL    HW223773   6.435   2.783   7.327
 2211SOL     OW23774   3.283   0.286   1.875
 2211SOL    HW123775   3.279   0.220   1.942
 2211SOL    HW223776   3.252   0.366   1.918
 2212SOL     OW23777   4.191   4.828   1.385
 2212SOL    HW123778   4.150   4.883   1.319
 2212SOL    HW223779   4.278   4.808   1.349
 2213SOL     OW23780   1.077   3.807   7.761
 2213SOL    HW123781   1.060   3.712   7.764
 2213SOL    HW223782   0.995   3.847   7.787
 2214SOL     OW23783   5.056   3.586   6.577
 2214SOL    HW123784   5.074   3.558   6.666
 2214SOL    HW223785   5.141   3.615   6.544
 2215SOL     OW23786   3.572   5.037   1.697
 2215SOL    HW123787   3.595   5.125   1.726
 2215SOL    HW223788   3.478   5.029   1.717
 2216SOL     OW23789   6.323   3.663   6.659
 2216SOL    HW123790   6.337   3.758   6.663
 2216SOL    HW223791   6.281   3.648   6.575
 2217SOL     OW23792   5.421   1.577   6.050
 2217SOL    HW123793   5.441   1.504   5.991
 2217SOL    HW223794   5.404   1.651   5.992
 2218SOL     OW23795   6.332   5.971   1.241
 2218SOL    HW123796   6.311   6.062   1.223
 2218SOL    HW223797   6.254   5.923   1.214
 2219SOL     OW23798   1.554   4.192   5.875
 2219SOL    HW123799   1.624   4.174   5.811
 2219SOL    HW223800   1.532   4.283   5.861
 2220SOL     OW23801   5.358   0.224   1.089
 2220SOL    HW123802   5.440   0.241   1.136
 2220SOL    HW223803   5.344   0.129   1.100
 2221SOL     OW23804   0.543   5.400   0.823
 2221SOL    HW123805   0.616   5.385   0.762
 2221SOL    HW223806   0.563   5.485   0.863
 2222SOL     OW23807   3.806   2.831   6.765
 2222SOL    HW123808   3.812   2.824   6.669
 2222SOL    HW223809   3.832   2.921   6.784
 2223SOL     OW23810   4.354   1.675   6.616
 2223SOL    HW123811   4.373   1.677   6.522
 2223SOL    HW223812   4.438   1.657   6.658
 2224SOL     OW23813   0.984   0.725   5.444
 2224SOL    HW123814   1.030   0.807   5.426
 2224SOL    HW223815   1.047   0.656   5.419
 2225SOL     OW23816   2.279   4.709   6.607
 2225SOL    HW123817   2.301   4.801   6.598
 2225SOL    HW223818   2.213   4.693   6.539
 2226SOL     OW23819   5.822   4.696   6.363
 2226SOL    HW123820   5.857   4.663   6.280
 2226SOL    HW223821   5.728   4.679   6.358
 2227SOL     OW23822   2.851   6.222   6.514
 2227SOL    HW123823   2.800   6.188   6.587
 2227SOL    HW223824   2.808   6.305   6.492
 2228SOL     OW23825   1.501   4.907   6.200
 2228SOL    HW123826   1.595   4.914   6.220
 2228SOL    HW223827   1.496   4.907   6.105
 2229SOL     OW23828   0.486   2.433   6.228
 2229SOL    HW123829   0.526   2.412   6.312
 2229SOL    HW223830   0.415   2.493   6.249
 2230SOL     OW23831   2.567   0.486   1.798
 2230SOL    HW123832   2.593   0.519   1.711
 2230SOL    HW223833   2.498   0.423   1.779
 2231SOL     OW23834   5.465   6.410   6.325
 2231SOL    HW123835   5.410   6.423   6.402
 2231SOL    HW223836   5.510   6.493   6.313
 2232SOL     OW23837   0.821   2.200   6.393
 2232SOL    HW123838   0.817   2.129   6.329
 2232SOL    HW223839   0.905   2.242   6.377
 2233SOL     OW23840   0.758   4.248   6.926
 2233SOL    HW123841   0.772   4.341   6.943
 2233SOL    HW223842   0.831   4.222   6.870
 2234SOL     OW23843   6.280   2.985   1.262
 2234SOL    HW123844   6.238   3.006   1.345
 2234SOL    HW223845   6.208   2.962   1.203
 2235SOL     OW23846   2.630   1.933   5.686
 2235SOL    HW123847   2.559   1.892   5.735
 2235SOL    HW223848   2.645   1.873   5.613
 2236SOL     OW23849   3.917   4.288   6.714
 2236SOL    HW123850   3.863   4.295   6.635
 2236SOL    HW223851   3.855   4.299   6.786
 2237SOL     OW23852   3.599   1.416   7.336
 2237SOL    HW123853   3.558   1.502   7.328
 2237SOL    HW223854   3.671   1.429   7.398
 2238SOL     OW23855   4.055   0.423   6.588
 2238SOL    HW123856   4.046   0.367   6.510
 2238SOL    HW223857   3.966   0.448   6.611
 2239SOL     OW23858   4.942   3.933   1.339
 2239SOL    HW123859   4.872   3.927   1.404
 2239SOL    HW223860   4.934   3.853   1.287
 2240SOL     OW23861   5.985   1.029   1.219
 2240SOL    HW123862   5.933   1.103   1.187
 2240SOL    HW223863   6.066   1.069   1.251
 2241SOL     OW23864   4.958   2.647   1.956
 2241SOL    HW123865   5.025   2.647   1.888
 2241SOL    HW223866   4.999   2.602   2.030
 2242SOL     OW23867   6.126   2.210   2.092
 2242SOL    HW123868   6.051   2.189   2.148
 2242SOL    HW223869   6.133   2.306   2.097
 2243SOL     OW23870   3.506   2.029   5.940
 2243SOL    HW123871   3.435   1.965   5.947
 2243SOL    HW223872   3.558   2.016   6.019
 2244SOL     OW23873   4.328   1.516   2.394
 2244SOL    HW123874   4.350   1.607   2.412
 2244SOL    HW223875   4.358   1.501   2.305
 2245SOL     OW23876   4.679   5.127   6.312
 2245SOL    HW123877   4.744   5.111   6.243
 2245SOL    HW223878   4.730   5.151   6.389
 2246SOL     OW23879   3.160   2.954   6.079
 2246SOL    HW123880   3.197   2.944   5.991
 2246SOL    HW223881   3.116   3.039   6.077
 2247SOL     OW23882   0.704   1.713   6.112
 2247SOL    HW123883   0.648   1.738   6.039
 2247SOL    HW223884   0.793   1.721   6.078
 2248SOL     OW23885   3.097   1.050   0.627
 2248SOL    HW123886   3.156   1.123   0.647
 2248SOL    HW223887   3.129   0.978   0.681
 2249SOL     OW23888   3.271   1.929   5.220
 2249SOL    HW123889   3.188   1.903   5.180
 2249SOL    HW223890   3.337   1.880   5.171
 2250SOL     OW23891   0.632   6.245   1.177
 2250SOL    HW123892   0.541   6.249   1.148
 2250SOL    HW223893   0.630   6.282   1.266
 2251SOL     OW23894   0.705   3.856   6.941
 2251SOL    HW123895   0.649   3.887   6.870
 2251SOL    HW223896   0.652   3.866   7.020
 2252SOL     OW23897   2.526   6.382   7.655
 2252SOL    HW123898   2.598   6.343   7.707
 2252SOL    HW223899   2.556   6.381   7.564
 2253SOL     OW23900   1.151   1.205   6.749
 2253SOL    HW123901   1.193   1.253   6.820
 2253SOL    HW223902   1.057   1.219   6.762
 2254SOL     OW23903   0.683   2.283   7.334
 2254SOL    HW123904   0.612   2.346   7.349
 2254SOL    HW223905   0.703   2.291   7.241
 2255SOL     OW23906   3.386   5.086   6.220
 2255SOL    HW123907   3.458   5.122   6.271
 2255SOL    HW223908   3.355   5.011   6.271
 2256SOL     OW23909   2.834   4.840   6.333
 2256SOL    HW123910   2.902   4.888   6.287
 2256SOL    HW223911   2.880   4.792   6.402
 2257SOL     OW23912   2.031   1.111   1.016
 2257SOL    HW123913   1.995   1.034   1.059
 2257SOL    HW223914   2.120   1.119   1.051
 2258SOL     OW23915   6.317   1.262   7.289
 2258SOL    HW123916   6.284   1.249   7.201
 2258SOL    HW223917   6.300   1.354   7.308
 2259SOL     OW23918   5.208   3.417   1.184
 2259SOL    HW123919   5.160   3.445   1.106
 2259SOL    HW223920   5.300   3.425   1.159
 2260SOL     OW23921   1.356   4.016   0.449
 2260SOL    HW123922   1.344   4.043   0.539
 2260SOL    HW223923   1.451   4.022   0.435
 2261SOL     OW23924   5.681   3.907   0.108
 2261SOL    HW123925   5.681   3.959   0.189
 2261SOL    HW223926   5.641   3.824   0.134
 2262SOL     OW23927   5.384   3.197   0.641
 2262SOL    HW123928   5.399   3.105   0.619
 2262SOL    HW223929   5.458   3.244   0.603
 2263SOL     OW23930   4.857   6.007   7.479
 2263SOL    HW123931   4.831   5.997   7.570
 2263SOL    HW223932   4.784   5.971   7.429
 2264SOL     OW23933   6.088   3.319   0.342
 2264SOL    HW123934   6.168   3.301   0.392
 2264SOL    HW223935   6.119   3.344   0.255
 2265SOL     OW23936   1.874   3.903   6.304
 2265SOL    HW123937   1.871   3.861   6.219
 2265SOL    HW223938   1.936   3.850   6.355
 2266SOL     OW23939   0.610   0.574   6.993
 2266SOL    HW123940   0.659   0.561   7.074
 2266SOL    HW223941   0.670   0.545   6.924
 2267SOL     OW23942   0.433   5.656   2.068
 2267SOL    HW123943   0.482   5.714   2.009
 2267SOL    HW223944   0.357   5.707   2.094
 2268SOL     OW23945   0.454   5.202   1.932
 2268SOL    HW123946   0.366   5.197   1.970
 2268SOL    HW223947   0.473   5.113   1.904
 2269SOL     OW23948   2.731   4.119   0.798
 2269SOL    HW123949   2.763   4.076   0.719
 2269SOL    HW223950   2.644   4.083   0.812
 2270SOL     OW23951   3.092   3.374   0.828
 2270SOL    HW123952   3.183   3.365   0.857
 2270SOL    HW223953   3.088   3.321   0.748
 2271SOL     OW23954   5.294   5.420   0.829
 2271SOL    HW123955   5.253   5.506   0.830
 2271SOL    HW223956   5.356   5.423   0.902
 2272SOL     OW23957   1.782   6.217   1.850
 2272SOL    HW123958   1.848   6.150   1.864
 2272SOL    HW223959   1.732   6.187   1.775
 2273SOL     OW23960   0.487   5.650   6.578
 2273SOL    HW123961   0.459   5.613   6.662
 2273SOL    HW223962   0.464   5.742   6.583
 2274SOL     OW23963   5.743   1.005   7.091
 2274SOL    HW123964   5.838   0.996   7.101
 2274SOL    HW223965   5.710   0.915   7.093
 2275SOL     OW23966   6.366   3.265   0.420
 2275SOL    HW123967   6.375   3.360   0.417
 2275SOL    HW223968   6.452   3.234   0.450
 2276SOL     OW23969   1.378   6.233   6.429
 2276SOL    HW123970   1.398   6.192   6.513
 2276SOL    HW223971   1.298   6.284   6.445
 2277SOL     OW23972   4.418   1.790   2.443
 2277SOL    HW123973   4.456   1.827   2.363
 2277SOL    HW223974   4.484   1.804   2.510
 2278SOL     OW23975   1.442   1.178   6.373
 2278SOL    HW123976   1.379   1.240   6.409
 2278SOL    HW223977   1.526   1.223   6.379
 2279SOL     OW23978   3.329   1.151   1.392
 2279SOL    HW123979   3.257   1.100   1.428
 2279SOL    HW223980   3.344   1.114   1.305
 2280SOL     OW23981   1.355   0.572   7.621
 2280SOL    HW123982   1.411   0.608   7.692
 2280SOL    HW223983   1.385   0.615   7.541
 2281SOL     OW23984   3.060   3.879   1.142
 2281SOL    HW123985   3.071   3.835   1.226
 2281SOL    HW223986   3.148   3.909   1.120
 2282SOL     OW23987   3.706   5.581   1.364
 2282SOL    HW123988   3.737   5.564   1.453
 2282SOL    HW223989   3.620   5.540   1.360
 2283SOL     OW23990   6.330   2.802   6.571
 2283SOL    HW123991   6.366   2.861   6.638
 2283SOL    HW223992   6.272   2.857   6.519
 2284SOL     OW23993   2.714   1.276   6.316
 2284SOL    HW123994   2.619   1.271   6.308
 2284SOL    HW223995   2.747   1.219   6.247
 2285SOL     OW23996   3.630   2.950   6.141
 2285SOL    HW123997   3.562   2.892   6.176
 2285SOL    HW223998   3.645   3.015   6.210
 2286SOL     OW23999   2.027   0.510   6.271
 2286SOL    HW124000   2.014   0.497   6.177
 2286SOL    HW224001   2.092   0.444   6.295
 2287SOL     OW24002   3.813   2.311   6.488
 2287SOL    HW124003   3.813   2.217   6.471
 2287SOL    HW224004   3.801   2.318   6.582
 2288SOL     OW24005   0.687   2.916   0.201
 2288SOL    HW124006   0.755   2.955   0.257
 2288SOL    HW224007   0.703   2.954   0.115
 2289SOL     OW24008   4.420   5.337   0.749
 2289SOL    HW124009   4.348   5.323   0.811
 2289SOL    HW224010   4.460   5.250   0.739
 2290SOL     OW24011   4.287   0.769   7.018
 2290SOL    HW124012   4.302   0.696   6.958
 2290SOL    HW224013   4.226   0.826   6.972
 2291SOL     OW24014   0.392   1.544   6.211
 2291SOL    HW124015   0.423   1.470   6.158
 2291SOL    HW224016   0.353   1.604   6.147
 2292SOL     OW24017   3.883   0.121   6.201
 2292SOL    HW124018   3.840   0.042   6.168
 2292SOL    HW224019   3.848   0.193   6.147
 2293SOL     OW24020   6.098   6.206   7.443
 2293SOL    HW124021   6.038   6.228   7.372
 2293SOL    HW224022   6.091   6.110   7.451
 2294SOL     OW24023   1.191   2.802   1.640
 2294SOL    HW124024   1.154   2.793   1.552
 2294SOL    HW224025   1.285   2.795   1.628
 2295SOL     OW24026   4.634   1.498   2.207
 2295SOL    HW124027   4.543   1.504   2.178
 2295SOL    HW224028   4.662   1.589   2.219
 2296SOL     OW24029   5.974   4.697   6.670
 2296SOL    HW124030   5.940   4.707   6.581
 2296SOL    HW224031   5.995   4.786   6.698
 2297SOL     OW24032   1.539   4.166   6.666
 2297SOL    HW124033   1.470   4.137   6.606
 2297SOL    HW224034   1.578   4.085   6.699
 2298SOL     OW24035   5.214   2.886   0.881
 2298SOL    HW124036   5.273   2.955   0.912
 2298SOL    HW224037   5.173   2.853   0.961
 2299SOL     OW24038   4.661   3.114   5.336
 2299SOL    HW124039   4.664   3.027   5.298
 2299SOL    HW224040   4.570   3.142   5.328
 2300SOL     OW24041   2.702   3.418   5.659
 2300SOL    HW124042   2.702   3.337   5.711
 2300SOL    HW224043   2.757   3.478   5.707
 2301SOL     OW24044   5.211   1.010   0.912
 2301SOL    HW124045   5.165   1.077   0.861
 2301SOL    HW224046   5.285   0.985   0.857
 2302SOL     OW24047   2.524   1.715   6.054
 2302SOL    HW124048   2.601   1.770   6.067
 2302SOL    HW224049   2.490   1.742   5.969
 2303SOL     OW24050   2.439   6.370   0.549
 2303SOL    HW124051   2.421   6.463   0.534
 2303SOL    HW224052   2.353   6.329   0.555
 2304SOL     OW24053   2.852   1.313   7.126
 2304SOL    HW124054   2.809   1.397   7.107
 2304SOL    HW224055   2.890   1.286   7.042
 2305SOL     OW24056   0.589   0.875   7.737
 2305SOL    HW124057   0.619   0.942   7.674
 2305SOL    HW224058   0.593   0.793   7.688
 2306SOL     OW24059   4.066   1.887   1.553
 2306SOL    HW124060   4.010   1.822   1.511
 2306SOL    HW224061   4.015   1.968   1.550
 2307SOL     OW24062   4.293   4.122   1.126
 2307SOL    HW124063   4.264   4.203   1.168
 2307SOL    HW224064   4.297   4.143   1.033
 2308SOL     OW24065   2.408   1.830   7.786
 2308SOL    HW124066   2.435   1.906   7.734
 2308SOL    HW224067   2.330   1.859   7.833
 2309SOL     OW24068   3.922   2.650   0.249
 2309SOL    HW124069   3.875   2.729   0.224
 2309SOL    HW224070   3.858   2.580   0.239
 2310SOL     OW24071   5.174   2.949   1.675
 2310SOL    HW124072   5.197   2.958   1.582
 2310SOL    HW224073   5.173   3.039   1.708
 2311SOL     OW24074   5.265   2.691   6.494
 2311SOL    HW124075   5.276   2.695   6.399
 2311SOL    HW224076   5.351   2.666   6.527
 2312SOL     OW24077   4.798   0.279   6.787
 2312SOL    HW124078   4.726   0.315   6.736
 2312SOL    HW224079   4.859   0.352   6.799
 2313SOL     OW24080   0.968   4.073   1.961
 2313SOL    HW124081   0.983   4.144   1.899
 2313SOL    HW224082   0.893   4.102   2.013
 2314SOL     OW24083   3.181   2.851   7.560
 2314SOL    HW124084   3.097   2.896   7.548
 2314SOL    HW224085   3.236   2.882   7.488
 2315SOL     OW24086   3.916   2.642   7.701
 2315SOL    HW124087   3.846   2.618   7.640
 2315SOL    HW224088   3.880   2.715   7.751
 2316SOL     OW24089   3.779   5.465   0.272
 2316SOL    HW124090   3.751   5.518   0.197
 2316SOL    HW224091   3.717   5.393   0.275
 2317SOL     OW24092   4.516   4.397   2.289
 2317SOL    HW124093   4.568   4.319   2.269
 2317SOL    HW224094   4.465   4.372   2.366
 2318SOL     OW24095   3.173   1.800   5.434
 2318SOL    HW124096   3.106   1.755   5.383
 2318SOL    HW224097   3.226   1.848   5.370
 2319SOL     OW24098   0.136   1.423   5.989
 2319SOL    HW124099   0.224   1.391   6.008
 2319SOL    HW224100   0.088   1.346   5.958
 2320SOL     OW24101   0.421   0.478   6.197
 2320SOL    HW124102   0.483   0.482   6.124
 2320SOL    HW224103   0.474   0.446   6.271
 2321SOL     OW24104   0.469   2.492   6.722
 2321SOL    HW124105   0.552   2.515   6.679
 2321SOL    HW224106   0.491   2.487   6.815
 2322SOL     OW24107   0.583   0.127   6.990
 2322SOL    HW124108   0.611   0.160   7.076
 2322SOL    HW224109   0.648   0.161   6.929
 2323SOL     OW24110   1.234   2.745   6.925
 2323SOL    HW124111   1.328   2.744   6.906
 2323SOL    HW224112   1.220   2.670   6.983
 2324SOL     OW24113   0.915   6.220   6.484
 2324SOL    HW124114   0.935   6.147   6.425
 2324SOL    HW224115   0.822   6.210   6.503
 2325SOL     OW24116   2.249   6.141   1.924
 2325SOL    HW124117   2.286   6.162   1.839
 2325SOL    HW224118   2.292   6.059   1.949
 2326SOL     OW24119   2.704   6.404   6.968
 2326SOL    HW124120   2.705   6.315   7.004
 2326SOL    HW224121   2.644   6.452   7.025
 2327SOL     OW24122   3.881   5.544   1.589
 2327SOL    HW124123   3.890   5.599   1.667
 2327SOL    HW224124   3.970   5.516   1.568
 2328SOL     OW24125   3.889   5.759   2.158
 2328SOL    HW124126   3.918   5.694   2.094
 2328SOL    HW224127   3.834   5.710   2.219
 2329SOL     OW24128   4.033   2.795   6.186
 2329SOL    HW124129   4.093   2.815   6.116
 2329SOL    HW224130   3.978   2.724   6.152
 2330SOL     OW24131   4.990   0.778   6.084
 2330SOL    HW124132   4.966   0.750   5.996
 2330SOL    HW224133   4.908   0.808   6.123
 2331SOL     OW24134   0.872   6.219   0.304
 2331SOL    HW124135   0.956   6.193   0.265
 2331SOL    HW224136   0.862   6.311   0.279
 2332SOL     OW24137   5.790   3.979   7.106
 2332SOL    HW124138   5.821   3.892   7.131
 2332SOL    HW224139   5.724   4.000   7.172
 2333SOL     OW24140   5.872   5.899   7.210
 2333SOL    HW124141   5.866   5.976   7.153
 2333SOL    HW224142   5.784   5.891   7.248
 2334SOL     OW24143   4.617   3.842   1.134
 2334SOL    HW124144   4.634   3.906   1.065
 2334SOL    HW224145   4.567   3.773   1.091
 2335SOL     OW24146   6.102   3.184   7.711
 2335SOL    HW124147   6.137   3.238   7.781
 2335SOL    HW224148   6.180   3.149   7.665
 2336SOL     OW24149   2.215   5.189   2.531
 2336SOL    HW124150   2.302   5.229   2.538
 2336SOL    HW224151   2.155   5.263   2.530
 2337SOL     OW24152   0.061   6.278   0.887
 2337SOL    HW124153   0.026   6.345   0.946
 2337SOL    HW224154   0.000   6.205   0.895
 2338SOL     OW24155   1.694   4.251   2.229
 2338SOL    HW124156   1.771   4.267   2.283
 2338SOL    HW224157   1.677   4.335   2.185
 2339SOL     OW24158   1.160   4.237   0.443
 2339SOL    HW124159   1.113   4.198   0.516
 2339SOL    HW224160   1.240   4.185   0.436
 2340SOL     OW24161   2.831   1.092   0.078
 2340SOL    HW124162   2.925   1.100   0.090
 2340SOL    HW224163   2.806   1.016   0.129
 2341SOL     OW24164   5.257   5.620   5.522
 2341SOL    HW124165   5.249   5.595   5.430
 2341SOL    HW224166   5.182   5.580   5.565
 2342SOL     OW24167   1.123   3.633   1.362
 2342SOL    HW124168   1.084   3.550   1.338
 2342SOL    HW224169   1.132   3.629   1.457
 2343SOL     OW24170   6.356   0.211   6.554
 2343SOL    HW124171   6.389   0.120   6.553
 2343SOL    HW224172   6.373   0.240   6.643
 2344SOL     OW24173   2.161   5.349   5.712
 2344SOL    HW124174   2.126   5.262   5.733
 2344SOL    HW224175   2.213   5.335   5.633
 2345SOL     OW24176   5.604   0.392   6.531
 2345SOL    HW124177   5.674   0.451   6.505
 2345SOL    HW224178   5.555   0.375   6.451
 2346SOL     OW24179   0.166   3.512   0.877
 2346SOL    HW124180   0.185   3.436   0.821
 2346SOL    HW224181   0.234   3.509   0.944
 2347SOL     OW24182   2.417   3.202   5.759
 2347SOL    HW124183   2.374   3.186   5.843
 2347SOL    HW224184   2.511   3.202   5.780
 2348SOL     OW24185   0.816   4.850   1.294
 2348SOL    HW124186   0.869   4.812   1.225
 2348SOL    HW224187   0.762   4.916   1.251
 2349SOL     OW24188   1.359   0.183   6.855
 2349SOL    HW124189   1.355   0.107   6.796
 2349SOL    HW224190   1.294   0.243   6.820
 2350SOL     OW24191   1.403   1.780   6.630
 2350SOL    HW124192   1.355   1.829   6.563
 2350SOL    HW224193   1.379   1.689   6.615
 2351SOL     OW24194   4.877   0.936   1.096
 2351SOL    HW124195   4.940   0.907   1.030
 2351SOL    HW224196   4.869   0.861   1.156
 2352SOL     OW24197   3.779   2.655   5.428
 2352SOL    HW124198   3.836   2.644   5.504
 2352SOL    HW224199   3.706   2.596   5.444
 2353SOL     OW24200   2.071   1.495   2.013
 2353SOL    HW124201   2.008   1.463   1.948
 2353SOL    HW224202   2.150   1.444   1.997
 2354SOL     OW24203   0.750   3.176   0.427
 2354SOL    HW124204   0.708   3.210   0.348
 2354SOL    HW224205   0.678   3.167   0.490
 2355SOL     OW24206   1.230   1.313   6.495
 2355SOL    HW124207   1.231   1.256   6.572
 2355SOL    HW224208   1.160   1.375   6.513
 2356SOL     OW24209   1.255   0.059   1.073
 2356SOL    HW124210   1.163   0.060   1.097
 2356SOL    HW224211   1.302   0.068   1.156
 2357SOL     OW24212   2.471   1.363   6.436
 2357SOL    HW124213   2.434   1.405   6.359
 2357SOL    HW224214   2.515   1.434   6.484
 2358SOL     OW24215   2.384   4.788   6.881
 2358SOL    HW124216   2.336   4.735   6.816
 2358SOL    HW224217   2.346   4.876   6.872
 2359SOL     OW24218   2.109   2.095   7.380
 2359SOL    HW124219   2.160   2.020   7.348
 2359SOL    HW224220   2.168   2.142   7.438
 2360SOL     OW24221   1.051   2.798   1.390
 2360SOL    HW124222   0.961   2.784   1.359
 2360SOL    HW224223   1.092   2.850   1.322
 2361SOL     OW24224   4.883   5.052   6.869
 2361SOL    HW124225   4.976   5.068   6.881
 2361SOL    HW224226   4.879   4.988   6.798
 2362SOL     OW24227   6.432   1.319   0.593
 2362SOL    HW124228   6.517   1.323   0.638
 2362SOL    HW224229   6.438   1.386   0.525
 2363SOL     OW24230   5.025   6.071   1.077
 2363SOL    HW124231   5.003   5.979   1.090
 2363SOL    HW224232   5.038   6.080   0.983
 2364SOL     OW24233   3.611   2.087   6.222
 2364SOL    HW124234   3.684   2.069   6.280
 2364SOL    HW224235   3.533   2.066   6.274
 2365SOL     OW24236   5.691   0.089   1.070
 2365SOL    HW124237   5.754   0.033   1.024
 2365SOL    HW224238   5.627   0.113   1.002
 2366SOL     OW24239   1.618   3.233   0.764
 2366SOL    HW124240   1.525   3.209   0.756
 2366SOL    HW224241   1.627   3.311   0.710
 2367SOL     OW24242   3.462   2.659   7.496
 2367SOL    HW124243   3.478   2.631   7.406
 2367SOL    HW224244   3.367   2.660   7.504
 2368SOL     OW24245   1.589   4.999   1.840
 2368SOL    HW124246   1.608   4.914   1.802
 2368SOL    HW224247   1.495   4.998   1.856
 2369SOL     OW24248   5.819   4.734   1.595
 2369SOL    HW124249   5.775   4.665   1.643
 2369SOL    HW224250   5.749   4.792   1.565
 2370SOL     OW24251   0.904   0.196   6.882
 2370SOL    HW124252   0.851   0.127   6.840
 2370SOL    HW224253   0.878   0.193   6.974
 2371SOL     OW24254   1.695   4.870   0.866
 2371SOL    HW124255   1.702   4.817   0.946
 2371SOL    HW224256   1.728   4.813   0.796
 2372SOL     OW24257   1.701   6.317   0.215
 2372SOL    HW124258   1.782   6.351   0.176
 2372SOL    HW224259   1.726   6.231   0.249
 2373SOL     OW24260   0.180   5.128   0.592
 2373SOL    HW124261   0.204   5.186   0.520
 2373SOL    HW224262   0.120   5.180   0.645
 2374SOL     OW24263   3.536   4.979   1.328
 2374SOL    HW124264   3.586   4.921   1.271
 2374SOL    HW224265   3.592   5.055   1.342
 2375SOL     OW24266   1.440   1.285   1.402
 2375SOL    HW124267   1.367   1.291   1.340
 2375SOL    HW224268   1.516   1.268   1.347
 2376SOL     OW24269   1.890   0.900   0.105
 2376SOL    HW124270   1.905   0.965   0.036
 2376SOL    HW224271   1.795   0.888   0.107
 2377SOL     OW24272   4.834   1.873   1.520
 2377SOL    HW124273   4.754   1.920   1.541
 2377SOL    HW224274   4.805   1.786   1.493
 2378SOL     OW24275   0.567   2.848   7.110
 2378SOL    HW124276   0.600   2.934   7.139
 2378SOL    HW224277   0.642   2.805   7.071
 2379SOL     OW24278   1.933   5.528   0.325
 2379SOL    HW124279   1.872   5.455   0.343
 2379SOL    HW224280   1.983   5.536   0.406
 2380SOL     OW24281   4.932   5.728   0.014
 2380SOL    HW124282   4.908   5.709   0.104
 2380SOL    HW224283   4.991   5.656  -0.011
 2381SOL     OW24284   6.245   4.653   7.628
 2381SOL    HW124285   6.317   4.649   7.565
 2381SOL    HW224286   6.267   4.728   7.686
 2382SOL     OW24287   4.194   6.026   0.975
 2382SOL    HW124288   4.146   6.041   1.056
 2382SOL    HW224289   4.142   5.962   0.927
 2383SOL     OW24290   1.409   3.777   0.196
 2383SOL    HW124291   1.334   3.723   0.169
 2383SOL    HW224292   1.405   3.854   0.139
 2384SOL     OW24293   3.627   0.923   7.753
 2384SOL    HW124294   3.546   0.893   7.794
 2384SOL    HW224295   3.696   0.869   7.791
 2385SOL     OW24296   2.391   1.849   6.898
 2385SOL    HW124297   2.359   1.833   6.987
 2385SOL    HW224298   2.432   1.767   6.872
 2386SOL     OW24299   0.077   1.350   6.505
 2386SOL    HW124300   0.045   1.294   6.576
 2386SOL    HW224301   0.158   1.308   6.476
 2387SOL     OW24302   1.677   4.589   1.482
 2387SOL    HW124303   1.720   4.505   1.465
 2387SOL    HW224304   1.622   4.572   1.559
 2388SOL     OW24305   3.406   2.752   1.820
 2388SOL    HW124306   3.381   2.687   1.886
 2388SOL    HW224307   3.371   2.835   1.853
 2389SOL     OW24308   1.726   1.499   0.976
 2389SOL    HW124309   1.639   1.464   0.960
 2389SOL    HW224310   1.721   1.591   0.948
 2390SOL     OW24311   4.008   3.086   1.358
 2390SOL    HW124312   4.032   3.175   1.331
 2390SOL    HW224313   4.078   3.061   1.418
 2391SOL     OW24314   1.017   0.593   6.904
 2391SOL    HW124315   0.964   0.668   6.878
 2391SOL    HW224316   1.094   0.631   6.947
 2392SOL     OW24317   0.320   2.359   6.003
 2392SOL    HW124318   0.379   2.431   5.983
 2392SOL    HW224319   0.360   2.314   6.078
 2393SOL     OW24320   4.543   5.293   2.146
 2393SOL    HW124321   4.604   5.311   2.074
 2393SOL    HW224322   4.472   5.356   2.134
 2394SOL     OW24323   0.727   3.560   7.471
 2394SOL    HW124324   0.709   3.476   7.514
 2394SOL    HW224325   0.708   3.545   7.379
 2395SOL     OW24326   4.073   2.612   6.617
 2395SOL    HW124327   4.005   2.613   6.685
 2395SOL    HW224328   4.121   2.531   6.632
 2396SOL     OW24329   5.829   1.640   7.121
 2396SOL    HW124330   5.916   1.662   7.152
 2396SOL    HW224331   5.843   1.572   7.055
 2397SOL     OW24332   5.095   4.201   2.093
 2397SOL    HW124333   5.100   4.211   1.998
 2397SOL    HW224334   5.086   4.291   2.126
 2398SOL     OW24335   0.765   0.624   7.209
 2398SOL    HW124336   0.772   0.717   7.186
 2398SOL    HW224337   0.839   0.609   7.268
 2399SOL     OW24338   4.403   5.968   6.102
 2399SOL    HW124339   4.362   5.924   6.027
 2399SOL    HW224340   4.446   6.045   6.064
 2400SOL     OW24341   3.694   3.494   6.862
 2400SOL    HW124342   3.741   3.553   6.921
 2400SOL    HW224343   3.672   3.418   6.916
 2401SOL     OW24344   5.911   4.956   6.390
 2401SOL    HW124345   6.001   4.937   6.366
 2401SOL    HW224346   5.862   4.878   6.365
 2402SOL     OW24347   3.670   3.537   0.801
 2402SOL    HW124348   3.590   3.589   0.808
 2402SOL    HW224349   3.741   3.600   0.815
 2403SOL     OW24350   2.363   1.665   1.503
 2403SOL    HW124351   2.443   1.638   1.457
 2403SOL    HW224352   2.325   1.582   1.534
 2404SOL     OW24353   3.418   3.034   5.623
 2404SOL    HW124354   3.416   2.998   5.534
 2404SOL    HW224355   3.419   3.129   5.610
 2405SOL     OW24356   1.233   4.708   1.596
 2405SOL    HW124357   1.227   4.710   1.501
 2405SOL    HW224358   1.145   4.685   1.625
 2406SOL     OW24359   4.915   0.521   7.293
 2406SOL    HW124360   4.894   0.608   7.257
 2406SOL    HW224361   4.959   0.476   7.221
 2407SOL     OW24362   5.104   5.125   6.654
 2407SOL    HW124363   5.130   5.215   6.631
 2407SOL    HW224364   5.135   5.113   6.743
 2408SOL     OW24365   0.134   0.074   1.601
 2408SOL    HW124366   0.205   0.079   1.665
 2408SOL    HW224367   0.156  -0.003   1.548
 2409SOL     OW24368   0.077   0.018   7.588
 2409SOL    HW124369   0.125  -0.060   7.614
 2409SOL    HW224370   0.138   0.090   7.604
 2410SOL     OW24371   1.390   1.194   1.861
 2410SOL    HW124372   1.395   1.142   1.942
 2410SOL    HW224373   1.478   1.230   1.851
 2411SOL     OW24374   2.931   0.808   0.221
 2411SOL    HW124375   2.850   0.850   0.251
 2411SOL    HW224376   2.906   0.766   0.138
 2412SOL     OW24377   0.871   6.341   7.164
 2412SOL    HW124378   0.783   6.371   7.186
 2412SOL    HW224379   0.880   6.359   7.071
 2413SOL     OW24380   5.101   2.385   7.707
 2413SOL    HW124381   5.148   2.408   7.786
 2413SOL    HW224382   5.145   2.435   7.636
 2414SOL     OW24383   1.938   1.530   0.766
 2414SOL    HW124384   1.898   1.596   0.822
 2414SOL    HW224385   2.031   1.531   0.791
 2415SOL     OW24386   4.156   6.451   1.608
 2415SOL    HW124387   4.153   6.358   1.584
 2415SOL    HW224388   4.242   6.481   1.578
 2416SOL     OW24389   4.359   1.642   1.245
 2416SOL    HW124390   4.394   1.584   1.177
 2416SOL    HW224391   4.435   1.687   1.281
 2417SOL     OW24392   1.030   4.419   7.342
 2417SOL    HW124393   0.937   4.399   7.352
 2417SOL    HW224394   1.045   4.421   7.248
 2418SOL     OW24395   3.023   1.537   5.372
 2418SOL    HW124396   2.985   1.490   5.298
 2418SOL    HW224397   2.966   1.612   5.386
 2419SOL     OW24398   4.527   3.193   6.358
 2419SOL    HW124399   4.573   3.109   6.354
 2419SOL    HW224400   4.439   3.174   6.327
 2420SOL     OW24401   1.164   6.441   6.375
 2420SOL    HW124402   1.206   6.497   6.310
 2420SOL    HW224403   1.071   6.441   6.351
 2421SOL     OW24404   2.720   1.150   1.506
 2421SOL    HW124405   2.767   1.194   1.576
 2421SOL    HW224406   2.754   1.061   1.507
 2422SOL     OW24407   3.562   4.777   0.737
 2422SOL    HW124408   3.490   4.725   0.701
 2422SOL    HW224409   3.561   4.756   0.831
 2423SOL     OW24410   5.332   4.318   2.477
 2423SOL    HW124411   5.427   4.324   2.484
 2423SOL    HW224412   5.301   4.407   2.493
 2424SOL     OW24413   1.848   4.519   0.362
 2424SOL    HW124414   1.869   4.524   0.455
 2424SOL    HW224415   1.878   4.603   0.327
 2425SOL     OW24416   5.393   0.683   7.799
 2425SOL    HW124417   5.475   0.641   7.774
 2425SOL    HW224418   5.364   0.727   7.720
 2426SOL     OW24419   5.688   3.510   6.899
 2426SOL    HW124420   5.767   3.467   6.932
 2426SOL    HW224421   5.649   3.550   6.977
 2427SOL     OW24422   3.128   3.088   1.129
 2427SOL    HW124423   3.080   3.043   1.060
 2427SOL    HW224424   3.072   3.162   1.154
 2428SOL     OW24425   5.056   3.481   5.595
 2428SOL    HW124426   5.051   3.572   5.566
 2428SOL    HW224427   5.031   3.429   5.518
 2429SOL     OW24428   2.331   4.157   0.148
 2429SOL    HW124429   2.270   4.148   0.075
 2429SOL    HW224430   2.360   4.068   0.167
 2430SOL     OW24431   2.037   0.692   5.682
 2430SOL    HW124432   1.963   0.640   5.650
 2430SOL    HW224433   2.095   0.700   5.606
 2431SOL     OW24434   2.285   3.738   6.790
 2431SOL    HW124435   2.339   3.747   6.869
 2431SOL    HW224436   2.204   3.698   6.820
 2432SOL     OW24437   2.483   3.886   1.269
 2432SOL    HW124438   2.483   3.895   1.174
 2432SOL    HW224439   2.574   3.869   1.292
 2433SOL     OW24440   6.061   5.547   1.568
 2433SOL    HW124441   6.100   5.622   1.523
 2433SOL    HW224442   6.112   5.539   1.648
 2434SOL     OW24443   0.724   2.072   1.340
 2434SOL    HW124444   0.765   2.147   1.382
 2434SOL    HW224445   0.793   2.006   1.334
 2435SOL     OW24446   5.636   5.066   0.918
 2435SOL    HW124447   5.624   5.046   0.826
 2435SOL    HW224448   5.710   5.127   0.920
 2436SOL     OW24449   0.070   4.952   6.210
 2436SOL    HW124450   0.133   4.934   6.141
 2436SOL    HW224451  -0.003   4.998   6.167
 2437SOL     OW24452   6.245   6.177   6.339
 2437SOL    HW124453   6.276   6.177   6.248
 2437SOL    HW224454   6.184   6.103   6.344
 2438SOL     OW24455   1.683   3.916   6.775
 2438SOL    HW124456   1.641   3.837   6.742
 2438SOL    HW224457   1.732   3.887   6.852
 2439SOL     OW24458   0.921   1.862   1.385
 2439SOL    HW124459   1.005   1.907   1.388
 2439SOL    HW224460   0.943   1.770   1.377
 2440SOL     OW24461   5.112   4.266   1.821
 2440SOL    HW124462   5.045   4.256   1.753
 2440SOL    HW224463   5.192   4.287   1.773
 2441SOL     OW24464   2.540   2.305   5.452
 2441SOL    HW124465   2.560   2.237   5.389
 2441SOL    HW224466   2.452   2.334   5.429
 2442SOL     OW24467   4.593   5.151   5.939
 2442SOL    HW124468   4.538   5.227   5.921
 2442SOL    HW224469   4.672   5.165   5.887
 2443SOL     OW24470   1.634   4.102   6.398
 2443SOL    HW124471   1.692   4.026   6.397
 2443SOL    HW224472   1.549   4.067   6.424
 2444SOL     OW24473   5.370   0.043   6.750
 2444SOL    HW124474   5.405   0.132   6.753
 2444SOL    HW224475   5.349   0.028   6.657
 2445SOL     OW24476   0.460   3.024   6.335
 2445SOL    HW124477   0.494   2.935   6.341
 2445SOL    HW224478   0.538   3.078   6.321
 2446SOL     OW24479   5.151   4.911   1.659
 2446SOL    HW124480   5.144   4.830   1.609
 2446SOL    HW224481   5.096   4.896   1.736
 2447SOL     OW24482   5.888   1.412   2.288
 2447SOL    HW124483   5.850   1.493   2.255
 2447SOL    HW224484   5.834   1.390   2.364
 2448SOL     OW24485   5.421   4.725   0.398
 2448SOL    HW124486   5.456   4.781   0.468
 2448SOL    HW224487   5.476   4.647   0.401
 2449SOL     OW24488   3.051   2.041   6.746
 2449SOL    HW124489   3.020   2.023   6.835
 2449SOL    HW224490   3.127   1.983   6.735
 2450SOL     OW24491   5.509   4.339   6.467
 2450SOL    HW124492   5.529   4.338   6.373
 2450SOL    HW224493   5.428   4.288   6.474
 2451SOL     OW24494   5.736   3.299   0.725
 2451SOL    HW124495   5.799   3.356   0.768
 2451SOL    HW224496   5.790   3.241   0.671
 2452SOL     OW24497   2.625   1.176   4.937
 2452SOL    HW124498   2.561   1.230   4.891
 2452SOL    HW224499   2.608   1.193   5.030
 2453SOL     OW24500   0.006   4.714   6.003
 2453SOL    HW124501   0.094   4.681   5.987
 2453SOL    HW224502   0.016   4.809   6.004
 2454SOL     OW24503   6.423   3.726   5.673
 2454SOL    HW124504   6.473   3.680   5.605
 2454SOL    HW224505   6.451   3.817   5.666
 2455SOL     OW24506   0.282   2.789   7.158
 2455SOL    HW124507   0.262   2.737   7.080
 2455SOL    HW224508   0.376   2.806   7.152
 2456SOL     OW24509   6.003   0.641   1.007
 2456SOL    HW124510   5.950   0.717   0.983
 2456SOL    HW224511   6.069   0.677   1.067
 2457SOL     OW24512   4.627   6.362   0.985
 2457SOL    HW124513   4.722   6.368   0.976
 2457SOL    HW224514   4.612   6.354   1.079
 2458SOL     OW24515   3.866   3.079   7.574
 2458SOL    HW124516   3.908   3.149   7.525
 2458SOL    HW224517   3.901   2.998   7.536
 2459SOL     OW24518   0.636   2.032   7.222
 2459SOL    HW124519   0.664   2.120   7.247
 2459SOL    HW224520   0.611   2.040   7.130
 2460SOL     OW24521   4.036   0.270   6.362
 2460SOL    HW124522   3.981   0.218   6.304
 2460SOL    HW224523   4.104   0.306   6.306
 2461SOL     OW24524   1.419   4.859   7.177
 2461SOL    HW124525   1.410   4.927   7.111
 2461SOL    HW224526   1.409   4.905   7.260
 2462SOL     OW24527   4.907   2.547   6.350
 2462SOL    HW124528   4.922   2.566   6.258
 2462SOL    HW224529   4.990   2.508   6.380
 2463SOL     OW24530   2.300   1.651   2.010
 2463SOL    HW124531   2.221   1.598   2.024
 2463SOL    HW224532   2.356   1.596   1.955
 2464SOL     OW24533   1.982   0.436   0.388
 2464SOL    HW124534   1.907   0.376   0.388
 2464SOL    HW224535   1.946   0.520   0.360
 2465SOL     OW24536   1.365   0.400   6.028
 2465SOL    HW124537   1.333   0.330   6.086
 2465SOL    HW224538   1.395   0.354   5.950
 2466SOL     OW24539   0.178   2.221   1.619
 2466SOL    HW124540   0.124   2.155   1.663
 2466SOL    HW224541   0.172   2.199   1.526
 2467SOL     OW24542   0.629   0.932   5.421
 2467SOL    HW124543   0.714   0.952   5.382
 2467SOL    HW224544   0.625   0.836   5.423
 2468SOL     OW24545   2.750   4.113   0.128
 2468SOL    HW124546   2.835   4.136   0.167
 2468SOL    HW224547   2.688   4.175   0.166
 2469SOL     OW24548   1.542   5.898   7.126
 2469SOL    HW124549   1.451   5.924   7.140
 2469SOL    HW224550   1.573   5.875   7.213
 2470SOL     OW24551   6.129   4.392   1.533
 2470SOL    HW124552   6.204   4.393   1.593
 2470SOL    HW224553   6.130   4.304   1.495
 2471SOL     OW24554   4.642   0.583   0.507
 2471SOL    HW124555   4.579   0.653   0.520
 2471SOL    HW224556   4.713   0.602   0.568
 2472SOL     OW24557   4.631   1.410   7.785
 2472SOL    HW124558   4.600   1.489   7.740
 2472SOL    HW224559   4.628   1.342   7.719
 2473SOL     OW24560   4.796   5.786   6.475
 2473SOL    HW124561   4.749   5.731   6.538
 2473SOL    HW224562   4.740   5.863   6.466
 2474SOL     OW24563   5.582   4.501   6.660
 2474SOL    HW124564   5.552   4.422   6.614
 2474SOL    HW224565   5.508   4.562   6.654
 2475SOL     OW24566   0.065   3.099   7.493
 2475SOL    HW124567  -0.010   3.041   7.504
 2475SOL    HW224568   0.099   3.077   7.406
 2476SOL     OW24569   3.249   6.323   7.148
 2476SOL    HW124570   3.206   6.328   7.062
 2476SOL    HW224571   3.218   6.241   7.185
 2477SOL     OW24572   1.901   1.246   0.772
 2477SOL    HW124573   1.964   1.232   0.843
 2477SOL    HW224574   1.876   1.338   0.779
 2478SOL     OW24575   2.978   2.186   1.182
 2478SOL    HW124576   2.897   2.237   1.187
 2478SOL    HW224577   2.968   2.135   1.101
 2479SOL     OW24578   5.017   0.963   0.020
 2479SOL    HW124579   5.066   0.957   0.101
 2479SOL    HW224580   4.966   0.881   0.017
 2480SOL     OW24581   0.019   5.664   1.465
 2480SOL    HW124582  -0.044   5.595   1.446
 2480SOL    HW224583   0.055   5.688   1.380
 2481SOL     OW24584   5.004   4.820   1.886
 2481SOL    HW124585   4.981   4.901   1.932
 2481SOL    HW224586   5.001   4.752   1.954
 2482SOL     OW24587   2.425   3.184   7.511
 2482SOL    HW124588   2.376   3.111   7.474
 2482SOL    HW224589   2.512   3.178   7.471
 2483SOL     OW24590   0.948   5.118   1.054
 2483SOL    HW124591   1.018   5.054   1.069
 2483SOL    HW224592   0.886   5.073   0.997
 2484SOL     OW24593   1.054   3.646   1.009
 2484SOL    HW124594   1.071   3.567   1.061
 2484SOL    HW224595   0.965   3.671   1.033
 2485SOL     OW24596   0.891   0.647   7.728
 2485SOL    HW124597   0.921   0.729   7.766
 2485SOL    HW224598   0.827   0.612   7.790
 2486SOL     OW24599   6.368   0.064   1.424
 2486SOL    HW124600   6.424   0.063   1.346
 2486SOL    HW224601   6.425   0.094   1.494
 2487SOL     OW24602   0.715   2.546   6.634
 2487SOL    HW124603   0.807   2.526   6.650
 2487SOL    HW224604   0.706   2.638   6.659
 2488SOL     OW24605   0.707   1.745   0.470
 2488SOL    HW124606   0.749   1.774   0.389
 2488SOL    HW224607   0.741   1.657   0.485
 2489SOL     OW24608   2.852   0.079   0.707
 2489SOL    HW124609   2.812   0.019   0.770
 2489SOL    HW224610   2.913   0.025   0.657
 2490SOL     OW24611   3.856   6.410   7.669
 2490SOL    HW124612   3.858   6.442   7.579
 2490SOL    HW224613   3.941   6.434   7.707
 2491SOL     OW24614   0.252   5.228   6.196
 2491SOL    HW124615   0.271   5.145   6.240
 2491SOL    HW224616   0.248   5.206   6.103
 2492SOL     OW24617   5.961   4.907   7.680
 2492SOL    HW124618   5.963   4.958   7.599
 2492SOL    HW224619   6.053   4.895   7.705
 2493SOL     OW24620   4.591   6.156   1.927
 2493SOL    HW124621   4.543   6.200   1.998
 2493SOL    HW224622   4.525   6.141   1.859
 2494SOL     OW24623   3.816   4.604   1.876
 2494SOL    HW124624   3.783   4.643   1.796
 2494SOL    HW224625   3.740   4.562   1.916
 2495SOL     OW24626   3.071   6.398   7.363
 2495SOL    HW124627   3.134   6.397   7.291
 2495SOL    HW224628   3.111   6.453   7.430
 2496SOL     OW24629   3.760   2.859   5.227
 2496SOL    HW124630   3.778   2.796   5.296
 2496SOL    HW224631   3.809   2.826   5.151
 2497SOL     OW24632   3.335   4.294   7.606
 2497SOL    HW124633   3.388   4.281   7.527
 2497SOL    HW224634   3.374   4.372   7.647
 2498SOL     OW24635   3.558   0.409   6.571
 2498SOL    HW124636   3.597   0.411   6.484
 2498SOL    HW224637   3.480   0.465   6.564
 2499SOL     OW24638   3.821   4.732   0.029
 2499SOL    HW124639   3.836   4.666  -0.038
 2499SOL    HW224640   3.887   4.800   0.011
 2500SOL     OW24641   2.896   0.752   6.493
 2500SOL    HW124642   2.862   0.839   6.515
 2500SOL    HW224643   2.852   0.729   6.411
 2501SOL     OW24644   5.752   3.525   6.639
 2501SOL    HW124645   5.730   3.514   6.731
 2501SOL    HW224646   5.713   3.609   6.615
 2502SOL     OW24647   5.039   2.910   6.317
 2502SOL    HW124648   5.072   3.000   6.313
 2502SOL    HW224649   5.104   2.858   6.269
 2503SOL     OW24650   1.899   1.742   6.572
 2503SOL    HW124651   1.972   1.748   6.510
 2503SOL    HW224652   1.823   1.718   6.517
 2504SOL     OW24653   4.825   5.624   0.699
 2504SOL    HW124654   4.886   5.688   0.737
 2504SOL    HW224655   4.834   5.636   0.605
 2505SOL     OW24656   5.592   2.403   6.450
 2505SOL    HW124657   5.592   2.321   6.400
 2505SOL    HW224658   5.561   2.378   6.537
 2506SOL     OW24659   3.294   4.334   0.962
 2506SOL    HW124660   3.213   4.328   0.912
 2506SOL    HW224661   3.356   4.377   0.902
 2507SOL     OW24662   2.622   5.708   7.321
 2507SOL    HW124663   2.660   5.790   7.288
 2507SOL    HW224664   2.592   5.730   7.410
 2508SOL     OW24665   6.074   4.518   6.343
 2508SOL    HW124666   6.074   4.596   6.400
 2508SOL    HW224667   6.164   4.512   6.312
 2509SOL     OW24668   0.916   6.098   5.831
 2509SOL    HW124669   0.986   6.105   5.766
 2509SOL    HW224670   0.837   6.126   5.784
 2510SOL     OW24671   0.520   0.789   6.422
 2510SOL    HW124672   0.588   0.725   6.401
 2510SOL    HW224673   0.561   0.874   6.403
 2511SOL     OW24674   6.320   0.045   2.096
 2511SOL    HW124675   6.260   0.120   2.102
 2511SOL    HW224676   6.391   0.075   2.040
 2512SOL     OW24677   1.597   0.265   6.987
 2512SOL    HW124678   1.642   0.184   7.005
 2512SOL    HW224679   1.514   0.239   6.946
 2513SOL     OW24680   2.648   4.937   6.989
 2513SOL    HW124681   2.646   4.951   6.894
 2513SOL    HW224682   2.591   4.861   7.003
 2514SOL     OW24683   4.778   4.548   0.721
 2514SOL    HW124684   4.716   4.521   0.789
 2514SOL    HW224685   4.804   4.637   0.745
 2515SOL     OW24686   0.966   2.199   1.106
 2515SOL    HW124687   0.995   2.187   1.196
 2515SOL    HW224688   1.047   2.202   1.055
 2516SOL     OW24689   0.272   2.981   1.778
 2516SOL    HW124690   0.178   2.977   1.793
 2516SOL    HW224691   0.281   3.003   1.685
 2517SOL     OW24692   6.332   0.041   7.347
 2517SOL    HW124693   6.373  -0.017   7.411
 2517SOL    HW224694   6.353   0.002   7.262
 2518SOL     OW24695   0.194   3.511   5.792
 2518SOL    HW124696   0.249   3.435   5.771
 2518SOL    HW224697   0.161   3.540   5.707
 2519SOL     OW24698   4.078   4.946   6.582
 2519SOL    HW124699   4.135   4.917   6.653
 2519SOL    HW224700   4.025   4.870   6.561
 2520SOL     OW24701   2.466   6.145   5.674
 2520SOL    HW124702   2.557   6.131   5.647
 2520SOL    HW224703   2.417   6.150   5.593
 2521SOL     OW24704   4.410   4.801   7.295
 2521SOL    HW124705   4.445   4.884   7.262
 2521SOL    HW224706   4.435   4.737   7.228
 2522SOL     OW24707   4.482   2.241   2.168
 2522SOL    HW124708   4.430   2.231   2.088
 2522SOL    HW224709   4.500   2.151   2.196
 2523SOL     OW24710   1.200   0.971   5.759
 2523SOL    HW124711   1.169   0.940   5.844
 2523SOL    HW224712   1.121   0.977   5.706
 2524SOL     OW24713   5.357   4.831   1.912
 2524SOL    HW124714   5.315   4.794   1.989
 2524SOL    HW224715   5.301   4.906   1.888
 2525SOL     OW24716   5.292   3.855   5.587
 2525SOL    HW124717   5.306   3.945   5.616
 2525SOL    HW224718   5.304   3.858   5.492
 2526SOL     OW24719   1.288   5.237   1.298
 2526SOL    HW124720   1.217   5.222   1.361
 2526SOL    HW224721   1.319   5.325   1.316
 2527SOL     OW24722   0.984   1.003   5.620
 2527SOL    HW124723   0.891   1.022   5.612
 2527SOL    HW224724   1.018   1.010   5.530
 2528SOL     OW24725   2.659   2.264   1.716
 2528SOL    HW124726   2.664   2.358   1.732
 2528SOL    HW224727   2.612   2.229   1.792
 2529SOL     OW24728   6.177   1.873   5.722
 2529SOL    HW124729   6.190   1.956   5.677
 2529SOL    HW224730   6.261   1.828   5.715
 2530SOL     OW24731   5.768   0.478   2.288
 2530SOL    HW124732   5.814   0.399   2.317
 2530SOL    HW224733   5.805   0.497   2.202
 2531SOL     OW24734   0.623   2.776   7.570
 2531SOL    HW124735   0.649   2.850   7.627
 2531SOL    HW224736   0.696   2.767   7.509
 2532SOL     OW24737   3.593   3.188   0.400
 2532SOL    HW124738   3.642   3.151   0.474
 2532SOL    HW224739   3.660   3.210   0.335
 2533SOL     OW24740   4.661   0.370   7.579
 2533SOL    HW124741   4.671   0.279   7.551
 2533SOL    HW224742   4.617   0.365   7.664
 2534SOL     OW24743   4.384   2.277   7.099
 2534SOL    HW124744   4.309   2.224   7.126
 2534SOL    HW224745   4.460   2.222   7.118
 2535SOL     OW24746   4.334   4.338   2.077
 2535SOL    HW124747   4.315   4.417   2.026
 2535SOL    HW224748   4.366   4.371   2.161
 2536SOL     OW24749   2.470   2.633   5.185
 2536SOL    HW124750   2.527   2.563   5.153
 2536SOL    HW224751   2.523   2.680   5.249
 2537SOL     OW24752   3.206   3.902   0.803
 2537SOL    HW124753   3.119   3.934   0.829
 2537SOL    HW224754   3.203   3.808   0.820
 2538SOL     OW24755   3.918   3.106   0.921
 2538SOL    HW124756   3.825   3.101   0.900
 2538SOL    HW224757   3.962   3.076   0.842
 2539SOL     OW24758   5.491   3.391   1.119
 2539SOL    HW124759   5.518   3.357   1.034
 2539SOL    HW224760   5.562   3.449   1.146
 2540SOL     OW24761   6.098   2.885   1.084
 2540SOL    HW124762   6.072   2.830   1.010
 2540SOL    HW224763   6.025   2.879   1.145
 2541SOL     OW24764   0.354   0.960   1.212
 2541SOL    HW124765   0.383   0.934   1.299
 2541SOL    HW224766   0.346   0.878   1.163
 2542SOL     OW24767   5.920   1.075   0.509
 2542SOL    HW124768   5.915   1.095   0.416
 2542SOL    HW224769   5.993   1.014   0.516
 2543SOL     OW24770   1.939   1.298   6.479
 2543SOL    HW124771   2.005   1.230   6.465
 2543SOL    HW224772   1.988   1.373   6.512
 2544SOL     OW24773   6.129   4.902   7.286
 2544SOL    HW124774   6.155   4.935   7.200
 2544SOL    HW224775   6.189   4.831   7.303
 2545SOL     OW24776   0.226   0.823   7.650
 2545SOL    HW124777   0.296   0.763   7.627
 2545SOL    HW224778   0.145   0.775   7.633
 2546SOL     OW24779   2.461   4.070   6.302
 2546SOL    HW124780   2.490   4.025   6.222
 2546SOL    HW224781   2.524   4.043   6.368
 2547SOL     OW24782   1.573   4.364   6.320
 2547SOL    HW124783   1.572   4.377   6.226
 2547SOL    HW224784   1.579   4.269   6.331
 2548SOL     OW24785   4.535   3.188   0.659
 2548SOL    HW124786   4.626   3.200   0.687
 2548SOL    HW224787   4.487   3.258   0.703
 2549SOL     OW24788   2.447   5.964   0.801
 2549SOL    HW124789   2.405   5.983   0.717
 2549SOL    HW224790   2.428   5.871   0.816
 2550SOL     OW24791   1.209   4.324   1.508
 2550SOL    HW124792   1.228   4.319   1.415
 2550SOL    HW224793   1.247   4.244   1.545
 2551SOL     OW24794   0.562   2.553   6.002
 2551SOL    HW124795   0.635   2.613   5.989
 2551SOL    HW224796   0.577   2.515   6.089
 2552SOL     OW24797   5.040   2.534   5.858
 2552SOL    HW124798   5.066   2.551   5.767
 2552SOL    HW224799   4.995   2.449   5.854
 2553SOL     OW24800   2.686   6.359   0.408
 2553SOL    HW124801   2.619   6.389   0.470
 2553SOL    HW224802   2.718   6.439   0.366
 2554SOL     OW24803   0.791   4.278   0.324
 2554SOL    HW124804   0.749   4.219   0.261
 2554SOL    HW224805   0.872   4.305   0.280
 2555SOL     OW24806   0.571   0.338   6.352
 2555SOL    HW124807   0.585   0.351   6.446
 2555SOL    HW224808   0.489   0.289   6.346
 2556SOL     OW24809   1.421   3.309   0.380
 2556SOL    HW124810   1.346   3.300   0.321
 2556SOL    HW224811   1.391   3.367   0.449
 2557SOL     OW24812   2.577   0.028   2.064
 2557SOL    HW124813   2.545   0.057   2.150
 2557SOL    HW224814   2.666  -0.003   2.082
 2558SOL     OW24815   2.131   4.019   0.966
 2558SOL    HW124816   2.088   4.027   0.881
 2558SOL    HW224817   2.178   3.936   0.962
 2559SOL     OW24818   5.374   1.672   0.329
 2559SOL    HW124819   5.285   1.667   0.295
 2559SOL    HW224820   5.398   1.764   0.320
 2560SOL     OW24821   3.637   0.276   1.788
 2560SOL    HW124822   3.640   0.234   1.702
 2560SOL    HW224823   3.640   0.204   1.850
 2561SOL     OW24824   0.360   6.248   1.706
 2561SOL    HW124825   0.438   6.239   1.652
 2561SOL    HW224826   0.299   6.184   1.671
 2562SOL     OW24827   4.449   2.076   1.187
 2562SOL    HW124828   4.502   2.144   1.229
 2562SOL    HW224829   4.491   2.061   1.103
 2563SOL     OW24830   3.273   0.093   7.519
 2563SOL    HW124831   3.342   0.151   7.489
 2563SOL    HW224832   3.308   0.054   7.599
 2564SOL     OW24833   4.844   1.169   0.756
 2564SOL    HW124834   4.879   1.090   0.715
 2564SOL    HW224835   4.817   1.224   0.683
 2565SOL     OW24836   1.758   3.634   6.517
 2565SOL    HW124837   1.803   3.630   6.433
 2565SOL    HW224838   1.749   3.543   6.544
 2566SOL     OW24839   1.693   5.561   7.219
 2566SOL    HW124840   1.712   5.632   7.280
 2566SOL    HW224841   1.607   5.527   7.247
 2567SOL     OW24842   2.638   5.235   7.177
 2567SOL    HW124843   2.663   5.181   7.102
 2567SOL    HW224844   2.544   5.250   7.166
 2568SOL     OW24845   3.430   3.396   0.515
 2568SOL    HW124846   3.484   3.475   0.512
 2568SOL    HW224847   3.484   3.328   0.476
 2569SOL     OW24848   1.435   5.004   7.454
 2569SOL    HW124849   1.426   5.099   7.460
 2569SOL    HW224850   1.378   4.969   7.523
 2570SOL     OW24851   5.032   6.134   0.794
 2570SOL    HW124852   5.068   6.085   0.720
 2570SOL    HW224853   4.939   6.144   0.773
 2571SOL     OW24854   0.597   6.135   7.493
 2571SOL    HW124855   0.569   6.049   7.526
 2571SOL    HW224856   0.684   6.148   7.532
 2572SOL     OW24857   5.794   2.529   6.177
 2572SOL    HW124858   5.742   2.460   6.136
 2572SOL    HW224859   5.756   2.538   6.265
 2573SOL     OW24860   0.167   4.890   6.851
 2573SOL    HW124861   0.199   4.932   6.931
 2573SOL    HW224862   0.226   4.816   6.838
 2574SOL     OW24863   4.012   1.890   7.285
 2574SOL    HW124864   4.055   1.811   7.319
 2574SOL    HW224865   3.926   1.889   7.325
 2575SOL     OW24866   5.364   6.049   1.729
 2575SOL    HW124867   5.394   6.024   1.816
 2575SOL    HW224868   5.270   6.063   1.739
 2576SOL     OW24869   3.281   0.776   6.295
 2576SOL    HW124870   3.203   0.813   6.335
 2576SOL    HW224871   3.288   0.819   6.210
 2577SOL     OW24872   0.449   3.828   6.389
 2577SOL    HW124873   0.397   3.906   6.367
 2577SOL    HW224874   0.533   3.864   6.418
 2578SOL     OW24875   2.455   2.136   6.357
 2578SOL    HW124876   2.489   2.200   6.293
 2578SOL    HW224877   2.440   2.188   6.436
 2579SOL     OW24878   4.640   3.311   6.943
 2579SOL    HW124879   4.597   3.321   7.028
 2579SOL    HW224880   4.580   3.257   6.891
 2580SOL     OW24881   5.529   6.437   0.210
 2580SOL    HW124882   5.591   6.383   0.259
 2580SOL    HW224883   5.451   6.382   0.201
 2581SOL     OW24884   6.281   4.276   5.942
 2581SOL    HW124885   6.189   4.280   5.965
 2581SOL    HW224886   6.317   4.360   5.973
 2582SOL     OW24887   0.811   2.623   2.018
 2582SOL    HW124888   0.861   2.562   1.964
 2582SOL    HW224889   0.849   2.709   1.999
 2583SOL     OW24890   5.889   1.417   2.649
 2583SOL    HW124891   5.936   1.448   2.572
 2583SOL    HW224892   5.840   1.340   2.619
 2584SOL     OW24893   1.873   2.319   1.030
 2584SOL    HW124894   1.966   2.320   1.006
 2584SOL    HW224895   1.854   2.226   1.046
 2585SOL     OW24896   2.352   1.172   7.795
 2585SOL    HW124897   2.429   1.138   7.749
 2585SOL    HW224898   2.306   1.226   7.731
 2586SOL     OW24899   5.273   1.520   2.296
 2586SOL    HW124900   5.362   1.491   2.315
 2586SOL    HW224901   5.284   1.601   2.245
 2587SOL     OW24902   3.350   5.970   5.493
 2587SOL    HW124903   3.268   5.995   5.535
 2587SOL    HW224904   3.323   5.921   5.415
 2588SOL     OW24905   4.021   2.206   0.473
 2588SOL    HW124906   4.089   2.144   0.450
 2588SOL    HW224907   4.038   2.282   0.417
 2589SOL     OW24908   2.779   0.164   1.552
 2589SOL    HW124909   2.744   0.177   1.640
 2589SOL    HW224910   2.775   0.252   1.513
 2590SOL     OW24911   5.658   3.943   0.703
 2590SOL    HW124912   5.613   4.016   0.747
 2590SOL    HW224913   5.741   3.934   0.751
 2591SOL     OW24914   0.982   1.855   7.008
 2591SOL    HW124915   1.030   1.792   6.955
 2591SOL    HW224916   0.892   1.821   7.011
 2592SOL     OW24917   0.748   5.307   7.243
 2592SOL    HW124918   0.819   5.363   7.275
 2592SOL    HW224919   0.772   5.219   7.274
 2593SOL     OW24920   1.142   5.294   7.578
 2593SOL    HW124921   1.057   5.278   7.537
 2593SOL    HW224922   1.200   5.313   7.504
 2594SOL     OW24923   3.850   4.475   0.222
 2594SOL    HW124924   3.770   4.522   0.246
 2594SOL    HW224925   3.912   4.494   0.292
 2595SOL     OW24926   0.678   1.453   6.511
 2595SOL    HW124927   0.647   1.521   6.452
 2595SOL    HW224928   0.704   1.500   6.590
 2596SOL     OW24929   1.552   4.854   6.772
 2596SOL    HW124930   1.639   4.888   6.796
 2596SOL    HW224931   1.492   4.896   6.833
 2597SOL     OW24932   4.054   4.725   0.723
 2597SOL    HW124933   4.064   4.780   0.646
 2597SOL    HW224934   3.963   4.739   0.751
 2598SOL     OW24935   3.113   0.605   0.330
 2598SOL    HW124936   3.060   0.543   0.279
 2598SOL    HW224937   3.055   0.679   0.347
 2599SOL     OW24938   0.005   4.066   7.595
 2599SOL    HW124939  -0.065   4.082   7.532
 2599SOL    HW224940   0.011   3.970   7.599
 2600SOL     OW24941   3.971   1.617   6.177
 2600SOL    HW124942   3.978   1.650   6.267
 2600SOL    HW224943   3.931   1.690   6.129
 2601SOL     OW24944   3.190   4.733   7.285
 2601SOL    HW124945   3.126   4.752   7.354
 2601SOL    HW224946   3.241   4.660   7.319
 2602SOL     OW24947   0.860   1.435   1.929
 2602SOL    HW124948   0.896   1.473   2.009
 2602SOL    HW224949   0.895   1.346   1.927
 2603SOL     OW24950   0.884   6.010   6.295
 2603SOL    HW124951   0.808   5.964   6.330
 2603SOL    HW224952   0.861   6.029   6.204
 2604SOL     OW24953   1.018   1.621   7.315
 2604SOL    HW124954   0.994   1.711   7.294
 2604SOL    HW224955   0.947   1.589   7.370
 2605SOL     OW24956   5.907   1.233   6.532
 2605SOL    HW124957   5.843   1.204   6.467
 2605SOL    HW224958   5.988   1.244   6.483
 2606SOL     OW24959   3.146   3.598   1.902
 2606SOL    HW124960   3.238   3.573   1.904
 2606SOL    HW224961   3.099   3.515   1.913
 2607SOL     OW24962   1.905   4.649   2.405
 2607SOL    HW124963   1.904   4.742   2.381
 2607SOL    HW224964   1.973   4.611   2.350
 2608SOL     OW24965   0.911   3.082   1.511
 2608SOL    HW124966   0.921   3.055   1.602
 2608SOL    HW224967   0.818   3.106   1.503
 2609SOL     OW24968   1.772   2.655   1.421
 2609SOL    HW124969   1.820   2.578   1.391
 2609SOL    HW224970   1.689   2.621   1.453
 2610SOL     OW24971   2.196   4.654   0.092
 2610SOL    HW124972   2.233   4.646   0.004
 2610SOL    HW224973   2.203   4.565   0.129
 2611SOL     OW24974   3.457   1.424   1.210
 2611SOL    HW124975   3.464   1.506   1.161
 2611SOL    HW224976   3.535   1.375   1.185
 2612SOL     OW24977   2.139   4.871   1.211
 2612SOL    HW124978   2.224   4.915   1.209
 2612SOL    HW224979   2.076   4.942   1.215
 2613SOL     OW24980   1.078   3.407   1.149
 2613SOL    HW124981   1.073   3.373   1.238
 2613SOL    HW224982   1.143   3.352   1.106
 2614SOL     OW24983   5.040   0.033   1.226
 2614SOL    HW124984   4.982   0.069   1.160
 2614SOL    HW224985   5.128   0.052   1.194
 2615SOL     OW24986   1.761   5.287   7.447
 2615SOL    HW124987   1.833   5.350   7.440
 2615SOL    HW224988   1.738   5.288   7.540
 2616SOL     OW24989   3.708   0.900   0.631
 2616SOL    HW124990   3.634   0.947   0.670
 2616SOL    HW224991   3.682   0.886   0.540
 2617SOL     OW24992   4.055   4.357   6.411
 2617SOL    HW124993   4.050   4.451   6.391
 2617SOL    HW224994   4.069   4.354   6.505
 2618SOL     OW24995   2.598   3.801   5.668
 2618SOL    HW124996   2.575   3.741   5.597
 2618SOL    HW224997   2.673   3.760   5.711
 2619SOL     OW24998   3.044   1.028   6.281
 2619SOL    HW124999   3.108   1.082   6.233
 2619SOL    HW225000   2.987   0.993   6.212
 2620SOL     OW25001   0.167   3.377   1.576
 2620SOL    HW125002   0.124   3.384   1.491
 2620SOL    HW225003   0.128   3.301   1.617
 2621SOL     OW25004   4.842   5.676   5.713
 2621SOL    HW125005   4.757   5.666   5.668
 2621SOL    HW225006   4.889   5.741   5.661
 2622SOL     OW25007   4.231   0.348   6.211
 2622SOL    HW125008   4.289   0.286   6.256
 2622SOL    HW225009   4.252   0.337   6.118
 2623SOL     OW25010   0.531   5.572   6.839
 2623SOL    HW125011   0.529   5.490   6.790
 2623SOL    HW225012   0.610   5.566   6.892
 2624SOL     OW25013   4.863   5.206   6.519
 2624SOL    HW125014   4.899   5.170   6.438
 2624SOL    HW225015   4.920   5.171   6.588
 2625SOL     OW25016   6.334   3.601   0.953
 2625SOL    HW125017   6.420   3.574   0.921
 2625SOL    HW225018   6.341   3.594   1.049
 2626SOL     OW25019   5.569   1.883   7.774
 2626SOL    HW125020   5.485   1.902   7.733
 2626SOL    HW225021   5.632   1.886   7.703
 2627SOL     OW25022   3.565   4.656   0.282
 2627SOL    HW125023   3.580   4.704   0.201
 2627SOL    HW225024   3.607   4.710   0.349
 2628SOL     OW25025   2.032   3.980   7.736
 2628SOL    HW125026   2.115   3.943   7.708
 2628SOL    HW225027   2.043   3.995   7.830
 2629SOL     OW25028   1.344   3.605   7.389
 2629SOL    HW125029   1.416   3.667   7.375
 2629SOL    HW225030   1.265   3.658   7.379
 2630SOL     OW25031   2.044   1.672   0.492
 2630SOL    HW125032   2.053   1.626   0.575
 2630SOL    HW225033   2.134   1.684   0.462
 2631SOL     OW25034   1.350   3.497   0.568
 2631SOL    HW125035   1.345   3.587   0.535
 2631SOL    HW225036   1.294   3.498   0.646
 2632SOL     OW25037   3.890   2.403   0.642
 2632SOL    HW125038   3.936   2.369   0.565
 2632SOL    HW225039   3.863   2.325   0.690
 2633SOL     OW25040   0.624   5.536   2.233
 2633SOL    HW125041   0.628   5.551   2.327
 2633SOL    HW225042   0.536   5.562   2.207
 2634SOL     OW25043   0.074   4.329   2.024
 2634SOL    HW125044   0.062   4.359   2.114
 2634SOL    HW225045   0.105   4.239   2.032
 2635SOL     OW25046   1.972   1.947   5.860
 2635SOL    HW125047   2.064   1.926   5.873
 2635SOL    HW225048   1.925   1.868   5.887
 2636SOL     OW25049   4.677   6.430   0.595
 2636SOL    HW125050   4.603   6.376   0.624
 2636SOL    HW225051   4.674   6.507   0.653
 2637SOL     OW25052   1.357   2.133   7.472
 2637SOL    HW125053   1.443   2.128   7.514
 2637SOL    HW225054   1.342   2.045   7.438
 2638SOL     OW25055   0.641   0.424   7.379
 2638SOL    HW125056   0.715   0.482   7.364
 2638SOL    HW225057   0.601   0.412   7.293
 2639SOL     OW25058   2.856   3.456   6.876
 2639SOL    HW125059   2.865   3.364   6.851
 2639SOL    HW225060   2.871   3.504   6.794
 2640SOL     OW25061   0.788   2.990   6.572
 2640SOL    HW125062   0.779   3.082   6.595
 2640SOL    HW225063   0.810   2.990   6.479
 2641SOL     OW25064   6.156   1.943   0.364
 2641SOL    HW125065   6.206   1.935   0.446
 2641SOL    HW225066   6.186   2.025   0.325
 2642SOL     OW25067   5.985   5.730   6.339
 2642SOL    HW125068   5.963   5.715   6.247
 2642SOL    HW225069   6.069   5.776   6.337
 2643SOL     OW25070   1.951   5.242   6.660
 2643SOL    HW125071   1.977   5.334   6.664
 2643SOL    HW225072   1.928   5.227   6.568
 2644SOL     OW25073   0.045   6.241   5.837
 2644SOL    HW125074  -0.011   6.211   5.766
 2644SOL    HW225075   0.125   6.269   5.793
 2645SOL     OW25076   2.008   6.070   1.896
 2645SOL    HW125077   2.008   5.975   1.889
 2645SOL    HW225078   2.100   6.094   1.906
 2646SOL     OW25079   4.361   5.671   0.336
 2646SOL    HW125080   4.301   5.746   0.339
 2646SOL    HW225081   4.304   5.596   0.318
 2647SOL     OW25082   2.724   2.269   7.372
 2647SOL    HW125083   2.633   2.283   7.399
 2647SOL    HW225084   2.767   2.352   7.390
 2648SOL     OW25085   1.887   5.531   0.740
 2648SOL    HW125086   1.961   5.582   0.708
 2648SOL    HW225087   1.890   5.450   0.689
 2649SOL     OW25088   2.648   4.254   5.728
 2649SOL    HW125089   2.557   4.257   5.756
 2649SOL    HW225090   2.692   4.202   5.796
 2650SOL     OW25091   3.066   0.033   6.294
 2650SOL    HW125092   2.978   0.012   6.325
 2650SOL    HW225093   3.123  -0.029   6.340
 2651SOL     OW25094   5.780   5.314   7.174
 2651SOL    HW125095   5.812   5.301   7.263
 2651SOL    HW225096   5.743   5.229   7.149
 2652SOL     OW25097   4.248   5.674   2.150
 2652SOL    HW125098   4.299   5.599   2.181
 2652SOL    HW225099   4.190   5.637   2.083
 2653SOL     OW25100   1.142   5.044   5.850
 2653SOL    HW125101   1.157   4.951   5.865
 2653SOL    HW225102   1.229   5.084   5.854
 2654SOL     OW25103   0.196   6.032   0.081
 2654SOL    HW125104   0.176   5.947   0.043
 2654SOL    HW225105   0.269   6.015   0.141
 2655SOL     OW25106   6.226   0.944   6.801
 2655SOL    HW125107   6.252   0.852   6.802
 2655SOL    HW225108   6.148   0.948   6.857
 2656SOL     OW25109   3.254   1.470   7.654
 2656SOL    HW125110   3.264   1.378   7.629
 2656SOL    HW225111   3.165   1.476   7.692
 2657SOL     OW25112   4.576   1.041   0.499
 2657SOL    HW125113   4.536   1.124   0.473
 2657SOL    HW225114   4.626   1.062   0.577
 2658SOL     OW25115   3.428   3.643   5.020
 2658SOL    HW125116   3.460   3.554   5.032
 2658SOL    HW225117   3.460   3.669   4.934
 2659SOL     OW25118   5.293   6.373   1.069
 2659SOL    HW125119   5.233   6.343   1.001
 2659SOL    HW225120   5.379   6.338   1.043
 2660SOL     OW25121   5.254   4.945   1.112
 2660SOL    HW125122   5.275   4.922   1.022
 2660SOL    HW225123   5.209   5.029   1.105
 2661SOL     OW25124   3.094   0.433   6.955
 2661SOL    HW125125   3.149   0.377   7.009
 2661SOL    HW225126   3.051   0.492   7.017
 2662SOL     OW25127   1.569   0.679   1.589
 2662SOL    HW125128   1.566   0.585   1.606
 2662SOL    HW225129   1.535   0.719   1.669
 2663SOL     OW25130   2.008   5.831   0.890
 2663SOL    HW125131   2.021   5.737   0.905
 2663SOL    HW225132   1.962   5.835   0.807
 2664SOL     OW25133   0.588   4.847   7.594
 2664SOL    HW125134   0.550   4.761   7.610
 2664SOL    HW225135   0.625   4.841   7.506
 2665SOL     OW25136   6.237   5.149   7.735
 2665SOL    HW125137   6.313   5.100   7.765
 2665SOL    HW225138   6.216   5.111   7.649
 2666SOL     OW25139   3.692   1.746   0.109
 2666SOL    HW125140   3.656   1.834   0.109
 2666SOL    HW225141   3.621   1.690   0.078
 2667SOL     OW25142   6.420   5.987   6.940
 2667SOL    HW125143   6.414   5.987   7.036
 2667SOL    HW225144   6.330   5.975   6.910
 2668SOL     OW25145   1.532   5.339   7.313
 2668SOL    HW125146   1.609   5.300   7.354
 2668SOL    HW225147   1.537   5.311   7.222
 2669SOL     OW25148   0.619   1.069   1.096
 2669SOL    HW125149   0.598   1.146   1.043
 2669SOL    HW225150   0.536   1.046   1.138
 2670SOL     OW25151   6.423   1.494   6.937
 2670SOL    HW125152   6.339   1.519   6.976
 2670SOL    HW225153   6.438   1.559   6.869
 2671SOL     OW25154   4.104   4.264   0.375
 2671SOL    HW125155   4.018   4.234   0.346
 2671SOL    HW225156   4.166   4.222   0.315
 2672SOL     OW25157   5.669   4.471   7.405
 2672SOL    HW125158   5.759   4.467   7.374
 2672SOL    HW225159   5.631   4.546   7.359
 2673SOL     OW25160   2.032   1.792   2.197
 2673SOL    HW125161   2.117   1.763   2.229
 2673SOL    HW225162   2.025   1.883   2.226
 2674SOL     OW25163   1.108   3.250   1.880
 2674SOL    HW125164   1.085   3.209   1.964
 2674SOL    HW225165   1.092   3.181   1.816
 2675SOL     OW25166   0.841   5.841   1.227
 2675SOL    HW125167   0.832   5.891   1.146
 2675SOL    HW225168   0.850   5.750   1.199
 2676SOL     OW25169   4.258   5.670   7.065
 2676SOL    HW125170   4.182   5.695   7.118
 2676SOL    HW225171   4.313   5.620   7.125
 2677SOL     OW25172   4.856   5.655   7.551
 2677SOL    HW125173   4.885   5.650   7.642
 2677SOL    HW225174   4.936   5.677   7.502
 2678SOL     OW25175   5.039   0.199   6.121
 2678SOL    HW125176   5.058   0.289   6.099
 2678SOL    HW225177   4.993   0.164   6.044
 2679SOL     OW25178   3.620   0.287   0.051
 2679SOL    HW125179   3.657   0.207   0.087
 2679SOL    HW225180   3.695   0.345   0.041
 2680SOL     OW25181   5.873   3.078   7.420
 2680SOL    HW125182   5.788   3.034   7.428
 2680SOL    HW225183   5.868   3.150   7.483
 2681SOL     OW25184   5.710   2.703   1.067
 2681SOL    HW125185   5.634   2.679   1.120
 2681SOL    HW225186   5.674   2.762   1.000
 2682SOL     OW25187   0.142   5.795   5.364
 2682SOL    HW125188   0.215   5.853   5.384
 2682SOL    HW225189   0.096   5.784   5.447
 2683SOL     OW25190   0.103   0.812   6.285
 2683SOL    HW125191   0.162   0.744   6.320
 2683SOL    HW225192   0.134   0.827   6.196
 2684SOL     OW25193   4.700   5.547   6.839
 2684SOL    HW125194   4.771   5.598   6.879
 2684SOL    HW225195   4.735   5.458   6.834
 2685SOL     OW25196   4.458   1.776   5.590
 2685SOL    HW125197   4.524   1.715   5.623
 2685SOL    HW225198   4.509   1.850   5.555
 2686SOL     OW25199   4.782   5.925   0.579
 2686SOL    HW125200   4.710   5.876   0.540
 2686SOL    HW225201   4.758   6.017   0.568
 2687SOL     OW25202   4.973   0.512   1.606
 2687SOL    HW125203   4.942   0.530   1.695
 2687SOL    HW225204   5.047   0.452   1.619
 2688SOL     OW25205   0.140   6.144   5.506
 2688SOL    HW125206   0.190   6.199   5.567
 2688SOL    HW225207   0.067   6.111   5.559
 2689SOL     OW25208   6.236   2.189   1.853
 2689SOL    HW125209   6.224   2.280   1.825
 2689SOL    HW225210   6.225   2.192   1.948
 2690SOL     OW25211   1.284   2.282   1.124
 2690SOL    HW125212   1.350   2.285   1.193
 2690SOL    HW225213   1.304   2.356   1.067
 2691SOL     OW25214   0.903   0.432   0.961
 2691SOL    HW125215   0.981   0.413   1.013
 2691SOL    HW225216   0.902   0.528   0.954
 2692SOL     OW25217   1.384   4.018   6.509
 2692SOL    HW125218   1.430   3.935   6.501
 2692SOL    HW225219   1.315   4.002   6.574
 2693SOL     OW25220   3.606   0.677   6.871
 2693SOL    HW125221   3.601   0.714   6.783
 2693SOL    HW225222   3.539   0.724   6.921
 2694SOL     OW25223   5.034   0.227   0.433
 2694SOL    HW125224   4.976   0.253   0.505
 2694SOL    HW225225   4.977   0.183   0.371
 2695SOL     OW25226   4.435   2.002   6.244
 2695SOL    HW125227   4.448   2.050   6.162
 2695SOL    HW225228   4.441   2.069   6.312
 2696SOL     OW25229   6.021   3.872   1.525
 2696SOL    HW125230   6.058   3.790   1.559
 2696SOL    HW225231   6.014   3.857   1.431
 2697SOL     OW25232   2.925   4.690   7.758
 2697SOL    HW125233   2.956   4.726   7.673
 2697SOL    HW225234   2.955   4.754   7.823
 2698SOL     OW25235   5.181   0.364   7.580
 2698SOL    HW125236   5.231   0.441   7.609
 2698SOL    HW225237   5.120   0.347   7.652
 2699SOL     OW25238   4.640   5.061   7.780
 2699SOL    HW125239   4.569   5.021   7.829
 2699SOL    HW225240   4.652   5.147   7.820
 2700SOL     OW25241   4.825   5.882   6.816
 2700SOL    HW125242   4.778   5.936   6.754
 2700SOL    HW225243   4.758   5.855   6.880
 2701SOL     OW25244   3.576   5.367   6.357
 2701SOL    HW125245   3.547   5.327   6.439
 2701SOL    HW225246   3.654   5.318   6.332
 2702SOL     OW25247   5.803   5.680   0.690
 2702SOL    HW125248   5.835   5.692   0.780
 2702SOL    HW225249   5.867   5.726   0.636
 2703SOL     OW25250   1.229   5.670   1.862
 2703SOL    HW125251   1.176   5.611   1.915
 2703SOL    HW225252   1.196   5.758   1.883
 2704SOL     OW25253   1.241   5.305   6.923
 2704SOL    HW125254   1.152   5.333   6.903
 2704SOL    HW225255   1.241   5.290   7.017
 2705SOL     OW25256   2.094   1.772   6.374
 2705SOL    HW125257   2.175   1.782   6.324
 2705SOL    HW225258   2.025   1.794   6.312
 2706SOL     OW25259   2.062   5.094   5.801
 2706SOL    HW125260   2.014   5.141   5.869
 2706SOL    HW225261   1.997   5.037   5.760
 2707SOL     OW25262   5.265   0.799   7.176
 2707SOL    HW125263   5.218   0.745   7.239
 2707SOL    HW225264   5.233   0.888   7.191
 2708SOL     OW25265   4.036   5.222   6.905
 2708SOL    HW125266   3.962   5.251   6.960
 2708SOL    HW225267   4.069   5.302   6.865
 2709SOL     OW25268   3.975   3.628   6.926
 2709SOL    HW125269   3.984   3.533   6.932
 2709SOL    HW225270   4.007   3.650   6.838
 2710SOL     OW25271   6.154   5.549   5.430
 2710SOL    HW125272   6.230   5.596   5.396
 2710SOL    HW225273   6.123   5.603   5.502
 2711SOL     OW25274   1.255   0.311   5.490
 2711SOL    HW125275   1.307   0.369   5.546
 2711SOL    HW225276   1.285   0.224   5.512
 2712SOL     OW25277   3.195   1.903   0.698
 2712SOL    HW125278   3.266   1.960   0.668
 2712SOL    HW225279   3.228   1.815   0.685
 2713SOL     OW25280   3.226   0.795   0.680
 2713SOL    HW125281   3.134   0.769   0.684
 2713SOL    HW225282   3.273   0.714   0.659
 2714SOL     OW25283   5.054   0.380   7.111
 2714SOL    HW125284   5.138   0.377   7.156
 2714SOL    HW225285   5.036   0.290   7.086
 2715SOL     OW25286   3.640   1.485   0.923
 2715SOL    HW125287   3.639   1.475   0.828
 2715SOL    HW225288   3.659   1.397   0.956
 2716SOL     OW25289   2.115   6.381   6.198
 2716SOL    HW125290   2.032   6.382   6.245
 2716SOL    HW225291   2.134   6.474   6.180
 2717SOL     OW25292   4.615   2.133   0.044
 2717SOL    HW125293   4.681   2.188   0.002
 2717SOL    HW225294   4.592   2.180   0.124
 2718SOL     OW25295   4.672   1.105   1.089
 2718SOL    HW125296   4.695   1.184   1.138
 2718SOL    HW225297   4.756   1.062   1.072
 2719SOL     OW25298   4.231   2.911   2.002
 2719SOL    HW125299   4.198   2.965   2.073
 2719SOL    HW225300   4.166   2.921   1.932
 2720SOL     OW25301   5.181   5.666   1.176
 2720SOL    HW125302   5.235   5.711   1.241
 2720SOL    HW225303   5.103   5.720   1.168
 2721SOL     OW25304   3.537   0.941   1.800
 2721SOL    HW125305   3.523   1.034   1.781
 2721SOL    HW225306   3.472   0.896   1.746
 2722SOL     OW25307   0.854   2.715   1.732
 2722SOL    HW125308   0.825   2.793   1.780
 2722SOL    HW225309   0.937   2.691   1.773
 2723SOL     OW25310   4.013   4.436   1.778
 2723SOL    HW125311   3.968   4.432   1.693
 2723SOL    HW225312   3.966   4.503   1.827
 2724SOL     OW25313   5.862   0.196   0.143
 2724SOL    HW125314   5.862   0.099   0.154
 2724SOL    HW225315   5.775   0.215   0.107
 2725SOL     OW25316   3.244   2.500   6.982
 2725SOL    HW125317   3.207   2.432   7.039
 2725SOL    HW225318   3.236   2.464   6.894
 2726SOL     OW25319   2.146   6.434   0.173
 2726SOL    HW125320   2.129   6.488   0.250
 2726SOL    HW225321   2.222   6.475   0.131
 2727SOL     OW25322   2.926   3.879   6.550
 2727SOL    HW125323   2.959   3.946   6.608
 2727SOL    HW225324   2.995   3.866   6.485
 2728SOL     OW25325   2.907   2.829   2.151
 2728SOL    HW125326   2.996   2.800   2.132
 2728SOL    HW225327   2.862   2.825   2.067
 2729SOL     OW25328   4.357   1.077   1.335
 2729SOL    HW125329   4.415   1.138   1.382
 2729SOL    HW225330   4.331   1.124   1.256
 2730SOL     OW25331   3.745   0.887   1.407
 2730SOL    HW125332   3.752   0.860   1.499
 2730SOL    HW225333   3.753   0.805   1.358
 2731SOL     OW25334   4.739   5.388   7.504
 2731SOL    HW125335   4.790   5.312   7.531
 2731SOL    HW225336   4.792   5.463   7.532
 2732SOL     OW25337   5.546   4.337   0.269
 2732SOL    HW125338   5.488   4.262   0.260
 2732SOL    HW225339   5.614   4.322   0.203
 2733SOL     OW25340   0.618   3.172   0.949
 2733SOL    HW125341   0.709   3.169   0.920
 2733SOL    HW225342   0.623   3.182   1.044
 2734SOL     OW25343   2.941   2.889   6.751
 2734SOL    HW125344   2.931   2.807   6.799
 2734SOL    HW225345   2.894   2.875   6.669
 2735SOL     OW25346   1.879   1.792   5.634
 2735SOL    HW125347   1.834   1.709   5.652
 2735SOL    HW225348   1.843   1.852   5.699
 2736SOL     OW25349   4.979   1.802   0.533
 2736SOL    HW125350   5.072   1.819   0.549
 2736SOL    HW225351   4.940   1.889   0.529
 2737SOL     OW25352   6.327   6.198   6.068
 2737SOL    HW125353   6.324   6.288   6.100
 2737SOL    HW225354   6.360   6.205   5.979
 2738SOL     OW25355   1.685   0.048   5.776
 2738SOL    HW125356   1.643   0.005   5.851
 2738SOL    HW225357   1.731  -0.022   5.731
 2739SOL     OW25358   1.209   1.971   6.409
 2739SOL    HW125359   1.189   2.039   6.473
 2739SOL    HW225360   1.153   1.991   6.334
 2740SOL     OW25361   4.153   4.436   6.737
 2740SOL    HW125362   4.149   4.518   6.786
 2740SOL    HW225363   4.064   4.401   6.740
 2741SOL     OW25364   2.087   5.833   7.431
 2741SOL    HW125365   2.058   5.877   7.351
 2741SOL    HW225366   2.181   5.822   7.419
 2742SOL     OW25367   1.822   2.255   0.202
 2742SOL    HW125368   1.751   2.269   0.138
 2742SOL    HW225369   1.826   2.160   0.213
 2743SOL     OW25370   2.653   5.311   0.067
 2743SOL    HW125371   2.718   5.246   0.040
 2743SOL    HW225372   2.643   5.299   0.161
 2744SOL     OW25373   1.733   2.972   6.640
 2744SOL    HW125374   1.684   3.048   6.674
 2744SOL    HW225375   1.822   2.986   6.672
 2745SOL     OW25376   1.826   2.072   7.702
 2745SOL    HW125377   1.878   2.152   7.706
 2745SOL    HW225378   1.813   2.046   7.792
 2746SOL     OW25379   0.870   1.066   7.511
 2746SOL    HW125380   0.789   1.076   7.561
 2746SOL    HW225381   0.851   1.108   7.427
 2747SOL     OW25382   5.590   1.692   1.589
 2747SOL    HW125383   5.575   1.670   1.681
 2747SOL    HW225384   5.513   1.658   1.543
 2748SOL     OW25385   5.246   4.335   6.168
 2748SOL    HW125386   5.157   4.367   6.186
 2748SOL    HW225387   5.257   4.260   6.226
 2749SOL     OW25388   4.495   5.951   5.719
 2749SOL    HW125389   4.547   5.878   5.685
 2749SOL    HW225390   4.437   5.911   5.784
 2750SOL     OW25391   1.794   2.661   1.723
 2750SOL    HW125392   1.742   2.720   1.778
 2750SOL    HW225393   1.751   2.576   1.732
 2751SOL     OW25394   1.156   2.282   0.337
 2751SOL    HW125395   1.070   2.321   0.348
 2751SOL    HW225396   1.199   2.292   0.422
 2752SOL     OW25397   3.160   4.531   0.414
 2752SOL    HW125398   3.072   4.529   0.453
 2752SOL    HW225399   3.151   4.481   0.333
 2753SOL     OW25400   6.057   4.747   1.060
 2753SOL    HW125401   6.118   4.732   1.131
 2753SOL    HW225402   6.112   4.758   0.982
 2754SOL     OW25403   3.548   4.159   1.431
 2754SOL    HW125404   3.514   4.082   1.475
 2754SOL    HW225405   3.470   4.206   1.400
 2755SOL     OW25406   0.824   2.442   1.033
 2755SOL    HW125407   0.880   2.503   1.081
 2755SOL    HW225408   0.877   2.363   1.024
 2756SOL     OW25409   4.879   5.851   0.863
 2756SOL    HW125410   4.815   5.911   0.902
 2756SOL    HW225411   4.886   5.879   0.772
 2757SOL     OW25412   4.472   5.134   1.413
 2757SOL    HW125413   4.519   5.057   1.444
 2757SOL    HW225414   4.537   5.183   1.363
 2758SOL     OW25415   1.686   2.144   7.110
 2758SOL    HW125416   1.781   2.156   7.121
 2758SOL    HW225417   1.667   2.061   7.153
 2759SOL     OW25418   1.509   2.820   5.794
 2759SOL    HW125419   1.579   2.757   5.812
 2759SOL    HW225420   1.511   2.832   5.699
 2760SOL     OW25421   1.879   5.054   7.785
 2760SOL    HW125422   1.836   5.136   7.760
 2760SOL    HW225423   1.879   5.002   7.705
 2761SOL     OW25424   0.435   3.014   0.299
 2761SOL    HW125425   0.507   2.970   0.253
 2761SOL    HW225426   0.367   3.024   0.232
 2762SOL     OW25427   1.277   6.148   0.882
 2762SOL    HW125428   1.352   6.205   0.865
 2762SOL    HW225429   1.251   6.116   0.795
 2763SOL     OW25430   0.511   2.033   6.032
 2763SOL    HW125431   0.418   2.028   6.057
 2763SOL    HW225432   0.518   1.973   5.957
 2764SOL     OW25433   2.257   4.909   7.497
 2764SOL    HW125434   2.335   4.860   7.473
 2764SOL    HW225435   2.222   4.864   7.574
 2765SOL     OW25436   0.852   2.685   0.183
 2765SOL    HW125437   0.787   2.634   0.232
 2765SOL    HW225438   0.820   2.775   0.187
 2766SOL     OW25439   5.441   0.636   1.505
 2766SOL    HW125440   5.396   0.720   1.496
 2766SOL    HW225441   5.461   0.610   1.415
 2767SOL     OW25442   4.574   5.614   1.068
 2767SOL    HW125443   4.607   5.535   1.109
 2767SOL    HW225444   4.478   5.607   1.076
 2768SOL     OW25445   1.284   4.032   1.575
 2768SOL    HW125446   1.250   3.960   1.629
 2768SOL    HW225447   1.324   3.988   1.500
 2769SOL     OW25448   0.719   4.799   0.221
 2769SOL    HW125449   0.752   4.872   0.273
 2769SOL    HW225450   0.631   4.825   0.196
 2770SOL     OW25451   3.042   2.445   0.679
 2770SOL    HW125452   3.131   2.482   0.679
 2770SOL    HW225453   3.045   2.376   0.745
 2771SOL     OW25454   4.412   3.977   7.087
 2771SOL    HW125455   4.479   4.002   7.150
 2771SOL    HW225456   4.400   4.055   7.032
 2772SOL     OW25457   0.363   5.724   1.279
 2772SOL    HW125458   0.268   5.733   1.269
 2772SOL    HW225459   0.384   5.775   1.358
 2773SOL     OW25460   3.358   2.998   2.170
 2773SOL    HW125461   3.324   2.994   2.081
 2773SOL    HW225462   3.452   3.010   2.159
 2774SOL     OW25463   4.585   2.688   0.985
 2774SOL    HW125464   4.648   2.757   0.965
 2774SOL    HW225465   4.530   2.683   0.907
 2775SOL     OW25466   2.777   2.870   6.050
 2775SOL    HW125467   2.757   2.913   5.966
 2775SOL    HW225468   2.755   2.936   6.116
 2776SOL     OW25469   3.356   5.645   5.324
 2776SOL    HW125470   3.301   5.723   5.317
 2776SOL    HW225471   3.294   5.573   5.334
 2777SOL     OW25472   2.147   1.508   6.483
 2777SOL    HW125473   2.161   1.522   6.577
 2777SOL    HW225474   2.161   1.594   6.443
 2778SOL     OW25475   4.131   5.471   1.512
 2778SOL    HW125476   4.166   5.559   1.531
 2778SOL    HW225477   4.175   5.445   1.431
 2779SOL     OW25478   3.458   3.692   0.511
 2779SOL    HW125479   3.521   3.750   0.553
 2779SOL    HW225480   3.477   3.701   0.418
 2780SOL     OW25481   4.554   2.368   5.919
 2780SOL    HW125482   4.597   2.368   5.834
 2780SOL    HW225483   4.504   2.450   5.920
 2781SOL     OW25484   4.531   3.916   6.093
 2781SOL    HW125485   4.557   3.861   6.019
 2781SOL    HW225486   4.460   3.869   6.135
 2782SOL     OW25487   4.710   6.284   2.177
 2782SOL    HW125488   4.763   6.206   2.196
 2782SOL    HW225489   4.719   6.339   2.255
 2783SOL     OW25490   2.952   4.430   0.021
 2783SOL    HW125491   2.942   4.395  -0.067
 2783SOL    HW225492   2.963   4.525   0.008
 2784SOL     OW25493   4.041   5.122   6.190
 2784SOL    HW125494   4.089   5.190   6.142
 2784SOL    HW225495   4.099   5.096   6.261
 2785SOL     OW25496   2.665   4.010   6.512
 2785SOL    HW125497   2.658   3.947   6.584
 2785SOL    HW225498   2.752   4.049   6.523
 2786SOL     OW25499   0.349   3.357   6.296
 2786SOL    HW125500   0.413   3.290   6.321
 2786SOL    HW225501   0.305   3.320   6.220
 2787SOL     OW25502   4.709   5.417   7.142
 2787SOL    HW125503   4.657   5.441   7.218
 2787SOL    HW225504   4.749   5.499   7.113
 2788SOL     OW25505   4.980   0.782   6.789
 2788SOL    HW125506   4.980   0.820   6.877
 2788SOL    HW225507   5.073   0.771   6.769
 2789SOL     OW25508   1.929   0.939   5.795
 2789SOL    HW125509   2.016   0.960   5.830
 2789SOL    HW225510   1.931   0.845   5.780
 2790SOL     OW25511   3.613   2.209   1.865
 2790SOL    HW125512   3.571   2.292   1.885
 2790SOL    HW225513   3.677   2.197   1.936
 2791SOL     OW25514   0.545   5.619   1.003
 2791SOL    HW125515   0.588   5.681   1.060
 2791SOL    HW225516   0.451   5.628   1.023
 2792SOL     OW25517   2.373   3.289   0.174
 2792SOL    HW125518   2.361   3.359   0.111
 2792SOL    HW225519   2.467   3.270   0.173
 2793SOL     OW25520   0.693   0.114   7.336
 2793SOL    HW125521   0.612   0.150   7.373
 2793SOL    HW225522   0.665   0.032   7.294
 2794SOL     OW25523   3.747   3.471   0.414
 2794SOL    HW125524   3.782   3.547   0.369
 2794SOL    HW225525   3.788   3.472   0.501
 2795SOL     OW25526   4.956   3.098   7.444
 2795SOL    HW125527   5.034   3.110   7.389
 2795SOL    HW225528   4.935   3.005   7.437
 2796SOL     OW25529   5.685   0.950   5.905
 2796SOL    HW125530   5.593   0.946   5.880
 2796SOL    HW225531   5.718   0.861   5.892
 2797SOL     OW25532   4.641   3.751   6.779
 2797SOL    HW125533   4.675   3.709   6.700
 2797SOL    HW225534   4.641   3.844   6.758
 2798SOL     OW25535   4.790   1.137   6.995
 2798SOL    HW125536   4.734   1.100   6.927
 2798SOL    HW225537   4.729   1.171   7.061
 2799SOL     OW25538   4.108   3.202   0.512
 2799SOL    HW125539   4.049   3.168   0.446
 2799SOL    HW225540   4.184   3.144   0.508
 2800SOL     OW25541   6.093   2.611   0.551
 2800SOL    HW125542   6.109   2.526   0.510
 2800SOL    HW225543   6.131   2.675   0.492
 2801SOL     OW25544   0.023   5.740   6.397
 2801SOL    HW125545  -0.003   5.687   6.472
 2801SOL    HW225546   0.116   5.721   6.385
 2802SOL     OW25547   4.311   2.699   4.926
 2802SOL    HW125548   4.349   2.660   4.847
 2802SOL    HW225549   4.337   2.791   4.922
 2803SOL     OW25550   4.399   2.453   6.460
 2803SOL    HW125551   4.434   2.504   6.533
 2803SOL    HW225552   4.323   2.408   6.497
 2804SOL     OW25553   4.278   6.031   1.741
 2804SOL    HW125554   4.235   5.946   1.734
 2804SOL    HW225555   4.293   6.043   1.835
 2805SOL     OW25556   5.987   4.876   0.599
 2805SOL    HW125557   5.977   4.925   0.680
 2805SOL    HW225558   5.976   4.942   0.530
 2806SOL     OW25559   1.304   2.923   0.900
 2806SOL    HW125560   1.396   2.913   0.924
 2806SOL    HW225561   1.262   2.843   0.931
 2807SOL     OW25562   0.434   2.135   6.645
 2807SOL    HW125563   0.490   2.189   6.590
 2807SOL    HW225564   0.443   2.172   6.733
 2808SOL     OW25565   4.350   3.563   0.323
 2808SOL    HW125566   4.378   3.473   0.337
 2808SOL    HW225567   4.255   3.560   0.328
 2809SOL     OW25568   4.840   3.535   6.412
 2809SOL    HW125569   4.785   3.472   6.458
 2809SOL    HW225570   4.902   3.566   6.478
 2810SOL     OW25571   0.803   4.475   0.571
 2810SOL    HW125572   0.816   4.409   0.504
 2810SOL    HW225573   0.818   4.559   0.527
 2811SOL     OW25574   0.139   3.525   7.660
 2811SOL    HW125575   0.217   3.476   7.634
 2811SOL    HW225576   0.085   3.461   7.709
 2812SOL     OW25577   3.727   1.269   0.713
 2812SOL    HW125578   3.774   1.195   0.752
 2812SOL    HW225579   3.789   1.308   0.652
 2813SOL     OW25580   4.299   5.720   1.490
 2813SOL    HW125581   4.233   5.788   1.498
 2813SOL    HW225582   4.359   5.752   1.422
 2814SOL     OW25583   0.456   2.529   7.036
 2814SOL    HW125584   0.396   2.460   7.065
 2814SOL    HW225585   0.400   2.593   6.993
 2815SOL     OW25586   5.270   0.300   1.617
 2815SOL    HW125587   5.242   0.321   1.528
 2815SOL    HW225588   5.355   0.342   1.626
 2816SOL     OW25589   1.127   3.370   6.797
 2816SOL    HW125590   1.220   3.350   6.810
 2816SOL    HW225591   1.091   3.291   6.757
 2817SOL     OW25592   5.378   4.126   2.301
 2817SOL    HW125593   5.376   4.213   2.340
 2817SOL    HW225594   5.348   4.138   2.211
 2818SOL     OW25595   0.155   4.920   0.262
 2818SOL    HW125596   0.200   4.996   0.224
 2818SOL    HW225597   0.199   4.907   0.346
 2819SOL     OW25598   4.128   1.780   0.430
 2819SOL    HW125599   4.047   1.790   0.382
 2819SOL    HW225600   4.172   1.864   0.420
 2820SOL     OW25601   5.967   3.060   6.408
 2820SOL    HW125602   5.909   3.063   6.484
 2820SOL    HW225603   5.986   2.967   6.397
 2821SOL     OW25604   2.928   1.868   1.163
 2821SOL    HW125605   3.012   1.890   1.122
 2821SOL    HW225606   2.898   1.790   1.116
 2822SOL     OW25607   3.889   1.667   0.751
 2822SOL    HW125608   3.975   1.625   0.746
 2822SOL    HW225609   3.862   1.656   0.842
 2823SOL     OW25610   3.100   0.855   7.429
 2823SOL    HW125611   3.052   0.879   7.509
 2823SOL    HW225612   3.190   0.885   7.446
 2824SOL     OW25613   0.291   3.569   1.384
 2824SOL    HW125614   0.373   3.523   1.404
 2824SOL    HW225615   0.228   3.532   1.446
 2825SOL     OW25616   6.055   0.910   6.173
 2825SOL    HW125617   6.067   0.906   6.268
 2825SOL    HW225618   5.960   0.915   6.161
 2826SOL     OW25619   4.344   6.273   0.113
 2826SOL    HW125620   4.289   6.223   0.052
 2826SOL    HW225621   4.422   6.296   0.062
 2827SOL     OW25622   4.426   4.644   2.189
 2827SOL    HW125623   4.490   4.594   2.239
 2827SOL    HW225624   4.341   4.617   2.225
 2828SOL     OW25625   4.843   0.002   7.795
 2828SOL    HW125626   4.750  -0.014   7.775
 2828SOL    HW225627   4.843   0.087   7.839
 2829SOL     OW25628   1.362   1.019   0.269
 2829SOL    HW125629   1.268   1.026   0.281
 2829SOL    HW225630   1.389   0.949   0.328
 2830SOL     OW25631   4.065   4.114   1.394
 2830SOL    HW125632   4.023   4.131   1.478
 2830SOL    HW225633   4.121   4.190   1.380
 2831SOL     OW25634   3.003   4.346   1.504
 2831SOL    HW125635   2.986   4.308   1.590
 2831SOL    HW225636   3.023   4.270   1.449
 2832SOL     OW25637   0.878   0.217   0.407
 2832SOL    HW125638   0.952   0.155   0.397
 2832SOL    HW225639   0.802   0.159   0.420
 2833SOL     OW25640   3.479   2.935   5.342
 2833SOL    HW125641   3.445   2.870   5.403
 2833SOL    HW225642   3.556   2.893   5.302
 2834SOL     OW25643   1.545   1.890   0.588
 2834SOL    HW125644   1.531   1.806   0.631
 2834SOL    HW225645   1.466   1.904   0.536
 2835SOL     OW25646   5.975   5.062   6.852
 2835SOL    HW125647   5.977   4.994   6.784
 2835SOL    HW225648   5.889   5.103   6.842
 2836SOL     OW25649   0.589   2.853   6.136
 2836SOL    HW125650   0.517   2.884   6.081
 2836SOL    HW225651   0.655   2.822   6.075
 2837SOL     OW25652   4.410   3.827   7.530
 2837SOL    HW125653   4.460   3.752   7.496
 2837SOL    HW225654   4.350   3.850   7.459
 2838SOL     OW25655   0.227   5.795   7.732
 2838SOL    HW125656   0.274   5.720   7.767
 2838SOL    HW225657   0.195   5.765   7.645
 2839SOL     OW25658   3.364   4.599   0.602
 2839SOL    HW125659   3.274   4.580   0.572
 2839SOL    HW225660   3.390   4.521   0.650
 2840SOL     OW25661   1.271   5.258   0.757
 2840SOL    HW125662   1.266   5.163   0.759
 2840SOL    HW225663   1.262   5.285   0.849
 2841SOL     OW25664   1.523   2.807   6.675
 2841SOL    HW125665   1.607   2.843   6.645
 2841SOL    HW225666   1.533   2.712   6.664
 2842SOL     OW25667   3.692   3.085   7.762
 2842SOL    HW125668   3.606   3.062   7.728
 2842SOL    HW225669   3.753   3.064   7.692
 2843SOL     OW25670   1.221   2.679   0.985
 2843SOL    HW125671   1.156   2.630   1.036
 2843SOL    HW225672   1.304   2.635   1.003
 2844SOL     OW25673   0.553   3.811   1.947
 2844SOL    HW125674   0.487   3.744   1.961
 2844SOL    HW225675   0.616   3.799   2.018
 2845SOL     OW25676   1.429   1.514   6.583
 2845SOL    HW125677   1.364   1.478   6.522
 2845SOL    HW225678   1.447   1.442   6.644
 2846SOL     OW25679   4.545   3.561   0.030
 2846SOL    HW125680   4.609   3.534   0.096
 2846SOL    HW225681   4.466   3.512   0.050
 2847SOL     OW25682   2.630   1.004   5.597
 2847SOL    HW125683   2.648   0.913   5.621
 2847SOL    HW225684   2.570   0.997   5.522
 2848SOL     OW25685   2.746   4.531   7.250
 2848SOL    HW125686   2.762   4.612   7.299
 2848SOL    HW225687   2.651   4.530   7.236
 2849SOL     OW25688   4.804   1.616   0.320
 2849SOL    HW125689   4.716   1.649   0.337
 2849SOL    HW225690   4.794   1.521   0.312
 2850SOL     OW25691   3.156   5.833   5.320
 2850SOL    HW125692   3.093   5.765   5.344
 2850SOL    HW225693   3.102   5.910   5.302
 2851SOL     OW25694   2.527   3.186   0.447
 2851SOL    HW125695   2.472   3.190   0.368
 2851SOL    HW225696   2.617   3.184   0.414
 2852SOL     OW25697   6.308   1.366   7.610
 2852SOL    HW125698   6.265   1.281   7.604
 2852SOL    HW225699   6.291   1.408   7.526
 2853SOL     OW25700   4.178   4.524   7.571
 2853SOL    HW125701   4.198   4.433   7.593
 2853SOL    HW225702   4.083   4.525   7.559
 2854SOL     OW25703   5.820   6.192   5.571
 2854SOL    HW125704   5.798   6.120   5.512
 2854SOL    HW225705   5.754   6.188   5.640
 2855SOL     OW25706   3.191   1.472   6.740
 2855SOL    HW125707   3.194   1.381   6.771
 2855SOL    HW225708   3.138   1.517   6.805
 2856SOL     OW25709   4.611   1.413   6.464
 2856SOL    HW125710   4.645   1.328   6.493
 2856SOL    HW225711   4.672   1.440   6.395
 2857SOL     OW25712   3.057   5.525   7.514
 2857SOL    HW125713   3.012   5.448   7.548
 2857SOL    HW225714   3.010   5.599   7.553
 2858SOL     OW25715   6.308   4.071   6.854
 2858SOL    HW125716   6.284   4.033   6.769
 2858SOL    HW225717   6.233   4.052   6.910
 2859SOL     OW25718   3.453   3.352   6.737
 2859SOL    HW125719   3.428   3.358   6.829
 2859SOL    HW225720   3.527   3.412   6.727
 2860SOL     OW25721   2.756   0.384   1.393
 2860SOL    HW125722   2.693   0.447   1.427
 2860SOL    HW225723   2.704   0.325   1.338
 2861SOL     OW25724   0.727   4.061   0.468
 2861SOL    HW125725   0.714   4.153   0.446
 2861SOL    HW225726   0.793   4.030   0.405
 2862SOL     OW25727   3.794   5.441   7.750
 2862SOL    HW125728   3.886   5.422   7.736
 2862SOL    HW225729   3.773   5.508   7.686
 2863SOL     OW25730   1.707   5.993   0.854
 2863SOL    HW125731   1.674   5.905   0.874
 2863SOL    HW225732   1.767   5.980   0.781
 2864SOL     OW25733   4.244   0.788   1.465
 2864SOL    HW125734   4.250   0.793   1.561
 2864SOL    HW225735   4.299   0.859   1.434
 2865SOL     OW25736   1.671   3.101   7.300
 2865SOL    HW125737   1.592   3.155   7.307
 2865SOL    HW225738   1.645   3.017   7.338
 2866SOL     OW25739   0.642   1.009   6.354
 2866SOL    HW125740   0.639   1.057   6.271
 2866SOL    HW225741   0.676   1.072   6.417
 2867SOL     OW25742   4.963   3.516   5.296
 2867SOL    HW125743   5.039   3.575   5.298
 2867SOL    HW225744   4.917   3.538   5.215
 2868SOL     OW25745   0.904   1.117   1.898
 2868SOL    HW125746   0.924   1.096   1.989
 2868SOL    HW225747   0.985   1.155   1.864
 2869SOL     OW25748   0.977   0.578   1.309
 2869SOL    HW125749   0.959   0.583   1.403
 2869SOL    HW225750   1.033   0.501   1.299
 2870SOL     OW25751   3.010   2.499   6.726
 2870SOL    HW125752   3.052   2.558   6.664
 2870SOL    HW225753   3.008   2.415   6.681
 2871SOL     OW25754   0.940   2.536   0.771
 2871SOL    HW125755   0.861   2.542   0.825
 2871SOL    HW225756   1.012   2.544   0.834
 2872SOL     OW25757   5.795   4.333   1.562
 2872SOL    HW125758   5.881   4.374   1.565
 2872SOL    HW225759   5.740   4.387   1.619
 2873SOL     OW25760   2.561   1.525   1.679
 2873SOL    HW125761   2.654   1.522   1.654
 2873SOL    HW225762   2.561   1.500   1.772
 2874SOL     OW25763   5.281   1.577   6.295
 2874SOL    HW125764   5.221   1.503   6.300
 2874SOL    HW225765   5.336   1.559   6.220
 2875SOL     OW25766   1.302   1.847   1.212
 2875SOL    HW125767   1.311   1.755   1.185
 2875SOL    HW225768   1.244   1.843   1.288
 2876SOL     OW25769   3.551   1.528   6.300
 2876SOL    HW125770   3.553   1.495   6.389
 2876SOL    HW225771   3.564   1.622   6.308
 2877SOL     OW25772   5.792   5.958   2.153
 2877SOL    HW125773   5.886   5.974   2.147
 2877SOL    HW225774   5.763   5.954   2.062
 2878SOL     OW25775   1.616   0.856   6.296
 2878SOL    HW125776   1.609   0.768   6.257
 2878SOL    HW225777   1.569   0.913   6.235
 2879SOL     OW25778   2.180   2.971   0.699
 2879SOL    HW125779   2.177   2.906   0.769
 2879SOL    HW225780   2.160   2.921   0.619
 2880SOL     OW25781   6.429   3.012   6.102
 2880SOL    HW125782   6.407   3.105   6.093
 2880SOL    HW225783   6.345   2.967   6.103
 2881SOL     OW25784   4.361   4.470   6.102
 2881SOL    HW125785   4.394   4.538   6.161
 2881SOL    HW225786   4.404   4.488   6.018
 2882SOL     OW25787   5.598   1.343   1.721
 2882SOL    HW125788   5.508   1.312   1.707
 2882SOL    HW225789   5.649   1.299   1.654
 2883SOL     OW25790   6.229   5.188   7.453
 2883SOL    HW125791   6.318   5.175   7.421
 2883SOL    HW225792   6.178   5.210   7.375
 2884SOL     OW25793   3.153   1.430   0.134
 2884SOL    HW125794   3.225   1.491   0.151
 2884SOL    HW225795   3.101   1.433   0.215
 2885SOL     OW25796   1.007   1.158   2.157
 2885SOL    HW125797   1.057   1.078   2.169
 2885SOL    HW225798   1.057   1.225   2.204
 2886SOL     OW25799   5.195   4.099   1.322
 2886SOL    HW125800   5.136   4.023   1.328
 2886SOL    HW225801   5.225   4.113   1.412
 2887SOL     OW25802   5.159   2.377   6.817
 2887SOL    HW125803   5.103   2.325   6.875
 2887SOL    HW225804   5.168   2.461   6.861
 2888SOL     OW25805   4.674   5.569   1.598
 2888SOL    HW125806   4.765   5.573   1.627
 2888SOL    HW225807   4.624   5.602   1.673
 2889SOL     OW25808   5.715   5.627   7.769
 2889SOL    HW125809   5.620   5.630   7.773
 2889SOL    HW225810   5.738   5.539   7.799
 2890SOL     OW25811   3.486   1.730   6.640
 2890SOL    HW125812   3.538   1.653   6.615
 2890SOL    HW225813   3.546   1.782   6.693
 2891SOL     OW25814   5.507   3.300   0.865
 2891SOL    HW125815   5.590   3.287   0.819
 2891SOL    HW225816   5.441   3.296   0.797
 2892SOL     OW25817   0.602   3.255   6.665
 2892SOL    HW125818   0.581   3.337   6.709
 2892SOL    HW225819   0.626   3.281   6.576
 2893SOL     OW25820   5.129   0.877   0.276
 2893SOL    HW125821   5.129   0.963   0.318
 2893SOL    HW225822   5.205   0.832   0.313
 2894SOL     OW25823   5.150   2.184   1.687
 2894SOL    HW125824   5.158   2.125   1.762
 2894SOL    HW225825   5.158   2.272   1.724
 2895SOL     OW25826   0.074   5.307   7.555
 2895SOL    HW125827   0.119   5.339   7.477
 2895SOL    HW225828   0.070   5.213   7.544
 2896SOL     OW25829   6.439   3.984   0.572
 2896SOL    HW125830   6.513   3.955   0.519
 2896SOL    HW225831   6.471   4.064   0.615
 2897SOL     OW25832   4.700   0.051   6.914
 2897SOL    HW125833   4.721   0.125   6.856
 2897SOL    HW225834   4.701  -0.025   6.856
 2898SOL     OW25835   3.565   0.158   6.235
 2898SOL    HW125836   3.513   0.196   6.164
 2898SOL    HW225837   3.595   0.234   6.285
 2899SOL     OW25838   1.771   3.852   5.818
 2899SOL    HW125839   1.750   3.929   5.765
 2899SOL    HW225840   1.728   3.780   5.772
 2900SOL     OW25841   0.768   1.697   5.675
 2900SOL    HW125842   0.796   1.759   5.608
 2900SOL    HW225843   0.826   1.622   5.664
 2901SOL     OW25844   4.167   3.131   1.613
 2901SOL    HW125845   4.130   3.220   1.622
 2901SOL    HW225846   4.259   3.145   1.593
 2902SOL     OW25847   1.477   1.778   0.305
 2902SOL    HW125848   1.512   1.866   0.293
 2902SOL    HW225849   1.383   1.788   0.292
 2903SOL     OW25850   6.250   5.720   2.338
 2903SOL    HW125851   6.157   5.734   2.318
 2903SOL    HW225852   6.254   5.718   2.434
 2904SOL     OW25853   3.274   4.899   0.056
 2904SOL    HW125854   3.298   4.822   0.107
 2904SOL    HW225855   3.339   4.965   0.079
 2905SOL     OW25856   0.567   3.184   5.954
 2905SOL    HW125857   0.496   3.120   5.954
 2905SOL    HW225858   0.635   3.144   5.901
 2906SOL     OW25859   6.155   5.279   0.147
 2906SOL    HW125860   6.183   5.229   0.071
 2906SOL    HW225861   6.237   5.310   0.187
 2907SOL     OW25862   2.669   4.023   7.396
 2907SOL    HW125863   2.620   4.105   7.398
 2907SOL    HW225864   2.747   4.040   7.450
 2908SOL     OW25865   6.246   2.805   0.415
 2908SOL    HW125866   6.319   2.765   0.369
 2908SOL    HW225867   6.279   2.890   0.443
 2909SOL     OW25868   5.270   2.694   6.766
 2909SOL    HW125869   5.220   2.679   6.846
 2909SOL    HW225870   5.208   2.736   6.707
 2910SOL     OW25871   5.122   0.332   1.862
 2910SOL    HW125872   5.162   0.317   1.776
 2910SOL    HW225873   5.191   0.311   1.925
 2911SOL     OW25874   3.346   1.816   7.065
 2911SOL    HW125875   3.421   1.860   7.106
 2911SOL    HW225876   3.270   1.846   7.115
 2912SOL     OW25877   1.620   3.714   1.147
 2912SOL    HW125878   1.710   3.710   1.114
 2912SOL    HW225879   1.627   3.767   1.227
 2913SOL     OW25880   5.308   4.139   6.977
 2913SOL    HW125881   5.216   4.139   6.950
 2913SOL    HW225882   5.328   4.047   6.996
 2914SOL     OW25883   2.539   2.396   7.020
 2914SOL    HW125884   2.527   2.328   7.086
 2914SOL    HW225885   2.634   2.406   7.013
 2915SOL     OW25886   3.013   4.305   6.905
 2915SOL    HW125887   2.958   4.228   6.917
 2915SOL    HW225888   3.031   4.336   6.994
 2916SOL     OW25889   0.632   0.493   6.008
 2916SOL    HW125890   0.716   0.508   6.052
 2916SOL    HW225891   0.627   0.398   5.998
 2917SOL     OW25892   5.726   4.439   7.093
 2917SOL    HW125893   5.721   4.534   7.094
 2917SOL    HW225894   5.799   4.417   7.151
 2918SOL     OW25895   3.601   2.146   7.031
 2918SOL    HW125896   3.587   2.174   6.941
 2918SOL    HW225897   3.659   2.213   7.068
 2919SOL     OW25898   2.269   1.907   1.456
 2919SOL    HW125899   2.312   1.823   1.447
 2919SOL    HW225900   2.288   1.935   1.546
 2920SOL     OW25901   0.232   3.839   0.179
 2920SOL    HW125902   0.285   3.763   0.156
 2920SOL    HW225903   0.236   3.895   0.101
 2921SOL     OW25904   1.056   5.588   6.149
 2921SOL    HW125905   1.028   5.572   6.059
 2921SOL    HW225906   1.129   5.650   6.141
 2922SOL     OW25907   5.288   1.467   0.004
 2922SOL    HW125908   5.293   1.425   0.090
 2922SOL    HW225909   5.246   1.401  -0.052
 2923SOL     OW25910   1.574   1.376   0.490
 2923SOL    HW125911   1.532   1.303   0.445
 2923SOL    HW225912   1.506   1.443   0.497
 2924SOL     OW25913   2.618   2.534   1.753
 2924SOL    HW125914   2.622   2.577   1.838
 2924SOL    HW225915   2.525   2.515   1.740
 2925SOL     OW25916   5.372   4.262   6.737
 2925SOL    HW125917   5.351   4.233   6.826
 2925SOL    HW225918   5.465   4.243   6.727
 2926SOL     OW25919   3.461   2.723   5.530
 2926SOL    HW125920   3.434   2.703   5.620
 2926SOL    HW225921   3.503   2.643   5.499
 2927SOL     OW25922   4.942   1.556   0.609
 2927SOL    HW125923   5.003   1.583   0.677
 2927SOL    HW225924   4.946   1.626   0.544
 2928SOL     OW25925   2.130   5.886   0.638
 2928SOL    HW125926   2.210   5.903   0.588
 2928SOL    HW225927   2.159   5.837   0.714
 2929SOL     OW25928   4.058   5.883   0.535
 2929SOL    HW125929   3.978   5.834   0.514
 2929SOL    HW225930   4.071   5.941   0.461
 2930SOL     OW25931   2.163   1.228   6.809
 2930SOL    HW125932   2.198   1.303   6.857
 2930SOL    HW225933   2.236   1.198   6.755
 2931SOL     OW25934   3.370   1.159   6.549
 2931SOL    HW125935   3.445   1.134   6.603
 2931SOL    HW225936   3.407   1.173   6.462
 2932SOL     OW25937   0.202   5.578   0.125
 2932SOL    HW125938   0.289   5.603   0.156
 2932SOL    HW225939   0.205   5.482   0.124
 2933SOL     OW25940   6.067   2.714   5.310
 2933SOL    HW125941   6.023   2.636   5.344
 2933SOL    HW225942   6.123   2.743   5.382
 2934SOL     OW25943   4.388   3.727   7.048
 2934SOL    HW125944   4.375   3.821   7.035
 2934SOL    HW225945   4.480   3.719   7.071
 2935SOL     OW25946   3.206   2.243   6.028
 2935SOL    HW125947   3.161   2.159   6.021
 2935SOL    HW225948   3.250   2.240   6.113
 2936SOL     OW25949   3.843   0.048   6.534
 2936SOL    HW125950   3.932   0.048   6.569
 2936SOL    HW225951   3.834   0.133   6.491
 2937SOL     OW25952   2.491   0.954   0.944
 2937SOL    HW125953   2.560   1.011   0.911
 2937SOL    HW225954   2.510   0.944   1.038
 2938SOL     OW25955   4.214   2.132   7.565
 2938SOL    HW125956   4.226   2.045   7.605
 2938SOL    HW225957   4.236   2.118   7.472
 2939SOL     OW25958   5.986   0.529   6.512
 2939SOL    HW125959   5.913   0.574   6.468
 2939SOL    HW225960   5.953   0.441   6.528
 2940SOL     OW25961   0.442   2.268   0.340
 2940SOL    HW125962   0.516   2.223   0.381
 2940SOL    HW225963   0.454   2.360   0.365
 2941SOL     OW25964   5.059   3.748   5.568
 2941SOL    HW125965   5.151   3.770   5.579
 2941SOL    HW225966   5.018   3.829   5.540
 2942SOL     OW25967   6.246   4.384   2.211
 2942SOL    HW125968   6.328   4.430   2.228
 2942SOL    HW225969   6.181   4.431   2.263
 2943SOL     OW25970   0.978   6.261   0.692
 2943SOL    HW125971   1.041   6.195   0.662
 2943SOL    HW225972   0.899   6.244   0.640
 2944SOL     OW25973   2.953   5.083   6.647
 2944SOL    HW125974   2.965   5.159   6.705
 2944SOL    HW225975   2.950   5.121   6.560
 2945SOL     OW25976   6.321   0.416   0.198
 2945SOL    HW125977   6.346   0.325   0.182
 2945SOL    HW225978   6.312   0.453   0.110
 2946SOL     OW25979   1.178   2.461   7.089
 2946SOL    HW125980   1.121   2.447   7.014
 2946SOL    HW225981   1.245   2.393   7.082
 2947SOL     OW25982   0.273   2.683   6.910
 2947SOL    HW125983   0.193   2.657   6.864
 2947SOL    HW225984   0.323   2.733   6.845
 2948SOL     OW25985   4.916   1.517   7.066
 2948SOL    HW125986   4.893   1.487   6.978
 2948SOL    HW225987   4.838   1.564   7.096
 2949SOL     OW25988   5.351   1.168   0.267
 2949SOL    HW125989   5.361   1.126   0.181
 2949SOL    HW225990   5.264   1.208   0.264
 2950SOL     OW25991   2.219   0.622   0.636
 2950SOL    HW125992   2.257   0.684   0.699
 2950SOL    HW225993   2.249   0.653   0.550
 2951SOL     OW25994   6.116   0.048   0.536
 2951SOL    HW125995   6.188   0.022   0.594
 2951SOL    HW225996   6.122   0.143   0.530
 2952SOL     OW25997   1.289   5.773   0.731
 2952SOL    HW125998   1.375   5.811   0.744
 2952SOL    HW225999   1.277   5.773   0.636
 2953SOL     OW26000   0.192   1.576   6.412
 2953SOL    HW126001   0.274   1.551   6.371
 2953SOL    HW226002   0.156   1.493   6.446
 2954SOL     OW26003   2.881   1.127   4.863
 2954SOL    HW126004   2.799   1.173   4.879
 2954SOL    HW226005   2.874   1.047   4.916
 2955SOL     OW26006   5.816   4.103   7.386
 2955SOL    HW126007   5.847   4.013   7.395
 2955SOL    HW226008   5.877   4.143   7.323
 2956SOL     OW26009   0.591   5.374   0.317
 2956SOL    HW126010   0.568   5.404   0.229
 2956SOL    HW226011   0.525   5.307   0.338
 2957SOL     OW26012   2.478   5.328   5.970
 2957SOL    HW126013   2.413   5.345   5.901
 2957SOL    HW226014   2.543   5.398   5.959
 2958SOL     OW26015   5.880   5.897   1.467
 2958SOL    HW126016   5.812   5.888   1.401
 2958SOL    HW226017   5.852   5.970   1.522
 2959SOL     OW26018   0.378   2.057   1.875
 2959SOL    HW126019   0.338   2.094   1.954
 2959SOL    HW226020   0.396   1.966   1.898
 2960SOL     OW26021   2.040   1.012   6.459
 2960SOL    HW126022   2.047   0.917   6.457
 2960SOL    HW226023   1.995   1.034   6.377
 2961SOL     OW26024   4.082   0.589   7.433
 2961SOL    HW126025   4.104   0.577   7.340
 2961SOL    HW226026   4.167   0.605   7.475
 2962SOL     OW26027   2.138   5.442   6.978
 2962SOL    HW126028   2.202   5.490   7.030
 2962SOL    HW226029   2.186   5.412   6.902
 2963SOL     OW26030   1.280   4.976   6.626
 2963SOL    HW126031   1.249   4.947   6.712
 2963SOL    HW226032   1.320   4.899   6.587
 2964SOL     OW26033   3.072   1.672   6.903
 2964SOL    HW126034   3.085   1.759   6.866
 2964SOL    HW226035   3.143   1.661   6.967
 2965SOL     OW26036   6.374   2.692   0.809
 2965SOL    HW126037   6.353   2.625   0.744
 2965SOL    HW226038   6.318   2.672   0.884
 2966SOL     OW26039   0.476   1.628   0.558
 2966SOL    HW126040   0.545   1.687   0.528
 2966SOL    HW226041   0.434   1.675   0.630
 2967SOL     OW26042   5.435   2.961   6.753
 2967SOL    HW126043   5.499   2.997   6.691
 2967SOL    HW226044   5.404   2.881   6.710
 2968SOL     OW26045   5.063   4.771   0.514
 2968SOL    HW126046   5.125   4.698   0.521
 2968SOL    HW226047   5.031   4.766   0.425
 2969SOL     OW26048   1.663   3.231   6.562
 2969SOL    HW126049   1.682   3.193   6.476
 2969SOL    HW226050   1.732   3.296   6.575
 2970SOL     OW26051   0.811   3.132   5.762
 2970SOL    HW126052   0.812   3.054   5.817
 2970SOL    HW226053   0.897   3.172   5.775
 2971SOL     OW26054   4.271   3.008   7.675
 2971SOL    HW126055   4.306   3.085   7.722
 2971SOL    HW226056   4.267   3.035   7.583
 2972SOL     OW26057   5.556   5.063   1.173
 2972SOL    HW126058   5.571   5.028   1.085
 2972SOL    HW226059   5.502   4.997   1.216
 2973SOL     OW26060   2.203   4.043   6.387
 2973SOL    HW126061   2.179   4.136   6.390
 2973SOL    HW226062   2.298   4.044   6.375
 2974SOL     OW26063   2.451   5.644   6.591
 2974SOL    HW126064   2.457   5.607   6.503
 2974SOL    HW226065   2.358   5.662   6.602
 2975SOL     OW26066   1.696   2.583   2.002
 2975SOL    HW126067   1.783   2.608   2.033
 2975SOL    HW226068   1.700   2.487   1.996
 2976SOL     OW26069   2.628   5.526   5.788
 2976SOL    HW126070   2.537   5.539   5.761
 2976SOL    HW226071   2.678   5.588   5.735
 2977SOL     OW26072   2.449   4.608   0.382
 2977SOL    HW126073   2.366   4.562   0.390
 2977SOL    HW226074   2.515   4.545   0.411
 2978SOL     OW26075   0.628   3.043   7.763
 2978SOL    HW126076   0.679   3.106   7.712
 2978SOL    HW226077   0.538   3.077   7.760
 2979SOL     OW26078   2.882   1.428   1.466
 2979SOL    HW126079   2.872   1.334   1.478
 2979SOL    HW226080   2.885   1.464   1.555
 2980SOL     OW26081   6.169   1.432   1.257
 2980SOL    HW126082   6.174   1.379   1.177
 2980SOL    HW226083   6.259   1.431   1.292
 2981SOL     OW26084   3.292   0.486   0.503
 2981SOL    HW126085   3.355   0.462   0.435
 2981SOL    HW226086   3.214   0.515   0.455
 2982SOL     OW26087   2.517   2.357   6.196
 2982SOL    HW126088   2.604   2.321   6.175
 2982SOL    HW226089   2.516   2.442   6.153
 2983SOL     OW26090   3.344   2.812   0.547
 2983SOL    HW126091   3.382   2.897   0.569
 2983SOL    HW226092   3.353   2.805   0.453
 2984SOL     OW26093   1.125   2.652   7.260
 2984SOL    HW126094   1.032   2.631   7.264
 2984SOL    HW226095   1.166   2.574   7.225
 2985SOL     OW26096   4.435   5.427   6.467
 2985SOL    HW126097   4.449   5.337   6.498
 2985SOL    HW226098   4.463   5.482   6.540
 2986SOL     OW26099   0.030   2.301   0.774
 2986SOL    HW126100   0.121   2.325   0.757
 2986SOL    HW226101   0.029   2.206   0.765
 2987SOL     OW26102   3.511   2.374   0.558
 2987SOL    HW126103   3.510   2.311   0.488
 2987SOL    HW226104   3.603   2.398   0.569
 2988SOL     OW26105   4.577   3.911   1.752
 2988SOL    HW126106   4.482   3.901   1.746
 2988SOL    HW226107   4.595   3.909   1.846
 2989SOL     OW26108   3.636   1.042   7.483
 2989SOL    HW126109   3.658   1.029   7.576
 2989SOL    HW226110   3.720   1.059   7.441
 2990SOL     OW26111   5.844   5.715   0.964
 2990SOL    HW126112   5.894   5.721   1.046
 2990SOL    HW226113   5.767   5.664   0.987
 2991SOL     OW26114   6.095   3.592   7.139
 2991SOL    HW126115   6.160   3.543   7.188
 2991SOL    HW226116   6.135   3.609   7.054
 2992SOL     OW26117   5.633   0.173   0.018
 2992SOL    HW126118   5.617   0.099   0.077
 2992SOL    HW226119   5.558   0.171  -0.042
 2993SOL     OW26120   5.204   0.412   6.311
 2993SOL    HW126121   5.155   0.449   6.238
 2993SOL    HW226122   5.189   0.474   6.383
 2994SOL     OW26123   1.498   1.030   2.045
 2994SOL    HW126124   1.494   1.065   2.134
 2994SOL    HW226125   1.591   1.010   2.032
 2995SOL     OW26126   6.034   1.041   0.858
 2995SOL    HW126127   6.056   1.133   0.847
 2995SOL    HW226128   6.118   0.998   0.873
 2996SOL     OW26129   3.050   5.977   0.374
 2996SOL    HW126130   2.978   5.935   0.327
 2996SOL    HW226131   3.072   6.053   0.320
 2997SOL     OW26132   4.898   5.239   1.815
 2997SOL    HW126133   4.920   5.202   1.730
 2997SOL    HW226134   4.894   5.163   1.874
 2998SOL     OW26135   6.087   0.176   5.944
 2998SOL    HW126136   6.025   0.243   5.919
 2998SOL    HW226137   6.101   0.125   5.863
 2999SOL     OW26138   1.689   0.042   1.009
 2999SOL    HW126139   1.769   0.071   1.053
 2999SOL    HW226140   1.642  -0.008   1.075
 3000SOL     OW26141   6.302   2.181   7.746
 3000SOL    HW126142   6.244   2.178   7.669
 3000SOL    HW226143   6.343   2.095   7.748
 3001SOL     OW26144   1.144   5.548   0.800
 3001SOL    HW126145   1.188   5.633   0.801
 3001SOL    HW226146   1.180   5.503   0.723
 3002SOL     OW26147   4.185   5.090   0.290
 3002SOL    HW126148   4.194   5.037   0.369
 3002SOL    HW226149   4.090   5.091   0.272
 3003SOL     OW26150   5.927   3.273   1.757
 3003SOL    HW126151   5.883   3.324   1.825
 3003SOL    HW226152   6.010   3.245   1.797
 3004SOL     OW26153   0.967   4.661   1.659
 3004SOL    HW126154   0.951   4.676   1.752
 3004SOL    HW226155   0.912   4.586   1.637
 3005SOL     OW26156   4.908   4.960   0.089
 3005SOL    HW126157   4.822   4.984   0.052
 3005SOL    HW226158   4.949   5.044   0.110
 3006SOL     OW26159   1.380   6.372   5.363
 3006SOL    HW126160   1.377   6.290   5.314
 3006SOL    HW226161   1.437   6.429   5.312
 3007SOL     OW26162   3.945   1.150   6.918
 3007SOL    HW126163   3.896   1.232   6.923
 3007SOL    HW226164   3.898   1.097   6.854
 3008SOL     OW26165   2.851   0.582   0.489
 3008SOL    HW126166   2.879   0.513   0.428
 3008SOL    HW226167   2.766   0.609   0.456
 3009SOL     OW26168   2.972   3.917   0.022
 3009SOL    HW126169   2.906   3.950   0.083
 3009SOL    HW226170   3.055   3.946   0.059
 3010SOL     OW26171   3.195   4.118   7.455
 3010SOL    HW126172   3.234   4.030   7.462
 3010SOL    HW226173   3.232   4.166   7.529
 3011SOL     OW26174   0.462   4.805   0.066
 3011SOL    HW126175   0.501   4.758  -0.008
 3011SOL    HW226176   0.397   4.744   0.101
 3012SOL     OW26177   2.300   4.872   0.273
 3012SOL    HW126178   2.306   4.806   0.205
 3012SOL    HW226179   2.329   4.827   0.353
 3013SOL     OW26180   2.298   1.139   1.109
 3013SOL    HW126181   2.270   1.047   1.099
 3013SOL    HW226182   2.377   1.134   1.163
 3014SOL     OW26183   2.940   2.589   6.263
 3014SOL    HW126184   2.891   2.509   6.244
 3014SOL    HW226185   2.889   2.659   6.223
 3015SOL     OW26186   4.622   1.407   0.426
 3015SOL    HW126187   4.582   1.338   0.374
 3015SOL    HW226188   4.549   1.463   0.453
 3016SOL     OW26189   3.529   5.056   7.188
 3016SOL    HW126190   3.584   5.044   7.111
 3016SOL    HW226191   3.534   4.972   7.234
 3017SOL     OW26192   2.400   5.137   0.407
 3017SOL    HW126193   2.494   5.125   0.421
 3017SOL    HW226194   2.370   5.052   0.376
 3018SOL     OW26195   4.469   1.173   6.760
 3018SOL    HW126196   4.470   1.121   6.680
 3018SOL    HW226197   4.528   1.127   6.820
 3019SOL     OW26198   4.646   1.399   1.876
 3019SOL    HW126199   4.724   1.378   1.928
 3019SOL    HW226200   4.574   1.360   1.925
 3020SOL     OW26201   5.415   4.806   7.108
 3020SOL    HW126202   5.427   4.729   7.052
 3020SOL    HW226203   5.372   4.870   7.051
 3021SOL     OW26204   0.089   0.307   7.677
 3021SOL    HW126205   0.135   0.282   7.759
 3021SOL    HW226206   0.017   0.363   7.708
 3022SOL     OW26207   6.269   4.128   2.319
 3022SOL    HW126208   6.347   4.132   2.374
 3022SOL    HW226209   6.258   4.217   2.286
 3023SOL     OW26210   6.072   4.182   1.162
 3023SOL    HW126211   5.997   4.226   1.123
 3023SOL    HW226212   6.133   4.169   1.088
 3024SOL     OW26213   4.759   0.832   6.229
 3024SOL    HW126214   4.715   0.912   6.200
 3024SOL    HW226215   4.728   0.819   6.319
 3025SOL     OW26216   3.765   0.643   1.299
 3025SOL    HW126217   3.803   0.592   1.226
 3025SOL    HW226218   3.751   0.579   1.368
 3026SOL     OW26219   6.405   0.292   0.950
 3026SOL    HW126220   6.329   0.336   0.990
 3026SOL    HW226221   6.396   0.309   0.856
 3027SOL     OW26222   4.477   5.353   7.477
 3027SOL    HW126223   4.564   5.390   7.464
 3027SOL    HW226224   4.458   5.370   7.569
 3028SOL     OW26225   0.805   5.290   6.156
 3028SOL    HW126226   0.779   5.252   6.072
 3028SOL    HW226227   0.728   5.281   6.212
 3029SOL     OW26228   3.403   0.179   1.653
 3029SOL    HW126229   3.395   0.248   1.717
 3029SOL    HW226230   3.429   0.101   1.704
 3030SOL     OW26231   6.340   3.444   0.687
 3030SOL    HW126232   6.379   3.485   0.765
 3030SOL    HW226233   6.365   3.352   0.693
 3031SOL     OW26234   2.936   0.312   1.199
 3031SOL    HW126235   2.874   0.306   1.126
 3031SOL    HW226236   2.894   0.370   1.262
 3032SOL     OW26237   5.719   6.261   7.723
 3032SOL    HW126238   5.809   6.230   7.719
 3032SOL    HW226239   5.704   6.303   7.637
 3033SOL     OW26240   1.511   2.945   0.013
 3033SOL    HW126241   1.469   2.875   0.063
 3033SOL    HW226242   1.552   3.000   0.079
 3034SOL     OW26243   1.910   3.922   1.550
 3034SOL    HW126244   1.863   3.844   1.579
 3034SOL    HW226245   1.937   3.901   1.460
 3035SOL     OW26246   5.775   6.121   0.823
 3035SOL    HW126247   5.858   6.114   0.777
 3035SOL    HW226248   5.797   6.106   0.915
 3036SOL     OW26249   3.598   2.549   5.947
 3036SOL    HW126250   3.564   2.461   5.928
 3036SOL    HW226251   3.576   2.563   6.039
 3037SOL     OW26252   5.323   3.460   0.347
 3037SOL    HW126253   5.241   3.464   0.297
 3037SOL    HW226254   5.347   3.368   0.346
 3038SOL     OW26255   5.645   1.922   1.120
 3038SOL    HW126256   5.643   1.883   1.033
 3038SOL    HW226257   5.731   1.899   1.155
 3039SOL     OW26258   2.681   3.850   7.173
 3039SOL    HW126259   2.662   3.910   7.246
 3039SOL    HW226260   2.737   3.782   7.212
 3040SOL     OW26261   1.551   3.769   7.318
 3040SOL    HW126262   1.555   3.860   7.290
 3040SOL    HW226263   1.629   3.728   7.280
 3041SOL     OW26264   0.545   5.257   7.479
 3041SOL    HW126265   0.558   5.334   7.534
 3041SOL    HW226266   0.623   5.254   7.423
 3042SOL     OW26267   5.179   5.395   6.657
 3042SOL    HW126268   5.116   5.467   6.668
 3042SOL    HW226269   5.226   5.392   6.741
 3043SOL     OW26270   4.018   1.028   6.593
 3043SOL    HW126271   4.039   0.968   6.665
 3043SOL    HW226272   3.970   0.974   6.530
 3044SOL     OW26273   5.655   2.365   1.779
 3044SOL    HW126274   5.641   2.405   1.865
 3044SOL    HW226275   5.615   2.278   1.787
 3045SOL     OW26276   5.117   1.193   0.696
 3045SOL    HW126277   5.175   1.269   0.685
 3045SOL    HW226278   5.039   1.215   0.644
 3046SOL     OW26279   5.584   4.384   1.107
 3046SOL    HW126280   5.658   4.351   1.158
 3046SOL    HW226281   5.506   4.357   1.157
 3047SOL     OW26282   0.340   1.546   7.059
 3047SOL    HW126283   0.278   1.479   7.032
 3047SOL    HW226284   0.308   1.627   7.021
 3048SOL     OW26285   1.635   4.126   7.709
 3048SOL    HW126286   1.647   4.206   7.655
 3048SOL    HW226287   1.606   4.060   7.645
 3049SOL     OW26288   6.389   1.828   1.616
 3049SOL    HW126289   6.407   1.903   1.560
 3049SOL    HW226290   6.357   1.867   1.698
 3050SOL     OW26291   2.248   0.339   6.305
 3050SOL    HW126292   2.311   0.271   6.328
 3050SOL    HW226293   2.234   0.387   6.387
 3051SOL     OW26294   5.357   2.285   2.066
 3051SOL    HW126295   5.267   2.274   2.097
 3051SOL    HW226296   5.373   2.209   2.011
 3052SOL     OW26297   1.506   1.709   0.023
 3052SOL    HW126298   1.521   1.803   0.007
 3052SOL    HW226299   1.502   1.702   0.118
 3053SOL     OW26300   5.519   3.706   0.586
 3053SOL    HW126301   5.557   3.792   0.603
 3053SOL    HW226302   5.459   3.721   0.513
 3054SOL     OW26303   3.682   5.267   7.007
 3054SOL    HW126304   3.586   5.274   7.007
 3054SOL    HW226305   3.709   5.321   6.932
 3055SOL     OW26306   3.408   0.514   1.137
 3055SOL    HW126307   3.464   0.560   1.074
 3055SOL    HW226308   3.319   0.539   1.114
 3056SOL     OW26309   0.767   1.804   7.802
 3056SOL    HW126310   0.714   1.884   7.797
 3056SOL    HW226311   0.727   1.746   7.738
 3057SOL     OW26312   6.072   3.769   0.232
 3057SOL    HW126313   6.044   3.860   0.225
 3057SOL    HW226314   6.157   3.774   0.275
 3058SOL     OW26315   2.534   5.911   6.596
 3058SOL    HW126316   2.504   5.824   6.623
 3058SOL    HW226317   2.460   5.948   6.548
 3059SOL     OW26318   3.626   4.853   6.915
 3059SOL    HW126319   3.542   4.889   6.943
 3059SOL    HW226320   3.676   4.929   6.885
 3060SOL     OW26321   0.345   1.766   5.689
 3060SOL    HW126322   0.291   1.843   5.703
 3060SOL    HW226323   0.341   1.751   5.594
 3061SOL     OW26324   0.140   5.956   0.987
 3061SOL    HW126325   0.045   5.969   0.984
 3061SOL    HW226326   0.165   5.941   0.896
 3062SOL     OW26327   4.661   3.377   6.534
 3062SOL    HW126328   4.610   3.317   6.479
 3062SOL    HW226329   4.596   3.417   6.592
 3063SOL     OW26330   2.041   4.839   7.078
 3063SOL    HW126331   1.971   4.862   7.139
 3063SOL    HW226332   2.085   4.765   7.119
 3064SOL     OW26333   4.478   0.785   0.547
 3064SOL    HW126334   4.527   0.867   0.539
 3064SOL    HW226335   4.480   0.764   0.640
 3065SOL     OW26336   1.275   1.897   0.494
 3065SOL    HW126337   1.219   1.930   0.563
 3065SOL    HW226338   1.239   1.936   0.414
 3066SOL     OW26339   5.717   1.108   6.340
 3066SOL    HW126340   5.736   1.016   6.361
 3066SOL    HW226341   5.762   1.123   6.257
 3067SOL     OW26342   1.003   3.327   1.402
 3067SOL    HW126343   0.978   3.351   1.492
 3067SOL    HW226344   1.002   3.232   1.402
 3068SOL     OW26345   3.951   4.638   1.301
 3068SOL    HW126346   4.021   4.704   1.307
 3068SOL    HW226347   3.970   4.589   1.222
 3069SOL     OW26348   0.386   4.341   5.403
 3069SOL    HW126349   0.352   4.431   5.403
 3069SOL    HW226350   0.346   4.300   5.479
 3070SOL     OW26351   0.606   3.922   7.734
 3070SOL    HW126352   0.607   3.992   7.667
 3070SOL    HW226353   0.569   3.846   7.688
 3071SOL     OW26354   0.595   3.592   7.189
 3071SOL    HW126355   0.545   3.626   7.264
 3071SOL    HW226356   0.528   3.557   7.130
 3072SOL     OW26357   3.686   5.916   0.306
 3072SOL    HW126358   3.593   5.937   0.312
 3072SOL    HW226359   3.715   5.911   0.397
 3073SOL     OW26360   5.860   3.779   2.569
 3073SOL    HW126361   5.915   3.731   2.508
 3073SOL    HW226362   5.879   3.872   2.552
 3074SOL     OW26363   2.332   3.623   5.345
 3074SOL    HW126364   2.401   3.624   5.411
 3074SOL    HW226365   2.346   3.541   5.297
 3075SOL     OW26366   0.587   0.613   7.678
 3075SOL    HW126367   0.611   0.534   7.630
 3075SOL    HW226368   0.591   0.588   7.771
 3076SOL     OW26369   3.975   0.273   7.412
 3076SOL    HW126370   4.003   0.274   7.320
 3076SOL    HW226371   3.943   0.185   7.426
 3077SOL     OW26372   1.505   4.354   1.025
 3077SOL    HW126373   1.436   4.400   0.978
 3077SOL    HW226374   1.571   4.420   1.044
 3078SOL     OW26375   2.444   4.290   7.473
 3078SOL    HW126376   2.349   4.301   7.469
 3078SOL    HW226377   2.457   4.221   7.539
 3079SOL     OW26378   1.051   3.535   7.637
 3079SOL    HW126379   1.068   3.463   7.700
 3079SOL    HW226380   1.087   3.505   7.554
 3080SOL     OW26381   1.906   5.603   6.953
 3080SOL    HW126382   1.989   5.557   6.962
 3080SOL    HW226383   1.875   5.616   7.042
 3081SOL     OW26384   5.449   3.965   1.178
 3081SOL    HW126385   5.364   4.008   1.184
 3081SOL    HW226386   5.429   3.874   1.153
 3082SOL     OW26387   0.451   5.056   7.644
 3082SOL    HW126388   0.500   4.980   7.612
 3082SOL    HW226389   0.492   5.131   7.602
 3083SOL     OW26390   2.743   5.310   0.927
 3083SOL    HW126391   2.743   5.252   0.851
 3083SOL    HW226392   2.698   5.389   0.897
 3084SOL     OW26393   2.683   3.149   6.634
 3084SOL    HW126394   2.772   3.157   6.668
 3084SOL    HW226395   2.688   3.184   6.545
 3085SOL     OW26396   3.232   4.991   0.727
 3085SOL    HW126397   3.202   4.918   0.782
 3085SOL    HW226398   3.290   5.042   0.784
 3086SOL     OW26399   5.948   5.012   7.437
 3086SOL    HW126400   6.027   4.994   7.386
 3086SOL    HW226401   5.885   4.945   7.408
 3087SOL     OW26402   2.813   5.912   7.573
 3087SOL    HW126403   2.847   5.941   7.657
 3087SOL    HW226404   2.856   5.968   7.508
 3088SOL     OW26405   0.408   2.612   1.174
 3088SOL    HW126406   0.326   2.658   1.156
 3088SOL    HW226407   0.388   2.553   1.247
 3089SOL     OW26408   0.621   5.653   0.409
 3089SOL    HW126409   0.574   5.685   0.486
 3089SOL    HW226410   0.654   5.567   0.434
 3090SOL     OW26411   1.138   2.325   5.580
 3090SOL    HW126412   1.196   2.280   5.518
 3090SOL    HW226413   1.165   2.293   5.666
 3091SOL     OW26414   4.413   4.999   6.112
 3091SOL    HW126415   4.461   5.057   6.053
 3091SOL    HW226416   4.397   5.053   6.190
 3092SOL     OW26417   0.022   1.064   7.027
 3092SOL    HW126418   0.035   0.984   7.078
 3092SOL    HW226419  -0.066   1.056   6.990
 3093SOL     OW26420   0.895   3.522   0.297
 3093SOL    HW126421   0.924   3.444   0.345
 3093SOL    HW226422   0.877   3.586   0.365
 3094SOL     OW26423   5.448   2.474   7.253
 3094SOL    HW126424   5.472   2.527   7.177
 3094SOL    HW226425   5.478   2.525   7.328
 3095SOL     OW26426   3.083   0.975   7.176
 3095SOL    HW126427   3.091   0.967   7.271
 3095SOL    HW226428   3.159   1.027   7.150
 3096SOL     OW26429   2.871   4.503   0.414
 3096SOL    HW126430   2.843   4.563   0.484
 3096SOL    HW226431   2.845   4.548   0.333
 3097SOL     OW26432   4.787   3.857   2.072
 3097SOL    HW126433   4.712   3.824   2.022
 3097SOL    HW226434   4.750   3.918   2.135
 3098SOL     OW26435   5.848   2.410   1.427
 3098SOL    HW126436   5.868   2.489   1.476
 3098SOL    HW226437   5.885   2.339   1.479
 3099SOL     OW26438   6.176   4.454   1.092
 3099SOL    HW126439   6.085   4.422   1.098
 3099SOL    HW226440   6.195   4.454   0.998
 3100SOL     OW26441   1.710   1.221   6.115
 3100SOL    HW126442   1.626   1.247   6.154
 3100SOL    HW226443   1.685   1.175   6.035
 3101SOL     OW26444   5.503   5.582   6.967
 3101SOL    HW126445   5.430   5.616   6.915
 3101SOL    HW226446   5.573   5.646   6.955
 3102SOL     OW26447   3.481   1.033   0.710
 3102SOL    HW126448   3.433   0.985   0.778
 3102SOL    HW226449   3.485   1.123   0.743
 3103SOL     OW26450   4.689   3.505   0.241
 3103SOL    HW126451   4.718   3.430   0.294
 3103SOL    HW226452   4.760   3.569   0.250
 3104SOL     OW26453   5.429   4.513   0.033
 3104SOL    HW126454   5.452   4.461   0.110
 3104SOL    HW226455   5.381   4.451  -0.023
 3105SOL     OW26456   5.268   5.140   6.208
 3105SOL    HW126457   5.256   5.220   6.259
 3105SOL    HW226458   5.348   5.156   6.158
 3106SOL     OW26459   4.248   3.263   7.804
 3106SOL    HW126460   4.337   3.281   7.834
 3106SOL    HW226461   4.231   3.329   7.737
 3107SOL     OW26462   1.593   3.246   6.154
 3107SOL    HW126463   1.625   3.336   6.154
 3107SOL    HW226464   1.526   3.244   6.085
 3108SOL     OW26465   0.027   5.193   6.992
 3108SOL    HW126466  -0.066   5.171   6.986
 3108SOL    HW226467   0.028   5.287   7.012
 3109SOL     OW26468   5.440   1.272   0.498
 3109SOL    HW126469   5.514   1.237   0.546
 3109SOL    HW226470   5.426   1.210   0.426
 3110SOL     OW26471   0.468   5.648   0.129
 3110SOL    HW126472   0.511   5.676   0.048
 3110SOL    HW226473   0.537   5.649   0.194
 3111SOL     OW26474   4.357   3.772   1.098
 3111SOL    HW126475   4.363   3.835   1.170
 3111SOL    HW226476   4.275   3.726   1.114
 3112SOL     OW26477   5.490   0.418   1.665
 3112SOL    HW126478   5.561   0.435   1.728
 3112SOL    HW226479   5.495   0.491   1.603
 3113SOL     OW26480   0.406   3.651   6.915
 3113SOL    HW126481   0.407   3.734   6.867
 3113SOL    HW226482   0.473   3.598   6.873
 3114SOL     OW26483   4.630   5.111   7.508
 3114SOL    HW126484   4.635   5.090   7.601
 3114SOL    HW226485   4.573   5.188   7.504
 3115SOL     OW26486   3.164   4.365   0.178
 3115SOL    HW126487   3.206   4.283   0.151
 3115SOL    HW226488   3.085   4.370   0.124
 3116SOL     OW26489   3.352   0.834   6.702
 3116SOL    HW126490   3.321   0.899   6.638
 3116SOL    HW226491   3.283   0.831   6.769
 3117SOL     OW26492   2.583   0.586   1.477
 3117SOL    HW126493   2.614   0.657   1.420
 3117SOL    HW226494   2.493   0.610   1.499
 3118SOL     OW26495   2.579   3.780   7.521
 3118SOL    HW126496   2.605   3.733   7.442
 3118SOL    HW226497   2.630   3.861   7.518
 3119SOL     OW26498   6.275   0.594   0.652
 3119SOL    HW126499   6.277   0.645   0.733
 3119SOL    HW226500   6.182   0.573   0.640
 3120SOL     OW26501   2.900   1.114   1.103
 3120SOL    HW126502   2.913   1.100   1.197
 3120SOL    HW226503   2.986   1.098   1.065
 3121SOL     OW26504   0.838   5.435   2.092
 3121SOL    HW126505   0.815   5.395   2.008
 3121SOL    HW226506   0.754   5.457   2.132
 3122SOL     OW26507   2.767   4.632   0.187
 3122SOL    HW126508   2.828   4.635   0.113
 3122SOL    HW226509   2.687   4.596   0.149
 3123SOL     OW26510   2.789   0.670   0.038
 3123SOL    HW126511   2.774   0.670  -0.057
 3123SOL    HW226512   2.746   0.591   0.069
 3124SOL     OW26513   5.011   0.219   5.758
 3124SOL    HW126514   4.963   0.151   5.806
 3124SOL    HW226515   5.003   0.297   5.811
 3125SOL     OW26516   3.399   3.483   1.873
 3125SOL    HW126517   3.457   3.551   1.840
 3125SOL    HW226518   3.457   3.414   1.905
 3126SOL     OW26519   6.053   5.530   0.798
 3126SOL    HW126520   6.135   5.481   0.804
 3126SOL    HW226521   6.037   5.560   0.887
 3127SOL     OW26522   1.587   5.723   0.579
 3127SOL    HW126523   1.535   5.665   0.635
 3127SOL    HW226524   1.673   5.725   0.621
 3128SOL     OW26525   5.149   1.323   0.249
 3128SOL    HW126526   5.078   1.348   0.191
 3128SOL    HW226527   5.121   1.353   0.336
 3129SOL     OW26528   5.568   0.194   7.122
 3129SOL    HW126529   5.545   0.101   7.107
 3129SOL    HW226530   5.606   0.194   7.210
 3130SOL     OW26531   4.971   5.596   6.649
 3130SOL    HW126532   4.946   5.678   6.692
 3130SOL    HW226533   4.990   5.620   6.559
 3131SOL     OW26534   1.175   4.633   1.328
 3131SOL    HW126535   1.214   4.561   1.378
 3131SOL    HW226536   1.190   4.609   1.237
 3132SOL     OW26537   6.283   3.750   7.406
 3132SOL    HW126538   6.310   3.673   7.354
 3132SOL    HW226539   6.259   3.714   7.491
 3133SOL     OW26540   2.818   0.074   6.488
 3133SOL    HW126541   2.798   0.044   6.577
 3133SOL    HW226542   2.827   0.169   6.497
 3134SOL     OW26543   6.192   0.668   6.845
 3134SOL    HW126544   6.117   0.609   6.833
 3134SOL    HW226545   6.237   0.634   6.923
 3135SOL     OW26546   2.011   5.152   1.891
 3135SOL    HW126547   1.965   5.219   1.840
 3135SOL    HW226548   1.949   5.129   1.960
 3136SOL     OW26549   3.372   4.020   0.504
 3136SOL    HW126550   3.342   3.930   0.515
 3136SOL    HW226551   3.399   4.048   0.591
 3137SOL     OW26552   1.881   6.346   5.620
 3137SOL    HW126553   1.939   6.280   5.583
 3137SOL    HW226554   1.834   6.382   5.545
 3138SOL     OW26555   0.379   2.942   5.923
 3138SOL    HW126556   0.330   2.987   5.991
 3138SOL    HW226557   0.374   2.849   5.947
 3139SOL     OW26558   4.315   0.591   6.263
 3139SOL    HW126559   4.281   0.502   6.272
 3139SOL    HW226560   4.295   0.633   6.347
 3140SOL     OW26561   0.671   0.731   5.801
 3140SOL    HW126562   0.609   0.666   5.835
 3140SOL    HW226563   0.616   0.806   5.777
 3141SOL     OW26564   4.904   5.531   2.525
 3141SOL    HW126565   4.816   5.544   2.490
 3141SOL    HW226566   4.918   5.436   2.518
 3142SOL     OW26567   0.151   4.427   6.362
 3142SOL    HW126568   0.091   4.354   6.347
 3142SOL    HW226569   0.211   4.425   6.287
 3143SOL     OW26570   2.757   0.896   7.540
 3143SOL    HW126571   2.838   0.937   7.571
 3143SOL    HW226572   2.717   0.961   7.483
 3144SOL     OW26573   3.398   2.081   0.040
 3144SOL    HW126574   3.375   2.145   0.107
 3144SOL    HW226575   3.483   2.048   0.067
 3145SOL     OW26576   2.477   3.400   1.736
 3145SOL    HW126577   2.506   3.479   1.781
 3145SOL    HW226578   2.383   3.413   1.721
 3146SOL     OW26579   1.267   1.335   6.949
 3146SOL    HW126580   1.190   1.383   6.980
 3146SOL    HW226581   1.341   1.386   6.980
 3147SOL     OW26582   3.706   5.338   1.598
 3147SOL    HW126583   3.775   5.404   1.598
 3147SOL    HW226584   3.670   5.342   1.687
 3148SOL     OW26585   1.229   3.010   7.082
 3148SOL    HW126586   1.260   2.956   7.009
 3148SOL    HW226587   1.292   2.994   7.152
 3149SOL     OW26588   1.647   1.338   1.568
 3149SOL    HW126589   1.618   1.372   1.652
 3149SOL    HW226590   1.566   1.328   1.517
 3150SOL     OW26591   5.320   0.778   6.252
 3150SOL    HW126592   5.284   0.866   6.239
 3150SOL    HW226593   5.341   0.747   6.164
 3151SOL     OW26594   4.447   0.094   6.636
 3151SOL    HW126595   4.529   0.137   6.611
 3151SOL    HW226596   4.388   0.166   6.660
 3152SOL     OW26597   3.212   1.845   7.296
 3152SOL    HW126598   3.143   1.782   7.315
 3152SOL    HW226599   3.208   1.908   7.368
 3153SOL     OW26600   5.709   1.866   7.532
 3153SOL    HW126601   5.625   1.840   7.494
 3153SOL    HW226602   5.772   1.804   7.495
 3154SOL     OW26603   4.356   2.809   6.337
 3154SOL    HW126604   4.331   2.733   6.284
 3154SOL    HW226605   4.277   2.832   6.385
 3155SOL     OW26606   6.291   3.986   5.963
 3155SOL    HW126607   6.278   4.079   5.945
 3155SOL    HW226608   6.377   3.966   5.926
 3156SOL     OW26609   2.517   3.399   0.637
 3156SOL    HW126610   2.453   3.452   0.589
 3156SOL    HW226611   2.515   3.314   0.593
 3157SOL     OW26612   3.612   4.995   5.929
 3157SOL    HW126613   3.644   4.923   5.876
 3157SOL    HW226614   3.537   4.959   5.976
 3158SOL     OW26615   1.578   4.002   7.163
 3158SOL    HW126616   1.628   4.066   7.211
 3158SOL    HW226617   1.504   4.051   7.127
 3159SOL     OW26618   4.439   0.228   0.817
 3159SOL    HW126619   4.469   0.260   0.732
 3159SOL    HW226620   4.446   0.133   0.810
 3160SOL     OW26621   5.863   1.452   5.413
 3160SOL    HW126622   5.791   1.407   5.371
 3160SOL    HW226623   5.822   1.502   5.484
 3161SOL     OW26624   3.161   2.587   5.915
 3161SOL    HW126625   3.096   2.625   5.974
 3161SOL    HW226626   3.123   2.503   5.888
 3162SOL     OW26627   2.691   5.015   7.373
 3162SOL    HW126628   2.707   5.092   7.318
 3162SOL    HW226629   2.598   5.020   7.396
 3163SOL     OW26630   2.130   0.917   2.184
 3163SOL    HW126631   2.054   0.926   2.243
 3163SOL    HW226632   2.172   1.003   2.186
 3164SOL     OW26633   4.362   4.556   7.770
 3164SOL    HW126634   4.298   4.531   7.704
 3164SOL    HW226635   4.334   4.508   7.848
 3165SOL     OW26636   5.897   3.032   0.026
 3165SOL    HW126637   5.968   3.060  -0.031
 3165SOL    HW226638   5.862   2.953  -0.015
 3166SOL     OW26639   2.158   0.076   6.764
 3166SOL    HW126640   2.234   0.106   6.714
 3166SOL    HW226641   2.084   0.123   6.727
 3167SOL     OW26642   6.185   6.403   5.389
 3167SOL    HW126643   6.262   6.436   5.435
 3167SOL    HW226644   6.193   6.308   5.394
 3168SOL     OW26645   1.703   6.270   1.432
 3168SOL    HW126646   1.686   6.248   1.524
 3168SOL    HW226647   1.687   6.364   1.426
 3169SOL     OW26648   3.509   3.387   5.108
 3169SOL    HW126649   3.494   3.345   5.193
 3169SOL    HW226650   3.528   3.315   5.049
 3170SOL     OW26651   1.409   0.496   5.630
 3170SOL    HW126652   1.400   0.553   5.554
 3170SOL    HW226653   1.497   0.460   5.623
 3171SOL     OW26654   5.095   1.955   7.019
 3171SOL    HW126655   5.092   1.862   7.040
 3171SOL    HW226656   5.178   1.985   7.057
 3172SOL     OW26657   5.222   2.929   5.142
 3172SOL    HW126658   5.224   2.841   5.181
 3172SOL    HW226659   5.152   2.974   5.188
 3173SOL     OW26660   1.296   6.181   6.871
 3173SOL    HW126661   1.317   6.092   6.899
 3173SOL    HW226662   1.214   6.172   6.823
 3174SOL     OW26663   2.510   3.346   7.730
 3174SOL    HW126664   2.584   3.382   7.678
 3174SOL    HW226665   2.492   3.262   7.688
 3175SOL     OW26666   5.471   3.836   6.969
 3175SOL    HW126667   5.548   3.864   6.920
 3175SOL    HW226668   5.397   3.855   6.910
 3176SOL     OW26669   1.092   6.042   0.197
 3176SOL    HW126670   1.153   6.016   0.128
 3176SOL    HW226671   1.145   6.094   0.258
 3177SOL     OW26672   6.131   0.790   1.207
 3177SOL    HW126673   6.154   0.748   1.290
 3177SOL    HW226674   6.104   0.879   1.232
 3178SOL     OW26675   0.616   1.396   6.930
 3178SOL    HW126676   0.544   1.336   6.908
 3178SOL    HW226677   0.599   1.474   6.877
 3179SOL     OW26678   5.201   2.726   1.355
 3179SOL    HW126679   5.203   2.676   1.437
 3179SOL    HW226680   5.199   2.818   1.384
 3180SOL     OW26681   0.163   4.500   6.937
 3180SOL    HW126682   0.180   4.480   7.029
 3180SOL    HW226683   0.119   4.422   6.903
 3181SOL     OW26684   4.102   2.038   0.945
 3181SOL    HW126685   4.121   2.128   0.920
 3181SOL    HW226686   4.116   1.987   0.865
 3182SOL     OW26687   0.939   1.994   6.614
 3182SOL    HW126688   0.924   2.013   6.521
 3182SOL    HW226689   0.856   1.957   6.644
 3183SOL     OW26690   1.113   2.788   0.258
 3183SOL    HW126691   1.065   2.715   0.220
 3183SOL    HW226692   1.046   2.839   0.305
 3184SOL     OW26693   4.050   4.840   7.741
 3184SOL    HW126694   4.098   4.820   7.659
 3184SOL    HW226695   4.117   4.839   7.809
 3185SOL     OW26696   1.987   5.961   7.199
 3185SOL    HW126697   2.047   5.907   7.148
 3185SOL    HW226698   1.990   6.047   7.157
 3186SOL     OW26699   4.134   5.401   6.507
 3186SOL    HW126700   4.205   5.344   6.535
 3186SOL    HW226701   4.172   5.454   6.437
 3187SOL     OW26702   4.436   5.030   0.183
 3187SOL    HW126703   4.471   5.075   0.259
 3187SOL    HW226704   4.342   5.047   0.186
 3188SOL     OW26705   0.282   5.695   0.730
 3188SOL    HW126706   0.324   5.781   0.743
 3188SOL    HW226707   0.190   5.715   0.718
 3189SOL     OW26708   4.813   3.261   0.671
 3189SOL    HW126709   4.891   3.221   0.709
 3189SOL    HW226710   4.819   3.241   0.577
 3190SOL     OW26711   5.493   5.125   7.719
 3190SOL    HW126712   5.515   5.075   7.639
 3190SOL    HW226713   5.572   5.120   7.773
 3191SOL     OW26714   4.530   5.640   7.246
 3191SOL    HW126715   4.595   5.682   7.190
 3191SOL    HW226716   4.550   5.672   7.334
 3192SOL     OW26717   0.445   4.442   1.339
 3192SOL    HW126718   0.487   4.517   1.297
 3192SOL    HW226719   0.510   4.373   1.336
 3193SOL     OW26720   3.219   1.493   5.548
 3193SOL    HW126721   3.151   1.519   5.485
 3193SOL    HW226722   3.232   1.400   5.533
 3194SOL     OW26723   0.583   4.205   1.315
 3194SOL    HW126724   0.513   4.191   1.379
 3194SOL    HW226725   0.567   4.139   1.248
 3195SOL     OW26726   1.074   1.128   7.697
 3195SOL    HW126727   1.014   1.132   7.621
 3195SOL    HW226728   1.103   1.037   7.699
 3196SOL     OW26729   2.635   2.676   5.744
 3196SOL    HW126730   2.567   2.641   5.686
 3196SOL    HW226731   2.597   2.756   5.780
 3197SOL     OW26732   2.859   0.181   7.505
 3197SOL    HW126733   2.863   0.261   7.454
 3197SOL    HW226734   2.929   0.126   7.470
 3198SOL     OW26735   3.254   3.164   0.717
 3198SOL    HW126736   3.261   3.202   0.804
 3198SOL    HW226737   3.323   3.207   0.666
 3199SOL     OW26738   2.445   4.654   0.809
 3199SOL    HW126739   2.432   4.619   0.897
 3199SOL    HW226740   2.422   4.581   0.751
 3200SOL     OW26741   0.176   1.670   2.344
 3200SOL    HW126742   0.217   1.750   2.310
 3200SOL    HW226743   0.095   1.662   2.295
 3201SOL     OW26744   3.336   1.617   0.307
 3201SOL    HW126745   3.271   1.686   0.300
 3201SOL    HW226746   3.375   1.611   0.220
 3202SOL     OW26747   5.325   5.504   0.449
 3202SOL    HW126748   5.274   5.435   0.491
 3202SOL    HW226749   5.415   5.470   0.448
 3203SOL     OW26750   4.807   2.027   0.949
 3203SOL    HW126751   4.833   2.093   0.885
 3203SOL    HW226752   4.827   2.066   1.034
 3204SOL     OW26753   3.974   4.103   6.967
 3204SOL    HW126754   3.913   4.170   6.938
 3204SOL    HW226755   4.060   4.140   6.950
 3205SOL     OW26756   1.852   3.179   1.551
 3205SOL    HW126757   1.818   3.089   1.555
 3205SOL    HW226758   1.899   3.190   1.633
 3206SOL     OW26759   3.170   0.924   1.220
 3206SOL    HW126760   3.247   0.868   1.229
 3206SOL    HW226761   3.176   0.961   1.132
 3207SOL     OW26762   0.920   5.138   6.940
 3207SOL    HW126763   0.848   5.094   6.985
 3207SOL    HW226764   0.966   5.186   7.010
 3208SOL     OW26765   1.098   5.458   7.789
 3208SOL    HW126766   1.113   5.406   7.711
 3208SOL    HW226767   1.089   5.394   7.859
 3209SOL     OW26768   2.782   0.459   0.784
 3209SOL    HW126769   2.783   0.554   0.792
 3209SOL    HW226770   2.738   0.442   0.701
 3210SOL     OW26771   6.383   1.041   0.541
 3210SOL    HW126772   6.288   1.037   0.556
 3210SOL    HW226773   6.404   1.134   0.541
 3211SOL     OW26774   1.002   2.465   1.462
 3211SOL    HW126775   1.090   2.454   1.499
 3211SOL    HW226776   0.995   2.559   1.444
 3212SOL     OW26777   2.904   5.325   7.608
 3212SOL    HW126778   2.948   5.301   7.692
 3212SOL    HW226779   2.812   5.330   7.631
 3213SOL     OW26780   4.549   4.121   7.278
 3213SOL    HW126781   4.604   4.138   7.355
 3213SOL    HW226782   4.461   4.146   7.305
 3214SOL     OW26783   4.963   0.117   6.659
 3214SOL    HW126784   5.046   0.163   6.665
 3214SOL    HW226785   4.899   0.180   6.693
 3215SOL     OW26786   3.114   6.129   6.257
 3215SOL    HW126787   3.082   6.043   6.284
 3215SOL    HW226788   3.143   6.171   6.338
 3216SOL     OW26789   4.104   3.581   0.631
 3216SOL    HW126790   4.114   3.558   0.539
 3216SOL    HW226791   4.177   3.640   0.649
 3217SOL     OW26792   4.459   5.222   0.404
 3217SOL    HW126793   4.518   5.297   0.414
 3217SOL    HW226794   4.500   5.154   0.457
 3218SOL     OW26795   0.204   3.525   0.433
 3218SOL    HW126796   0.271   3.546   0.498
 3218SOL    HW226797   0.123   3.563   0.467
 3219SOL     OW26798   3.779   0.505   5.650
 3219SOL    HW126799   3.855   0.464   5.610
 3219SOL    HW226800   3.794   0.599   5.641
 3220SOL     OW26801   0.792   4.411   7.518
 3220SOL    HW126802   0.862   4.454   7.569
 3220SOL    HW226803   0.777   4.329   7.564
 3221SOL     OW26804   5.057   5.075   0.520
 3221SOL    HW126805   5.103   5.096   0.601
 3221SOL    HW226806   5.102   4.997   0.489
 3222SOL     OW26807   5.288   3.728   5.852
 3222SOL    HW126808   5.280   3.641   5.811
 3222SOL    HW226809   5.308   3.787   5.780
 3223SOL     OW26810   5.564   2.960   1.658
 3223SOL    HW126811   5.520   3.026   1.604
 3223SOL    HW226812   5.526   2.877   1.629
 3224SOL     OW26813   1.677   6.180   6.121
 3224SOL    HW126814   1.663   6.270   6.093
 3224SOL    HW226815   1.668   6.128   6.041
 3225SOL     OW26816   2.934   1.706   0.381
 3225SOL    HW126817   2.885   1.782   0.410
 3225SOL    HW226818   2.898   1.633   0.431
 3226SOL     OW26819   5.736   1.552   5.187
 3226SOL    HW126820   5.822   1.542   5.228
 3226SOL    HW226821   5.699   1.464   5.189
 3227SOL     OW26822   5.679   2.151   5.061
 3227SOL    HW126823   5.717   2.070   5.027
 3227SOL    HW226824   5.720   2.162   5.147
 3228SOL     OW26825   3.079   3.797   2.095
 3228SOL    HW126826   3.109   3.739   2.025
 3228SOL    HW226827   3.158   3.816   2.146
 3229SOL     OW26828   2.030   2.742   0.563
 3229SOL    HW126829   1.958   2.751   0.502
 3229SOL    HW226830   1.987   2.746   0.649
 3230SOL     OW26831   1.064   1.503   6.533
 3230SOL    HW126832   0.995   1.466   6.589
 3230SOL    HW226833   1.081   1.589   6.569
 3231SOL     OW26834   4.003   3.347   6.609
 3231SOL    HW126835   4.016   3.364   6.703
 3231SOL    HW226836   4.062   3.408   6.566
 3232SOL     OW26837   1.405   1.353   6.052
 3232SOL    HW126838   1.479   1.364   5.992
 3232SOL    HW226839   1.387   1.259   6.052
 3233SOL     OW26840   4.736   1.824   7.461
 3233SOL    HW126841   4.748   1.798   7.552
 3233SOL    HW226842   4.799   1.772   7.412
 3234SOL     OW26843   2.029   1.016   6.904
 3234SOL    HW126844   2.090   1.087   6.888
 3234SOL    HW226845   1.971   1.016   6.827
 3235SOL     OW26846   2.523   2.027   6.715
 3235SOL    HW126847   2.513   1.963   6.785
 3235SOL    HW226848   2.482   2.107   6.749
 3236SOL     OW26849   2.798   0.466   6.277
 3236SOL    HW126850   2.707   0.436   6.286
 3236SOL    HW226851   2.843   0.430   6.354
 3237SOL     OW26852   5.325   3.307   1.645
 3237SOL    HW126853   5.249   3.254   1.670
 3237SOL    HW226854   5.362   3.337   1.729
 3238SOL     OW26855   2.067   4.888   0.566
 3238SOL    HW126856   2.076   4.969   0.615
 3238SOL    HW226857   2.149   4.841   0.580
 3239SOL     OW26858   0.821   4.873   0.932
 3239SOL    HW126859   0.871   4.807   0.979
 3239SOL    HW226860   0.881   4.906   0.865
 3240SOL     OW26861   5.147   3.711   0.099
 3240SOL    HW126862   5.161   3.618   0.082
 3240SOL    HW226863   5.071   3.714   0.157
 3241SOL     OW26864   5.863   4.640   0.551
 3241SOL    HW126865   5.924   4.598   0.491
 3241SOL    HW226866   5.904   4.723   0.573
 3242SOL     OW26867   2.463   0.815   7.310
 3242SOL    HW126868   2.403   0.823   7.236
 3242SOL    HW226869   2.469   0.904   7.345
 3243SOL     OW26870   1.268   3.805   1.173
 3243SOL    HW126871   1.311   3.745   1.111
 3243SOL    HW226872   1.212   3.749   1.226
 3244SOL     OW26873   3.588   6.114   5.992
 3244SOL    HW126874   3.525   6.141   6.059
 3244SOL    HW226875   3.556   6.156   5.912
 3245SOL     OW26876   2.559   6.375   1.631
 3245SOL    HW126877   2.560   6.315   1.705
 3245SOL    HW226878   2.588   6.458   1.667
 3246SOL     OW26879   4.916   5.635   0.452
 3246SOL    HW126880   4.948   5.722   0.425
 3246SOL    HW226881   4.971   5.574   0.403
 3247SOL     OW26882   5.954   4.591   1.399
 3247SOL    HW126883   5.920   4.647   1.470
 3247SOL    HW226884   5.992   4.516   1.444
 3248SOL     OW26885   1.977   4.496   0.617
 3248SOL    HW126886   1.997   4.407   0.590
 3248SOL    HW226887   2.035   4.512   0.692
 3249SOL     OW26888   0.702   1.288   7.356
 3249SOL    HW126889   0.607   1.276   7.356
 3249SOL    HW226890   0.715   1.375   7.394
 3250SOL     OW26891   1.139   2.393   7.632
 3250SOL    HW126892   1.109   2.307   7.603
 3250SOL    HW226893   1.060   2.437   7.663
 3251SOL     OW26894   4.259   6.246   0.870
 3251SOL    HW126895   4.177   6.265   0.824
 3251SOL    HW226896   4.249   6.156   0.900
 3252SOL     OW26897   2.712   5.108   1.744
 3252SOL    HW126898   2.621   5.080   1.744
 3252SOL    HW226899   2.708   5.204   1.744
 3253SOL     OW26900   6.081   4.622   7.427
 3253SOL    HW126901   6.134   4.634   7.505
 3253SOL    HW226902   6.022   4.697   7.426
 3254SOL     OW26903   2.097   0.158   0.383
 3254SOL    HW126904   2.168   0.142   0.444
 3254SOL    HW226905   2.084   0.252   0.385
 3255SOL     OW26906   0.863   3.900   0.658
 3255SOL    HW126907   0.908   3.845   0.594
 3255SOL    HW226908   0.788   3.935   0.611
 3256SOL     OW26909   5.904   2.557   1.199
 3256SOL    HW126910   5.835   2.610   1.158
 3256SOL    HW226911   5.865   2.526   1.281
 3257SOL     OW26912   6.204   2.507   7.568
 3257SOL    HW126913   6.169   2.593   7.588
 3257SOL    HW226914   6.135   2.463   7.518
 3258SOL     OW26915   3.801   2.885   2.185
 3258SOL    HW126916   3.742   2.960   2.175
 3258SOL    HW226917   3.767   2.837   2.260
 3259SOL     OW26918   3.058   3.776   7.113
 3259SOL    HW126919   3.117   3.829   7.060
 3259SOL    HW226920   2.971   3.792   7.076
 3260SOL     OW26921   2.023   5.241   7.150
 3260SOL    HW126922   2.082   5.299   7.104
 3260SOL    HW226923   2.078   5.200   7.218
 3261SOL     OW26924   0.380   3.611   0.613
 3261SOL    HW126925   0.440   3.599   0.686
 3261SOL    HW226926   0.307   3.661   0.650
 3262SOL     OW26927   1.039   1.619   1.358
 3262SOL    HW126928   1.103   1.585   1.421
 3262SOL    HW226929   1.040   1.555   1.287
 3263SOL     OW26930   1.733   4.867   1.438
 3263SOL    HW126931   1.650   4.898   1.475
 3263SOL    HW226932   1.736   4.775   1.461
 3264SOL     OW26933   0.243   3.066   1.528
 3264SOL    HW126934   0.243   2.989   1.471
 3264SOL    HW226935   0.153   3.099   1.524
 3265SOL     OW26936   6.100   0.704   7.586
 3265SOL    HW126937   6.061   0.776   7.536
 3265SOL    HW226938   6.097   0.629   7.527
 3266SOL     OW26939   1.812   4.300   6.966
 3266SOL    HW126940   1.779   4.308   7.055
 3266SOL    HW226941   1.740   4.259   6.917
 3267SOL     OW26942   4.781   6.180   0.531
 3267SOL    HW126943   4.863   6.221   0.506
 3267SOL    HW226944   4.732   6.250   0.575
 3268SOL     OW26945   0.899   2.775   7.518
 3268SOL    HW126946   0.920   2.701   7.575
 3268SOL    HW226947   0.917   2.852   7.572
 3269SOL     OW26948   3.094   5.908   0.893
 3269SOL    HW126949   3.155   5.837   0.873
 3269SOL    HW226950   3.060   5.935   0.807
 3270SOL     OW26951   0.733   0.845   1.023
 3270SOL    HW126952   0.709   0.929   1.061
 3270SOL    HW226953   0.695   0.846   0.935
 3271SOL     OW26954   5.215   2.129   6.581
 3271SOL    HW126955   5.158   2.142   6.506
 3271SOL    HW226956   5.226   2.216   6.618
 3272SOL     OW26957   4.568   6.375   7.736
 3272SOL    HW126958   4.508   6.447   7.715
 3272SOL    HW226959   4.538   6.302   7.681
 3273SOL     OW26960   2.749   0.232   0.192
 3273SOL    HW126961   2.762   0.190   0.107
 3273SOL    HW226962   2.807   0.187   0.252
 3274SOL     OW26963   2.149   0.306   1.403
 3274SOL    HW126964   2.076   0.310   1.465
 3274SOL    HW226965   2.122   0.361   1.330
 3275SOL     OW26966   1.946   0.041   7.343
 3275SOL    HW126967   1.978   0.051   7.253
 3275SOL    HW226968   1.882   0.111   7.353
 3276SOL     OW26969   4.890   1.181   7.749
 3276SOL    HW126970   4.865   1.225   7.830
 3276SOL    HW226971   4.928   1.098   7.778
 3277SOL     OW26972   2.970   2.601   5.098
 3277SOL    HW126973   2.985   2.641   5.012
 3277SOL    HW226974   3.057   2.577   5.129
 3278SOL     OW26975   4.928   3.830   5.154
 3278SOL    HW126976   4.876   3.750   5.145
 3278SOL    HW226977   4.982   3.815   5.231
 3279SOL     OW26978   2.493   1.929   7.542
 3279SOL    HW126979   2.583   1.914   7.569
 3279SOL    HW226980   2.488   2.023   7.525
 3280SOL     OW26981   0.069   1.825   5.968
 3280SOL    HW126982   0.048   1.789   5.881
 3280SOL    HW226983  -0.010   1.809   6.020
 3281SOL     OW26984   2.742   2.633   6.781
 3281SOL    HW126985   2.791   2.554   6.806
 3281SOL    HW226986   2.778   2.657   6.696
 3282SOL     OW26987   3.683   1.544   0.322
 3282SOL    HW126988   3.642   1.629   0.337
 3282SOL    HW226989   3.612   1.481   0.327
 3283SOL     OW26990   5.311   2.759   7.363
 3283SOL    HW126991   5.330   2.804   7.445
 3283SOL    HW226992   5.393   2.763   7.314
 3284SOL     OW26993   2.273   1.595   0.713
 3284SOL    HW126994   2.347   1.638   0.671
 3284SOL    HW226995   2.306   1.509   0.739
 3285SOL     OW26996   4.840   3.597   0.588
 3285SOL    HW126997   4.815   3.552   0.669
 3285SOL    HW226998   4.935   3.604   0.593
 3286SOL     OW26999   1.810   5.509   1.400
 3286SOL    HW127000   1.825   5.601   1.424
 3286SOL    HW227001   1.716   5.504   1.383
 3287SOL     OW27002   5.908   1.274   1.122
 3287SOL    HW127003   5.975   1.328   1.079
 3287SOL    HW227004   5.826   1.298   1.078
 3288SOL     OW27005   1.881   1.479   1.643
 3288SOL    HW127006   1.799   1.446   1.603
 3288SOL    HW227007   1.882   1.439   1.730
 3289SOL     OW27008   5.345   2.314   1.260
 3289SOL    HW127009   5.418   2.331   1.318
 3289SOL    HW227010   5.322   2.399   1.223
 3290SOL     OW27011   1.661   2.314   7.780
 3290SOL    HW127012   1.625   2.264   7.708
 3290SOL    HW227013   1.625   2.402   7.770
 3291SOL     OW27014   2.364   0.664   6.265
 3291SOL    HW127015   2.348   0.633   6.176
 3291SOL    HW227016   2.404   0.751   6.253
 3292SOL     OW27017   3.744   0.467   0.735
 3292SOL    HW127018   3.802   0.397   0.705
 3292SOL    HW227019   3.764   0.541   0.677
 3293SOL     OW27020   4.497   1.727   0.190
 3293SOL    HW127021   4.514   1.771   0.106
 3293SOL    HW227022   4.460   1.642   0.165
 3294SOL     OW27023   4.510   3.832   2.022
 3294SOL    HW127024   4.470   3.913   2.055
 3294SOL    HW227025   4.452   3.762   2.052
 3295SOL     OW27026   5.692   1.179   0.614
 3295SOL    HW127027   5.756   1.117   0.580
 3295SOL    HW227028   5.732   1.265   0.601
 3296SOL     OW27029   3.028   1.666   7.413
 3296SOL    HW127030   3.079   1.610   7.472
 3296SOL    HW227031   3.018   1.748   7.461
 3297SOL     OW27032   1.650   1.176   1.279
 3297SOL    HW127033   1.688   1.174   1.191
 3297SOL    HW227034   1.724   1.183   1.338
 3298SOL     OW27035   3.618   2.053   7.614
 3298SOL    HW127036   3.536   2.089   7.646
 3298SOL    HW227037   3.686   2.106   7.656
 3299SOL     OW27038   0.329   2.275   0.632
 3299SOL    HW127039   0.336   2.278   0.537
 3299SOL    HW227040   0.338   2.367   0.659
 3300SOL     OW27041   1.094   0.849   5.992
 3300SOL    HW127042   0.999   0.840   5.979
 3300SOL    HW227043   1.113   0.791   6.066
 3301SOL     OW27044   1.490   0.929   6.913
 3301SOL    HW127045   1.394   0.927   6.915
 3301SOL    HW227046   1.512   0.922   6.820
 3302SOL     OW27047   6.141   0.041   5.729
 3302SOL    HW127048   6.219   0.001   5.691
 3302SOL    HW227049   6.076   0.039   5.659
 3303SOL     OW27050   2.150   3.610   1.145
 3303SOL    HW127051   2.211   3.541   1.119
 3303SOL    HW227052   2.170   3.626   1.238
 3304SOL     OW27053   2.459   2.631   0.374
 3304SOL    HW127054   2.470   2.721   0.404
 3304SOL    HW227055   2.365   2.621   0.363
 3305SOL     OW27056   0.039   4.507   2.258
 3305SOL    HW127057   0.036   4.602   2.248
 3305SOL    HW227058   0.116   4.491   2.312
 3306SOL     OW27059   1.830   3.122   2.222
 3306SOL    HW127060   1.909   3.107   2.170
 3306SOL    HW227061   1.845   3.073   2.303
 3307SOL     OW27062   1.765   5.817   6.032
 3307SOL    HW127063   1.698   5.772   6.083
 3307SOL    HW227064   1.717   5.878   5.977
 3308SOL     OW27065   0.027   0.357   0.433
 3308SOL    HW127066  -0.018   0.363   0.349
 3308SOL    HW227067   0.115   0.326   0.411
 3309SOL     OW27068   2.696   1.796   6.830
 3309SOL    HW127069   2.733   1.819   6.745
 3309SOL    HW227070   2.712   1.702   6.838
 3310SOL     OW27071   4.510   2.174   0.557
 3310SOL    HW127072   4.468   2.147   0.639
 3310SOL    HW227073   4.462   2.252   0.530
 3311SOL     OW27074   2.911   5.166   6.992
 3311SOL    HW127075   2.916   5.239   7.053
 3311SOL    HW227076   2.944   5.091   7.042
 3312SOL     OW27077   3.375   0.111   0.373
 3312SOL    HW127078   3.404   0.020   0.378
 3312SOL    HW227079   3.428   0.156   0.439
 3313SOL     OW27080   2.149   0.827   0.209
 3313SOL    HW127081   2.205   0.817   0.133
 3313SOL    HW227082   2.067   0.862   0.174
 3314SOL     OW27083   2.781   1.791   7.102
 3314SOL    HW127084   2.852   1.727   7.097
 3314SOL    HW227085   2.751   1.801   7.011
 3315SOL     OW27086   0.283   5.457   0.898
 3315SOL    HW127087   0.270   5.527   0.834
 3315SOL    HW227088   0.371   5.425   0.880
 3316SOL     OW27089   0.566   1.592   7.185
 3316SOL    HW127090   0.539   1.644   7.260
 3316SOL    HW227091   0.485   1.558   7.148
 3317SOL     OW27092   4.428   0.707   7.725
 3317SOL    HW127093   4.480   0.668   7.794
 3317SOL    HW227094   4.389   0.632   7.677
 3318SOL     OW27095   5.142   2.607   6.980
 3318SOL    HW127096   5.128   2.585   7.072
 3318SOL    HW227097   5.058   2.641   6.950
 3319SOL     OW27098   2.055   4.396   7.197
 3319SOL    HW127099   1.963   4.416   7.180
 3319SOL    HW227100   2.093   4.382   7.110
 3320SOL     OW27101   0.421   0.711   6.869
 3320SOL    HW127102   0.465   0.755   6.796
 3320SOL    HW227103   0.493   0.678   6.923
 3321SOL     OW27104   1.231   3.064   0.229
 3321SOL    HW127105   1.204   2.993   0.171
 3321SOL    HW227106   1.250   3.020   0.312
 3322SOL     OW27107   5.517   4.262   7.302
 3322SOL    HW127108   5.586   4.328   7.300
 3322SOL    HW227109   5.436   4.313   7.305
 3323SOL     OW27110   6.439   5.161   1.040
 3323SOL    HW127111   6.344   5.152   1.031
 3323SOL    HW227112   6.467   5.079   1.081
 3324SOL     OW27113   2.061   2.361   5.289
 3324SOL    HW127114   2.057   2.265   5.285
 3324SOL    HW227115   1.988   2.385   5.347
 3325SOL     OW27116   3.403   2.650   5.801
 3325SOL    HW127117   3.320   2.636   5.847
 3325SOL    HW227118   3.470   2.623   5.863
 3326SOL     OW27119   4.692   3.343   7.633
 3326SOL    HW127120   4.699   3.436   7.611
 3326SOL    HW227121   4.736   3.335   7.720
 3327SOL     OW27122   3.830   1.414   7.475
 3327SOL    HW127123   3.882   1.355   7.529
 3327SOL    HW227124   3.879   1.420   7.393
 3328SOL     OW27125   5.484   2.757   0.857
 3328SOL    HW127126   5.418   2.826   0.852
 3328SOL    HW227127   5.433   2.676   0.864
 3329SOL     OW27128   1.351   2.878   6.494
 3329SOL    HW127129   1.338   2.789   6.460
 3329SOL    HW227130   1.411   2.866   6.568
 3330SOL     OW27131   0.756   3.256   6.151
 3330SOL    HW127132   0.709   3.238   6.069
 3330SOL    HW227133   0.821   3.322   6.126
 3331SOL     OW27134   1.255   0.464   0.679
 3331SOL    HW127135   1.234   0.395   0.742
 3331SOL    HW227136   1.177   0.519   0.677
 3332SOL     OW27137   2.542   4.541   0.067
 3332SOL    HW127138   2.452   4.553   0.036
 3332SOL    HW227139   2.590   4.509  -0.010
 3333SOL     OW27140   3.872   5.681   0.901
 3333SOL    HW127141   3.868   5.664   0.995
 3333SOL    HW227142   3.906   5.599   0.864
 3334SOL     OW27143   5.790   4.790   1.276
 3334SOL    HW127144   5.850   4.717   1.291
 3334SOL    HW227145   5.762   4.781   1.185
 3335SOL     OW27146   2.430   4.058   1.587
 3335SOL    HW127147   2.505   4.089   1.535
 3335SOL    HW227148   2.423   3.965   1.567
 3336SOL     OW27149   3.904   4.783   7.401
 3336SOL    HW127150   3.857   4.772   7.318
 3336SOL    HW227151   3.995   4.765   7.380
 3337SOL     OW27152   3.344   3.863   6.163
 3337SOL    HW127153   3.250   3.883   6.173
 3337SOL    HW227154   3.361   3.872   6.069
 3338SOL     OW27155   3.504   3.794   0.246
 3338SOL    HW127156   3.572   3.776   0.182
 3338SOL    HW227157   3.440   3.723   0.233
 3339SOL     OW27158   5.565   3.620   0.208
 3339SOL    HW127159   5.644   3.619   0.262
 3339SOL    HW227160   5.493   3.629   0.271
 3340SOL     OW27161   1.591   2.019   0.326
 3340SOL    HW127162   1.550   2.104   0.340
 3340SOL    HW227163   1.594   1.979   0.413
 3341SOL     OW27164   5.034   6.175   6.491
 3341SOL    HW127165   4.985   6.241   6.441
 3341SOL    HW227166   4.972   6.143   6.556
 3342SOL     OW27167   6.228   1.127   1.276
 3342SOL    HW127168   6.268   1.170   1.351
 3342SOL    HW227169   6.301   1.115   1.214
 3343SOL     OW27170   4.841   5.501   1.341
 3343SOL    HW127171   4.917   5.466   1.296
 3343SOL    HW227172   4.833   5.448   1.420
 3344SOL     OW27173   5.015   0.561   2.522
 3344SOL    HW127174   4.978   0.518   2.445
 3344SOL    HW227175   5.063   0.635   2.487
 3345SOL     OW27176   1.435   2.481   1.005
 3345SOL    HW127177   1.477   2.431   0.935
 3345SOL    HW227178   1.506   2.533   1.043
 3346SOL     OW27179   1.761   5.805   7.319
 3346SOL    HW127180   1.761   5.837   7.409
 3346SOL    HW227181   1.851   5.820   7.288
 3347SOL     OW27182   0.946   4.740   2.404
 3347SOL    HW127183   0.961   4.659   2.455
 3347SOL    HW227184   0.907   4.710   2.322
 3348SOL     OW27185   0.781   2.594   6.207
 3348SOL    HW127186   0.816   2.514   6.169
 3348SOL    HW227187   0.761   2.650   6.132
 3349SOL     OW27188   5.618   4.493   2.004
 3349SOL    HW127189   5.600   4.416   1.950
 3349SOL    HW227190   5.562   4.482   2.081
 3350SOL     OW27191   1.259   1.821   0.148
 3350SOL    HW127192   1.294   1.849   0.063
 3350SOL    HW227193   1.196   1.889   0.171
 3351SOL     OW27194   1.785   3.767   0.454
 3351SOL    HW127195   1.880   3.759   0.463
 3351SOL    HW227196   1.754   3.785   0.541
 3352SOL     OW27197   3.103   0.385   7.419
 3352SOL    HW127198   3.169   0.316   7.408
 3352SOL    HW227199   3.075   0.376   7.510
 3353SOL     OW27200   1.957   1.392   7.782
 3353SOL    HW127201   1.905   1.461   7.740
 3353SOL    HW227202   1.945   1.407   7.875
 3354SOL     OW27203   1.307   4.773   0.512
 3354SOL    HW127204   1.372   4.803   0.574
 3354SOL    HW227205   1.274   4.853   0.472
 3355SOL     OW27206   0.278   1.592   0.330
 3355SOL    HW127207   0.186   1.606   0.351
 3355SOL    HW227208   0.320   1.579   0.415
 3356SOL     OW27209   0.074   1.655   7.454
 3356SOL    HW127210   0.062   1.589   7.523
 3356SOL    HW227211   0.164   1.641   7.424
 3357SOL     OW27212   5.652   1.367   7.111
 3357SOL    HW127213   5.671   1.337   7.200
 3357SOL    HW227214   5.604   1.449   7.123
 3358SOL     OW27215   1.765   5.247   2.485
 3358SOL    HW127216   1.783   5.339   2.505
 3358SOL    HW227217   1.842   5.217   2.437
 3359SOL     OW27218   0.505   0.953   5.753
 3359SOL    HW127219   0.467   1.021   5.809
 3359SOL    HW227220   0.430   0.918   5.705
 3360SOL     OW27221   4.481   1.223   0.272
 3360SOL    HW127222   4.519   1.146   0.230
 3360SOL    HW227223   4.387   1.204   0.276
 3361SOL     OW27224   1.362   2.222   7.770
 3361SOL    HW127225   1.332   2.143   7.726
 3361SOL    HW227226   1.310   2.293   7.732
 3362SOL     OW27227   0.830   0.126   1.018
 3362SOL    HW127228   0.744   0.093   0.992
 3362SOL    HW227229   0.842   0.207   0.968
 3363SOL     OW27230   5.143   0.036   1.521
 3363SOL    HW127231   5.172  -0.027   1.455
 3363SOL    HW227232   5.143   0.120   1.476
 3364SOL     OW27233   5.779   1.744   0.502
 3364SOL    HW127234   5.716   1.692   0.552
 3364SOL    HW227235   5.738   1.755   0.416
 3365SOL     OW27236   4.750   3.755   7.652
 3365SOL    HW127237   4.783   3.749   7.743
 3365SOL    HW227238   4.707   3.670   7.637
 3366SOL     OW27239   2.607   4.838   1.022
 3366SOL    HW127240   2.542   4.817   1.089
 3366SOL    HW227241   2.571   4.802   0.941
 3367SOL     OW27242   5.474   5.102   5.809
 3367SOL    HW127243   5.508   5.149   5.732
 3367SOL    HW227244   5.393   5.062   5.778
 3368SOL     OW27245   5.341   1.939   7.647
 3368SOL    HW127246   5.258   1.891   7.653
 3368SOL    HW227247   5.316   2.028   7.624
 3369SOL     OW27248   4.783   3.273   0.313
 3369SOL    HW127249   4.849   3.224   0.362
 3369SOL    HW227250   4.702   3.224   0.326
 3370SOL     OW27251   3.257   2.963   6.655
 3370SOL    HW127252   3.204   2.980   6.733
 3370SOL    HW227253   3.218   3.018   6.587
 3371SOL     OW27254   3.064   1.337   1.218
 3371SOL    HW127255   2.982   1.374   1.186
 3371SOL    HW227256   3.037   1.280   1.291
 3372SOL     OW27257   3.807   0.044   0.490
 3372SOL    HW127258   3.862  -0.034   0.494
 3372SOL    HW227259   3.850   0.101   0.425
 3373SOL     OW27260   6.438   0.312   6.809
 3373SOL    HW127261   6.463   0.404   6.797
 3373SOL    HW227262   6.522   0.267   6.821
 3374SOL     OW27263   5.083   5.949   6.756
 3374SOL    HW127264   5.076   5.942   6.661
 3374SOL    HW227265   5.013   5.892   6.789
 3375SOL     OW27266   2.137   0.518   0.912
 3375SOL    HW127267   2.123   0.505   0.818
 3375SOL    HW227268   2.191   0.597   0.918
 3376SOL     OW27269   4.254   3.412   0.915
 3376SOL    HW127270   4.159   3.416   0.908
 3376SOL    HW227271   4.271   3.384   1.005
 3377SOL     OW27272   4.733   0.130   7.452
 3377SOL    HW127273   4.821   0.165   7.436
 3377SOL    HW227274   4.744   0.035   7.446
 3378SOL     OW27275   0.937   1.116   7.234
 3378SOL    HW127276   1.029   1.097   7.216
 3378SOL    HW227277   0.920   1.199   7.189
 3379SOL     OW27278   1.763   3.717   1.625
 3379SOL    HW127279   1.775   3.747   1.715
 3379SOL    HW227280   1.676   3.747   1.600
 3380SOL     OW27281   3.848   6.267   1.747
 3380SOL    HW127282   3.861   6.334   1.814
 3380SOL    HW227283   3.843   6.315   1.664
 3381SOL     OW27284   1.791   3.409   1.084
 3381SOL    HW127285   1.736   3.484   1.060
 3381SOL    HW227286   1.828   3.432   1.169
 3382SOL     OW27287   5.825   0.075   0.581
 3382SOL    HW127288   5.798   0.007   0.518
 3382SOL    HW227289   5.917   0.090   0.561
 3383SOL     OW27290   0.962   3.427   1.669
 3383SOL    HW127291   1.010   3.509   1.665
 3383SOL    HW227292   0.960   3.405   1.762
 3384SOL     OW27293   4.041   0.056   0.032
 3384SOL    HW127294   3.988   0.136   0.019
 3384SOL    HW227295   4.068   0.062   0.124
 3385SOL     OW27296   1.775   5.037   2.052
 3385SOL    HW127297   1.719   5.055   2.128
 3385SOL    HW227298   1.715   5.002   1.986
 3386SOL     OW27299   5.434   5.923   0.465
 3386SOL    HW127300   5.421   5.979   0.541
 3386SOL    HW227301   5.524   5.891   0.474
 3387SOL     OW27302   1.621   0.596   5.829
 3387SOL    HW127303   1.578   0.520   5.867
 3387SOL    HW227304   1.663   0.563   5.749
 3388SOL     OW27305   5.915   5.262   6.064
 3388SOL    HW127306   5.876   5.292   5.982
 3388SOL    HW227307   5.979   5.196   6.038
 3389SOL     OW27308   4.945   2.626   6.106
 3389SOL    HW127309   4.898   2.707   6.087
 3389SOL    HW227310   4.983   2.600   6.022
 3390SOL     OW27311   0.094   5.289   0.822
 3390SOL    HW127312   0.136   5.366   0.860
 3390SOL    HW227313   0.082   5.229   0.896
 3391SOL     OW27314   1.740   1.558   5.656
 3391SOL    HW127315   1.767   1.468   5.672
 3391SOL    HW227316   1.719   1.561   5.562
 3392SOL     OW27317   3.892   4.052   7.479
 3392SOL    HW127318   3.908   4.029   7.388
 3392SOL    HW227319   3.825   3.989   7.508
 3393SOL     OW27320   0.207   2.643   5.572
 3393SOL    HW127321   0.112   2.656   5.580
 3393SOL    HW227322   0.242   2.731   5.558
 3394SOL     OW27323   3.190   6.109   7.707
 3394SOL    HW127324   3.272   6.138   7.745
 3394SOL    HW227325   3.205   6.017   7.682
 3395SOL     OW27326   6.404   1.616   2.175
 3395SOL    HW127327   6.346   1.540   2.178
 3395SOL    HW227328   6.444   1.613   2.088
 3396SOL     OW27329   1.344   1.336   1.109
 3396SOL    HW127330   1.392   1.263   1.070
 3396SOL    HW227331   1.262   1.298   1.139
 3397SOL     OW27332   2.939   2.709   0.399
 3397SOL    HW127333   2.937   2.734   0.307
 3397SOL    HW227334   2.958   2.615   0.397
 3398SOL     OW27335   0.152   1.556   0.727
 3398SOL    HW127336   0.102   1.547   0.808
 3398SOL    HW227337   0.226   1.612   0.752
 3399SOL     OW27338   1.697   1.244   7.628
 3399SOL    HW127339   1.621   1.203   7.586
 3399SOL    HW227340   1.751   1.170   7.656
 3400SOL     OW27341   5.451   4.841   0.684
 3400SOL    HW127342   5.508   4.794   0.744
 3400SOL    HW227343   5.372   4.859   0.735
 3401SOL     OW27344   6.054   2.312   1.170
 3401SOL    HW127345   6.007   2.394   1.182
 3401SOL    HW227346   6.017   2.275   1.090
 3402SOL     OW27347   5.567   1.619   6.377
 3402SOL    HW127348   5.479   1.622   6.413
 3402SOL    HW227349   5.576   1.529   6.343
 3403SOL     OW27350   5.174   2.352   6.142
 3403SOL    HW127351   5.247   2.396   6.098
 3403SOL    HW227352   5.157   2.274   6.088
 3404SOL     OW27353   5.227   2.399   1.856
 3404SOL    HW127354   5.203   2.429   1.944
 3404SOL    HW227355   5.312   2.357   1.867
 3405SOL     OW27356   3.706   1.806   1.826
 3405SOL    HW127357   3.775   1.741   1.836
 3405SOL    HW227358   3.710   1.858   1.906
 3406SOL     OW27359   2.051   1.261   7.196
 3406SOL    HW127360   2.037   1.315   7.118
 3406SOL    HW227361   1.964   1.229   7.219
 3407SOL     OW27362   5.001   3.858   0.964
 3407SOL    HW127363   5.026   3.935   1.015
 3407SOL    HW227364   4.985   3.790   1.030
 3408SOL     OW27365   3.559   0.293   0.805
 3408SOL    HW127366   3.643   0.338   0.797
 3408SOL    HW227367   3.495   0.364   0.808
 3409SOL     OW27368   2.162   5.862   1.129
 3409SOL    HW127369   2.119   5.844   1.045
 3409SOL    HW227370   2.122   5.800   1.190
 3410SOL     OW27371   0.965   4.755   6.841
 3410SOL    HW127372   1.029   4.692   6.807
 3410SOL    HW227373   0.892   4.751   6.779
 3411SOL     OW27374   0.458   1.808   0.298
 3411SOL    HW127375   0.399   1.733   0.306
 3411SOL    HW227376   0.545   1.772   0.311
 3412SOL     OW27377   6.360   4.293   1.237
 3412SOL    HW127378   6.410   4.325   1.162
 3412SOL    HW227379   6.289   4.357   1.247
 3413SOL     OW27380   2.692   2.106   7.155
 3413SOL    HW127381   2.598   2.087   7.158
 3413SOL    HW227382   2.708   2.161   7.232
 3414SOL     OW27383   2.640   1.581   0.947
 3414SOL    HW127384   2.598   1.553   0.866
 3414SOL    HW227385   2.638   1.676   0.944
 3415SOL     OW27386   4.202   6.423   6.982
 3415SOL    HW127387   4.277   6.477   7.007
 3415SOL    HW227388   4.224   6.387   6.896
 3416SOL     OW27389   1.346   4.325   0.115
 3416SOL    HW127390   1.318   4.345   0.205
 3416SOL    HW227391   1.439   4.303   0.123
 3417SOL     OW27392   6.144   2.144   6.708
 3417SOL    HW127393   6.088   2.093   6.650
 3417SOL    HW227394   6.233   2.123   6.679
 3418SOL     OW27395   6.014   4.590   0.312
 3418SOL    HW127396   6.103   4.585   0.277
 3418SOL    HW227397   5.958   4.561   0.239
 3419SOL     OW27398   0.501   4.921   1.458
 3419SOL    HW127399   0.414   4.892   1.486
 3419SOL    HW227400   0.492   4.937   1.364
 3420SOL     OW27401   1.350   6.437   0.836
 3420SOL    HW127402   1.302   6.457   0.917
 3420SOL    HW227403   1.436   6.478   0.848
 3421SOL     OW27404   1.935   2.616   7.313
 3421SOL    HW127405   1.859   2.673   7.325
 3421SOL    HW227406   1.903   2.528   7.332
 3422SOL     OW27407   1.524   3.915   1.807
 3422SOL    HW127408   1.603   3.866   1.830
 3422SOL    HW227409   1.476   3.856   1.749
 3423SOL     OW27410   0.719   4.418   6.285
 3423SOL    HW127411   0.764   4.351   6.336
 3423SOL    HW227412   0.785   4.487   6.272
 3424SOL     OW27413   1.041   5.132   0.490
 3424SOL    HW127414   1.040   5.223   0.462
 3424SOL    HW227415   1.126   5.099   0.462
 3425SOL     OW27416   2.948   3.904   0.900
 3425SOL    HW127417   2.970   3.926   0.991
 3425SOL    HW227418   2.880   3.836   0.908
 3426SOL     OW27419   2.382   1.132   6.540
 3426SOL    HW127420   2.437   1.054   6.526
 3426SOL    HW227421   2.435   1.204   6.504
 3427SOL     OW27422   0.262   4.693   7.504
 3427SOL    HW127423   0.329   4.628   7.524
 3427SOL    HW227424   0.180   4.644   7.505
 3428SOL     OW27425   4.158   4.613   5.622
 3428SOL    HW127426   4.159   4.517   5.621
 3428SOL    HW227427   4.147   4.636   5.714
 3429SOL     OW27428   0.121   5.667   7.495
 3429SOL    HW127429   0.034   5.633   7.516
 3429SOL    HW227430   0.155   5.607   7.428
 3430SOL     OW27431   3.913   3.811   6.193
 3430SOL    HW127432   3.928   3.901   6.164
 3430SOL    HW227433   3.820   3.795   6.176
 3431SOL     OW27434   3.484   5.822   7.263
 3431SOL    HW127435   3.520   5.736   7.283
 3431SOL    HW227436   3.396   5.804   7.228
 3432SOL     OW27437   5.692   1.094   1.999
 3432SOL    HW127438   5.616   1.134   2.041
 3432SOL    HW227439   5.766   1.150   2.024
 3433SOL     OW27440   2.222   3.734   1.403
 3433SOL    HW127441   2.285   3.799   1.372
 3433SOL    HW227442   2.276   3.658   1.426
 3434SOL     OW27443   6.289   4.866   0.531
 3434SOL    HW127444   6.203   4.837   0.562
 3434SOL    HW227445   6.269   4.921   0.457
 3435SOL     OW27446   3.121   4.989   7.156
 3435SOL    HW127447   3.031   4.958   7.166
 3435SOL    HW227448   3.175   4.919   7.192
 3436SOL     OW27449   5.873   2.535   0.876
 3436SOL    HW127450   5.944   2.471   0.869
 3436SOL    HW227451   5.914   2.612   0.917
 3437SOL     OW27452   2.707   6.358   6.073
 3437SOL    HW127453   2.639   6.342   6.007
 3437SOL    HW227454   2.713   6.276   6.122
 3438SOL     OW27455   0.674   3.937   6.492
 3438SOL    HW127456   0.730   3.910   6.565
 3438SOL    HW227457   0.734   3.945   6.418
 3439SOL     OW27458   0.319   4.825   1.231
 3439SOL    HW127459   0.282   4.870   1.155
 3439SOL    HW227460   0.258   4.845   1.302
 3440SOL     OW27461   1.863   3.061   0.534
 3440SOL    HW127462   1.859   2.972   0.570
 3440SOL    HW227463   1.870   3.118   0.611
 3441SOL     OW27464   3.197   4.463   1.803
 3441SOL    HW127465   3.250   4.506   1.870
 3441SOL    HW227466   3.128   4.526   1.783
 3442SOL     OW27467   2.522   5.935   2.402
 3442SOL    HW127468   2.585   6.006   2.400
 3442SOL    HW227469   2.440   5.974   2.372
 3443SOL     OW27470   0.260   1.795   7.029
 3443SOL    HW127471   0.282   1.854   6.957
 3443SOL    HW227472   0.170   1.818   7.052
 3444SOL     OW27473   2.793   1.694   7.711
 3444SOL    HW127474   2.760   1.691   7.619
 3444SOL    HW227475   2.848   1.616   7.719
 3445SOL     OW27476   2.477   1.060   7.418
 3445SOL    HW127477   2.539   1.131   7.435
 3445SOL    HW227478   2.391   1.101   7.425
 3446SOL     OW27479   0.575   4.094   0.902
 3446SOL    HW127480   0.549   4.070   0.814
 3446SOL    HW227481   0.661   4.055   0.913
 3447SOL     OW27482   1.060   2.283   6.342
 3447SOL    HW127483   1.102   2.366   6.320
 3447SOL    HW227484   1.108   2.252   6.419
 3448SOL     OW27485   0.214   2.509   7.613
 3448SOL    HW127486   0.289   2.569   7.622
 3448SOL    HW227487   0.201   2.475   7.703
 3449SOL     OW27488   2.512   1.359   1.039
 3449SOL    HW127489   2.560   1.280   1.013
 3449SOL    HW227490   2.581   1.424   1.054
 3450SOL     OW27491   1.130   6.090   5.664
 3450SOL    HW127492   1.069   6.125   5.600
 3450SOL    HW227493   1.105   5.998   5.673
 3451SOL     OW27494   5.505   2.538   6.833
 3451SOL    HW127495   5.434   2.576   6.782
 3451SOL    HW227496   5.496   2.443   6.820
 3452SOL     OW27497   3.655   0.068   7.307
 3452SOL    HW127498   3.688   0.158   7.301
 3452SOL    HW227499   3.617   0.051   7.221
 3453SOL     OW27500   1.808   4.737   6.120
 3453SOL    HW127501   1.807   4.830   6.143
 3453SOL    HW227502   1.758   4.694   6.190
 3454SOL     OW27503   3.361   2.899   5.861
 3454SOL    HW127504   3.399   2.813   5.842
 3454SOL    HW227505   3.395   2.956   5.793
 3455SOL     OW27506   0.362   6.264   7.136
 3455SOL    HW127507   0.295   6.310   7.186
 3455SOL    HW227508   0.346   6.171   7.154
 3456SOL     OW27509   1.238   4.588   7.401
 3456SOL    HW127510   1.179   4.513   7.395
 3456SOL    HW227511   1.264   4.605   7.310
 3457SOL     OW27512   1.703   0.010   7.064
 3457SOL    HW127513   1.700  -0.080   7.098
 3457SOL    HW227514   1.786   0.045   7.094
 3458SOL     OW27515   2.331   4.123   6.757
 3458SOL    HW127516   2.357   4.162   6.673
 3458SOL    HW227517   2.332   4.029   6.741
 3459SOL     OW27518   3.492   2.986   6.969
 3459SOL    HW127519   3.565   2.924   6.973
 3459SOL    HW227520   3.417   2.937   7.001
 3460SOL     OW27521   3.153   1.057   0.989
 3460SOL    HW127522   3.196   1.142   0.995
 3460SOL    HW227523   3.164   1.031   0.897
 3461SOL     OW27524   5.286   5.327   7.783
 3461SOL    HW127525   5.269   5.271   7.859
 3461SOL    HW227526   5.341   5.274   7.726
 3462SOL     OW27527   5.383   1.547   1.445
 3462SOL    HW127528   5.315   1.615   1.446
 3462SOL    HW227529   5.336   1.468   1.420
 3463SOL     OW27530   3.953   1.072   0.422
 3463SOL    HW127531   3.918   1.050   0.336
 3463SOL    HW227532   3.922   1.003   0.480
 3464SOL     OW27533   1.431   3.921   5.908
 3464SOL    HW127534   1.511   3.966   5.934
 3464SOL    HW227535   1.421   3.941   5.815
 3465SOL     OW27536   4.683   0.181   6.524
 3465SOL    HW127537   4.766   0.227   6.513
 3465SOL    HW227538   4.701   0.092   6.490
 3466SOL     OW27539   0.277   6.046   6.941
 3466SOL    HW127540   0.311   6.018   7.026
 3466SOL    HW227541   0.184   6.060   6.956
 3467SOL     OW27542   1.858   2.368   6.269
 3467SOL    HW127543   1.793   2.422   6.224
 3467SOL    HW227544   1.933   2.426   6.282
 3468SOL     OW27545   1.280   0.770   6.613
 3468SOL    HW127546   1.327   0.692   6.585
 3468SOL    HW227547   1.347   0.837   6.621
 3469SOL     OW27548   1.373   5.926   7.450
 3469SOL    HW127549   1.369   6.017   7.418
 3469SOL    HW227550   1.412   5.933   7.537
 3470SOL     OW27551   2.225   0.689   6.505
 3470SOL    HW127552   2.147   0.728   6.465
 3470SOL    HW227553   2.283   0.670   6.432
 3471SOL     OW27554   3.286   2.826   1.210
 3471SOL    HW127555   3.380   2.816   1.194
 3471SOL    HW227556   3.277   2.915   1.243
 3472SOL     OW27557   4.400   3.408   0.699
 3472SOL    HW127558   4.337   3.412   0.627
 3472SOL    HW227559   4.345   3.416   0.778
 3473SOL     OW27560   2.786   1.856   6.120
 3473SOL    HW127561   2.779   1.883   6.212
 3473SOL    HW227562   2.854   1.789   6.120
 3474SOL     OW27563   2.582   2.199   5.698
 3474SOL    HW127564   2.563   2.232   5.610
 3474SOL    HW227565   2.619   2.112   5.684
 3475SOL     OW27566   5.194   0.588   2.171
 3475SOL    HW127567   5.104   0.557   2.166
 3475SOL    HW227568   5.247   0.513   2.144
 3476SOL     OW27569   5.793   2.598   2.348
 3476SOL    HW127570   5.841   2.526   2.307
 3476SOL    HW227571   5.855   2.633   2.412
 3477SOL     OW27572   2.662   6.077   0.556
 3477SOL    HW127573   2.601   6.142   0.593
 3477SOL    HW227574   2.663   6.095   0.463
 3478SOL     OW27575   2.833   1.538   1.729
 3478SOL    HW127576   2.871   1.549   1.817
 3478SOL    HW227577   2.808   1.627   1.703
 3479SOL     OW27578   5.358   5.891   7.312
 3479SOL    HW127579   5.294   5.884   7.241
 3479SOL    HW227580   5.366   5.802   7.345
 3480SOL     OW27581   3.048   5.402   0.751
 3480SOL    HW127582   3.099   5.365   0.679
 3480SOL    HW227583   3.045   5.332   0.816
 3481SOL     OW27584   6.387   2.483   0.598
 3481SOL    HW127585   6.318   2.434   0.553
 3481SOL    HW227586   6.420   2.422   0.665
 3482SOL     OW27587   2.113   2.851   0.973
 3482SOL    HW127588   2.092   2.930   1.022
 3482SOL    HW227589   2.169   2.800   1.032
 3483SOL     OW27590   1.961   0.422   1.619
 3483SOL    HW127591   2.032   0.418   1.683
 3483SOL    HW227592   1.990   0.486   1.555
 3484SOL     OW27593   4.461   2.756   1.254
 3484SOL    HW127594   4.512   2.743   1.174
 3484SOL    HW227595   4.440   2.667   1.283
 3485SOL     OW27596   2.387   2.260   6.820
 3485SOL    HW127597   2.466   2.284   6.869
 3485SOL    HW227598   2.336   2.208   6.881
 3486SOL     OW27599   6.074   4.569   6.925
 3486SOL    HW127600   6.029   4.555   6.842
 3486SOL    HW227601   6.161   4.600   6.901
 3487SOL     OW27602   2.293   2.469   7.485
 3487SOL    HW127603   2.358   2.513   7.539
 3487SOL    HW227604   2.224   2.534   7.471
 3488SOL     OW27605   4.277   3.150   6.172
 3488SOL    HW127606   4.219   3.092   6.123
 3488SOL    HW227607   4.236   3.159   6.258
 3489SOL     OW27608   0.479   1.922   7.483
 3489SOL    HW127609   0.416   1.867   7.436
 3489SOL    HW227610   0.558   1.920   7.428
 3490SOL     OW27611   6.308   3.244   6.089
 3490SOL    HW127612   6.241   3.280   6.030
 3490SOL    HW227613   6.280   3.271   6.176
 3491SOL     OW27614   1.230   2.083   0.962
 3491SOL    HW127615   1.262   2.159   1.010
 3491SOL    HW227616   1.262   2.008   1.011
 3492SOL     OW27617   5.947   3.406   0.843
 3492SOL    HW127618   5.999   3.403   0.762
 3492SOL    HW227619   6.004   3.450   0.906
 3493SOL     OW27620   4.988   1.112   6.370
 3493SOL    HW127621   5.066   1.132   6.319
 3493SOL    HW227622   4.987   1.177   6.440
 3494SOL     OW27623   4.296   1.929   0.112
 3494SOL    HW127624   4.377   1.931   0.060
 3494SOL    HW227625   4.278   1.836   0.125
 3495SOL     OW27626   6.141   3.283   6.770
 3495SOL    HW127627   6.135   3.188   6.760
 3495SOL    HW227628   6.069   3.318   6.718
 3496SOL     OW27629   1.630   5.118   0.735
 3496SOL    HW127630   1.695   5.180   0.768
 3496SOL    HW227631   1.653   5.035   0.776
 3497SOL     OW27632   3.490   2.201   1.588
 3497SOL    HW127633   3.536   2.177   1.669
 3497SOL    HW227634   3.549   2.261   1.543
 3498SOL     OW27635   5.668   1.178   6.905
 3498SOL    HW127636   5.681   1.247   6.970
 3498SOL    HW227637   5.677   1.096   6.954
 3499SOL     OW27638   4.295   4.844   1.818
 3499SOL    HW127639   4.333   4.830   1.905
 3499SOL    HW227640   4.221   4.783   1.814
 3500SOL     OW27641   0.902   2.309   6.748
 3500SOL    HW127642   0.960   2.240   6.781
 3500SOL    HW227643   0.841   2.263   6.690
 3501SOL     OW27644   5.895   3.292   7.577
 3501SOL    HW127645   5.847   3.361   7.623
 3501SOL    HW227646   5.961   3.264   7.640
 3502SOL     OW27647   5.500   2.148   1.727
 3502SOL    HW127648   5.480   2.084   1.659
 3502SOL    HW227649   5.486   2.101   1.809
 3503SOL     OW27650   0.075   5.099   2.696
 3503SOL    HW127651   0.014   5.171   2.713
 3503SOL    HW227652   0.060   5.076   2.604
 3504SOL     OW27653   4.856   3.417   5.764
 3504SOL    HW127654   4.930   3.435   5.706
 3504SOL    HW227655   4.785   3.472   5.731
 3505SOL     OW27656   4.681   2.219   0.298
 3505SOL    HW127657   4.736   2.253   0.369
 3505SOL    HW227658   4.684   2.124   0.309
 3506SOL     OW27659   1.655   1.607   1.855
 3506SOL    HW127660   1.712   1.635   1.927
 3506SOL    HW227661   1.671   1.513   1.847
 3507SOL     OW27662   5.867   0.470   0.215
 3507SOL    HW127663   5.961   0.490   0.213
 3507SOL    HW227664   5.861   0.378   0.191
 3508SOL     OW27665   4.946   4.735   6.456
 3508SOL    HW127666   4.884   4.723   6.384
 3508SOL    HW227667   5.000   4.656   6.456
 3509SOL     OW27668   1.908   5.277   0.664
 3509SOL    HW127669   1.860   5.241   0.589
 3509SOL    HW227670   1.995   5.238   0.658
 3510SOL     OW27671   0.746   2.145   0.963
 3510SOL    HW127672   0.825   2.149   1.016
 3510SOL    HW227673   0.755   2.217   0.900
 3511SOL     OW27674   4.393   5.697   7.625
 3511SOL    HW127675   4.361   5.744   7.704
 3511SOL    HW227676   4.407   5.607   7.655
 3512SOL     OW27677   1.750   3.038   0.890
 3512SOL    HW127678   1.701   3.101   0.838
 3512SOL    HW227679   1.813   3.090   0.939
 3513SOL     OW27680   3.175   4.504   5.624
 3513SOL    HW127681   3.238   4.513   5.553
 3513SOL    HW227682   3.090   4.493   5.580
 3514SOL     OW27683   1.635   5.185   1.173
 3514SOL    HW127684   1.687   5.212   1.097
 3514SOL    HW227685   1.565   5.250   1.180
 3515SOL     OW27686   3.293   5.212   7.223
 3515SOL    HW127687   3.232   5.138   7.224
 3515SOL    HW227688   3.370   5.179   7.176
 3516SOL     OW27689   5.299   4.524   6.730
 3516SOL    HW127690   5.275   4.532   6.637
 3516SOL    HW227691   5.322   4.432   6.741
 3517SOL     OW27692   4.160   2.679   1.069
 3517SOL    HW127693   4.215   2.662   0.993
 3517SOL    HW227694   4.185   2.767   1.097
 3518SOL     OW27695   0.212   1.096   6.769
 3518SOL    HW127696   0.146   1.164   6.751
 3518SOL    HW227697   0.163   1.014   6.768
 3519SOL     OW27698   4.214   1.050   6.868
 3519SOL    HW127699   4.283   1.116   6.879
 3519SOL    HW227700   4.133   1.096   6.890
 3520SOL     OW27701   3.525   1.170   7.270
 3520SOL    HW127702   3.582   1.113   7.323
 3520SOL    HW227703   3.549   1.259   7.296
 3521SOL     OW27704   3.067   5.515   1.223
 3521SOL    HW127705   3.078   5.437   1.278
 3521SOL    HW227706   3.126   5.579   1.263
 3522SOL     OW27707   4.820   5.974   7.756
 3522SOL    HW127708   4.727   5.961   7.777
 3522SOL    HW227709   4.862   5.893   7.786
 3523SOL     OW27710   5.486   6.192   1.010
 3523SOL    HW127711   5.469   6.106   0.972
 3523SOL    HW227712   5.581   6.197   1.018
 3524SOL     OW27713   4.025   1.051   0.082
 3524SOL    HW127714   3.968   1.117   0.122
 3524SOL    HW227715   4.072   1.012   0.155
 3525SOL     OW27716   2.492   6.286   0.208
 3525SOL    HW127717   2.546   6.321   0.279
 3525SOL    HW227718   2.507   6.192   0.210
 3526SOL     OW27719   5.798   4.690   1.023
 3526SOL    HW127720   5.793   4.676   0.929
 3526SOL    HW227721   5.891   4.698   1.041
 3527SOL     OW27722   4.112   1.140   7.187
 3527SOL    HW127723   4.163   1.208   7.144
 3527SOL    HW227724   4.036   1.128   7.131
 3528SOL     OW27725   3.504   1.807   6.271
 3528SOL    HW127726   3.490   1.772   6.183
 3528SOL    HW227727   3.469   1.896   6.266
 3529SOL     OW27728   4.113   3.223   0.228
 3529SOL    HW127729   4.128   3.250   0.137
 3529SOL    HW227730   4.177   3.153   0.243
 3530SOL     OW27731   6.025   6.406   1.346
 3530SOL    HW127732   6.071   6.347   1.287
 3530SOL    HW227733   6.052   6.494   1.318
 3531SOL     OW27734   3.392   2.035   6.376
 3531SOL    HW127735   3.328   2.106   6.385
 3531SOL    HW227736   3.348   1.958   6.411
 3532SOL     OW27737   3.975   0.677   6.351
 3532SOL    HW127738   4.046   0.655   6.413
 3532SOL    HW227739   4.018   0.679   6.266
 3533SOL     OW27740   4.399   2.299   0.815
 3533SOL    HW127741   4.440   2.219   0.848
 3533SOL    HW227742   4.309   2.275   0.797
 3534SOL     OW27743   3.515   1.447   7.017
 3534SOL    HW127744   3.443   1.492   7.061
 3534SOL    HW227745   3.581   1.434   7.085
 3535SOL     OW27746   3.067   2.203   0.794
 3535SOL    HW127747   3.107   2.202   0.882
 3535SOL    HW227748   3.140   2.185   0.735
 3536SOL     OW27749   1.628   3.995   0.364
 3536SOL    HW127750   1.671   3.914   0.393
 3536SOL    HW227751   1.599   3.977   0.275
 3537SOL     OW27752   3.564   1.375   7.674
 3537SOL    HW127753   3.615   1.395   7.596
 3537SOL    HW227754   3.479   1.346   7.642
 3538SOL     OW27755   4.893   0.314   2.555
 3538SOL    HW127756   4.943   0.395   2.554
 3538SOL    HW227757   4.950   0.251   2.598
 3539SOL     OW27758   3.796   4.682   5.889
 3539SOL    HW127759   3.747   4.733   5.824
 3539SOL    HW227760   3.888   4.691   5.862
 3540SOL     OW27761   2.409   4.825   7.268
 3540SOL    HW127762   2.398   4.910   7.225
 3540SOL    HW227763   2.376   4.762   7.205
 3541SOL     OW27764   2.284   5.799   1.412
 3541SOL    HW127765   2.270   5.837   1.499
 3541SOL    HW227766   2.196   5.775   1.381
 3542SOL     OW27767   4.197   1.832   7.589
 3542SOL    HW127768   4.150   1.773   7.530
 3542SOL    HW227769   4.183   1.795   7.676
 3543SOL     OW27770   5.950   4.000   0.197
 3543SOL    HW127771   5.863   3.979   0.161
 3543SOL    HW227772   5.958   4.095   0.188
 3544SOL     OW27773   2.212   0.965   5.868
 3544SOL    HW127774   2.251   1.038   5.916
 3544SOL    HW227775   2.281   0.936   5.809
 3545SOL     OW27776   0.968   2.403   1.920
 3545SOL    HW127777   1.014   2.482   1.893
 3545SOL    HW227778   1.037   2.343   1.948
 3546SOL     OW27779   5.734   0.423   6.877
 3546SOL    HW127780   5.737   0.329   6.859
 3546SOL    HW227781   5.826   0.448   6.885
 3547SOL     OW27782   0.844   1.824   0.252
 3547SOL    HW127783   0.912   1.757   0.254
 3547SOL    HW227784   0.818   1.829   0.160
 3548SOL     OW27785   4.570   5.680   5.670
 3548SOL    HW127786   4.500   5.678   5.736
 3548SOL    HW227787   4.604   5.590   5.670
 3549SOL     OW27788   0.287   2.332   5.665
 3549SOL    HW127789   0.263   2.290   5.582
 3549SOL    HW227790   0.304   2.423   5.641
 3550SOL     OW27791   5.696   1.963   5.589
 3550SOL    HW127792   5.770   1.999   5.637
 3550SOL    HW227793   5.651   1.906   5.652
 3551SOL     OW27794   3.318   0.537   6.446
 3551SOL    HW127795   3.313   0.596   6.371
 3551SOL    HW227796   3.263   0.579   6.512
 3552SOL     OW27797   2.476   1.057   0.421
 3552SOL    HW127798   2.405   1.077   0.360
 3552SOL    HW227799   2.487   1.138   0.472
 3553SOL     OW27800   6.440   1.065   6.291
 3553SOL    HW127801   6.521   1.115   6.291
 3553SOL    HW227802   6.469   0.974   6.298
 3554SOL     OW27803   3.364   2.727   0.276
 3554SOL    HW127804   3.455   2.755   0.268
 3554SOL    HW227805   3.322   2.762   0.198
 3555SOL     OW27806   6.169   3.391   0.089
 3555SOL    HW127807   6.252   3.438   0.096
 3555SOL    HW227808   6.102   3.459   0.082
 3556SOL     OW27809   2.456   3.877   0.980
 3556SOL    HW127810   2.522   3.828   0.931
 3556SOL    HW227811   2.374   3.830   0.964
 3557SOL     OW27812   3.388   1.076   0.319
 3557SOL    HW127813   3.304   1.110   0.351
 3557SOL    HW227814   3.450   1.147   0.335
 3558SOL     OW27815   5.383   1.281   1.108
 3558SOL    HW127816   5.365   1.309   1.198
 3558SOL    HW227817   5.313   1.320   1.056
 3559SOL     OW27818   3.668   2.057   0.165
 3559SOL    HW127819   3.753   2.018   0.143
 3559SOL    HW227820   3.687   2.149   0.181
 3560SOL     OW27821   4.199   4.726   0.332
 3560SOL    HW127822   4.277   4.672   0.342
 3560SOL    HW227823   4.208   4.765   0.244
 3561SOL     OW27824   1.224   5.251   1.025
 3561SOL    HW127825   1.249   5.251   1.117
 3561SOL    HW227826   1.139   5.206   1.023
 3562SOL     OW27827   3.524   4.744   7.796
 3562SOL    HW127828   3.611   4.773   7.826
 3562SOL    HW227829   3.530   4.746   7.701
 3563SOL     OW27830   2.657   5.056   0.432
 3563SOL    HW127831   2.711   5.091   0.361
 3563SOL    HW227832   2.636   4.967   0.404
 3564SOL     OW27833   2.470   0.168   6.620
 3564SOL    HW127834   2.396   0.227   6.627
 3564SOL    HW227835   2.546   0.226   6.609
 3565SOL     OW27836   3.066   3.661   5.644
 3565SOL    HW127837   3.040   3.666   5.552
 3565SOL    HW227838   3.132   3.592   5.647
 3566SOL     OW27839   1.380   5.260   6.670
 3566SOL    HW127840   1.392   5.165   6.672
 3566SOL    HW227841   1.341   5.280   6.755
 3567SOL     OW27842   1.019   4.200   1.230
 3567SOL    HW127843   0.996   4.111   1.204
 3567SOL    HW227844   1.115   4.200   1.233
 3568SOL     OW27845   3.659   4.682   6.720
 3568SOL    HW127846   3.653   4.749   6.790
 3568SOL    HW227847   3.578   4.694   6.670
 3569SOL     OW27848   2.302   5.390   6.739
 3569SOL    HW127849   2.304   5.452   6.667
 3569SOL    HW227850   2.275   5.307   6.699
 3570SOL     OW27851   1.263   2.617   6.473
 3570SOL    HW127852   1.281   2.573   6.556
 3570SOL    HW227853   1.171   2.643   6.479
 3571SOL     OW27854   2.909   4.366   7.556
 3571SOL    HW127855   2.843   4.434   7.540
 3571SOL    HW227856   2.980   4.388   7.496
 3572SOL     OW27857   3.226   5.679   7.172
 3572SOL    HW127858   3.180   5.649   7.093
 3572SOL    HW227859   3.230   5.601   7.228
 3573SOL     OW27860   0.584   5.489   6.336
 3573SOL    HW127861   0.589   5.393   6.338
 3573SOL    HW227862   0.548   5.512   6.421
 3574SOL     OW27863   5.681   5.296   1.300
 3574SOL    HW127864   5.721   5.285   1.387
 3574SOL    HW227865   5.662   5.207   1.271
 3575SOL     OW27866   3.375   3.405   7.004
 3575SOL    HW127867   3.366   3.335   7.069
 3575SOL    HW227868   3.360   3.485   7.054
 3576SOL     OW27869   1.765   6.099   7.757
 3576SOL    HW127870   1.733   6.172   7.705
 3576SOL    HW227871   1.847   6.132   7.795
 3577SOL     OW27872   3.452   5.669   0.158
 3577SOL    HW127873   3.546   5.665   0.177
 3577SOL    HW227874   3.438   5.600   0.093
 3578SOL     OW27875   5.584   0.273   1.227
 3578SOL    HW127876   5.659   0.324   1.254
 3578SOL    HW227877   5.621   0.191   1.197
 3579SOL     OW27878   4.716   2.735   1.879
 3579SOL    HW127879   4.694   2.801   1.945
 3579SOL    HW227880   4.793   2.691   1.913
 3580SOL     OW27881   1.280   1.607   1.102
 3580SOL    HW127882   1.292   1.549   1.177
 3580SOL    HW227883   1.242   1.551   1.034
 3581SOL     OW27884   4.502   0.375   0.020
 3581SOL    HW127885   4.462   0.288   0.029
 3581SOL    HW227886   4.583   0.369   0.071
 3582SOL     OW27887   1.286   6.434   6.690
 3582SOL    HW127888   1.268   6.363   6.751
 3582SOL    HW227889   1.225   6.419   6.617
 3583SOL     OW27890   3.017   1.231   7.392
 3583SOL    HW127891   3.105   1.257   7.367
 3583SOL    HW227892   2.971   1.216   7.309
 3584SOL     OW27893   0.361   1.431   0.105
 3584SOL    HW127894   0.360   1.494   0.178
 3584SOL    HW227895   0.320   1.352   0.142
 3585SOL     OW27896   5.800   5.494   0.422
 3585SOL    HW127897   5.755   5.427   0.371
 3585SOL    HW227898   5.796   5.573   0.368
 3586SOL     OW27899   1.951   5.482   7.262
 3586SOL    HW127900   1.966   5.396   7.223
 3586SOL    HW227901   1.863   5.507   7.233
 3587SOL     OW27902   6.323   3.877   0.835
 3587SOL    HW127903   6.363   3.865   0.749
 3587SOL    HW227904   6.316   3.788   0.871
 3588SOL     OW27905   0.018   2.934   1.850
 3588SOL    HW127906   0.036   2.843   1.825
 3588SOL    HW227907   0.035   2.936   1.944
 3589SOL     OW27908   4.690   4.683   0.446
 3589SOL    HW127909   4.760   4.739   0.412
 3589SOL    HW227910   4.726   4.594   0.442
 3590SOL     OW27911   5.637   2.906   0.264
 3590SOL    HW127912   5.706   2.852   0.305
 3590SOL    HW227913   5.684   2.982   0.230
 3591SOL     OW27914   0.327   6.007   7.220
 3591SOL    HW127915   0.253   5.997   7.281
 3591SOL    HW227916   0.381   5.930   7.236
 3592SOL     OW27917   3.611   0.290   0.527
 3592SOL    HW127918   3.682   0.226   0.534
 3592SOL    HW227919   3.583   0.305   0.617
 3593SOL     OW27920   5.062   4.546   1.762
 3593SOL    HW127921   5.125   4.618   1.766
 3593SOL    HW227922   5.096   4.481   1.823
 3594SOL     OW27923   4.349   3.031   0.518
 3594SOL    HW127924   4.429   3.051   0.567
 3594SOL    HW227925   4.325   2.943   0.545
 3595SOL     OW27926   0.271   6.390   1.912
 3595SOL    HW127927   0.295   6.333   1.985
 3595SOL    HW227928   0.308   6.347   1.835
 3596SOL     OW27929   1.195   4.035   0.193
 3596SOL    HW127930   1.251   4.017   0.117
 3596SOL    HW227931   1.257   4.044   0.266
 3597SOL     OW27932   5.748   2.452   5.582
 3597SOL    HW127933   5.832   2.498   5.592
 3597SOL    HW227934   5.772   2.364   5.553
 3598SOL     OW27935   3.841   5.602   0.503
 3598SOL    HW127936   3.833   5.540   0.431
 3598SOL    HW227937   3.863   5.547   0.578
 3599SOL     OW27938   6.190   1.601   0.035
 3599SOL    HW127939   6.246   1.547  -0.020
 3599SOL    HW227940   6.233   1.601   0.120
 3600SOL     OW27941   4.576   1.631   6.947
 3600SOL    HW127942   4.620   1.674   7.020
 3600SOL    HW227943   4.595   1.686   6.871
 3601SOL     OW27944   1.739   4.665   6.995
 3601SOL    HW127945   1.828   4.661   6.960
 3601SOL    HW227946   1.728   4.756   7.024
 3602SOL     OW27947   1.493   2.553   2.296
 3602SOL    HW127948   1.399   2.562   2.309
 3602SOL    HW227949   1.501   2.499   2.217
 3603SOL     OW27950   1.618   0.530   0.480
 3603SOL    HW127951   1.697   0.476   0.477
 3603SOL    HW227952   1.650   0.619   0.498
 3604SOL     OW27953   4.424   0.978   0.131
 3604SOL    HW127954   4.412   0.940   0.044
 3604SOL    HW227955   4.350   0.946   0.182
 3605SOL     OW27956   1.623   1.904   7.251
 3605SOL    HW127957   1.641   1.886   7.343
 3605SOL    HW227958   1.669   1.835   7.203
 3606SOL     OW27959   1.851   4.756   0.685
 3606SOL    HW127960   1.927   4.803   0.651
 3606SOL    HW227961   1.877   4.664   0.683
 3607SOL     OW27962   6.296   5.758   7.660
 3607SOL    HW127963   6.312   5.668   7.634
 3607SOL    HW227964   6.314   5.810   7.582
 3608SOL     OW27965   5.661   2.149   6.294
 3608SOL    HW127966   5.697   2.091   6.361
 3608SOL    HW227967   5.609   2.093   6.238
 3609SOL     OW27968   1.152   4.807   7.572
 3609SOL    HW127969   1.204   4.726   7.568
 3609SOL    HW227970   1.074   4.788   7.519
 3610SOL     OW27971   1.534   0.572   0.793
 3610SOL    HW127972   1.456   0.549   0.744
 3610SOL    HW227973   1.544   0.666   0.781
 3611SOL     OW27974   3.314   4.329   7.098
 3611SOL    HW127975   3.387   4.382   7.127
 3611SOL    HW227976   3.237   4.385   7.110
 3612SOL     OW27977   0.485   4.332   1.021
 3612SOL    HW127978   0.529   4.256   0.983
 3612SOL    HW227979   0.522   4.407   0.974
 3613SOL     OW27980   5.640   4.689   7.720
 3613SOL    HW127981   5.587   4.634   7.777
 3613SOL    HW227982   5.646   4.639   7.636
 3614SOL     OW27983   6.013   0.820   7.187
 3614SOL    HW127984   6.052   0.733   7.177
 3614SOL    HW227985   5.996   0.849   7.098
 3615SOL     OW27986   5.634   5.407   6.284
 3615SOL    HW127987   5.639   5.421   6.189
 3615SOL    HW227988   5.712   5.452   6.319
 3616SOL     OW27989   5.465   2.039   6.655
 3616SOL    HW127990   5.382   2.078   6.627
 3616SOL    HW227991   5.504   2.106   6.712
 3617SOL     OW27992   1.208   0.938   6.861
 3617SOL    HW127993   1.199   0.850   6.825
 3617SOL    HW227994   1.227   0.993   6.785
 3618SOL     OW27995   5.441   2.719   1.590
 3618SOL    HW127996   5.480   2.633   1.573
 3618SOL    HW227997   5.399   2.709   1.676
 3619SOL     OW27998   1.058   5.879   0.850
 3619SOL    HW127999   1.148   5.848   0.835
 3619SOL    HW228000   1.037   5.931   0.772
 3620SOL     OW28001   2.113   2.885   7.649
 3620SOL    HW128002   2.167   2.930   7.715
 3620SOL    HW228003   2.023   2.903   7.676
 3621SOL     OW28004   3.306   5.906   1.469
 3621SOL    HW128005   3.263   5.971   1.524
 3621SOL    HW228006   3.240   5.881   1.405
 3622SOL     OW28007   5.665   5.605   7.335
 3622SOL    HW128008   5.646   5.681   7.391
 3622SOL    HW228009   5.687   5.535   7.396
 3623SOL     OW28010   2.841   2.390   6.976
 3623SOL    HW128011   2.821   2.297   6.969
 3623SOL    HW228012   2.930   2.399   6.940
 3624SOL     OW28013   4.285   6.170   1.518
 3624SOL    HW128014   4.374   6.148   1.491
 3624SOL    HW228015   4.272   6.123   1.600
 3625SOL     OW28016   3.059   0.208   5.825
 3625SOL    HW128017   3.134   0.160   5.861
 3625SOL    HW228018   2.987   0.145   5.830
 3626SOL     OW28019   1.477   4.421   7.295
 3626SOL    HW128020   1.570   4.441   7.307
 3626SOL    HW228021   1.436   4.448   7.376
 3627SOL     OW28022   3.857   4.139   0.274
 3627SOL    HW128023   3.826   4.162   0.186
 3627SOL    HW228024   3.790   4.081   0.309
 3628SOL     OW28025   2.207   2.638   6.872
 3628SOL    HW128026   2.162   2.607   6.793
 3628SOL    HW228027   2.192   2.732   6.873
 3629SOL     OW28028   2.439   2.605   5.583
 3629SOL    HW128029   2.376   2.672   5.558
 3629SOL    HW228030   2.440   2.544   5.508
 3630SOL     OW28031   2.379   0.172   0.488
 3630SOL    HW128032   2.420   0.186   0.402
 3630SOL    HW228033   2.407   0.248   0.538
 3631SOL     OW28034   4.653   5.196   2.367
 3631SOL    HW128035   4.608   5.113   2.387
 3631SOL    HW228036   4.617   5.222   2.283
 3632SOL     OW28037   2.159   1.575   5.239
 3632SOL    HW128038   2.096   1.515   5.199
 3632SOL    HW228039   2.122   1.596   5.325
 3633SOL     OW28040   0.103   5.817   1.244
 3633SOL    HW128041   0.021   5.864   1.257
 3633SOL    HW228042   0.138   5.853   1.162
 3634SOL     OW28043   5.976   2.158   5.212
 3634SOL    HW128044   6.024   2.136   5.292
 3634SOL    HW228045   5.970   2.254   5.215
 3635SOL     OW28046   0.122   4.485   7.211
 3635SOL    HW128047   0.033   4.508   7.235
 3635SOL    HW228048   0.148   4.418   7.275
 3636SOL     OW28049   5.929   3.117   6.051
 3636SOL    HW128050   5.905   3.147   5.963
 3636SOL    HW228051   6.023   3.102   6.046
 3637SOL     OW28052   2.210   5.258   0.032
 3637SOL    HW128053   2.237   5.321  -0.035
 3637SOL    HW228054   2.115   5.260   0.030
 3638SOL     OW28055   3.378   6.158   6.186
 3638SOL    HW128056   3.397   6.115   6.269
 3638SOL    HW228057   3.283   6.151   6.177
 3639SOL     OW28058   4.723   4.153   7.072
 3639SOL    HW128059   4.659   4.161   7.142
 3639SOL    HW228060   4.801   4.116   7.114
 3640SOL     OW28061   3.021   1.567   1.965
 3640SOL    HW128062   3.081   1.600   2.032
 3640SOL    HW228063   2.939   1.551   2.012
 3641SOL     OW28064   2.388   0.682   5.903
 3641SOL    HW128065   2.431   0.674   5.817
 3641SOL    HW228066   2.432   0.756   5.944
 3642SOL     OW28067   3.717   3.624   0.064
 3642SOL    HW128068   3.785   3.633   0.131
 3642SOL    HW228069   3.699   3.714   0.035
 3643SOL     OW28070   5.606   3.170   7.186
 3643SOL    HW128071   5.670   3.239   7.170
 3643SOL    HW228072   5.532   3.214   7.229
 3644SOL     OW28073   0.159   0.130   1.257
 3644SOL    HW128074   0.230   0.084   1.302
 3644SOL    HW228075   0.196   0.153   1.172
 3645SOL     OW28076   3.778   0.976   1.074
 3645SOL    HW128077   3.691   0.961   1.040
 3645SOL    HW228078   3.765   0.985   1.169
 3646SOL     OW28079   4.608   4.592   6.977
 3646SOL    HW128080   4.700   4.594   7.003
 3646SOL    HW228081   4.575   4.680   6.998
 3647SOL     OW28082   1.278   0.187   7.207
 3647SOL    HW128083   1.189   0.160   7.231
 3647SOL    HW228084   1.269   0.223   7.118
 3648SOL     OW28085   6.095   0.814   0.351
 3648SOL    HW128086   6.101   0.848   0.440
 3648SOL    HW228087   6.043   0.879   0.303
 3649SOL     OW28088   5.415   4.319   1.768
 3649SOL    HW128089   5.433   4.413   1.771
 3649SOL    HW228090   5.473   4.281   1.834
 3650SOL     OW28091   5.700   4.476   5.990
 3650SOL    HW128092   5.744   4.402   5.948
 3650SOL    HW228093   5.630   4.436   6.042
 3651SOL     OW28094   6.143   5.710   5.641
 3651SOL    HW128095   6.198   5.788   5.639
 3651SOL    HW228096   6.138   5.685   5.733
 3652SOL     OW28097   0.440   0.097   0.243
 3652SOL    HW128098   0.434   0.011   0.200
 3652SOL    HW228099   0.503   0.083   0.314
 3653SOL     OW28100   5.880   3.738   7.156
 3653SOL    HW128101   5.795   3.695   7.154
 3653SOL    HW228102   5.943   3.668   7.138
 3654SOL     OW28103   2.268   0.508   5.597
 3654SOL    HW128104   2.356   0.518   5.633
 3654SOL    HW228105   2.251   0.592   5.553
 3655SOL     OW28106   0.353   5.258   6.509
 3655SOL    HW128107   0.342   5.164   6.494
 3655SOL    HW228108   0.285   5.280   6.573
 3656SOL     OW28109   1.503   5.566   6.377
 3656SOL    HW128110   1.515   5.558   6.282
 3656SOL    HW228111   1.584   5.530   6.414
 3657SOL     OW28112   5.600   1.270   0.074
 3657SOL    HW128113   5.562   1.347   0.116
 3657SOL    HW228114   5.569   1.196   0.126
 3658SOL     OW28115   4.231   0.492   0.090
 3658SOL    HW128116   4.314   0.483   0.044
 3658SOL    HW228117   4.169   0.524   0.024
 3659SOL     OW28118   4.237   4.299   6.976
 3659SOL    HW128119   4.332   4.310   6.988
 3659SOL    HW228120   4.219   4.338   6.891
 3660SOL     OW28121   4.623   3.488   0.832
 3660SOL    HW128122   4.561   3.443   0.775
 3660SOL    HW228123   4.581   3.489   0.918
 3661SOL     OW28124   1.169   5.767   1.581
 3661SOL    HW128125   1.189   5.741   1.671
 3661SOL    HW228126   1.077   5.792   1.583
 3662SOL     OW28127   4.411   4.736   6.219
 3662SOL    HW128128   4.470   4.753   6.292
 3662SOL    HW228129   4.415   4.815   6.166
 3663SOL     OW28130   2.187   5.684   6.653
 3663SOL    HW128131   2.130   5.638   6.715
 3663SOL    HW228132   2.174   5.777   6.674
 3664SOL     OW28133   2.105   2.410   1.804
 3664SOL    HW128134   2.043   2.469   1.762
 3664SOL    HW228135   2.060   2.379   1.882
 3665SOL     OW28136   2.182   2.693   6.454
 3665SOL    HW128137   2.124   2.657   6.521
 3665SOL    HW228138   2.253   2.629   6.447
 3666SOL     OW28139   2.780   3.788   6.309
 3666SOL    HW128140   2.773   3.877   6.274
 3666SOL    HW228141   2.825   3.798   6.392
 3667SOL     OW28142   0.016   0.154   0.218
 3667SOL    HW128143  -0.025   0.085   0.166
 3667SOL    HW228144   0.004   0.127   0.309
 3668SOL     OW28145   0.807   1.490   6.738
 3668SOL    HW128146   0.798   1.399   6.767
 3668SOL    HW228147   0.786   1.542   6.816
 3669SOL     OW28148   1.357   5.589   6.663
 3669SOL    HW128149   1.308   5.522   6.710
 3669SOL    HW228150   1.403   5.540   6.594
 3670SOL     OW28151   4.690   1.777   0.560
 3670SOL    HW128152   4.786   1.780   0.554
 3670SOL    HW228153   4.671   1.697   0.608
 3671SOL     OW28154   1.451   3.220   7.006
 3671SOL    HW128155   1.392   3.234   7.080
 3671SOL    HW228156   1.437   3.129   6.981
 3672SOL     OW28157   0.897   1.298   5.346
 3672SOL    HW128158   0.813   1.319   5.387
 3672SOL    HW228159   0.950   1.376   5.357
 3673SOL     OW28160   6.033   1.117   5.866
 3673SOL    HW128161   6.118   1.074   5.872
 3673SOL    HW228162   5.994   1.082   5.786
 3674SOL     OW28163   0.994   3.700   0.516
 3674SOL    HW128164   0.990   3.615   0.560
 3674SOL    HW228165   1.085   3.708   0.489
 3675SOL     OW28166   3.064   4.938   5.909
 3675SOL    HW128167   3.008   4.915   5.834
 3675SOL    HW228168   3.050   5.032   5.920
 3676SOL     OW28169   3.657   0.910   0.361
 3676SOL    HW128170   3.625   0.829   0.321
 3676SOL    HW228171   3.583   0.970   0.358
 3677SOL     OW28172   1.898   3.011   2.469
 3677SOL    HW128173   1.981   2.976   2.437
 3677SOL    HW228174   1.880   2.961   2.548
 3678SOL     OW28175   3.231   2.541   7.759
 3678SOL    HW128176   3.191   2.480   7.697
 3678SOL    HW228177   3.280   2.486   7.820
 3679SOL     OW28178   0.573   0.289   0.523
 3679SOL    HW128179   0.564   0.384   0.514
 3679SOL    HW228180   0.485   0.259   0.545
 3680SOL     OW28181   4.197   3.295   5.505
 3680SOL    HW128182   4.150   3.250   5.575
 3680SOL    HW228183   4.141   3.369   5.482
 3681SOL     OW28184   2.208   0.236   7.719
 3681SOL    HW128185   2.184   0.288   7.796
 3681SOL    HW228186   2.284   0.186   7.746
 3682SOL     OW28187   1.289   4.248   1.238
 3682SOL    HW128188   1.356   4.182   1.220
 3682SOL    HW228189   1.328   4.330   1.209
 3683SOL     OW28190   5.616   1.342   0.957
 3683SOL    HW128191   5.535   1.335   1.007
 3683SOL    HW228192   5.640   1.252   0.937
 3684SOL     OW28193   5.198   5.772   0.441
 3684SOL    HW128194   5.271   5.828   0.414
 3684SOL    HW228195   5.234   5.683   0.436
 3685SOL     OW28196   5.678   5.792   0.461
 3685SOL    HW128197   5.695   5.731   0.532
 3685SOL    HW228198   5.707   5.746   0.383
 3686SOL     OW28199   3.730   1.694   5.820
 3686SOL    HW128200   3.685   1.681   5.736
 3686SOL    HW228201   3.791   1.621   5.825
 3687SOL     OW28202   0.732   6.208   0.845
 3687SOL    HW128203   0.788   6.156   0.903
 3687SOL    HW228204   0.720   6.152   0.768
 3688SOL     OW28205   2.899   3.406   7.435
 3688SOL    HW128206   2.839   3.410   7.509
 3688SOL    HW228207   2.982   3.378   7.474
 3689SOL     OW28208   3.455   0.610   1.385
 3689SOL    HW128209   3.544   0.579   1.397
 3689SOL    HW228210   3.426   0.570   1.303
 3690SOL     OW28211   5.790   5.939   5.443
 3690SOL    HW128212   5.695   5.952   5.440
 3690SOL    HW228213   5.805   5.886   5.521
 3691SOL     OW28214   4.778   1.921   0.129
 3691SOL    HW128215   4.741   1.877   0.206
 3691SOL    HW228216   4.732   2.005   0.125
 3692SOL     OW28217   1.068   6.114   6.732
 3692SOL    HW128218   1.020   6.142   6.654
 3692SOL    HW228219   1.011   6.049   6.773
 3693SOL     OW28220   1.849   1.471   0.227
 3693SOL    HW128221   1.826   1.421   0.305
 3693SOL    HW228222   1.857   1.561   0.258
 3694SOL     OW28223   4.065   4.709   1.906
 3694SOL    HW128224   3.973   4.689   1.889
 3694SOL    HW228225   4.070   4.719   2.001
 3695SOL     OW28226   3.832   3.709   1.582
 3695SOL    HW128227   3.798   3.754   1.660
 3695SOL    HW228228   3.911   3.664   1.613
 3696SOL     OW28229   3.476   1.966   1.922
 3696SOL    HW128230   3.518   2.051   1.911
 3696SOL    HW228231   3.520   1.927   1.998
 3697SOL     OW28232   1.599   2.536   6.619
 3697SOL    HW128233   1.539   2.471   6.656
 3697SOL    HW228234   1.677   2.485   6.595
 3698SOL     OW28235   0.760   4.851   6.671
 3698SOL    HW128236   0.710   4.889   6.598
 3698SOL    HW228237   0.723   4.892   6.749
 3699SOL     OW28238   1.878   2.817   0.793
 3699SOL    HW128239   1.858   2.905   0.824
 3699SOL    HW228240   1.952   2.789   0.847
 3700SOL     OW28241   1.489   2.309   0.783
 3700SOL    HW128242   1.435   2.375   0.739
 3700SOL    HW228243   1.451   2.225   0.756
 3701SOL     OW28244   6.418   5.647   5.867
 3701SOL    HW128245   6.469   5.631   5.947
 3701SOL    HW228246   6.327   5.640   5.896
 3702SOL     OW28247   1.710   4.763   1.769
 3702SOL    HW128248   1.646   4.726   1.708
 3702SOL    HW228249   1.789   4.710   1.756
 3703SOL     OW28250   5.635   1.822   5.182
 3703SOL    HW128251   5.679   1.738   5.193
 3703SOL    HW228252   5.704   1.883   5.157
 3704SOL     OW28253   5.986   0.915   6.916
 3704SOL    HW128254   5.920   0.849   6.894
 3704SOL    HW228255   5.973   0.985   6.853
 3705SOL     OW28256   0.691   2.711   1.521
 3705SOL    HW128257   0.640   2.638   1.555
 3705SOL    HW228258   0.763   2.721   1.583
 3706SOL     OW28259   2.814   4.035   6.214
 3706SOL    HW128260   2.833   4.112   6.267
 3706SOL    HW228261   2.806   4.068   6.125
 3707SOL     OW28262   3.131   4.221   6.406
 3707SOL    HW128263   3.213   4.266   6.423
 3707SOL    HW228264   3.154   4.151   6.345
 3708SOL     OW28265   1.935   4.636   1.730
 3708SOL    HW128266   1.977   4.578   1.667
 3708SOL    HW228267   1.983   4.623   1.811
 3709SOL     OW28268   3.445   5.064   5.094
 3709SOL    HW128269   3.415   4.993   5.037
 3709SOL    HW228270   3.439   5.027   5.182
 3710SOL     OW28271   0.704   3.318   7.040
 3710SOL    HW128272   0.731   3.404   7.071
 3710SOL    HW228273   0.610   3.316   7.055
 3711SOL     OW28274   5.790   2.556   6.541
 3711SOL    HW128275   5.835   2.483   6.583
 3711SOL    HW228276   5.715   2.516   6.496
 3712SOL     OW28277   4.217   0.673   6.508
 3712SOL    HW128278   4.224   0.598   6.566
 3712SOL    HW228279   4.246   0.748   6.561
 3713SOL     OW28280   3.012   0.492   0.938
 3713SOL    HW128281   2.963   0.478   0.858
 3713SOL    HW228282   3.085   0.430   0.933
 3714SOL     OW28283   0.169   1.791   6.551
 3714SOL    HW128284   0.190   1.710   6.505
 3714SOL    HW228285   0.109   1.838   6.494
 3715SOL     OW28286   4.331   5.431   1.076
 3715SOL    HW128287   4.314   5.518   1.113
 3715SOL    HW228288   4.409   5.401   1.122
 3716SOL     OW28289   3.273   1.895   5.877
 3716SOL    HW128290   3.195   1.937   5.912
 3716SOL    HW228291   3.239   1.816   5.833
 3717SOL     OW28292   5.248   5.499   1.759
 3717SOL    HW128293   5.260   5.583   1.803
 3717SOL    HW228294   5.311   5.440   1.801
 3718SOL     OW28295   4.265   3.857   7.298
 3718SOL    HW128296   4.178   3.836   7.266
 3718SOL    HW228297   4.292   3.933   7.246
 3719SOL     OW28298   3.918   0.958   7.657
 3719SOL    HW128299   3.997   0.967   7.605
 3719SOL    HW228300   3.946   0.978   7.748
 3720SOL     OW28301   6.024   1.407   0.390
 3720SOL    HW128302   6.034   1.501   0.405
 3720SOL    HW228303   5.946   1.401   0.335
 3721SOL     OW28304   3.248   2.794   0.035
 3721SOL    HW128305   3.183   2.834  -0.023
 3721SOL    HW228306   3.234   2.700   0.025
 3722SOL     OW28307   3.372   4.514   0.030
 3722SOL    HW128308   3.398   4.604   0.011
 3722SOL    HW228309   3.297   4.522   0.089
 3723SOL     OW28310   2.992   5.369   7.168
 3723SOL    HW128311   3.006   5.323   7.251
 3723SOL    HW228312   2.931   5.440   7.190
 3724SOL     OW28313   5.775   5.900   6.098
 3724SOL    HW128314   5.844   5.835   6.111
 3724SOL    HW228315   5.694   5.849   6.092
 3725SOL     OW28316   4.913   0.995   1.479
 3725SOL    HW128317   4.835   1.011   1.425
 3725SOL    HW228318   4.904   0.903   1.507
 3726SOL     OW28319   3.094   1.062   0.053
 3726SOL    HW128320   3.107   1.092   0.143
 3726SOL    HW228321   3.147   0.982   0.046
 3727SOL     OW28322   3.079   6.380   6.885
 3727SOL    HW128323   3.050   6.458   6.932
 3727SOL    HW228324   3.113   6.413   6.802
 3728SOL     OW28325   3.006   1.314   0.345
 3728SOL    HW128326   2.952   1.347   0.416
 3728SOL    HW228327   3.044   1.233   0.379
 3729SOL     OW28328   1.736   2.777   7.335
 3729SOL    HW128329   1.669   2.757   7.270
 3729SOL    HW228330   1.687   2.807   7.412
 3730SOL     OW28331   1.957   6.319   1.185
 3730SOL    HW128332   1.878   6.269   1.163
 3730SOL    HW228333   2.027   6.253   1.188
 3731SOL     OW28334   1.084   2.510   1.159
 3731SOL    HW128335   1.116   2.428   1.195
 3731SOL    HW228336   1.028   2.547   1.227
 3732SOL     OW28337   2.439   1.317   0.541
 3732SOL    HW128338   2.353   1.330   0.502
 3732SOL    HW228339   2.498   1.371   0.490
 3733SOL     OW28340   1.976   0.702   0.683
 3733SOL    HW128341   1.988   0.792   0.710
 3733SOL    HW228342   2.060   0.677   0.645
 3734SOL     OW28343   1.049   5.898   2.007
 3734SOL    HW128344   0.991   5.974   1.996
 3734SOL    HW228345   0.989   5.824   2.017
 3735SOL     OW28346   1.821   0.037   1.917
 3735SOL    HW128347   1.866   0.059   1.998
 3735SOL    HW228348   1.825  -0.058   1.911
 3736SOL     OW28349   3.210   2.562   1.235
 3736SOL    HW128350   3.247   2.650   1.237
 3736SOL    HW228351   3.276   2.507   1.277
 3737SOL     OW28352   4.051   1.664   7.453
 3737SOL    HW128353   4.004   1.635   7.531
 3737SOL    HW228354   4.044   1.590   7.392
 3738SOL     OW28355   6.359   1.283   5.625
 3738SOL    HW128356   6.437   1.286   5.571
 3738SOL    HW228357   6.391   1.278   5.715
 3739SOL     OW28358   2.322   4.943   0.851
 3739SOL    HW128359   2.300   4.982   0.936
 3739SOL    HW228360   2.351   4.855   0.871
 3740SOL     OW28361   2.342   3.546   2.057
 3740SOL    HW128362   2.379   3.534   2.145
 3740SOL    HW228363   2.248   3.551   2.072
 3741SOL     OW28364   2.789   5.432   0.627
 3741SOL    HW128365   2.864   5.418   0.569
 3741SOL    HW228366   2.823   5.413   0.715
 3742SOL     OW28367   0.740   0.200   6.161
 3742SOL    HW128368   0.693   0.260   6.219
 3742SOL    HW228369   0.711   0.225   6.073
 3743SOL     OW28370   4.520   1.960   7.414
 3743SOL    HW128371   4.541   2.052   7.430
 3743SOL    HW228372   4.604   1.915   7.416
 3744SOL     OW28373   1.656   1.652   6.501
 3744SOL    HW128374   1.614   1.651   6.415
 3744SOL    HW228375   1.591   1.612   6.560
 3745SOL     OW28376   4.339   4.126   7.787
 3745SOL    HW128377   4.402   4.100   7.854
 3745SOL    HW228378   4.258   4.080   7.810
 3746SOL     OW28379   6.211   5.513   7.284
 3746SOL    HW128380   6.155   5.584   7.314
 3746SOL    HW228381   6.156   5.435   7.287
 3747SOL     OW28382   2.162   4.221   7.674
 3747SOL    HW128383   2.088   4.165   7.695
 3747SOL    HW228384   2.158   4.237   7.580
 3748SOL     OW28385   5.944   1.176   6.782
 3748SOL    HW128386   5.947   1.195   6.688
 3748SOL    HW228387   5.857   1.203   6.809
 3749SOL     OW28388   3.131   3.444   7.623
 3749SOL    HW128389   3.126   3.398   7.708
 3749SOL    HW228390   3.090   3.529   7.640
 3750SOL     OW28391   2.228   5.447   6.454
 3750SOL    HW128392   2.163   5.509   6.486
 3750SOL    HW228393   2.243   5.472   6.363
 3751SOL     OW28394   6.169   4.919   6.684
 3751SOL    HW128395   6.242   4.921   6.622
 3751SOL    HW228396   6.209   4.893   6.767
 3752SOL     OW28397   2.584   5.291   6.841
 3752SOL    HW128398   2.489   5.297   6.832
 3752SOL    HW228399   2.605   5.200   6.820
 3753SOL     OW28400   0.561   0.861   0.813
 3753SOL    HW128401   0.611   0.857   0.731
 3753SOL    HW228402   0.498   0.789   0.807
 3754SOL     OW28403   3.521   3.179   1.322
 3754SOL    HW128404   3.599   3.167   1.376
 3754SOL    HW228405   3.449   3.185   1.385
 3755SOL     OW28406   1.157   0.689   6.189
 3755SOL    HW128407   1.249   0.706   6.209
 3755SOL    HW228408   1.142   0.599   6.218
 3756SOL     OW28409   5.999   5.775   2.275
 3756SOL    HW128410   6.002   5.865   2.240
 3756SOL    HW228411   5.909   5.764   2.305
 3757SOL     OW28412   2.253   6.191   0.807
 3757SOL    HW128413   2.165   6.153   0.808
 3757SOL    HW228414   2.312   6.116   0.814
 3758SOL     OW28415   2.375   0.756   6.730
 3758SOL    HW128416   2.319   0.730   6.657
 3758SOL    HW228417   2.326   0.827   6.773
 3759SOL     OW28418   1.104   1.328   0.309
 3759SOL    HW128419   1.054   1.289   0.237
 3759SOL    HW228420   1.194   1.329   0.278
 3760SOL     OW28421   5.244   3.140   1.184
 3760SOL    HW128422   5.260   3.235   1.184
 3760SOL    HW228423   5.297   3.107   1.112
 3761SOL     OW28424   0.895   3.300   0.963
 3761SOL    HW128425   0.949   3.229   0.928
 3761SOL    HW228426   0.950   3.341   1.030
 3762SOL     OW28427   6.273   0.202   7.045
 3762SOL    HW128428   6.362   0.171   7.062
 3762SOL    HW228429   6.272   0.223   6.951
 3763SOL     OW28430   4.862   4.668   1.296
 3763SOL    HW128431   4.911   4.666   1.214
 3763SOL    HW228432   4.900   4.740   1.346
 3764SOL     OW28433   6.107   2.105   6.269
 3764SOL    HW128434   6.098   2.093   6.364
 3764SOL    HW228435   6.033   2.160   6.244
 3765SOL     OW28436   4.008   3.139   5.657
 3765SOL    HW128437   3.963   3.219   5.630
 3765SOL    HW228438   3.937   3.076   5.673
 3766SOL     OW28439   0.917   1.233   5.752
 3766SOL    HW128440   0.962   1.150   5.736
 3766SOL    HW228441   0.824   1.210   5.751
 3767SOL     OW28442   6.406   2.062   6.731
 3767SOL    HW128443   6.405   2.035   6.823
 3767SOL    HW228444   6.456   2.144   6.731
 3768SOL     OW28445   6.096   4.520   5.983
 3768SOL    HW128446   6.140   4.533   6.067
 3768SOL    HW228447   6.054   4.435   5.991
 3769SOL     OW28448   3.591   0.571   6.132
 3769SOL    HW128449   3.512   0.557   6.080
 3769SOL    HW228450   3.658   0.596   6.069
 3770SOL     OW28451   0.384   6.428   6.892
 3770SOL    HW128452   0.357   6.344   6.927
 3770SOL    HW228453   0.463   6.451   6.941
 3771SOL     OW28454   2.352   6.002   0.058
 3771SOL    HW128455   2.347   6.068  -0.011
 3771SOL    HW228456   2.431   5.952   0.038
 3772SOL     OW28457   5.513   4.358   6.196
 3772SOL    HW128458   5.424   4.392   6.186
 3772SOL    HW228459   5.516   4.283   6.137
 3773SOL     OW28460   1.429   4.875   0.013
 3773SOL    HW128461   1.402   4.948  -0.043
 3773SOL    HW228462   1.356   4.864   0.074
 3774SOL     OW28463   5.255   6.314   1.337
 3774SOL    HW128464   5.289   6.329   1.249
 3774SOL    HW228465   5.172   6.267   1.323
 3775SOL     OW28466   1.703   2.467   0.878
 3775SOL    HW128467   1.763   2.405   0.918
 3775SOL    HW228468   1.641   2.412   0.830
 3776SOL     OW28469   4.478   2.859   7.420
 3776SOL    HW128470   4.402   2.800   7.419
 3776SOL    HW228471   4.444   2.943   7.389
 3777SOL     OW28472   4.348   2.002   5.325
 3777SOL    HW128473   4.276   1.946   5.354
 3777SOL    HW228474   4.311   2.056   5.256
 3778SOL     OW28475   2.023   0.830   5.019
 3778SOL    HW128476   2.084   0.837   4.946
 3778SOL    HW228477   2.080   0.814   5.095
 3779SOL     OW28478   2.421   3.930   0.258
 3779SOL    HW128479   2.457   3.897   0.176
 3779SOL    HW228480   2.480   3.898   0.326
 3780SOL     OW28481   1.200   4.261   6.903
 3780SOL    HW128482   1.178   4.332   6.963
 3780SOL    HW228483   1.209   4.303   6.818
 3781SOL     OW28484   2.532   1.632   1.218
 3781SOL    HW128485   2.467   1.634   1.147
 3781SOL    HW228486   2.566   1.721   1.222
 3782SOL     OW28487   2.502   1.599   5.462
 3782SOL    HW128488   2.452   1.589   5.543
 3782SOL    HW228489   2.539   1.687   5.468
 3783SOL     OW28490   2.845   0.851   0.972
 3783SOL    HW128491   2.884   0.938   0.982
 3783SOL    HW228492   2.845   0.835   0.877
 3784SOL     OW28493   6.127   5.818   7.217
 3784SOL    HW128494   6.144   5.802   7.124
 3784SOL    HW228495   6.038   5.855   7.218
 3785SOL     OW28496   3.181   5.454   6.416
 3785SOL    HW128497   3.193   5.471   6.510
 3785SOL    HW228498   3.263   5.482   6.376
 3786SOL     OW28499   3.178   4.825   5.557
 3786SOL    HW128500   3.249   4.826   5.621
 3786SOL    HW228501   3.132   4.742   5.573
 3787SOL     OW28502   5.318   1.851   5.963
 3787SOL    HW128503   5.316   1.846   6.058
 3787SOL    HW228504   5.228   1.836   5.936
 3788SOL     OW28505   2.703   2.140   2.258
 3788SOL    HW128506   2.624   2.188   2.233
 3788SOL    HW228507   2.706   2.145   2.353
 3789SOL     OW28508   1.758   4.684   2.018
 3789SOL    HW128509   1.850   4.660   2.007
 3789SOL    HW228510   1.727   4.701   1.929
 3790SOL     OW28511   4.626   3.692   0.456
 3790SOL    HW128512   4.574   3.639   0.396
 3790SOL    HW228513   4.686   3.630   0.497
 3791SOL     OW28514   2.656   4.362   6.785
 3791SOL    HW128515   2.611   4.433   6.831
 3791SOL    HW228516   2.624   4.282   6.828
 3792SOL     OW28517   3.270   4.712   0.254
 3792SOL    HW128518   3.361   4.682   0.259
 3792SOL    HW228519   3.222   4.653   0.312
 3793SOL     OW28520   0.943   0.349   0.628
 3793SOL    HW128521   0.926   0.307   0.543
 3793SOL    HW228522   0.957   0.276   0.689
 3794SOL     OW28523   4.260   1.798   6.235
 3794SOL    HW128524   4.312   1.726   6.271
 3794SOL    HW228525   4.310   1.876   6.258
 3795SOL     OW28526   1.361   2.077   0.719
 3795SOL    HW128527   1.413   1.999   0.702
 3795SOL    HW228528   1.318   2.059   0.803
 3796SOL     OW28529   5.860   4.673   7.084
 3796SOL    HW128530   5.828   4.686   6.994
 3796SOL    HW228531   5.931   4.610   7.075
 3797SOL     OW28532   2.315   1.350   0.851
 3797SOL    HW128533   2.304   1.255   0.841
 3797SOL    HW228534   2.360   1.360   0.934
 3798SOL     OW28535   2.017   2.846   1.741
 3798SOL    HW128536   1.947   2.780   1.737
 3798SOL    HW228537   1.984   2.913   1.801
 3799SOL     OW28538   4.233   4.923   0.523
 3799SOL    HW128539   4.216   4.845   0.472
 3799SOL    HW228540   4.320   4.909   0.560
 3800SOL     OW28541   1.678   5.226   7.736
 3800SOL    HW128542   1.710   5.315   7.750
 3800SOL    HW228543   1.587   5.229   7.766
 3801SOL     OW28544   0.719   2.276   0.689
 3801SOL    HW128545   0.676   2.344   0.740
 3801SOL    HW228546   0.676   2.195   0.716
 3802SOL     OW28547   5.843   2.670   7.150
 3802SOL    HW128548   5.752   2.642   7.144
 3802SOL    HW228549   5.891   2.592   7.179
 3803SOL     OW28550   3.265   3.740   6.736
 3803SOL    HW128551   3.351   3.782   6.727
 3803SOL    HW228552   3.202   3.809   6.717
 3804SOL     OW28553   1.031   3.427   7.057
 3804SOL    HW128554   0.968   3.498   7.042
 3804SOL    HW228555   1.080   3.421   6.975
 3805SOL     OW28556   4.505   4.340   6.960
 3805SOL    HW128557   4.536   4.430   6.955
 3805SOL    HW228558   4.583   4.287   6.948
 3806SOL     OW28559   4.887   1.507   5.853
 3806SOL    HW128560   4.808   1.493   5.904
 3806SOL    HW228561   4.948   1.548   5.913
 3807SOL     OW28562   4.529   5.474   0.563
 3807SOL    HW128563   4.483   5.422   0.629
 3807SOL    HW228564   4.519   5.564   0.592
 3808SOL     OW28565   4.185   2.766   0.318
 3808SOL    HW128566   4.102   2.720   0.303
 3808SOL    HW228567   4.204   2.808   0.234
 3809SOL     OW28568   3.644   3.791   7.304
 3809SOL    HW128569   3.578   3.730   7.337
 3809SOL    HW228570   3.713   3.735   7.269
 3810SOL     OW28571   0.912   0.021   0.153
 3810SOL    HW128572   0.980   0.066   0.203
 3810SOL    HW228573   0.870   0.091   0.102
 3811SOL     OW28574   4.821   5.015   0.658
 3811SOL    HW128575   4.890   5.077   0.680
 3811SOL    HW228576   4.845   4.982   0.571
 3812SOL     OW28577   5.719   4.964   7.799
 3812SOL    HW128578   5.699   4.870   7.803
 3812SOL    HW228579   5.812   4.967   7.776
 3813SOL     OW28580   5.151   0.646   7.373
 3813SOL    HW128581   5.157   0.558   7.334
 3813SOL    HW228582   5.057   0.659   7.386
 3814SOL     OW28583   5.612   4.531   0.435
 3814SOL    HW128584   5.590   4.454   0.382
 3814SOL    HW228585   5.702   4.514   0.465
 3815SOL     OW28586   2.320   0.718   1.521
 3815SOL    HW128587   2.264   0.699   1.596
 3815SOL    HW228588   2.274   0.788   1.474
 3816SOL     OW28589   6.204   4.798   0.093
 3816SOL    HW128590   6.205   4.873   0.153
 3816SOL    HW228591   6.287   4.754   0.109
 3817SOL     OW28592   3.779   4.763   7.153
 3817SOL    HW128593   3.809   4.849   7.125
 3817SOL    HW228594   3.712   4.739   7.089
 3818SOL     OW28595   3.994   4.436   7.256
 3818SOL    HW128596   4.050   4.361   7.237
 3818SOL    HW228597   4.040   4.510   7.215
 3819SOL     OW28598   1.561   0.586   6.873
 3819SOL    HW128599   1.492   0.561   6.811
 3819SOL    HW228600   1.524   0.567   6.959
 3820SOL     OW28601   0.469   3.932   6.821
 3820SOL    HW128602   0.516   4.006   6.782
 3820SOL    HW228603   0.377   3.958   6.821
 3821SOL     OW28604   3.748   3.819   6.535
 3821SOL    HW128605   3.780   3.875   6.464
 3821SOL    HW228606   3.803   3.843   6.610
 3822SOL     OW28607   5.640   6.300   0.435
 3822SOL    HW128608   5.611   6.221   0.388
 3822SOL    HW228609   5.601   6.291   0.521
 3823SOL     OW28610   1.901   2.358   7.399
 3823SOL    HW128611   1.934   2.328   7.315
 3823SOL    HW228612   1.807   2.343   7.394
 3824SOL     OW28613   2.827   5.160   0.254
 3824SOL    HW128614   2.922   5.171   0.256
 3824SOL    HW228615   2.793   5.248   0.273
 3825SOL     OW28616   5.060   5.477   0.019
 3825SOL    HW128617   5.145   5.443  -0.008
 3825SOL    HW228618   5.071   5.500   0.111
 3826SOL     OW28619   5.020   3.450   1.443
 3826SOL    HW128620   5.060   3.498   1.515
 3826SOL    HW228621   5.087   3.446   1.375
 3827SOL     OW28622   0.461   3.409   0.917
 3827SOL    HW128623   0.536   3.356   0.943
 3827SOL    HW228624   0.410   3.419   0.998
 3828SOL     OW28625   0.210   5.420   7.063
 3828SOL    HW128626   0.253   5.505   7.051
 3828SOL    HW228627   0.280   5.363   7.096
 3829SOL     OW28628   1.327   4.254   7.624
 3829SOL    HW128629   1.305   4.252   7.719
 3829SOL    HW228630   1.340   4.346   7.603
 3830SOL     OW28631   0.113   3.175   1.157
 3830SOL    HW128632   0.133   3.083   1.142
 3830SOL    HW228633   0.044   3.195   1.094
 3831SOL     OW28634   1.486   5.934   7.717
 3831SOL    HW128635   1.477   5.895   7.803
 3831SOL    HW228636   1.454   6.024   7.727
 3832SOL     OW28637   5.216   0.356   0.926
 3832SOL    HW128638   5.270   0.434   0.929
 3832SOL    HW228639   5.249   0.301   0.997
 3833SOL     OW28640   2.605   0.753   6.566
 3833SOL    HW128641   2.655   0.691   6.619
 3833SOL    HW228642   2.526   0.770   6.616
 3834SOL     OW28643   5.650   5.356   7.568
 3834SOL    HW128644   5.737   5.340   7.532
 3834SOL    HW228645   5.642   5.294   7.640
 3835SOL     OW28646   5.888   5.281   7.426
 3835SOL    HW128647   5.925   5.197   7.451
 3835SOL    HW228648   5.946   5.346   7.467
 3836SOL     OW28649   3.830   2.560   0.934
 3836SOL    HW128650   3.901   2.531   0.877
 3836SOL    HW228651   3.785   2.480   0.960
 3837SOL     OW28652   1.067   4.357   6.600
 3837SOL    HW128653   1.075   4.444   6.639
 3837SOL    HW228654   1.148   4.347   6.549
 3838SOL     OW28655   4.678   2.254   1.180
 3838SOL    HW128656   4.671   2.266   1.274
 3838SOL    HW228657   4.608   2.307   1.143
 3839SOL     OW28658   6.199   2.503   6.740
 3839SOL    HW128659   6.203   2.579   6.797
 3839SOL    HW228660   6.130   2.448   6.777
 3840SOL     OW28661   1.105   0.150   7.591
 3840SOL    HW128662   1.130   0.121   7.503
 3840SOL    HW228663   1.188   0.170   7.634
 3841SOL     OW28664   3.600   0.254   1.295
 3841SOL    HW128665   3.642   0.222   1.374
 3841SOL    HW228666   3.510   0.271   1.321
 3842SOL     OW28667   6.431   3.061   1.514
 3842SOL    HW128668   6.339   3.079   1.493
 3842SOL    HW228669   6.456   2.991   1.453
 3843SOL     OW28670   2.781   5.609   6.464
 3843SOL    HW128671   2.738   5.630   6.547
 3843SOL    HW228672   2.738   5.666   6.400
 3844SOL     OW28673   1.913   4.235   0.313
 3844SOL    HW128674   1.842   4.177   0.286
 3844SOL    HW228675   1.871   4.321   0.321
 3845SOL     OW28676   5.593   5.369   0.064
 3845SOL    HW128677   5.528   5.404   0.003
 3845SOL    HW228678   5.543   5.350   0.143
 3846SOL     OW28679   5.663   0.500   1.883
 3846SOL    HW128680   5.737   0.530   1.935
 3846SOL    HW228681   5.597   0.475   1.948
 3847SOL     OW28682  -0.002   4.282   0.485
 3847SOL    HW128683   0.002   4.220   0.411
 3847SOL    HW228684   0.085   4.277   0.523
 3848SOL     OW28685   4.056   3.411   1.357
 3848SOL    HW128686   3.963   3.434   1.354
 3848SOL    HW228687   4.075   3.403   1.451
 3849SOL     OW28688   5.155   4.463   6.494
 3849SOL    HW128689   5.089   4.440   6.560
 3849SOL    HW228690   5.105   4.485   6.416
 3850SOL     OW28691   0.314   2.031   1.412
 3850SOL    HW128692   0.392   2.085   1.407
 3850SOL    HW228693   0.337   1.961   1.474
 3851SOL     OW28694   4.950   1.858   6.721
 3851SOL    HW128695   4.945   1.911   6.800
 3851SOL    HW228696   4.858   1.835   6.702
 3852SOL     OW28697   4.416   3.009   1.026
 3852SOL    HW128698   4.450   3.054   1.103
 3852SOL    HW228699   4.322   3.003   1.041
 3853SOL     OW28700   2.374   2.021   1.671
 3853SOL    HW128701   2.456   2.048   1.630
 3853SOL    HW228702   2.385   2.043   1.764
 3854SOL     OW28703   2.576   4.260   6.059
 3854SOL    HW128704   2.647   4.226   6.005
 3854SOL    HW228705   2.498   4.252   6.004
 3855SOL     OW28706   2.617   4.473   7.605
 3855SOL    HW128707   2.591   4.559   7.570
 3855SOL    HW228708   2.563   4.411   7.556
 3856SOL     OW28709   4.464   5.306   6.916
 3856SOL    HW128710   4.557   5.297   6.934
 3856SOL    HW228711   4.425   5.327   7.001
 3857SOL     OW28712   6.043   4.268   0.179
 3857SOL    HW128713   6.083   4.345   0.139
 3857SOL    HW228714   6.101   4.245   0.251
 3858SOL     OW28715   4.343   0.483   1.094
 3858SOL    HW128716   4.252   0.454   1.099
 3858SOL    HW228717   4.382   0.429   1.026
 3859SOL     OW28718   1.619   5.533   6.835
 3859SOL    HW128719   1.636   5.501   6.747
 3859SOL    HW228720   1.700   5.514   6.883
 3860SOL     OW28721   2.241   1.153   6.283
 3860SOL    HW128722   2.147   1.136   6.270
 3860SOL    HW228723   2.253   1.148   6.378
 3861SOL     OW28724   3.451   0.289   7.419
 3861SOL    HW128725   3.414   0.329   7.340
 3861SOL    HW228726   3.543   0.274   7.398
 3862SOL     OW28727   5.938   6.358   0.155
 3862SOL    HW128728   5.955   6.307   0.076
 3862SOL    HW228729   5.952   6.296   0.227
 3863SOL     OW28730   0.262   5.875   0.477
 3863SOL    HW128731   0.177   5.906   0.449
 3863SOL    HW228732   0.290   5.938   0.543
 3864SOL     OW28733   1.582   3.402   1.930
 3864SOL    HW128734   1.588   3.363   2.017
 3864SOL    HW228735   1.655   3.464   1.927
 3865SOL     OW28736   4.299   0.422   0.624
 3865SOL    HW128737   4.330   0.435   0.534
 3865SOL    HW228738   4.282   0.511   0.656
 3866SOL     OW28739   0.367   6.062   5.771
 3866SOL    HW128740   0.338   6.152   5.753
 3866SOL    HW228741   0.304   6.030   5.836
 3867SOL     OW28742   1.506   5.817   6.704
 3867SOL    HW128743   1.456   5.742   6.674
 3867SOL    HW228744   1.578   5.780   6.756
 3868SOL     OW28745   2.421   0.203   5.385
 3868SOL    HW128746   2.410   0.108   5.366
 3868SOL    HW228747   2.356   0.245   5.330
 3869SOL     OW28748   4.044   4.028   0.551
 3869SOL    HW128749   4.026   4.013   0.644
 3869SOL    HW228750   4.047   4.123   0.542
 3870SOL     OW28751   6.175   3.283   1.423
 3870SOL    HW128752   6.140   3.194   1.425
 3870SOL    HW228753   6.172   3.313   1.514
 3871SOL     OW28754   2.376   1.758   6.482
 3871SOL    HW128755   2.331   1.817   6.542
 3871SOL    HW228756   2.386   1.808   6.402
 3872SOL     OW28757   4.540   0.696   1.146
 3872SOL    HW128758   4.489   0.629   1.100
 3872SOL    HW228759   4.505   0.779   1.114
 3873SOL     OW28760   2.959   5.893   6.307
 3873SOL    HW128761   2.990   5.802   6.306
 3873SOL    HW228762   2.864   5.887   6.306
 3874SOL     OW28763   0.704   1.188   6.561
 3874SOL    HW128764   0.716   1.282   6.546
 3874SOL    HW228765   0.609   1.176   6.562
 3875SOL     OW28766   5.663   5.914   1.303
 3875SOL    HW128767   5.610   5.860   1.244
 3875SOL    HW228768   5.609   5.991   1.320
 3876SOL     OW28769   6.402   1.873   7.370
 3876SOL    HW128770   6.434   1.792   7.410
 3876SOL    HW228771   6.480   1.928   7.360
 3877SOL     OW28772   0.013   1.896   7.028
 3877SOL    HW128773  -0.014   1.988   7.023
 3877SOL    HW228774  -0.063   1.851   7.063
 3878SOL     OW28775   6.274   3.696   1.223
 3878SOL    HW128776   6.245   3.677   1.312
 3878SOL    HW228777   6.228   3.777   1.200
 3879SOL     OW28778   0.942   5.560   1.190
 3879SOL    HW128779   0.920   5.606   1.109
 3879SOL    HW228780   0.890   5.480   1.188
 3880SOL     OW28781   3.725   6.097   0.685
 3880SOL    HW128782   3.804   6.133   0.725
 3880SOL    HW228783   3.749   6.008   0.660
 3881SOL     OW28784   5.248   3.295   6.657
 3881SOL    HW128785   5.334   3.335   6.673
 3881SOL    HW228786   5.186   3.353   6.701
 3882SOL     OW28787   2.159   0.822   7.320
 3882SOL    HW128788   2.172   0.916   7.333
 3882SOL    HW228789   2.205   0.804   7.238
 3883SOL     OW28790   0.570   1.251   0.765
 3883SOL    HW128791   0.666   1.248   0.771
 3883SOL    HW228792   0.548   1.341   0.787
 3884SOL     OW28793   0.722   0.682   5.508
 3884SOL    HW128794   0.804   0.700   5.462
 3884SOL    HW228795   0.729   0.734   5.589
 3885SOL     OW28796   1.778   2.914   1.538
 3885SOL    HW128797   1.788   2.829   1.497
 3885SOL    HW228798   1.727   2.897   1.618
 3886SOL     OW28799   6.036   5.542   0.518
 3886SOL    HW128800   5.944   5.520   0.502
 3886SOL    HW228801   6.042   5.546   0.614
 3887SOL     OW28802   0.930   0.689   4.707
 3887SOL    HW128803   0.995   0.731   4.650
 3887SOL    HW228804   0.865   0.757   4.725
 3888SOL     OW28805   6.204   5.103   6.987
 3888SOL    HW128806   6.125   5.109   6.934
 3888SOL    HW228807   6.246   5.022   6.959
 3889SOL     OW28808   4.925   4.233   6.264
 3889SOL    HW128809   4.873   4.183   6.327
 3889SOL    HW228810   4.994   4.172   6.237
 3890SOL     OW28811   3.459   4.125   6.753
 3890SOL    HW128812   3.373   4.153   6.785
 3890SOL    HW228813   3.498   4.204   6.715
 3891SOL     OW28814   4.278   0.511   6.890
 3891SOL    HW128815   4.319   0.452   6.954
 3891SOL    HW228816   4.184   0.498   6.904
 3892SOL     OW28817   0.083   2.936   2.117
 3892SOL    HW128818   0.111   2.844   2.116
 3892SOL    HW228819   0.138   2.977   2.185
 3893SOL     OW28820   0.804   4.336   6.620
 3893SOL    HW128821   0.897   4.312   6.615
 3893SOL    HW228822   0.804   4.432   6.618
 3894SOL     OW28823   1.859   4.192   6.636
 3894SOL    HW128824   1.848   4.128   6.707
 3894SOL    HW228825   1.791   4.170   6.573
 3895SOL     OW28826   4.998   1.739   6.355
 3895SOL    HW128827   5.075   1.743   6.412
 3895SOL    HW228828   4.963   1.828   6.358
 3896SOL     OW28829   4.762   3.172   1.000
 3896SOL    HW128830   4.795   3.089   0.967
 3896SOL    HW228831   4.822   3.238   0.964
 3897SOL     OW28832   6.314   3.984   6.252
 3897SOL    HW128833   6.303   3.985   6.157
 3897SOL    HW228834   6.372   3.910   6.269
 3898SOL     OW28835   0.715   5.070   6.499
 3898SOL    HW128836   0.734   5.134   6.568
 3898SOL    HW228837   0.626   5.092   6.471
 3899SOL     OW28838   2.238   6.152   7.328
 3899SOL    HW128839   2.265   6.068   7.291
 3899SOL    HW228840   2.162   6.178   7.275
 3900SOL     OW28841   6.125   0.226   0.007
 3900SOL    HW128842   6.183   0.168   0.056
 3900SOL    HW228843   6.036   0.200   0.033
 3901SOL     OW28844   1.335   4.949   1.858
 3901SOL    HW128845   1.254   4.993   1.883
 3901SOL    HW228846   1.334   4.867   1.908
 3902SOL     OW28847   5.279   0.545   0.710
 3902SOL    HW128848   5.271   0.450   0.718
 3902SOL    HW228849   5.373   0.561   0.710
 3903SOL     OW28850   1.141   3.402   7.431
 3903SOL    HW128851   1.173   3.445   7.352
 3903SOL    HW228852   1.065   3.350   7.402
 3904SOL     OW28853   2.142   0.340   0.603
 3904SOL    HW128854   2.230   0.378   0.599
 3904SOL    HW228855   2.086   0.403   0.558
 3905SOL     OW28856   5.606   5.040   0.614
 3905SOL    HW128857   5.547   4.967   0.601
 3905SOL    HW228858   5.690   5.009   0.579
 3906SOL     OW28859   3.159   2.760   2.054
 3906SOL    HW128860   3.189   2.835   2.002
 3906SOL    HW228861   3.201   2.684   2.014
 3907SOL     OW28862   0.482   4.162   7.354
 3907SOL    HW128863   0.402   4.205   7.323
 3907SOL    HW228864   0.550   4.192   7.292
 3908SOL     OW28865   4.541   2.532   6.227
 3908SOL    HW128866   4.495   2.538   6.310
 3908SOL    HW228867   4.493   2.466   6.177
 3909SOL     OW28868   0.815   2.059   2.132
 3909SOL    HW128869   0.825   2.078   2.226
 3909SOL    HW228870   0.746   1.993   2.129
 3910SOL     OW28871   3.504   3.995   1.166
 3910SOL    HW128872   3.599   4.004   1.157
 3910SOL    HW228873   3.490   3.902   1.181
 3911SOL     OW28874   4.378   3.682   0.803
 3911SOL    HW128875   4.462   3.685   0.756
 3911SOL    HW228876   4.372   3.592   0.836
 3912SOL     OW28877   1.729   4.746   6.564
 3912SOL    HW128878   1.677   4.770   6.641
 3912SOL    HW228879   1.781   4.671   6.592
 3913SOL     OW28880   1.770   3.539   6.229
 3913SOL    HW128881   1.683   3.555   6.190
 3913SOL    HW228882   1.830   3.589   6.174
 3914SOL     OW28883   1.163   4.859   0.153
 3914SOL    HW128884   1.118   4.777   0.173
 3914SOL    HW228885   1.095   4.914   0.114
 3915SOL     OW28886   3.830   0.983   7.141
 3915SOL    HW128887   3.855   0.982   7.049
 3915SOL    HW228888   3.735   0.969   7.140
 3916SOL     OW28889   2.745   2.344   6.061
 3916SOL    HW128890   2.776   2.384   5.980
 3916SOL    HW228891   2.825   2.313   6.104
 3917SOL     OW28892   0.795   5.361   1.129
 3917SOL    HW128893   0.831   5.274   1.111
 3917SOL    HW228894   0.729   5.346   1.197
 3918SOL     OW28895   3.690   0.395   6.327
 3918SOL    HW128896   3.651   0.458   6.267
 3918SOL    HW228897   3.777   0.378   6.289
 3919SOL     OW28898   0.894   0.845   6.850
 3919SOL    HW128899   0.809   0.847   6.893
 3919SOL    HW228900   0.955   0.878   6.916
 3920SOL     OW28901   4.196   0.673   5.990
 3920SOL    HW128902   4.292   0.674   5.996
 3920SOL    HW228903   4.170   0.596   6.041
 3921SOL     OW28904   5.220   2.574   0.446
 3921SOL    HW128905   5.170   2.604   0.521
 3921SOL    HW228906   5.227   2.480   0.457
 3922SOL     OW28907   5.157   3.439   7.297
 3922SOL    HW128908   5.167   3.505   7.366
 3922SOL    HW228909   5.063   3.429   7.286
 3923SOL     OW28910   0.872   2.916   0.814
 3923SOL    HW128911   0.793   2.891   0.765
 3923SOL    HW228912   0.934   2.941   0.746
 3924SOL     OW28913   5.673   5.819   6.526
 3924SOL    HW128914   5.735   5.889   6.505
 3924SOL    HW228915   5.587   5.859   6.515
 3925SOL     OW28916   3.333   0.947   7.550
 3925SOL    HW128917   3.426   0.953   7.529
 3925SOL    HW228918   3.329   0.891   7.628
 3926SOL     OW28919   5.386   3.087   6.243
 3926SOL    HW128920   5.471   3.049   6.263
 3926SOL    HW228921   5.374   3.072   6.149
 3927SOL     OW28922   5.526   5.472   6.018
 3927SOL    HW128923   5.525   5.377   6.015
 3927SOL    HW228924   5.464   5.499   5.950
 3928SOL     OW28925   3.684   5.168   7.775
 3928SOL    HW128926   3.658   5.184   7.685
 3928SOL    HW228927   3.774   5.199   7.780
 3929SOL     OW28928   4.613   1.565   7.303
 3929SOL    HW128929   4.569   1.504   7.363
 3929SOL    HW228930   4.555   1.641   7.299
 3930SOL     OW28931   0.821   4.578   7.014
 3930SOL    HW128932   0.729   4.593   6.995
 3930SOL    HW228933   0.848   4.654   7.065
 3931SOL     OW28934   0.183   6.408   7.280
 3931SOL    HW128935   0.145   6.481   7.232
 3931SOL    HW228936   0.108   6.363   7.320
 3932SOL     OW28937   1.714   1.624   0.619
 3932SOL    HW128938   1.781   1.560   0.644
 3932SOL    HW228939   1.733   1.642   0.527
 3933SOL     OW28940   1.522   2.580   1.524
 3933SOL    HW128941   1.475   2.647   1.574
 3933SOL    HW228942   1.544   2.514   1.589
 3934SOL     OW28943   0.593   6.452   0.927
 3934SOL    HW128944   0.517   6.427   0.979
 3934SOL    HW228945   0.636   6.369   0.906
 3935SOL     OW28946   1.999   3.959   6.838
 3935SOL    HW128947   1.994   3.888   6.774
 3935SOL    HW228948   1.970   3.919   6.920
 3936SOL     OW28949   1.591   4.797   5.896
 3936SOL    HW128950   1.643   4.863   5.850
 3936SOL    HW228951   1.559   4.739   5.827
 3937SOL     OW28952   3.287   2.128   1.027
 3937SOL    HW128953   3.247   2.151   1.111
 3937SOL    HW228954   3.332   2.208   1.000
 3938SOL     OW28955   4.337   0.707   7.287
 3938SOL    HW128956   4.299   0.728   7.202
 3938SOL    HW228957   4.421   0.666   7.267
 3939SOL     OW28958   4.334   3.890   2.333
 3939SOL    HW128959   4.311   3.955   2.266
 3939SOL    HW228960   4.359   3.812   2.283
 3940SOL     OW28961   3.120   5.845   6.609
 3940SOL    HW128962   3.117   5.760   6.652
 3940SOL    HW228963   3.035   5.854   6.566
 3941SOL     OW28964   5.791   5.583   2.186
 3941SOL    HW128965   5.800   5.502   2.236
 3941SOL    HW228966   5.736   5.560   2.111
 3942SOL     OW28967   1.705   5.722   0.262
 3942SOL    HW128968   1.763   5.660   0.306
 3942SOL    HW228969   1.621   5.676   0.255
 3943SOL     OW28970   3.883   5.229   5.386
 3943SOL    HW128971   3.934   5.295   5.434
 3943SOL    HW228972   3.855   5.167   5.453
 3944SOL     OW28973   3.549   2.030   0.849
 3944SOL    HW128974   3.469   2.070   0.882
 3944SOL    HW228975   3.584   1.982   0.924
 3945SOL     OW28976   1.743   3.189   7.681
 3945SOL    HW128977   1.657   3.170   7.721
 3945SOL    HW228978   1.723   3.239   7.602
 3946SOL     OW28979   0.381   3.090   6.661
 3946SOL    HW128980   0.378   3.091   6.566
 3946SOL    HW228981   0.461   3.137   6.684
 3947SOL     OW28982   3.698   1.576   6.857
 3947SOL    HW128983   3.610   1.561   6.892
 3947SOL    HW228984   3.737   1.638   6.918
 3948SOL     OW28985   5.269   1.006   6.523
 3948SOL    HW128986   5.243   0.953   6.448
 3948SOL    HW228987   5.309   1.084   6.484
 3949SOL     OW28988   3.066   6.111   7.142
 3949SOL    HW128989   3.102   6.087   7.056
 3949SOL    HW228990   3.090   6.038   7.199
 3950SOL     OW28991   2.360   0.223   7.353
 3950SOL    HW128992   2.273   0.251   7.382
 3950SOL    HW228993   2.359   0.127   7.366
 3951SOL     OW28994   1.448   3.936   0.961
 3951SOL    HW128995   1.383   3.899   1.020
 3951SOL    HW228996   1.484   4.011   1.007
 3952SOL     OW28997   0.953   0.764   6.606
 3952SOL    HW128998   0.929   0.802   6.691
 3952SOL    HW228999   1.049   0.757   6.610
 3953SOL     OW29000   1.876   3.495   1.330
 3953SOL    HW129001   1.903   3.549   1.404
 3953SOL    HW229002   1.914   3.409   1.348
 3954SOL     OW29003   2.897   0.609   7.096
 3954SOL    HW129004   2.810   0.642   7.073
 3954SOL    HW229005   2.899   0.612   7.192
 3955SOL     OW29006   2.309   6.048   6.489
 3955SOL    HW129007   2.327   6.127   6.439
 3955SOL    HW229008   2.220   6.024   6.465
 3956SOL     OW29009   2.221   0.363   0.151
 3956SOL    HW129010   2.192   0.435   0.207
 3956SOL    HW229011   2.315   0.358   0.164
 3957SOL     OW29012   2.572   3.576   5.501
 3957SOL    HW129013   2.602   3.527   5.424
 3957SOL    HW229014   2.596   3.520   5.575
 3958SOL     OW29015   2.273   2.727   1.456
 3958SOL    HW129016   2.365   2.743   1.479
 3958SOL    HW229017   2.249   2.648   1.504
 3959SOL     OW29018   0.703   6.278   0.026
 3959SOL    HW129019   0.771   6.211   0.018
 3959SOL    HW229020   0.752   6.361   0.028
 3960SOL     OW29021   5.221   3.948   1.711
 3960SOL    HW129022   5.128   3.932   1.697
 3960SOL    HW229023   5.231   3.951   1.806
 3961SOL     OW29024   4.975   3.710   7.370
 3961SOL    HW129025   5.063   3.743   7.351
 3961SOL    HW229026   4.953   3.746   7.456
 3962SOL     OW29027   1.826   0.652   6.818
 3962SOL    HW129028   1.739   0.616   6.800
 3962SOL    HW229029   1.820   0.744   6.790
 3963SOL     OW29030   1.466   0.519   0.181
 3963SOL    HW129031   1.500   0.434   0.211
 3963SOL    HW229032   1.389   0.497   0.130
 3964SOL     OW29033   4.914   5.014   5.784
 3964SOL    HW129034   4.857   4.943   5.814
 3964SOL    HW229035   4.863   5.094   5.799
 3965SOL     OW29036   4.947   3.609   0.319
 3965SOL    HW129037   4.912   3.640   0.403
 3965SOL    HW229038   4.987   3.525   0.338
 3966SOL     OW29039   0.952   1.419   1.165
 3966SOL    HW129040   0.988   1.401   1.078
 3966SOL    HW229041   0.911   1.336   1.191
 3967SOL     OW29042   5.432   4.968   0.302
 3967SOL    HW129043   5.523   4.999   0.299
 3967SOL    HW229044   5.440   4.873   0.301
 3968SOL     OW29045   5.495   1.926   0.312
 3968SOL    HW129046   5.491   1.990   0.383
 3968SOL    HW229047   5.586   1.930   0.281
 3969SOL     OW29048   1.143   1.418   0.898
 3969SOL    HW129049   1.211   1.452   0.839
 3969SOL    HW229050   1.107   1.342   0.851
 3970SOL     OW29051   0.192   3.234   0.457
 3970SOL    HW129052   0.251   3.190   0.517
 3970SOL    HW229053   0.237   3.315   0.433
 3971SOL     OW29054   2.602   0.840   5.989
 3971SOL    HW129055   2.549   0.887   6.053
 3971SOL    HW229056   2.692   0.868   6.007
 3972SOL     OW29057   0.799   3.710   1.135
 3972SOL    HW129058   0.782   3.626   1.178
 3972SOL    HW229059   0.720   3.727   1.084
 3973SOL     OW29060   4.824   1.677   1.233
 3973SOL    HW129061   4.827   1.643   1.323
 3973SOL    HW229062   4.733   1.706   1.222
 3974SOL     OW29063   0.417   2.731   1.786
 3974SOL    HW129064   0.361   2.809   1.791
 3974SOL    HW229065   0.504   2.762   1.810
 3975SOL     OW29066   4.542   5.054   7.231
 3975SOL    HW129067   4.579   5.054   7.319
 3975SOL    HW229068   4.615   5.079   7.174
 3976SOL     OW29069   4.701   4.011   7.652
 3976SOL    HW129070   4.696   3.917   7.637
 3976SOL    HW229071   4.747   4.020   7.737
 3977SOL     OW29072   5.135   5.982   7.714
 3977SOL    HW129073   5.039   5.986   7.712
 3977SOL    HW229074   5.158   6.027   7.795
 3978SOL     OW29075   3.775   2.592   1.219
 3978SOL    HW129076   3.791   2.625   1.131
 3978SOL    HW229077   3.862   2.569   1.252
 3979SOL     OW29078   3.653   2.515   6.261
 3979SOL    HW129079   3.669   2.555   6.346
 3979SOL    HW229080   3.620   2.428   6.281
 3980SOL     OW29081   0.123   1.448   7.619
 3980SOL    HW129082   0.035   1.409   7.614
 3980SOL    HW229083   0.176   1.397   7.558
 3981SOL     OW29084   6.366   5.437   0.293
 3981SOL    HW129085   6.385   5.503   0.226
 3981SOL    HW229086   6.434   5.371   0.281
 3982SOL     OW29087   4.815   1.013   1.882
 3982SOL    HW129088   4.862   1.053   1.809
 3982SOL    HW229089   4.728   1.052   1.879
 3983SOL     OW29090   4.318   5.058   7.706
 3983SOL    HW129091   4.269   5.053   7.621
 3983SOL    HW229092   4.389   4.994   7.694
 3984SOL     OW29093   5.861   1.882   6.129
 3984SOL    HW129094   5.903   1.922   6.053
 3984SOL    HW229095   5.796   1.823   6.093
 3985SOL     OW29096   4.466   0.039   7.061
 3985SOL    HW129097   4.552   0.032   7.102
 3985SOL    HW229098   4.485   0.054   6.968
 3986SOL     OW29099   4.190   3.162   6.436
 3986SOL    HW129100   4.124   3.223   6.469
 3986SOL    HW229101   4.172   3.081   6.485
 3987SOL     OW29102   1.887   5.590   5.864
 3987SOL    HW129103   1.863   5.683   5.856
 3987SOL    HW229104   1.923   5.567   5.778
 3988SOL     OW29105   0.128   3.531   5.494
 3988SOL    HW129106   0.210   3.489   5.466
 3988SOL    HW229107   0.067   3.512   5.423
 3989SOL     OW29108   4.621   5.606   6.586
 3989SOL    HW129109   4.671   5.567   6.657
 3989SOL    HW229110   4.663   5.574   6.506
 3990SOL     OW29111   1.990   5.096   0.977
 3990SOL    HW129112   1.959   5.049   1.054
 3990SOL    HW229113   1.925   5.165   0.963
 3991SOL     OW29114   1.887   3.229   0.332
 3991SOL    HW129115   1.973   3.205   0.297
 3991SOL    HW229116   1.868   3.161   0.397
 3992SOL     OW29117   0.566   1.822   5.813
 3992SOL    HW129118   0.482   1.784   5.787
 3992SOL    HW229119   0.629   1.785   5.751
 3993SOL     OW29120   2.982   4.854   1.527
 3993SOL    HW129121   2.908   4.831   1.583
 3993SOL    HW229122   3.032   4.773   1.519
 3994SOL     OW29123   2.121   3.796   1.747
 3994SOL    HW129124   2.067   3.836   1.679
 3994SOL    HW229125   2.061   3.736   1.792
 3995SOL     OW29126   0.586   2.329   6.486
 3995SOL    HW129127   0.668   2.303   6.444
 3995SOL    HW229128   0.609   2.407   6.537
 3996SOL     OW29129   5.838   5.535   6.421
 3996SOL    HW129130   5.798   5.566   6.503
 3996SOL    HW229131   5.879   5.613   6.384
 3997SOL     OW29132   0.940   5.510   1.759
 3997SOL    HW129133   0.852   5.546   1.770
 3997SOL    HW229134   0.993   5.555   1.824
 3998SOL     OW29135   4.003   1.017   1.463
 3998SOL    HW129136   4.083   0.968   1.446
 3998SOL    HW229137   3.949   0.957   1.514
 3999SOL     OW29138   5.567   0.211   6.267
 3999SOL    HW129139   5.599   0.295   6.236
 3999SOL    HW229140   5.477   0.206   6.237
 4000SOL     OW29141   3.582   1.779   0.435
 4000SOL    HW129142   3.499   1.809   0.398
 4000SOL    HW229143   3.627   1.859   0.462
 4001SOL     OW29144   2.348   5.523   7.642
 4001SOL    HW129145   2.287   5.568   7.702
 4001SOL    HW229146   2.409   5.590   7.612
 4002SOL     OW29147   2.693   4.876   1.589
 4002SOL    HW129148   2.722   4.938   1.656
 4002SOL    HW229149   2.657   4.931   1.519
 4003SOL     OW29150   5.934   4.993   1.069
 4003SOL    HW129151   5.999   4.922   1.068
 4003SOL    HW229152   5.893   4.987   1.155
 4004SOL     OW29153   1.958   4.741   0.304
 4004SOL    HW129154   2.003   4.773   0.382
 4004SOL    HW229155   1.994   4.794   0.233
 4005SOL     OW29156   0.846   1.431   1.638
 4005SOL    HW129157   0.919   1.493   1.638
 4005SOL    HW229158   0.824   1.419   1.730
 4006SOL     OW29159   2.376   1.937   2.018
 4006SOL    HW129160   2.366   1.851   1.978
 4006SOL    HW229161   2.372   1.920   2.112
 4007SOL     OW29162   1.763   5.287   0.403
 4007SOL    HW129163   1.780   5.200   0.366
 4007SOL    HW229164   1.668   5.292   0.410
 4008SOL     OW29165   2.003   5.622   6.351
 4008SOL    HW129166   2.001   5.606   6.257
 4008SOL    HW229167   2.022   5.715   6.360
 4009SOL     OW29168   0.770   4.188   7.674
 4009SOL    HW129169   0.772   4.134   7.595
 4009SOL    HW229170   0.856   4.174   7.717
 4010SOL     OW29171   5.324   0.801   7.563
 4010SOL    HW129172   5.398   0.802   7.502
 4010SOL    HW229173   5.258   0.746   7.519
 4011SOL     OW29174   0.350   2.061   5.469
 4011SOL    HW129175   0.308   2.008   5.537
 4011SOL    HW229176   0.289   2.133   5.453
 4012SOL     OW29177   2.095   2.973   2.273
 4012SOL    HW129178   2.127   3.057   2.240
 4012SOL    HW229179   2.055   2.931   2.197
 4013SOL     OW29180   6.231   6.170   0.072
 4013SOL    HW129181   6.293   6.149   0.142
 4013SOL    HW229182   6.183   6.088   0.058
 4014SOL     OW29183   2.113   0.731   6.885
 4014SOL    HW129184   2.028   0.701   6.855
 4014SOL    HW229185   2.111   0.826   6.875
 4015SOL     OW29186   2.537   4.462   1.210
 4015SOL    HW129187   2.448   4.427   1.221
 4015SOL    HW229188   2.561   4.437   1.121
 4016SOL     OW29189   4.387   1.354   7.315
 4016SOL    HW129190   4.305   1.325   7.354
 4016SOL    HW229191   4.371   1.445   7.290
 4017SOL     OW29192   2.990   4.202   0.898
 4017SOL    HW129193   2.900   4.213   0.868
 4017SOL    HW229194   2.982   4.159   0.983
 4018SOL     OW29195   5.166   1.063   7.178
 4018SOL    HW129196   5.152   1.147   7.223
 4018SOL    HW229197   5.242   1.079   7.122
 4019SOL     OW29198   5.142   1.269   7.331
 4019SOL    HW129199   5.052   1.282   7.363
 4019SOL    HW229200   5.195   1.330   7.382
 4020SOL     OW29201   5.125   3.576   0.591
 4020SOL    HW129202   5.126   3.632   0.668
 4020SOL    HW229203   5.208   3.594   0.547
 4021SOL     OW29204   3.568   0.383   7.020
 4021SOL    HW129205   3.587   0.310   6.961
 4021SOL    HW229206   3.556   0.458   6.962
 4022SOL     OW29207   4.185   6.417   1.158
 4022SOL    HW129208   4.171   6.338   1.210
 4022SOL    HW229209   4.268   6.400   1.112
 4023SOL     OW29210   3.194   0.993   5.917
 4023SOL    HW129211   3.159   1.067   5.866
 4023SOL    HW229212   3.173   0.916   5.864
 4024SOL     OW29213   3.348   5.060   6.580
 4024SOL    HW129214   3.308   5.004   6.514
 4024SOL    HW229215   3.369   5.001   6.652
 4025SOL     OW29216   3.183   3.752   5.885
 4025SOL    HW129217   3.152   3.741   5.795
 4025SOL    HW229218   3.103   3.765   5.937
 4026SOL     OW29219   4.714   2.584   1.400
 4026SOL    HW129220   4.663   2.592   1.481
 4026SOL    HW229221   4.770   2.507   1.415
 4027SOL     OW29222   2.282   2.009   5.930
 4027SOL    HW129223   2.328   1.944   5.877
 4027SOL    HW229224   2.346   2.079   5.943
 4028SOL     OW29225   0.804   5.220   6.707
 4028SOL    HW129226   0.839   5.179   6.786
 4028SOL    HW229227   0.867   5.289   6.686
 4029SOL     OW29228   1.999   2.864   2.058
 4029SOL    HW129229   2.008   2.772   2.036
 4029SOL    HW229230   1.925   2.895   2.005
 4030SOL     OW29231   4.243   5.937   6.510
 4030SOL    HW129232   4.311   5.883   6.470
 4030SOL    HW229233   4.289   5.991   6.573
 4031SOL     OW29234   2.659   1.444   0.694
 4031SOL    HW129235   2.729   1.386   0.664
 4031SOL    HW229236   2.581   1.389   0.692
 4032SOL     OW29237   5.281   3.788   7.191
 4032SOL    HW129238   5.361   3.835   7.169
 4032SOL    HW229239   5.243   3.837   7.264
 4033SOL     OW29240   4.926   0.882   6.495
 4033SOL    HW129241   4.971   0.960   6.461
 4033SOL    HW229242   4.909   0.902   6.587
 4034SOL     OW29243   1.120   4.275   5.357
 4034SOL    HW129244   1.046   4.330   5.381
 4034SOL    HW229245   1.185   4.337   5.323
 4035SOL     OW29246   0.978   4.136   6.807
 4035SOL    HW129247   1.010   4.089   6.885
 4035SOL    HW229248   1.037   4.211   6.799
 4036SOL     OW29249   3.433   0.963   5.576
 4036SOL    HW129250   3.498   0.940   5.509
 4036SOL    HW229251   3.373   0.889   5.577
 4037SOL     OW29252   2.074   1.297   1.211
 4037SOL    HW129253   2.075   1.334   1.299
 4037SOL    HW229254   2.166   1.282   1.190
 4038SOL     OW29255   2.273   0.564   4.801
 4038SOL    HW129256   2.317   0.525   4.877
 4038SOL    HW229257   2.198   0.508   4.785
 4039SOL     OW29258   3.013   0.272   6.742
 4039SOL    HW129259   2.969   0.205   6.792
 4039SOL    HW229260   3.035   0.339   6.807
 4040SOL     OW29261   2.513   6.099   2.103
 4040SOL    HW129262   2.586   6.124   2.161
 4040SOL    HW229263   2.436   6.103   2.160
 4041SOL     OW29264   3.415   4.073   0.764
 4041SOL    HW129265   3.324   4.059   0.790
 4041SOL    HW229266   3.463   4.002   0.807
 4042SOL     OW29267   3.611   5.860   7.647
 4042SOL    HW129268   3.528   5.896   7.616
 4042SOL    HW229269   3.597   5.844   7.742
 4043SOL     OW29270   2.057   5.573   0.985
 4043SOL    HW129271   2.034   5.519   0.909
 4043SOL    HW229272   2.136   5.532   1.020
 4044SOL     OW29273   1.860   2.955   7.716
 4044SOL    HW129274   1.832   2.968   7.806
 4044SOL    HW229275   1.818   3.028   7.667
 4045SOL     OW29276   5.171   5.963   7.024
 4045SOL    HW129277   5.143   5.971   6.933
 4045SOL    HW229278   5.257   6.006   7.027
 4046SOL     OW29279   5.061   5.405   1.223
 4046SOL    HW129280   5.052   5.390   1.129
 4046SOL    HW229281   5.121   5.480   1.229
 4047SOL     OW29282   1.624   4.460   6.072
 4047SOL    HW129283   1.555   4.441   6.009
 4047SOL    HW229284   1.631   4.556   6.072
 4048SOL     OW29285   4.410   1.328   1.125
 4048SOL    HW129286   4.376   1.263   1.063
 4048SOL    HW229287   4.437   1.402   1.071
 4049SOL     OW29288   4.601   0.663   6.908
 4049SOL    HW129289   4.599   0.570   6.932
 4049SOL    HW229290   4.573   0.708   6.988
 4050SOL     OW29291   1.101   1.749   6.642
 4050SOL    HW129292   1.100   1.750   6.737
 4050SOL    HW229293   1.060   1.831   6.616
 4051SOL     OW29294   2.918   1.413   5.941
 4051SOL    HW129295   2.832   1.376   5.924
 4051SOL    HW229296   2.937   1.391   6.032
 4052SOL     OW29297   2.235   3.310   7.241
 4052SOL    HW129298   2.298   3.359   7.294
 4052SOL    HW229299   2.290   3.262   7.179
 4053SOL     OW29300   1.340   3.315   1.026
 4053SOL    HW129301   1.367   3.407   1.021
 4053SOL    HW229302   1.413   3.271   1.069
 4054SOL     OW29303   1.479   5.334   0.614
 4054SOL    HW129304   1.542   5.263   0.606
 4054SOL    HW229305   1.409   5.298   0.669
 4055SOL     OW29306   3.313   1.253   0.616
 4055SOL    HW129307   3.386   1.240   0.556
 4055SOL    HW229308   3.296   1.348   0.613
 4056SOL     OW29309   0.967   0.095   0.761
 4056SOL    HW129310   0.981   0.019   0.705
 4056SOL    HW229311   0.923   0.060   0.838
 4057SOL     OW29312   5.649   3.134   6.023
 4057SOL    HW129313   5.645   3.221   5.983
 4057SOL    HW229314   5.741   3.123   6.047
 4058SOL     OW29315   6.049   5.553   6.718
 4058SOL    HW129316   6.064   5.458   6.717
 4058SOL    HW229317   5.954   5.562   6.705
 4059SOL     OW29318   4.867   4.958   6.157
 4059SOL    HW129319   4.829   4.883   6.202
 4059SOL    HW229320   4.863   4.935   6.064
 4060SOL     OW29321   0.931   4.787   7.381
 4060SOL    HW129322   0.885   4.706   7.403
 4060SOL    HW229323   0.963   4.774   7.291
 4061SOL     OW29324   5.721   0.694   0.222
 4061SOL    HW129325   5.773   0.767   0.189
 4061SOL    HW229326   5.773   0.616   0.203
 4062SOL     OW29327   3.297   5.283   1.618
 4062SOL    HW129328   3.360   5.327   1.561
 4062SOL    HW229329   3.351   5.239   1.684
 4063SOL     OW29330   4.095   4.621   6.391
 4063SOL    HW129331   4.082   4.652   6.480
 4063SOL    HW229332   4.030   4.666   6.339
 4064SOL     OW29333   0.314   3.261   0.735
 4064SOL    HW129334   0.380   3.302   0.791
 4064SOL    HW229335   0.364   3.228   0.660
 4065SOL     OW29336   0.507   5.132   0.913
 4065SOL    HW129337   0.517   5.204   0.850
 4065SOL    HW229338   0.473   5.173   0.992
 4066SOL     OW29339   3.797   4.241   1.548
 4066SOL    HW129340   3.837   4.317   1.506
 4066SOL    HW229341   3.718   4.224   1.497
 4067SOL     OW29342   1.548   4.697   1.233
 4067SOL    HW129343   1.601   4.675   1.310
 4067SOL    HW229344   1.506   4.780   1.256
 4068SOL     OW29345   6.247   1.281   0.284
 4068SOL    HW129346   6.174   1.326   0.326
 4068SOL    HW229347   6.310   1.351   0.267
 4069SOL     OW29348   0.425   0.253   0.817
 4069SOL    HW129349   0.374   0.314   0.762
 4069SOL    HW229350   0.515   0.284   0.810
 4070SOL     OW29351   3.174   1.924   7.723
 4070SOL    HW129352   3.230   1.995   7.753
 4070SOL    HW229353   3.125   1.898   7.801
 4071SOL     OW29354   2.091   1.664   7.588
 4071SOL    HW129355   2.002   1.690   7.562
 4071SOL    HW229356   2.107   1.582   7.542
 4072SOL     OW29357   3.516   5.609   5.682
 4072SOL    HW129358   3.517   5.636   5.590
 4072SOL    HW229359   3.553   5.684   5.729
 4073SOL     OW29360   1.410   3.922   1.367
 4073SOL    HW129361   1.362   3.902   1.287
 4073SOL    HW229362   1.492   3.961   1.337
 4074SOL     OW29363   2.596   0.963   6.398
 4074SOL    HW129364   2.581   0.885   6.452
 4074SOL    HW229365   2.689   0.981   6.408
 4075SOL     OW29366   0.174   3.629   7.091
 4075SOL    HW129367   0.143   3.620   7.001
 4075SOL    HW229368   0.263   3.664   7.082
 4076SOL     OW29369   3.623   3.506   1.299
 4076SOL    HW129370   3.608   3.558   1.378
 4076SOL    HW229371   3.596   3.417   1.323
 4077SOL     OW29372   6.145   0.804   5.757
 4077SOL    HW129373   6.124   0.822   5.665
 4077SOL    HW229374   6.080   0.739   5.784
 4078SOL     OW29375   0.202   5.542   1.956
 4078SOL    HW129376   0.155   5.599   1.895
 4078SOL    HW229377   0.223   5.599   2.030
 4079SOL     OW29378   1.384   0.527   6.582
 4079SOL    HW129379   1.444   0.517   6.508
 4079SOL    HW229380   1.327   0.450   6.577
 4080SOL     OW29381   6.367   4.899   6.414
 4080SOL    HW129382   6.294   4.858   6.368
 4080SOL    HW229383   6.436   4.905   6.349
 4081SOL     OW29384   5.795   2.533   6.842
 4081SOL    HW129385   5.805   2.591   6.766
 4081SOL    HW229386   5.705   2.548   6.871
 4082SOL     OW29387   6.398   3.789   0.071
 4082SOL    HW129388   6.431   3.863   0.122
 4082SOL    HW229389   6.426   3.712   0.120
 4083SOL     OW29390   0.361   4.376   6.560
 4083SOL    HW129391   0.423   4.444   6.532
 4083SOL    HW229392   0.279   4.399   6.516
 4084SOL     OW29393   5.855   5.843   7.700
 4084SOL    HW129394   5.819   5.755   7.715
 4084SOL    HW229395   5.783   5.893   7.660
 4085SOL     OW29396   6.240   2.590   1.025
 4085SOL    HW129397   6.182   2.641   1.082
 4085SOL    HW229398   6.305   2.552   1.085
 4086SOL     OW29399   3.908   0.011   7.411
 4086SOL    HW129400   3.971  -0.048   7.370
 4086SOL    HW229401   3.829   0.002   7.359
 4087SOL     OW29402   5.528   3.629   5.962
 4087SOL    HW129403   5.442   3.668   5.974
 4087SOL    HW229404   5.510   3.536   5.948
 4088SOL     OW29405   4.104   4.261   7.543
 4088SOL    HW129406   4.164   4.214   7.485
 4088SOL    HW229407   4.045   4.194   7.575
 4089SOL     OW29408   3.750   2.969   5.604
 4089SOL    HW129409   3.687   2.896   5.600
 4089SOL    HW229410   3.697   3.044   5.631
 4090SOL     OW29411   6.318   2.637   6.366
 4090SOL    HW129412   6.393   2.666   6.314
 4090SOL    HW229413   6.322   2.689   6.446
 4091SOL     OW29414   5.787   4.723   1.995
 4091SOL    HW129415   5.734   4.643   2.002
 4091SOL    HW229416   5.732   4.783   1.943
 4092SOL     OW29417   4.344   2.546   7.213
 4092SOL    HW129418   4.315   2.478   7.152
 4092SOL    HW229419   4.433   2.521   7.236
 4093SOL     OW29420   3.570   4.369   6.724
 4093SOL    HW129421   3.609   4.354   6.638
 4093SOL    HW229422   3.547   4.462   6.723
 4094SOL     OW29423   3.649   6.419   0.067
 4094SOL    HW129424   3.640   6.330   0.100
 4094SOL    HW229425   3.706   6.410  -0.010
 4095SOL     OW29426   5.066   3.387   7.647
 4095SOL    HW129427   4.977   3.409   7.674
 4095SOL    HW229428   5.073   3.293   7.663
 4096SOL     OW29429   5.760   2.460   7.399
 4096SOL    HW129430   5.837   2.410   7.429
 4096SOL    HW229431   5.697   2.393   7.373
 4097SOL     OW29432   4.082   0.298   2.126
 4097SOL    HW129433   3.999   0.250   2.127
 4097SOL    HW229434   4.081   0.349   2.206
 4098SOL     OW29435   4.937   4.049   2.248
 4098SOL    HW129436   5.014   3.995   2.268
 4098SOL    HW229437   4.962   4.099   2.171
 4099SOL     OW29438   2.950   3.023   7.441
 4099SOL    HW129439   2.867   3.039   7.486
 4099SOL    HW229440   2.966   3.103   7.390
 4100SOL     OW29441   4.810   3.988   1.615
 4100SOL    HW129442   4.872   3.926   1.654
 4100SOL    HW229443   4.725   3.961   1.648
 4101SOL     OW29444   5.155   5.959   0.619
 4101SOL    HW129445   5.120   6.006   0.543
 4101SOL    HW229446   5.162   5.868   0.589
 4102SOL     OW29447   4.974   0.223   7.403
 4102SOL    HW129448   4.930   0.285   7.346
 4102SOL    HW229449   5.018   0.276   7.468
 4103SOL     OW29450   0.953   3.819   2.019
 4103SOL    HW129451   0.963   3.908   1.987
 4103SOL    HW229452   0.988   3.764   1.949
 4104SOL     OW29453   6.049   5.929   7.494
 4104SOL    HW129454   6.069   5.866   7.425
 4104SOL    HW229455   5.972   5.893   7.538
 4105SOL     OW29456   4.435   5.753   6.469
 4105SOL    HW129457   4.500   5.698   6.514
 4105SOL    HW229458   4.485   5.830   6.441
 4106SOL     OW29459   5.591   2.425   2.032
 4106SOL    HW129460   5.567   2.508   2.073
 4106SOL    HW229461   5.510   2.374   2.034
 4107SOL     OW29462   5.634   3.035   6.374
 4107SOL    HW129463   5.652   3.110   6.432
 4107SOL    HW229464   5.621   2.961   6.433
 4108SOL     OW29465   5.917   0.344   1.352
 4108SOL    HW129466   5.871   0.426   1.371
 4108SOL    HW229467   5.915   0.296   1.435
 4109SOL     OW29468   4.036   1.191   1.195
 4109SOL    HW129469   4.021   1.099   1.217
 4109SOL    HW229470   4.015   1.239   1.275
 4110SOL     OW29471   1.005   3.076   6.068
 4110SOL    HW129472   1.053   3.142   6.017
 4110SOL    HW229473   0.957   3.025   6.002
 4111SOL     OW29474   3.789   4.889   0.827
 4111SOL    HW129475   3.702   4.854   0.807
 4111SOL    HW229476   3.800   4.872   0.921
 4112SOL     OW29477   6.446   5.048   2.406
 4112SOL    HW129478   6.520   5.004   2.364
 4112SOL    HW229479   6.368   5.004   2.370
 4113SOL     OW29480   4.988   4.738   1.069
 4113SOL    HW129481   5.070   4.770   1.030
 4113SOL    HW229482   4.925   4.742   0.997
 4114SOL     OW29483   3.215   0.683   1.019
 4114SOL    HW129484   3.135   0.713   1.062
 4114SOL    HW229485   3.186   0.650   0.934
 4115SOL     OW29486   0.955   5.064   7.620
 4115SOL    HW129487   0.987   4.975   7.607
 4115SOL    HW229488   0.946   5.072   7.717
 4116SOL     OW29489   0.052   2.904   0.630
 4116SOL    HW129490  -0.017   2.970   0.619
 4116SOL    HW229491   0.005   2.823   0.646
 4117SOL     OW29492   5.245   3.715   2.433
 4117SOL    HW129493   5.176   3.674   2.381
 4117SOL    HW229494   5.202   3.788   2.478
 4118SOL     OW29495   0.308   0.363   7.484
 4118SOL    HW129496   0.350   0.283   7.453
 4118SOL    HW229497   0.231   0.333   7.532
 4119SOL     OW29498   0.447   1.900   6.431
 4119SOL    HW129499   0.355   1.875   6.430
 4119SOL    HW229500   0.447   1.993   6.454
 4120SOL     OW29501   3.646   4.826   0.480
 4120SOL    HW129502   3.741   4.835   0.470
 4120SOL    HW229503   3.633   4.815   0.573
 4121SOL     OW29504   3.689   6.157   0.156
 4121SOL    HW129505   3.713   6.096   0.227
 4121SOL    HW229506   3.758   6.146   0.091
 4122SOL     OW29507   1.357   2.909   6.018
 4122SOL    HW129508   1.299   2.984   6.005
 4122SOL    HW229509   1.390   2.889   5.930
 4123SOL     OW29510   4.853   1.380   0.145
 4123SOL    HW129511   4.766   1.356   0.113
 4123SOL    HW229512   4.889   1.435   0.076
 4124SOL     OW29513   1.854   2.338   5.513
 4124SOL    HW129514   1.863   2.247   5.542
 4124SOL    HW229515   1.792   2.378   5.574
 4125SOL     OW29516   0.863   5.710   6.686
 4125SOL    HW129517   0.937   5.769   6.666
 4125SOL    HW229518   0.841   5.670   6.603
 4126SOL     OW29519   5.022   4.032   0.507
 4126SOL    HW129520   5.003   4.069   0.592
 4126SOL    HW229521   4.947   3.975   0.489
 4127SOL     OW29522   4.676   1.031   1.355
 4127SOL    HW129523   4.649   1.050   1.265
 4127SOL    HW229524   4.641   0.944   1.373
 4128SOL     OW29525   5.293   2.178   7.468
 4128SOL    HW129526   5.362   2.241   7.487
 4128SOL    HW229527   5.227   2.228   7.420
 4129SOL     OW29528   4.914   4.756   0.280
 4129SOL    HW129529   4.945   4.689   0.219
 4129SOL    HW229530   4.904   4.835   0.226
 4130SOL     OW29531   1.649   2.889   1.292
 4130SOL    HW129532   1.649   2.793   1.300
 4130SOL    HW229533   1.709   2.918   1.360
 4131SOL     OW29534   0.328   5.731   5.685
 4131SOL    HW129535   0.244   5.762   5.652
 4131SOL    HW229536   0.333   5.640   5.656
 4132SOL     OW29537   5.539   5.332   0.986
 4132SOL    HW129538   5.549   5.238   1.001
 4132SOL    HW229539   5.587   5.348   0.904
 4133SOL     OW29540   2.315   1.384   1.318
 4133SOL    HW129541   2.402   1.393   1.357
 4133SOL    HW229542   2.331   1.384   1.224
 4134SOL     OW29543   5.538   6.347   7.099
 4134SOL    HW129544   5.510   6.301   7.019
 4134SOL    HW229545   5.553   6.277   7.162
 4135SOL     OW29546   1.049   0.317   1.240
 4135SOL    HW129547   0.983   0.270   1.291
 4135SOL    HW229548   1.125   0.259   1.240
 4136SOL     OW29549   3.573   1.459   6.575
 4136SOL    HW129550   3.575   1.425   6.664
 4136SOL    HW229551   3.661   1.443   6.540
 4137SOL     OW29552   6.280   1.530   7.389
 4137SOL    HW129553   6.199   1.578   7.403
 4137SOL    HW229554   6.349   1.594   7.406
 4138SOL     OW29555   3.390   4.564   1.425
 4138SOL    HW129556   3.470   4.531   1.383
 4138SOL    HW229557   3.414   4.651   1.456
 4139SOL     OW29558   5.409   3.057   0.968
 4139SOL    HW129559   5.487   3.060   1.023
 4139SOL    HW229560   5.420   3.130   0.907
 4140SOL     OW29561   2.765   1.890   0.478
 4140SOL    HW129562   2.715   1.970   0.463
 4140SOL    HW229563   2.828   1.913   0.545
 4141SOL     OW29564   4.188   1.143   7.699
 4141SOL    HW129565   4.266   1.088   7.685
 4141SOL    HW229566   4.133   1.092   7.758
 4142SOL     OW29567   0.814   1.438   7.801
 4142SOL    HW129568   0.864   1.510   7.764
 4142SOL    HW229569   0.729   1.442   7.756
 4143SOL     OW29570   5.228   2.700   2.050
 4143SOL    HW129571   5.201   2.757   2.122
 4143SOL    HW229572   5.203   2.612   2.079
 4144SOL     OW29573   6.442   1.229   5.877
 4144SOL    HW129574   6.516   1.170   5.889
 4144SOL    HW229575   6.374   1.194   5.935
 4145SOL     OW29576   1.160   2.042   6.145
 4145SOL    HW129577   1.203   2.004   6.069
 4145SOL    HW229578   1.148   2.135   6.123
 4146SOL     OW29579   0.248   4.748   2.459
 4146SOL    HW129580   0.225   4.813   2.392
 4146SOL    HW229581   0.230   4.792   2.542
 4147SOL     OW29582   1.981   5.123   2.362
 4147SOL    HW129583   1.986   5.043   2.309
 4147SOL    HW229584   2.071   5.152   2.371
 4148SOL     OW29585   2.111   4.301   6.530
 4148SOL    HW129586   2.031   4.260   6.564
 4148SOL    HW229587   2.173   4.298   6.603
 4149SOL     OW29588   1.758   5.061   6.819
 4149SOL    HW129589   1.804   5.033   6.898
 4149SOL    HW229590   1.759   5.156   6.823
 4150SOL     OW29591   5.191   4.774   7.413
 4150SOL    HW129592   5.104   4.802   7.442
 4150SOL    HW229593   5.241   4.761   7.494
 4151SOL     OW29594   2.762   2.484   5.223
 4151SOL    HW129595   2.757   2.541   5.300
 4151SOL    HW229596   2.833   2.521   5.171
 4152SOL     OW29597   2.647   1.065   7.125
 4152SOL    HW129598   2.689   1.146   7.152
 4152SOL    HW229599   2.712   1.021   7.071
 4153SOL     OW29600   3.603   6.299   0.560
 4153SOL    HW129601   3.649   6.221   0.590
 4153SOL    HW229602   3.672   6.362   0.542
 4154SOL     OW29603   2.587   4.522   5.936
 4154SOL    HW129604   2.510   4.538   5.882
 4154SOL    HW229605   2.570   4.438   5.978
 4155SOL     OW29606   3.251   1.640   6.522
 4155SOL    HW129607   3.344   1.662   6.529
 4155SOL    HW229608   3.235   1.580   6.595
 4156SOL     OW29609   0.501   4.298   7.601
 4156SOL    HW129610   0.477   4.257   7.517
 4156SOL    HW229611   0.591   4.271   7.615
 4157SOL     OW29612   3.160   4.044   0.218
 4157SOL    HW129613   3.181   4.024   0.309
 4157SOL    HW229614   3.244   4.039   0.173
 4158SOL     OW29615   1.121   5.845   6.597
 4158SOL    HW129616   1.170   5.922   6.628
 4158SOL    HW229617   1.175   5.810   6.526
 4159SOL     OW29618   4.424   5.850   2.019
 4159SOL    HW129619   4.397   5.941   2.005
 4159SOL    HW229620   4.355   5.812   2.073
 4160SOL     OW29621   0.249   3.159   0.174
 4160SOL    HW129622   0.239   3.254   0.173
 4160SOL    HW229623   0.203   3.131   0.254
 4161SOL     OW29624   4.166   0.207   0.777
 4161SOL    HW129625   4.205   0.158   0.850
 4161SOL    HW229626   4.238   0.260   0.743
 4162SOL     OW29627   3.502   5.304   5.161
 4162SOL    HW129628   3.418   5.329   5.200
 4162SOL    HW229629   3.487   5.216   5.126
 4163SOL     OW29630   3.154   3.518   6.530
 4163SOL    HW129631   3.162   3.583   6.600
 4163SOL    HW229632   3.063   3.523   6.503
 4164SOL     OW29633   5.618   5.070   7.107
 4164SOL    HW129634   5.599   5.032   7.193
 4164SOL    HW229635   5.591   5.002   7.045
 4165SOL     OW29636   0.503   5.025   6.132
 4165SOL    HW129637   0.512   5.068   6.047
 4165SOL    HW229638   0.431   4.963   6.120
 4166SOL     OW29639   6.076   4.059   7.598
 4166SOL    HW129640   6.110   4.008   7.524
 4166SOL    HW229641   6.105   4.149   7.581
 4167SOL     OW29642   3.279   1.522   0.570
 4167SOL    HW129643   3.307   1.592   0.629
 4167SOL    HW229644   3.290   1.558   0.483
 4168SOL     OW29645   6.313   2.040   6.093
 4168SOL    HW129646   6.296   1.948   6.073
 4168SOL    HW229647   6.235   2.068   6.142
 4169SOL     OW29648   5.694   2.397   1.067
 4169SOL    HW129649   5.723   2.312   1.036
 4169SOL    HW229650   5.759   2.459   1.033
 4170SOL     OW29651   3.108   5.364   6.903
 4170SOL    HW129652   3.075   5.363   6.992
 4170SOL    HW229653   3.034   5.336   6.849
 4171SOL     OW29654   0.783   5.455   7.710
 4171SOL    HW129655   0.869   5.491   7.733
 4171SOL    HW229656   0.738   5.527   7.664
 4172SOL     OW29657   2.734   3.388   5.983
 4172SOL    HW129658   2.719   3.316   5.922
 4172SOL    HW229659   2.655   3.389   6.039
 4173SOL     OW29660   5.072   4.690   6.800
 4173SOL    HW129661   5.095   4.708   6.891
 4173SOL    HW229662   5.096   4.599   6.787
 4174SOL     OW29663   5.905   3.339   6.326
 4174SOL    HW129664   5.815   3.348   6.296
 4174SOL    HW229665   5.927   3.247   6.308
 4175SOL     OW29666   3.928   0.114   1.675
 4175SOL    HW129667   4.006   0.072   1.639
 4175SOL    HW229668   3.915   0.071   1.760
 4176SOL     OW29669   4.528   3.210   0.397
 4176SOL    HW129670   4.451   3.164   0.364
 4176SOL    HW229671   4.522   3.202   0.492
 4177SOL     OW29672   5.869   1.949   5.102
 4177SOL    HW129673   5.921   2.028   5.116
 4177SOL    HW229674   5.932   1.878   5.105
 4178SOL     OW29675   3.326   5.319   6.112
 4178SOL    HW129676   3.324   5.229   6.146
 4178SOL    HW229677   3.235   5.340   6.092
 4179SOL     OW29678   5.372   0.562   1.023
 4179SOL    HW129679   5.327   0.628   1.075
 4179SOL    HW229680   5.456   0.601   1.000
 4180SOL     OW29681   4.220   3.074   5.809
 4180SOL    HW129682   4.191   3.113   5.892
 4180SOL    HW229683   4.144   3.084   5.751
 4181SOL     OW29684   2.365   2.379   1.991
 4181SOL    HW129685   2.286   2.400   2.040
 4181SOL    HW229686   2.411   2.463   1.983
 4182SOL     OW29687   5.001   3.880   6.854
 4182SOL    HW129688   5.000   3.832   6.936
 4182SOL    HW229689   4.930   3.944   6.862
 4183SOL     OW29690   5.521   3.357   7.422
 4183SOL    HW129691   5.447   3.308   7.386
 4183SOL    HW229692   5.510   3.446   7.388
 4184SOL     OW29693   5.026   0.742   0.907
 4184SOL    HW129694   5.083   0.752   0.830
 4184SOL    HW229695   5.071   0.678   0.962
 4185SOL     OW29696   0.700   5.751   6.331
 4185SOL    HW129697   0.655   5.666   6.330
 4185SOL    HW229698   0.793   5.729   6.331
 4186SOL     OW29699   6.308   4.217   1.616
 4186SOL    HW129700   6.359   4.249   1.689
 4186SOL    HW229701   6.232   4.175   1.656
 4187SOL     OW29702   1.915   4.046   7.454
 4187SOL    HW129703   1.848   4.094   7.405
 4187SOL    HW229704   1.865   3.983   7.506
 4188SOL     OW29705   4.056   5.003   2.094
 4188SOL    HW129706   4.046   4.909   2.108
 4188SOL    HW229707   4.133   5.026   2.146
 4189SOL     OW29708   6.119   1.569   0.676
 4189SOL    HW129709   6.103   1.610   0.591
 4189SOL    HW229710   6.124   1.475   0.657
 4190SOL     OW29711   3.900   5.485   5.502
 4190SOL    HW129712   3.886   5.481   5.408
 4190SOL    HW229713   3.847   5.559   5.531
 4191SOL     OW29714   5.859   3.781   0.838
 4191SOL    HW129715   5.924   3.727   0.883
 4191SOL    HW229716   5.775   3.744   0.863
 4192SOL     OW29717   2.508   2.144   1.915
 4192SOL    HW129718   2.482   2.229   1.951
 4192SOL    HW229719   2.467   2.080   1.973
 4193SOL     OW29720   2.816   3.664   6.678
 4193SOL    HW129721   2.834   3.740   6.623
 4193SOL    HW229722   2.822   3.696   6.767
 4194SOL     OW29723   4.235   3.509   7.224
 4194SOL    HW129724   4.257   3.591   7.181
 4194SOL    HW229725   4.146   3.523   7.258
 4195SOL     OW29726   2.504   1.062   1.298
 4195SOL    HW129727   2.550   0.980   1.312
 4195SOL    HW229728   2.556   1.128   1.344
 4196SOL     OW29729   2.287   4.436   1.330
 4196SOL    HW129730   2.192   4.446   1.316
 4196SOL    HW229731   2.308   4.505   1.394
 4197SOL     OW29732   0.782   2.301   1.452
 4197SOL    HW129733   0.863   2.353   1.454
 4197SOL    HW229734   0.741   2.318   1.537
 4198SOL     OW29735   3.807   0.786   5.637
 4198SOL    HW129736   3.774   0.815   5.551
 4198SOL    HW229737   3.868   0.855   5.664
 4199SOL     OW29738   5.074   1.608   1.174
 4199SOL    HW129739   4.980   1.617   1.189
 4199SOL    HW229740   5.115   1.654   1.248
 4200SOL     OW29741   6.376   3.546   0.433
 4200SOL    HW129742   6.355   3.507   0.517
 4200SOL    HW229743   6.348   3.637   0.442
 4201SOL     OW29744   5.056   6.382   0.893
 4201SOL    HW129745   4.991   6.359   0.959
 4201SOL    HW229746   5.073   6.301   0.846
 4202SOL     OW29747   1.489   0.486   7.113
 4202SOL    HW129748   1.534   0.413   7.071
 4202SOL    HW229749   1.548   0.513   7.183
 4203SOL     OW29750   5.732   0.682   5.921
 4203SOL    HW129751   5.817   0.676   5.877
 4203SOL    HW229752   5.714   0.593   5.949
 4204SOL     OW29753   0.897   3.601   6.259
 4204SOL    HW129754   0.882   3.541   6.332
 4204SOL    HW229755   0.909   3.544   6.183
 4205SOL     OW29756   2.920   2.219   6.219
 4205SOL    HW129757   3.014   2.200   6.214
 4205SOL    HW229758   2.887   2.157   6.284
 4206SOL     OW29759   4.713   4.929   1.867
 4206SOL    HW129760   4.761   5.012   1.869
 4206SOL    HW229761   4.732   4.888   1.952
 4207SOL     OW29762   1.999   3.866   1.310
 4207SOL    HW129763   2.076   3.813   1.331
 4207SOL    HW229764   1.987   3.856   1.216
 4208SOL     OW29765   3.082   6.260   0.897
 4208SOL    HW129766   3.048   6.256   0.808
 4208SOL    HW229767   3.096   6.354   0.913
 4209SOL     OW29768   5.552   4.598   6.355
 4209SOL    HW129769   5.570   4.528   6.293
 4209SOL    HW229770   5.518   4.553   6.432
 4210SOL     OW29771   3.667   0.049   1.127
 4210SOL    HW129772   3.636   0.114   1.190
 4210SOL    HW229773   3.598   0.045   1.061
 4211SOL     OW29774   3.831   0.344   1.138
 4211SOL    HW129775   3.876   0.359   1.221
 4211SOL    HW229776   3.739   0.331   1.162
 4212SOL     OW29777   2.957   0.678   6.828
 4212SOL    HW129778   2.951   0.641   6.916
 4212SOL    HW229779   3.036   0.638   6.791
 4213SOL     OW29780   2.635   5.248   6.215
 4213SOL    HW129781   2.617   5.223   6.125
 4213SOL    HW229782   2.618   5.342   6.218
 4214SOL     OW29783   4.488   3.543   1.080
 4214SOL    HW129784   4.447   3.628   1.092
 4214SOL    HW229785   4.430   3.482   1.126
 4215SOL     OW29786   5.804   3.692   7.476
 4215SOL    HW129787   5.810   3.620   7.413
 4215SOL    HW229788   5.717   3.730   7.459
 4216SOL     OW29789   5.737   1.526   7.585
 4216SOL    HW129790   5.657   1.540   7.636
 4216SOL    HW229791   5.808   1.553   7.643
 4217SOL     OW29792   5.937   3.345   6.592
 4217SOL    HW129793   5.945   3.352   6.496
 4217SOL    HW229794   5.893   3.426   6.618
 4218SOL     OW29795   1.800   2.351   6.565
 4218SOL    HW129796   1.859   2.280   6.593
 4218SOL    HW229797   1.831   2.374   6.478
 4219SOL     OW29798   4.194   5.236   0.871
 4219SOL    HW129799   4.166   5.276   0.954
 4219SOL    HW229800   4.124   5.175   0.849
 4220SOL     OW29801   3.018   5.808   6.942
 4220SOL    HW129802   3.088   5.872   6.931
 4220SOL    HW229803   3.031   5.745   6.872
 4221SOL     OW29804   4.862   2.660   1.189
 4221SOL    HW129805   4.847   2.580   1.139
 4221SOL    HW229806   4.819   2.644   1.273
 4222SOL     OW29807   3.422   3.738   7.033
 4222SOL    HW129808   3.509   3.778   7.036
 4222SOL    HW229809   3.391   3.753   6.944
 4223SOL     OW29810   1.255   5.366   7.328
 4223SOL    HW129811   1.343   5.381   7.364
 4223SOL    HW229812   1.242   5.440   7.268
 4224SOL     OW29813   6.336   4.293   7.724
 4224SOL    HW129814   6.394   4.323   7.793
 4224SOL    HW229815   6.389   4.232   7.671
 4225SOL     OW29816   3.807   6.293   6.111
 4225SOL    HW129817   3.778   6.213   6.067
 4225SOL    HW229818   3.784   6.279   6.203
 4226SOL     OW29819   2.142   0.201   6.092
 4226SOL    HW129820   2.147   0.293   6.116
 4226SOL    HW229821   2.233   0.170   6.094
 4227SOL     OW29822   3.617   3.045   0.886
 4227SOL    HW129823   3.523   3.032   0.891
 4227SOL    HW229824   3.655   2.959   0.906
 4228SOL     OW29825   5.367   4.303   0.511
 4228SOL    HW129826   5.422   4.325   0.436
 4228SOL    HW229827   5.347   4.210   0.499
 4229SOL     OW29828   3.320   3.850   7.767
 4229SOL    HW129829   3.374   3.914   7.812
 4229SOL    HW229830   3.293   3.789   7.836
 4230SOL     OW29831   5.108   4.222   7.421
 4230SOL    HW129832   5.146   4.244   7.335
 4230SOL    HW229833   5.034   4.282   7.430
 4231SOL     OW29834   1.351   4.604   0.293
 4231SOL    HW129835   1.441   4.606   0.261
 4231SOL    HW229836   1.351   4.660   0.370
 4232SOL     OW29837   2.241   5.590   0.227
 4232SOL    HW129838   2.222   5.507   0.270
 4232SOL    HW229839   2.181   5.593   0.152
 4233SOL     OW29840   5.905   2.636   1.570
 4233SOL    HW129841   5.996   2.629   1.601
 4233SOL    HW229842   5.892   2.729   1.556
 4234SOL     OW29843   4.717   4.564   1.503
 4234SOL    HW129844   4.747   4.612   1.581
 4234SOL    HW229845   4.752   4.613   1.429
 4235SOL     OW29846   2.301   2.855   1.747
 4235SOL    HW129847   2.311   2.785   1.811
 4235SOL    HW229848   2.208   2.855   1.725
 4236SOL     OW29849   2.288   0.780   0.878
 4236SOL    HW129850   2.352   0.851   0.873
 4236SOL    HW229851   2.257   0.781   0.968
 4237SOL     OW29852   0.315   0.864   7.062
 4237SOL    HW129853   0.355   0.808   6.995
 4237SOL    HW229854   0.235   0.818   7.087
 4238SOL     OW29855   1.254   3.768   6.359
 4238SOL    HW129856   1.320   3.802   6.299
 4238SOL    HW229857   1.281   3.799   6.445
 4239SOL     OW29858   5.091   1.924   1.555
 4239SOL    HW129859   5.134   2.009   1.557
 4239SOL    HW229860   4.998   1.944   1.554
 4240SOL     OW29861   4.776   4.482   0.118
 4240SOL    HW129862   4.871   4.492   0.112
 4240SOL    HW229863   4.743   4.572   0.122
 4241SOL     OW29864   5.687   2.139   7.581
 4241SOL    HW129865   5.722   2.057   7.544
 4241SOL    HW229866   5.624   2.169   7.516
 4242SOL     OW29867   1.150   1.146   6.243
 4242SOL    HW129868   1.179   1.198   6.318
 4242SOL    HW229869   1.118   1.065   6.283
 4243SOL     OW29870   2.777   5.352   1.419
 4243SOL    HW129871   2.743   5.404   1.346
 4243SOL    HW229872   2.858   5.314   1.386
 4244SOL     OW29873   4.602   2.229   1.422
 4244SOL    HW129874   4.528   2.274   1.463
 4244SOL    HW229875   4.613   2.148   1.472
 4245SOL     OW29876   2.037   3.204   0.734
 4245SOL    HW129877   2.027   3.197   0.829
 4245SOL    HW229878   2.083   3.124   0.709
 4246SOL     OW29879   3.412   4.031   5.499
 4246SOL    HW129880   3.395   4.119   5.531
 4246SOL    HW229881   3.474   3.993   5.562
 4247SOL     OW29882   3.973   3.997   7.213
 4247SOL    HW129883   3.953   4.028   7.125
 4247SOL    HW229884   4.039   4.058   7.247
 4248SOL     OW29885   3.697   2.769   0.816
 4248SOL    HW129886   3.717   2.780   0.723
 4248SOL    HW229887   3.767   2.714   0.850
 4249SOL     OW29888   4.031   0.578   7.710
 4249SOL    HW129889   3.958   0.629   7.745
 4249SOL    HW229890   4.017   0.580   7.614
 4250SOL     OW29891   3.918   0.334   0.036
 4250SOL    HW129892   3.984   0.398   0.007
 4250SOL    HW229893   3.865   0.319  -0.042
 4251SOL     OW29894   1.803   5.162   1.638
 4251SOL    HW129895   1.741   5.122   1.699
 4251SOL    HW229896   1.853   5.223   1.691
 4252SOL     OW29897   3.965   5.128   5.812
 4252SOL    HW129898   3.952   5.049   5.759
 4252SOL    HW229899   3.895   5.124   5.878
 4253SOL     OW29900   3.860   2.603   6.131
 4253SOL    HW129901   3.796   2.579   6.198
 4253SOL    HW229902   3.807   2.616   6.052
 4254SOL     OW29903   1.051   1.616   0.281
 4254SOL    HW129904   1.043   1.521   0.289
 4254SOL    HW229905   1.144   1.631   0.267
 4255SOL     OW29906   0.333   4.474   1.582
 4255SOL    HW129907   0.317   4.392   1.629
 4255SOL    HW229908   0.368   4.447   1.498
 4256SOL     OW29909   2.376   3.769   0.674
 4256SOL    HW129910   2.417   3.722   0.748
 4256SOL    HW229911   2.338   3.699   0.621
 4257SOL     OW29912   6.429   0.553   7.314
 4257SOL    HW129913   6.403   0.470   7.353
 4257SOL    HW229914   6.415   0.617   7.384
 4258SOL     OW29915   0.352   1.739   0.789
 4258SOL    HW129916   0.382   1.825   0.760
 4258SOL    HW229917   0.399   1.723   0.871
 4259SOL     OW29918   4.875   4.468   7.510
 4259SOL    HW129919   4.796   4.493   7.558
 4259SOL    HW229920   4.880   4.530   7.438
 4260SOL     OW29921   6.123   0.330   2.108
 4260SOL    HW129922   6.059   0.364   2.045
 4260SOL    HW229923   6.135   0.401   2.171
 4261SOL     OW29924   1.964   1.091   7.694
 4261SOL    HW129925   2.044   1.052   7.656
 4261SOL    HW229926   1.993   1.169   7.740
 4262SOL     OW29927   4.553   1.142   1.618
 4262SOL    HW129928   4.521   1.140   1.708
 4262SOL    HW229929   4.577   1.052   1.598
 4263SOL     OW29930   1.449   6.080   6.637
 4263SOL    HW129931   1.452   6.124   6.722
 4263SOL    HW229932   1.474   5.990   6.656
 4264SOL     OW29933   4.430   3.421   6.676
 4264SOL    HW129934   4.391   3.499   6.637
 4264SOL    HW229935   4.450   3.447   6.766
 4265SOL     OW29936   4.448   5.284   6.169
 4265SOL    HW129937   4.481   5.351   6.109
 4265SOL    HW229938   4.507   5.288   6.244
 4266SOL     OW29939   2.905   0.330   6.507
 4266SOL    HW129940   2.946   0.324   6.594
 4266SOL    HW229941   2.976   0.308   6.447
 4267SOL     OW29942   0.688   0.371   0.803
 4267SOL    HW129943   0.703   0.363   0.709
 4267SOL    HW229944   0.770   0.405   0.838
 4268SOL     OW29945   4.506   4.205   1.471
 4268SOL    HW129946   4.445   4.269   1.435
 4268SOL    HW229947   4.451   4.138   1.510
 4269SOL     OW29948   1.585   6.304   1.184
 4269SOL    HW129949   1.622   6.298   1.272
 4269SOL    HW229950   1.614   6.225   1.139
 4270SOL     OW29951   3.310   6.015   2.100
 4270SOL    HW129952   3.349   5.939   2.143
 4270SOL    HW229953   3.217   6.008   2.120
 4271SOL     OW29954   2.287   2.469   0.701
 4271SOL    HW129955   2.256   2.388   0.662
 4271SOL    HW229956   2.236   2.538   0.659
 4272SOL     OW29957   4.668   1.597   5.664
 4272SOL    HW129958   4.762   1.616   5.665
 4272SOL    HW229959   4.661   1.509   5.699
 4273SOL     OW29960   0.178   3.930   6.877
 4273SOL    HW129961   0.223   3.952   6.959
 4273SOL    HW229962   0.095   3.977   6.882
 4274SOL     OW29963   5.788   3.670   5.303
 4274SOL    HW129964   5.743   3.623   5.232
 4274SOL    HW229965   5.812   3.601   5.366
 4275SOL     OW29966   4.279   3.951   0.743
 4275SOL    HW129967   4.289   3.861   0.773
 4275SOL    HW229968   4.198   3.951   0.692
 4276SOL     OW29969   1.797   5.700   6.527
 4276SOL    HW129970   1.880   5.690   6.481
 4276SOL    HW229971   1.757   5.778   6.488
 4277SOL     OW29972   0.777   3.463   1.252
 4277SOL    HW129973   0.842   3.442   1.318
 4277SOL    HW229974   0.738   3.378   1.229
 4278SOL     OW29975   4.605   0.358   1.294
 4278SOL    HW129976   4.677   0.367   1.356
 4278SOL    HW229977   4.536   0.414   1.330
 4279SOL     OW29978   3.941   6.342   7.001
 4279SOL    HW129979   4.027   6.384   7.009
 4279SOL    HW229980   3.932   6.290   7.082
 4280SOL     OW29981   3.424   4.096   0.074
 4280SOL    HW129982   3.469   4.141   0.146
 4280SOL    HW229983   3.445   4.147  -0.004
 4281SOL     OW29984   0.604   6.396   5.964
 4281SOL    HW129985   0.543   6.423   5.895
 4281SOL    HW229986   0.686   6.440   5.943
 4282SOL     OW29987   3.744   5.880   1.379
 4282SOL    HW129988   3.695   5.803   1.407
 4282SOL    HW229989   3.822   5.844   1.337
 4283SOL     OW29990   3.591   5.256   6.613
 4283SOL    HW129991   3.501   5.223   6.611
 4283SOL    HW229992   3.638   5.194   6.668
 4284SOL     OW29993   2.678   1.853   0.818
 4284SOL    HW129994   2.748   1.870   0.755
 4284SOL    HW229995   2.695   1.913   0.890
 4285SOL     OW29996   6.014   2.779   0.842
 4285SOL    HW129997   6.062   2.758   0.762
 4285SOL    HW229998   5.977   2.866   0.826
 4286SOL     OW29999   5.993   3.797   7.653
 4286SOL    HW130000   5.932   3.769   7.584
 4286SOL    HW230001   6.016   3.887   7.629
 4287SOL     OW30002   5.203   1.571   6.904
 4287SOL    HW130003   5.284   1.621   6.913
 4287SOL    HW230004   5.187   1.535   6.991
 4288SOL     OW30005   1.000   3.177   7.097
 4288SOL    HW130006   1.086   3.145   7.071
 4288SOL    HW230007   1.003   3.271   7.081
 4289SOL     OW30008   3.911   0.204   0.290
 4289SOL    HW130009   3.920   0.257   0.212
 4289SOL    HW230010   3.990   0.149   0.291
 4290SOL     OW30011   4.812   2.998   6.932
 4290SOL    HW130012   4.794   3.016   6.840
 4290SOL    HW230013   4.876   3.064   6.958
 4291SOL     OW30014   0.625   4.267   1.894
 4291SOL    HW130015   0.530   4.271   1.881
 4291SOL    HW230016   0.638   4.290   1.987
 4292SOL     OW30017   4.341   2.493   6.011
 4292SOL    HW130018   4.284   2.539   6.071
 4292SOL    HW230019   4.331   2.539   5.927
 4293SOL     OW30020   4.621   3.708   5.952
 4293SOL    HW130021   4.588   3.658   5.878
 4293SOL    HW230022   4.683   3.770   5.914
 4294SOL     OW30023   3.333   5.309   1.288
 4294SOL    HW130024   3.330   5.213   1.289
 4294SOL    HW230025   3.295   5.333   1.204
 4295SOL     OW30026   4.119   5.943   1.467
 4295SOL    HW130027   4.185   6.012   1.455
 4295SOL    HW230028   4.050   5.986   1.518
 4296SOL     OW30029   6.154   3.014   1.488
 4296SOL    HW130030   6.061   3.034   1.490
 4296SOL    HW230031   6.176   2.993   1.579
 4297SOL     OW30032   4.969   0.536   1.899
 4297SOL    HW130033   5.018   0.455   1.913
 4297SOL    HW230034   4.899   0.533   1.963
 4298SOL     OW30035   2.611   5.373   1.637
 4298SOL    HW130036   2.609   5.469   1.640
 4298SOL    HW230037   2.680   5.352   1.574
 4299SOL     OW30038   5.529   4.501   2.315
 4299SOL    HW130039   5.527   4.595   2.296
 4299SOL    HW230040   5.460   4.464   2.259
 4300SOL     OW30041   4.293   3.983   1.699
 4300SOL    HW130042   4.245   3.902   1.718
 4300SOL    HW230043   4.234   4.053   1.727
 4301SOL     OW30044   0.677   5.117   0.042
 4301SOL    HW130045   0.612   5.055   0.011
 4301SOL    HW230046   0.636   5.203   0.031
 4302SOL     OW30047   1.280   5.732   6.370
 4302SOL    HW130048   1.358   5.699   6.416
 4302SOL    HW230049   1.295   5.710   6.278
 4303SOL     OW30050   2.590   2.533   1.292
 4303SOL    HW130051   2.582   2.514   1.199
 4303SOL    HW230052   2.504   2.512   1.328
 4304SOL     OW30053   3.707   0.168   1.519
 4304SOL    HW130054   3.780   0.156   1.579
 4304SOL    HW230055   3.680   0.079   1.496
 4305SOL     OW30056   3.642   3.243   5.685
 4305SOL    HW130057   3.568   3.265   5.629
 4305SOL    HW230058   3.717   3.282   5.642
 4306SOL     OW30059   1.460   3.566   1.002
 4306SOL    HW130060   1.449   3.612   0.919
 4306SOL    HW230061   1.519   3.622   1.053
 4307SOL     OW30062   0.863   0.955   0.393
 4307SOL    HW130063   0.797   0.915   0.336
 4307SOL    HW230064   0.831   1.044   0.408
 4308SOL     OW30065   3.618   6.111   1.334
 4308SOL    HW130066   3.673   6.135   1.259
 4308SOL    HW230067   3.642   6.020   1.353
 4309SOL     OW30068   4.133   2.383   0.312
 4309SOL    HW130069   4.226   2.360   0.322
 4309SOL    HW230070   4.134   2.477   0.298
 4310SOL     OW30071   3.953   0.743   6.714
 4310SOL    HW130072   3.945   0.764   6.621
 4310SOL    HW230073   3.955   0.647   6.717
 4311SOL     OW30074   0.040   2.330   6.763
 4311SOL    HW130075   0.101   2.361   6.696
 4311SOL    HW230076  -0.034   2.391   6.758
 4312SOL     OW30077   0.021   2.742   7.762
 4312SOL    HW130078   0.049   2.654   7.788
 4312SOL    HW230079  -0.065   2.753   7.804
 4313SOL     OW30080   5.711   4.666   6.845
 4313SOL    HW130081   5.716   4.745   6.792
 4313SOL    HW230082   5.706   4.595   6.781
 4314SOL     OW30083   4.033   3.334   0.714
 4314SOL    HW130084   4.049   3.289   0.632
 4314SOL    HW230085   4.061   3.424   0.698
 4315SOL     OW30086   5.615   0.661   1.015
 4315SOL    HW130087   5.681   0.627   0.956
 4315SOL    HW230088   5.620   0.756   1.005
 4316SOL     OW30089   0.842   3.466   6.508
 4316SOL    HW130090   0.860   3.498   6.596
 4316SOL    HW230091   0.893   3.385   6.501
 4317SOL     OW30092   5.247   5.122   0.160
 4317SOL    HW130093   5.240   5.077   0.076
 4317SOL    HW230094   5.300   5.063   0.214
 4318SOL     OW30095   5.735   1.937   0.825
 4318SOL    HW130096   5.725   2.030   0.803
 4318SOL    HW230097   5.672   1.892   0.768
 4319SOL     OW30098   4.506   0.219   7.313
 4319SOL    HW130099   4.588   0.199   7.359
 4319SOL    HW230100   4.453   0.139   7.322
 4320SOL     OW30101   4.045   2.399   7.672
 4320SOL    HW130102   4.023   2.484   7.714
 4320SOL    HW230103   4.140   2.401   7.664
 4321SOL     OW30104   3.587   3.350   0.114
 4321SOL    HW130105   3.620   3.425   0.064
 4321SOL    HW230106   3.644   3.277   0.089
 4322SOL     OW30107   2.198   4.529   0.431
 4322SOL    HW130108   2.164   4.459   0.486
 4322SOL    HW230109   2.156   4.516   0.346
 4323SOL     OW30110   3.245   6.168   5.843
 4323SOL    HW130111   3.215   6.208   5.925
 4323SOL    HW230112   3.321   6.220   5.818
 4324SOL     OW30113   2.779   2.810   0.605
 4324SOL    HW130114   2.838   2.821   0.680
 4324SOL    HW230115   2.832   2.766   0.539
 4325SOL     OW30116   1.819   5.393   6.427
 4325SOL    HW130117   1.857   5.481   6.417
 4325SOL    HW230118   1.762   5.401   6.504
 4326SOL     OW30119   6.105   5.243   7.213
 4326SOL    HW130120   6.139   5.179   7.150
 4326SOL    HW230121   6.011   5.243   7.199
 4327SOL     OW30122   4.484   3.896   5.720
 4327SOL    HW130123   4.389   3.892   5.706
 4327SOL    HW230124   4.510   3.805   5.736
 4328SOL     OW30125   4.687   5.141   0.981
 4328SOL    HW130126   4.774   5.165   1.013
 4328SOL    HW230127   4.669   5.203   0.911
 4329SOL     OW30128   6.072   5.630   6.995
 4329SOL    HW130129   6.060   5.577   6.916
 4329SOL    HW230130   5.996   5.609   7.050
 4330SOL     OW30131   4.886   1.326   0.490
 4330SOL    HW130132   4.914   1.410   0.526
 4330SOL    HW230133   4.810   1.348   0.437
 4331SOL     OW30134   5.036   4.525   0.117
 4331SOL    HW130135   5.044   4.429   0.113
 4331SOL    HW230136   5.123   4.555   0.140
 4332SOL     OW30137   2.540   3.695   6.460
 4332SOL    HW130138   2.540   3.749   6.539
 4332SOL    HW230139   2.581   3.750   6.393
 4333SOL     OW30140   1.601   1.501   5.901
 4333SOL    HW130141   1.561   1.579   5.939
 4333SOL    HW230142   1.663   1.535   5.836
 4334SOL     OW30143   0.073   4.537   0.349
 4334SOL    HW130144   0.167   4.519   0.357
 4334SOL    HW230145   0.030   4.455   0.373
 4335SOL     OW30146   2.733   3.967   1.705
 4335SOL    HW130147   2.767   3.899   1.647
 4335SOL    HW230148   2.716   4.042   1.647
 4336SOL     OW30149   1.017   6.253   0.943
 4336SOL    HW130150   0.991   6.268   0.852
 4336SOL    HW230151   1.113   6.248   0.940
 4337SOL     OW30152   0.171   0.547   0.242
 4337SOL    HW130153   0.157   0.571   0.333
 4337SOL    HW230154   0.112   0.605   0.193
 4338SOL     OW30155   0.849   2.622   1.253
 4338SOL    HW130156   0.766   2.654   1.220
 4338SOL    HW230157   0.829   2.537   1.293
 4339SOL     OW30158   2.572   3.842   6.725
 4339SOL    HW130159   2.646   3.804   6.771
 4339SOL    HW230160   2.498   3.832   6.785
 4340SOL     OW30161   0.870   0.165   7.720
 4340SOL    HW130162   0.941   0.166   7.654
 4340SOL    HW230163   0.790   0.168   7.665
 4341SOL     OW30164   1.686   2.716   6.957
 4341SOL    HW130165   1.731   2.767   7.025
 4341SOL    HW230166   1.749   2.711   6.886
 4342SOL     OW30167   4.756   1.193   6.547
 4342SOL    HW130168   4.816   1.162   6.616
 4342SOL    HW230169   4.741   1.116   6.493
 4343SOL     OW30170   0.581   2.598   7.327
 4343SOL    HW130171   0.511   2.620   7.265
 4343SOL    HW230172   0.581   2.670   7.389
 4344SOL     OW30173   5.383   1.204   1.575
 4344SOL    HW130174   5.321   1.179   1.644
 4344SOL    HW230175   5.454   1.140   1.582
 4345SOL     OW30176   2.210   4.119   6.998
 4345SOL    HW130177   2.176   4.032   7.019
 4345SOL    HW230178   2.236   4.114   6.907
 4346SOL     OW30179   5.440   0.764   0.231
 4346SOL    HW130180   5.401   0.717   0.157
 4346SOL    HW230181   5.527   0.725   0.240
 4347SOL     OW30182   2.839   5.039   7.777
 4347SOL    HW130183   2.759   5.012   7.732
 4347SOL    HW230184   2.847   4.977   7.849
 4348SOL     OW30185   2.783   6.153   6.218
 4348SOL    HW130186   2.849   6.105   6.169
 4348SOL    HW230187   2.813   6.151   6.308
 4349SOL     OW30188   4.920   2.060   0.516
 4349SOL    HW130189   4.884   2.147   0.530
 4349SOL    HW230190   4.937   2.056   0.423
 4350SOL     OW30191   2.378   2.197   7.501
 4350SOL    HW130192   2.359   2.290   7.490
 4350SOL    HW230193   2.363   2.181   7.594
 4351SOL     OW30194   5.689   4.619   0.751
 4351SOL    HW130195   5.610   4.581   0.713
 4351SOL    HW230196   5.752   4.622   0.679
 4352SOL     OW30197   2.066   0.581   1.428
 4352SOL    HW130198   2.040   0.610   1.340
 4352SOL    HW230199   2.159   0.561   1.420
 4353SOL     OW30200   6.411   1.549   0.931
 4353SOL    HW130201   6.373   1.463   0.948
 4353SOL    HW230202   6.335   1.606   0.917
 4354SOL     OW30203   4.757   3.000   6.639
 4354SOL    HW130204   4.840   3.041   6.614
 4354SOL    HW230205   4.761   2.913   6.598
 4355SOL     OW30206   2.494   3.764   1.644
 4355SOL    HW130207   2.554   3.823   1.691
 4355SOL    HW230208   2.434   3.734   1.712
 4356SOL     OW30209   3.982   6.098   0.770
 4356SOL    HW130210   4.009   6.006   0.765
 4356SOL    HW230211   4.032   6.133   0.844
 4357SOL     OW30212   3.012   3.675   7.713
 4357SOL    HW130213   3.007   3.719   7.626
 4357SOL    HW230214   2.995   3.744   7.776
 4358SOL     OW30215   2.844   6.044   0.758
 4358SOL    HW130216   2.775   6.031   0.693
 4358SOL    HW230217   2.798   6.078   0.835
 4359SOL     OW30218   2.860   2.709   6.534
 4359SOL    HW130219   2.808   2.653   6.478
 4359SOL    HW230220   2.948   2.704   6.498
 4360SOL     OW30221   3.763   0.822   1.890
 4360SOL    HW130222   3.768   0.882   1.965
 4360SOL    HW230223   3.679   0.843   1.849
 4361SOL     OW30224   5.782   0.582   6.359
 4361SOL    HW130225   5.718   0.567   6.290
 4361SOL    HW230226   5.780   0.677   6.373
 4362SOL     OW30227   0.961   0.634   7.444
 4362SOL    HW130228   0.938   0.659   7.533
 4362SOL    HW230229   1.031   0.571   7.454
 4363SOL     OW30230   6.063   3.434   1.196
 4363SOL    HW130231   6.132   3.380   1.158
 4363SOL    HW230232   6.077   3.427   1.291
 4364SOL     OW30233   3.687   2.547   7.578
 4364SOL    HW130234   3.695   2.468   7.524
 4364SOL    HW230235   3.605   2.587   7.550
 4365SOL     OW30236   1.614   2.377   7.433
 4365SOL    HW130237   1.530   2.379   7.386
 4365SOL    HW230238   1.623   2.286   7.460
 4366SOL     OW30239   5.077   2.930   7.180
 4366SOL    HW130240   5.172   2.939   7.167
 4366SOL    HW230241   5.066   2.843   7.218
 4367SOL     OW30242   2.655   0.352   6.666
 4367SOL    HW130243   2.742   0.370   6.628
 4367SOL    HW230244   2.633   0.432   6.714
 4368SOL     OW30245   3.659   4.413   5.856
 4368SOL    HW130246   3.674   4.499   5.894
 4368SOL    HW230247   3.718   4.355   5.904
 4369SOL     OW30248   2.962   4.376   7.156
 4369SOL    HW130249   3.028   4.393   7.223
 4369SOL    HW230250   2.884   4.422   7.186
 4370SOL     OW30251   3.336   1.606   5.761
 4370SOL    HW130252   3.421   1.627   5.722
 4370SOL    HW230253   3.290   1.557   5.693
 4371SOL     OW30254   2.713   3.136   7.583
 4371SOL    HW130255   2.759   3.134   7.666
 4371SOL    HW230256   2.656   3.059   7.586
 4372SOL     OW30257   2.801   6.238   2.077
 4372SOL    HW130258   2.824   6.330   2.076
 4372SOL    HW230259   2.765   6.222   1.989
 4373SOL     OW30260   1.644   0.671   6.107
 4373SOL    HW130261   1.602   0.686   6.022
 4373SOL    HW230262   1.737   0.687   6.090
 4374SOL     OW30263   3.132   1.904   1.009
 4374SOL    HW130264   3.189   1.975   1.040
 4374SOL    HW230265   3.155   1.894   0.917
 4375SOL     OW30266   5.926   1.914   1.206
 4375SOL    HW130267   5.951   1.826   1.179
 4375SOL    HW230268   5.987   1.935   1.278
 4376SOL     OW30269   2.574   3.682   0.401
 4376SOL    HW130270   2.593   3.620   0.472
 4376SOL    HW230271   2.497   3.645   0.358
 4377SOL     OW30272   0.042   1.331   1.211
 4377SOL    HW130273   0.022   1.424   1.218
 4377SOL    HW230274   0.024   1.296   1.298
 4378SOL     OW30275   2.561   0.677   0.813
 4378SOL    HW130276   2.558   0.706   0.721
 4378SOL    HW230277   2.514   0.745   0.861
 4379SOL     OW30278   5.211   0.880   1.625
 4379SOL    HW130279   5.221   0.947   1.693
 4379SOL    HW230280   5.255   0.917   1.549
 4380SOL     OW30281   1.280   1.747   5.943
 4380SOL    HW130282   1.271   1.842   5.944
 4380SOL    HW230283   1.372   1.731   5.966
 4381SOL     OW30284   3.827   5.485   6.516
 4381SOL    HW130285   3.770   5.428   6.464
 4381SOL    HW230286   3.915   5.450   6.502
 4382SOL     OW30287   0.178   0.392   6.083
 4382SOL    HW130288   0.175   0.476   6.037
 4382SOL    HW230289   0.258   0.395   6.135
 4383SOL     OW30290   5.046   5.127   7.571
 4383SOL    HW130291   4.979   5.157   7.632
 4383SOL    HW230292   5.108   5.078   7.625
 4384SOL     OW30293   0.203   0.399   7.229
 4384SOL    HW130294   0.231   0.387   7.320
 4384SOL    HW230295   0.127   0.458   7.235
 4385SOL     OW30296   2.365   0.488   1.228
 4385SOL    HW130297   2.423   0.455   1.297
 4385SOL    HW230298   2.424   0.520   1.160
 4386SOL     OW30299   4.911   5.250   2.474
 4386SOL    HW130300   4.967   5.197   2.417
 4386SOL    HW230301   4.822   5.232   2.445
 4387SOL     OW30302   4.900   5.338   0.994
 4387SOL    HW130303   4.857   5.350   0.909
 4387SOL    HW230304   4.851   5.395   1.053
 4388SOL     OW30305   2.016   4.871   1.575
 4388SOL    HW130306   1.936   4.904   1.534
 4388SOL    HW230307   1.988   4.791   1.620
 4389SOL     OW30308   4.632   0.964   6.815
 4389SOL    HW130309   4.583   0.922   6.886
 4389SOL    HW230310   4.649   0.894   6.752
 4390SOL     OW30311   0.202   6.069   1.574
 4390SOL    HW130312   0.125   6.013   1.576
 4390SOL    HW230313   0.276   6.008   1.573
 4391SOL     OW30314   2.605   1.428   0.369
 4391SOL    HW130315   2.598   1.405   0.276
 4391SOL    HW230316   2.584   1.521   0.372
 4392SOL     OW30317   4.445   0.558   6.692
 4392SOL    HW130318   4.521   0.600   6.733
 4392SOL    HW230319   4.379   0.556   6.761
 4393SOL     OW30320   1.689   2.843   2.171
 4393SOL    HW130321   1.691   2.782   2.098
 4393SOL    HW230322   1.745   2.916   2.143
 4394SOL     OW30323   0.990   1.013   0.861
 4394SOL    HW130324   0.986   0.933   0.912
 4394SOL    HW230325   0.988   0.984   0.770
 4395SOL     OW30326   2.041   0.516   7.727
 4395SOL    HW130327   2.082   0.453   7.786
 4395SOL    HW230328   2.112   0.575   7.703
 4396SOL     OW30329   2.503   0.738   0.217
 4396SOL    HW130330   2.435   0.766   0.156
 4396SOL    HW230331   2.539   0.659   0.177
 4397SOL     OW30332   3.501   6.071   1.648
 4397SOL    HW130333   3.414   6.070   1.688
 4397SOL    HW230334   3.485   6.040   1.558
 4398SOL     OW30335   3.118   3.074   0.286
 4398SOL    HW130336   3.105   3.020   0.364
 4398SOL    HW230337   3.211   3.069   0.268
 4399SOL     OW30338   0.321   1.625   7.730
 4399SOL    HW130339   0.257   1.582   7.671
 4399SOL    HW230340   0.340   1.561   7.798
 4400SOL     OW30341   4.285   2.973   1.348
 4400SOL    HW130342   4.328   2.930   1.275
 4400SOL    HW230343   4.255   2.901   1.404
 4401SOL     OW30344   0.871   4.676   2.158
 4401SOL    HW130345   0.921   4.595   2.160
 4401SOL    HW230346   0.852   4.691   2.065
 4402SOL     OW30347   6.322   6.005   0.931
 4402SOL    HW130348   6.259   5.935   0.946
 4402SOL    HW230349   6.269   6.079   0.899
 4403SOL     OW30350   0.837   6.100   1.096
 4403SOL    HW130351   0.902   6.161   1.060
 4403SOL    HW230352   0.767   6.157   1.128
 4404SOL     OW30353   2.916   0.424   7.711
 4404SOL    HW130354   2.877   0.498   7.662
 4404SOL    HW230355   2.854   0.352   7.698
 4405SOL     OW30356   2.830   2.383   1.416
 4405SOL    HW130357   2.754   2.415   1.367
 4405SOL    HW230358   2.842   2.446   1.486
 4406SOL     OW30359   1.415   5.626   0.300
 4406SOL    HW130360   1.358   5.664   0.234
 4406SOL    HW230361   1.442   5.701   0.354
 4407SOL     OW30362   0.740   3.763   2.158
 4407SOL    HW130363   0.744   3.812   2.241
 4407SOL    HW230364   0.824   3.781   2.116
 4408SOL     OW30365   3.813   1.180   1.770
 4408SOL    HW130366   3.722   1.190   1.741
 4408SOL    HW230367   3.818   1.089   1.799
 4409SOL     OW30368   0.288   3.416   0.196
 4409SOL    HW130369   0.318   3.485   0.137
 4409SOL    HW230370   0.275   3.461   0.280
 4410SOL     OW30371   5.862   2.873   1.246
 4410SOL    HW130372   5.792   2.826   1.200
 4410SOL    HW230373   5.835   2.870   1.338
 4411SOL     OW30374   3.977   4.453   2.551
 4411SOL    HW130375   3.988   4.525   2.488
 4411SOL    HW230376   3.905   4.481   2.607
 4412SOL     OW30377   1.986   1.509   1.073
 4412SOL    HW130378   1.907   1.494   1.021
 4412SOL    HW230379   1.998   1.429   1.124
 4413SOL     OW30380   5.450   6.071   6.994
 4413SOL    HW130381   5.530   6.042   7.039
 4413SOL    HW230382   5.446   6.018   6.915
 4414SOL     OW30383   0.034   4.536   7.513
 4414SOL    HW130384  -0.034   4.482   7.471
 4414SOL    HW230385   0.088   4.474   7.560
 4415SOL     OW30386   0.415   1.517   2.242
 4415SOL    HW130387   0.344   1.570   2.277
 4415SOL    HW230388   0.381   1.428   2.239
 4416SOL     OW30389   3.787   0.632   7.272
 4416SOL    HW130390   3.803   0.642   7.366
 4416SOL    HW230391   3.872   0.645   7.231
 4417SOL     OW30392   5.640   3.652   1.039
 4417SOL    HW130393   5.651   3.620   1.129
 4417SOL    HW230394   5.551   3.687   1.036
 4418SOL     OW30395   2.108   0.465   1.175
 4418SOL    HW130396   2.200   0.466   1.202
 4418SOL    HW230397   2.111   0.463   1.080
 4419SOL     OW30398   2.205   3.756   0.939
 4419SOL    HW130399   2.205   3.692   1.010
 4419SOL    HW230400   2.131   3.731   0.884
 4420SOL     OW30401   1.692   3.609   0.743
 4420SOL    HW130402   1.653   3.551   0.678
 4420SOL    HW230403   1.624   3.674   0.761
 4421SOL     OW30404   4.138   3.018   1.097
 4421SOL    HW130405   4.093   3.004   1.180
 4421SOL    HW230406   4.101   3.100   1.063
 4422SOL     OW30407   6.161   1.129   7.594
 4422SOL    HW130408   6.194   1.040   7.609
 4422SOL    HW230409   6.108   1.148   7.672
 4423SOL     OW30410   1.188   4.958   1.114
 4423SOL    HW130411   1.245   4.948   1.037
 4423SOL    HW230412   1.249   4.972   1.187
 4424SOL     OW30413   4.561   6.203   6.908
 4424SOL    HW130414   4.631   6.193   6.973
 4424SOL    HW230415   4.518   6.117   6.905
 4425SOL     OW30416   4.096   4.176   1.757
 4425SOL    HW130417   4.054   4.255   1.790
 4425SOL    HW230418   4.027   4.111   1.754
 4426SOL     OW30419   4.976   3.083   1.138
 4426SOL    HW130420   5.060   3.055   1.173
 4426SOL    HW230421   4.987   3.176   1.119
 4427SOL     OW30422   4.311   3.162   6.837
 4427SOL    HW130423   4.403   3.140   6.823
 4427SOL    HW230424   4.289   3.222   6.766
 4428SOL     OW30425   5.282   5.828   6.348
 4428SOL    HW130426   5.270   5.842   6.255
 4428SOL    HW230427   5.350   5.760   6.353
 4429SOL     OW30428   6.060   0.924   7.441
 4429SOL    HW130429   6.016   1.009   7.449
 4429SOL    HW230430   6.042   0.897   7.351
 4430SOL     OW30431   2.691   1.391   5.464
 4430SOL    HW130432   2.617   1.449   5.445
 4430SOL    HW230433   2.758   1.449   5.501
 4431SOL     OW30434   1.787   2.431   1.256
 4431SOL    HW130435   1.834   2.390   1.184
 4431SOL    HW230436   1.718   2.369   1.279
 4432SOL     OW30437   6.096   0.185   6.415
 4432SOL    HW130438   6.165   0.171   6.480
 4432SOL    HW230439   6.015   0.189   6.466
 4433SOL     OW30440   0.599   3.310   0.251
 4433SOL    HW130441   0.568   3.277   0.167
 4433SOL    HW230442   0.555   3.395   0.261
 4434SOL     OW30443   3.511   4.261   7.387
 4434SOL    HW130444   3.604   4.245   7.401
 4434SOL    HW230445   3.484   4.194   7.324
 4435SOL     OW30446   5.915   0.045   7.076
 4435SOL    HW130447   5.826   0.067   7.102
 4435SOL    HW230448   5.969   0.115   7.112
 4436SOL     OW30449   4.698   2.211   6.727
 4436SOL    HW130450   4.646   2.276   6.774
 4436SOL    HW230451   4.767   2.261   6.685
 4437SOL     OW30452   1.563   0.196   6.469
 4437SOL    HW130453   1.619   0.121   6.494
 4437SOL    HW230454   1.621   0.271   6.470
 4438SOL     OW30455   4.830   4.714   1.691
 4438SOL    HW130456   4.808   4.779   1.757
 4438SOL    HW230457   4.909   4.671   1.724
 4439SOL     OW30458   0.224   5.051   7.117
 4439SOL    HW130459   0.149   5.099   7.083
 4439SOL    HW230460   0.232   5.080   7.208
 4440SOL     OW30461   5.135   3.424   0.150
 4440SOL    HW130462   5.058   3.416   0.094
 4440SOL    HW230463   5.197   3.360   0.116
 4441SOL     OW30464   1.742   6.317   7.589
 4441SOL    HW130465   1.670   6.379   7.594
 4441SOL    HW230466   1.819   6.367   7.614
 4442SOL     OW30467   0.655   5.366   1.870
 4442SOL    HW130468   0.584   5.309   1.901
 4442SOL    HW230469   0.611   5.441   1.832
 4443SOL     OW30470   1.040   0.337   0.061
 4443SOL    HW130471   1.042   0.242   0.050
 4443SOL    HW230472   0.969   0.366   0.003
 4444SOL     OW30473   3.917   1.619   0.163
 4444SOL    HW130474   3.854   1.684   0.133
 4444SOL    HW230475   3.882   1.588   0.246
 4445SOL     OW30476   5.529   3.348   5.848
 4445SOL    HW130477   5.615   3.357   5.808
 4445SOL    HW230478   5.468   3.376   5.780
 4446SOL     OW30479   1.692   6.006   0.215
 4446SOL    HW130480   1.690   5.911   0.208
 4446SOL    HW230481   1.688   6.037   0.125
 4447SOL     OW30482   4.981   0.662   0.373
 4447SOL    HW130483   5.040   0.603   0.326
 4447SOL    HW230484   5.004   0.749   0.342
 4448SOL     OW30485   1.245   6.304   0.307
 4448SOL    HW130486   1.293   6.259   0.237
 4448SOL    HW230487   1.314   6.336   0.366
 4449SOL     OW30488   2.782   5.465   2.229
 4449SOL    HW130489   2.859   5.496   2.279
 4449SOL    HW230490   2.709   5.514   2.266
 4450SOL     OW30491   3.494   6.240   7.425
 4450SOL    HW130492   3.485   6.335   7.427
 4450SOL    HW230493   3.523   6.217   7.514
 4451SOL     OW30494   5.337   0.232   6.118
 4451SOL    HW130495   5.317   0.306   6.060
 4451SOL    HW230496   5.255   0.219   6.166
 4452SOL     OW30497   0.158   5.095   1.877
 4452SOL    HW130498   0.187   5.062   1.962
 4452SOL    HW230499   0.132   5.186   1.895
 4453SOL     OW30500   1.901   1.148   1.401
 4453SOL    HW130501   1.899   1.224   1.459
 4453SOL    HW230502   1.975   1.164   1.342
 4454SOL     OW30503   0.304   1.123   0.281
 4454SOL    HW130504   0.339   1.105   0.368
 4454SOL    HW230505   0.379   1.112   0.222
 4455SOL     OW30506   4.582   0.591   7.338
 4455SOL    HW130507   4.599   0.533   7.412
 4455SOL    HW230508   4.662   0.586   7.285
 4456SOL     OW30509   3.016   3.067   0.777
 4456SOL    HW130510   3.027   2.976   0.805
 4456SOL    HW230511   3.104   3.096   0.753
 4457SOL     OW30512   4.075   4.960   1.200
 4457SOL    HW130513   4.103   4.929   1.114
 4457SOL    HW230514   4.127   5.039   1.216
 4458SOL     OW30515   4.674   1.907   6.576
 4458SOL    HW130516   4.749   1.892   6.518
 4458SOL    HW230517   4.632   1.986   6.542
 4459SOL     OW30518   5.397   3.609   7.753
 4459SOL    HW130519   5.475   3.555   7.764
 4459SOL    HW230520   5.393   3.661   7.834
 4460SOL     OW30521   3.416   5.647   0.883
 4460SOL    HW130522   3.499   5.696   0.884
 4460SOL    HW230523   3.409   5.615   0.793
 4461SOL     OW30524   5.903   3.754   1.935
 4461SOL    HW130525   5.836   3.739   1.868
 4461SOL    HW230526   5.965   3.682   1.923
 4462SOL     OW30527   1.977   0.239   6.639
 4462SOL    HW130528   1.925   0.315   6.664
 4462SOL    HW230529   1.913   0.173   6.615
 4463SOL     OW30530   2.457   5.283   7.656
 4463SOL    HW130531   2.433   5.376   7.653
 4463SOL    HW230532   2.514   5.276   7.733
 4464SOL     OW30533   4.934   4.200   0.321
 4464SOL    HW130534   4.873   4.234   0.386
 4464SOL    HW230535   4.999   4.151   0.372
 4465SOL     OW30536   0.375   2.833   6.729
 4465SOL    HW130537   0.365   2.928   6.721
 4465SOL    HW230538   0.324   2.798   6.656
 4466SOL     OW30539   0.942   3.420   0.708
 4466SOL    HW130540   0.930   3.400   0.801
 4466SOL    HW230541   0.865   3.471   0.684
 4467SOL     OW30542   5.684   2.125   5.899
 4467SOL    HW130543   5.748   2.130   5.828
 4467SOL    HW230544   5.646   2.038   5.891
 4468SOL     OW30545   5.616   2.942   1.934
 4468SOL    HW130546   5.529   2.960   1.972
 4468SOL    HW230547   5.604   2.958   1.840
 4469SOL     OW30548   0.560   6.203   6.542
 4469SOL    HW130549   0.546   6.117   6.501
 4469SOL    HW230550   0.481   6.218   6.594
 4470SOL     OW30551   1.300   0.139   6.173
 4470SOL    HW130552   1.283   0.096   6.089
 4470SOL    HW230553   1.386   0.106   6.200
 4471SOL     OW30554   2.352   6.310   1.272
 4471SOL    HW130555   2.319   6.390   1.232
 4471SOL    HW230556   2.401   6.340   1.349
 4472SOL     OW30557   1.804   1.214   7.339
 4472SOL    HW130558   1.749   1.137   7.328
 4472SOL    HW230559   1.793   1.239   7.431
 4473SOL     OW30560  -0.002   2.651   1.507
 4473SOL    HW130561   0.030   2.700   1.431
 4473SOL    HW230562   0.077   2.621   1.551
 4474SOL     OW30563   2.440   5.116   7.441
 4474SOL    HW130564   2.448   5.182   7.509
 4474SOL    HW230565   2.402   5.040   7.485
 4475SOL     OW30566   5.455   1.005   1.138
 4475SOL    HW130567   5.530   0.998   1.079
 4475SOL    HW230568   5.427   1.096   1.131
 4476SOL     OW30569   5.182   4.729   1.478
 4476SOL    HW130570   5.236   4.742   1.400
 4476SOL    HW230571   5.178   4.634   1.489
 4477SOL     OW30572   1.407   1.611   7.422
 4477SOL    HW130573   1.390   1.583   7.512
 4477SOL    HW230574   1.433   1.530   7.377
 4478SOL     OW30575   6.352   5.533   7.512
 4478SOL    HW130576   6.397   5.448   7.515
 4478SOL    HW230577   6.309   5.534   7.426
 4479SOL     OW30578   4.838   3.772   5.745
 4479SOL    HW130579   4.784   3.705   5.701
 4479SOL    HW230580   4.927   3.752   5.717
 4480SOL     OW30581   1.928   0.861   1.125
 4480SOL    HW130582   1.944   0.767   1.118
 4480SOL    HW230583   1.852   0.868   1.183
 4481SOL     OW30584   5.053   1.405   5.199
 4481SOL    HW130585   5.006   1.329   5.165
 4481SOL    HW230586   4.995   1.444   5.264
 4482SOL     OW30587   0.379   5.647   7.052
 4482SOL    HW130588   0.437   5.637   6.976
 4482SOL    HW230589   0.298   5.683   7.016
 4483SOL     OW30590   4.132   5.806   1.787
 4483SOL    HW130591   4.150   5.720   1.825
 4483SOL    HW230592   4.038   5.813   1.785
 4484SOL     OW30593   5.725   1.268   2.481
 4484SOL    HW130594   5.643   1.317   2.472
 4484SOL    HW230595   5.701   1.192   2.535
 4485SOL     OW30596   2.772   6.154   5.601
 4485SOL    HW130597   2.865   6.139   5.587
 4485SOL    HW230598   2.763   6.250   5.599
 4486SOL     OW30599   4.617   2.770   6.093
 4486SOL    HW130600   4.619   2.830   6.168
 4486SOL    HW230601   4.586   2.687   6.128
 4487SOL     OW30602   3.564   6.165   7.004
 4487SOL    HW130603   3.650   6.130   6.978
 4487SOL    HW230604   3.525   6.094   7.056
 4488SOL     OW30605   0.987   3.327   0.454
 4488SOL    HW130606   0.972   3.357   0.543
 4488SOL    HW230607   0.923   3.257   0.441
 4489SOL     OW30608   6.386   0.763   7.505
 4489SOL    HW130609   6.405   0.856   7.516
 4489SOL    HW230610   6.315   0.746   7.567
 4490SOL     OW30611   0.599   6.018   1.330
 4490SOL    HW130612   0.612   6.097   1.278
 4490SOL    HW230613   0.676   5.964   1.311
 4491SOL     OW30614   5.484   1.770   7.427
 4491SOL    HW130615   5.421   1.802   7.493
 4491SOL    HW230616   5.429   1.731   7.359
 4492SOL     OW30617   2.466   0.367   0.793
 4492SOL    HW130618   2.460   0.456   0.828
 4492SOL    HW230619   2.501   0.378   0.705
 4493SOL     OW30620   2.439   2.191   7.202
 4493SOL    HW130621   2.377   2.177   7.131
 4493SOL    HW230622   2.385   2.207   7.279
 4494SOL     OW30623   2.136   5.800   7.022
 4494SOL    HW130624   2.175   5.861   6.960
 4494SOL    HW230625   2.209   5.749   7.056
 4495SOL     OW30626   2.225   0.667   1.770
 4495SOL    HW130627   2.247   0.681   1.862
 4495SOL    HW230628   2.209   0.573   1.763
 4496SOL     OW30629   3.428   4.571   5.541
 4496SOL    HW130630   3.429   4.647   5.600
 4496SOL    HW230631   3.500   4.517   5.571
 4497SOL     OW30632   2.861   2.477   0.914
 4497SOL    HW130633   2.927   2.473   0.844
 4497SOL    HW230634   2.904   2.525   0.985
 4498SOL     OW30635   0.492   2.534   0.543
 4498SOL    HW130636   0.434   2.577   0.481
 4498SOL    HW230637   0.572   2.518   0.495
 4499SOL     OW30638   4.944   4.250   1.587
 4499SOL    HW130639   4.901   4.166   1.605
 4499SOL    HW230640   4.896   4.284   1.511
 4500SOL     OW30641   2.856   3.697   1.099
 4500SOL    HW130642   2.882   3.609   1.071
 4500SOL    HW230643   2.939   3.742   1.115
 4501SOL     OW30644   5.361   2.464   5.965
 4501SOL    HW130645   5.330   2.488   5.878
 4501SOL    HW230646   5.402   2.544   5.999
 4502SOL     OW30647   1.977   2.111   5.634
 4502SOL    HW130648   1.988   2.045   5.565
 4502SOL    HW230649   1.984   2.061   5.715
 4503SOL     OW30650   4.219   6.073   7.769
 4503SOL    HW130651   4.128   6.075   7.796
 4503SOL    HW230652   4.216   6.058   7.673
 4504SOL     OW30653   1.005   6.427   5.676
 4504SOL    HW130654   1.057   6.392   5.748
 4504SOL    HW230655   0.930   6.469   5.718
 4505SOL     OW30656   1.829   2.258   1.579
 4505SOL    HW130657   1.865   2.205   1.507
 4505SOL    HW230658   1.743   2.221   1.595
 4506SOL     OW30659   2.336   3.816   7.371
 4506SOL    HW130660   2.367   3.725   7.366
 4506SOL    HW230661   2.408   3.864   7.412
 4507SOL     OW30662   0.601   1.885   2.121
 4507SOL    HW130663   0.524   1.864   2.069
 4507SOL    HW230664   0.634   1.800   2.151
 4508SOL     OW30665   3.063   3.727   1.376
 4508SOL    HW130666   3.096   3.652   1.426
 4508SOL    HW230667   3.013   3.778   1.439
 4509SOL     OW30668   6.206   5.542   1.806
 4509SOL    HW130669   6.229   5.472   1.867
 4509SOL    HW230670   6.140   5.594   1.853
 4510SOL     OW30671   3.905   1.433   1.769
 4510SOL    HW130672   3.890   1.338   1.768
 4510SOL    HW230673   3.822   1.470   1.739
 4511SOL     OW30674   0.982   5.273   5.830
 4511SOL    HW130675   0.897   5.251   5.869
 4511SOL    HW230676   1.027   5.189   5.822
 4512SOL     OW30677   2.670   5.391   0.340
 4512SOL    HW130678   2.693   5.368   0.430
 4512SOL    HW230679   2.607   5.463   0.350
 4513SOL     OW30680   0.265   5.124   5.936
 4513SOL    HW130681   0.264   5.035   5.971
 4513SOL    HW230682   0.357   5.140   5.913
 4514SOL     OW30683   2.601   1.496   5.741
 4514SOL    HW130684   2.669   1.554   5.705
 4514SOL    HW230685   2.520   1.546   5.733
 4515SOL     OW30686   2.027   4.834   0.907
 4515SOL    HW130687   1.977   4.780   0.845
 4515SOL    HW230688   1.984   4.919   0.905
 4516SOL     OW30689   2.920   2.551   1.214
 4516SOL    HW130690   3.012   2.576   1.223
 4516SOL    HW230691   2.902   2.498   1.291
 4517SOL     OW30692   4.576   1.880   2.659
 4517SOL    HW130693   4.634   1.949   2.627
 4517SOL    HW230694   4.522   1.923   2.726
 4518SOL     OW30695   5.022   3.172   7.042
 4518SOL    HW130696   5.107   3.158   7.000
 4518SOL    HW230697   5.014   3.101   7.105
 4519SOL     OW30698   6.414   1.780   5.709
 4519SOL    HW130699   6.410   1.687   5.732
 4519SOL    HW230700   6.465   1.782   5.627
 4520SOL     OW30701   2.322   5.000   7.080
 4520SOL    HW130702   2.333   5.095   7.078
 4520SOL    HW230703   2.227   4.987   7.079
 4521SOL     OW30704   6.138   3.002   6.770
 4521SOL    HW130705   6.223   2.966   6.797
 4521SOL    HW230706   6.092   3.019   6.852
 4522SOL     OW30707   6.025   4.115   0.608
 4522SOL    HW130708   6.066   4.189   0.564
 4522SOL    HW230709   5.931   4.134   0.606
 4523SOL     OW30710   0.280   4.483   2.446
 4523SOL    HW130711   0.285   4.578   2.456
 4523SOL    HW230712   0.358   4.450   2.490
 4524SOL     OW30713   4.632   1.963   0.351
 4524SOL    HW130714   4.668   1.908   0.420
 4524SOL    HW230715   4.546   1.991   0.385
 4525SOL     OW30716   3.073   5.183   7.784
 4525SOL    HW130717   3.011   5.118   7.750
 4525SOL    HW230718   3.086   5.158   7.875
 4526SOL     OW30719   4.273   2.315   1.238
 4526SOL    HW130720   4.287   2.221   1.239
 4526SOL    HW230721   4.350   2.351   1.193
 4527SOL     OW30722   6.293   4.054   7.363
 4527SOL    HW130723   6.320   3.970   7.326
 4527SOL    HW230724   6.340   4.119   7.312
 4528SOL     OW30725   5.498   4.403   0.860
 4528SOL    HW130726   5.447   4.480   0.836
 4528SOL    HW230727   5.508   4.410   0.955
 4529SOL     OW30728   1.388   2.077   6.720
 4529SOL    HW130729   1.373   2.001   6.777
 4529SOL    HW230730   1.483   2.082   6.711
 4530SOL     OW30731   2.447   2.625   6.081
 4530SOL    HW130732   2.524   2.663   6.039
 4530SOL    HW230733   2.391   2.700   6.100
 4531SOL     OW30734   6.347   4.485   1.850
 4531SOL    HW130735   6.388   4.417   1.902
 4531SOL    HW230736   6.317   4.549   1.914
 4532SOL     OW30737   3.425   4.194   6.256
 4532SOL    HW130738   3.477   4.118   6.282
 4532SOL    HW230739   3.425   4.251   6.333
 4533SOL     OW30740   2.751   1.186   7.484
 4533SOL    HW130741   2.838   1.171   7.446
 4533SOL    HW230742   2.769   1.225   7.570
 4534SOL     OW30743   1.758   5.483   7.678
 4534SOL    HW130744   1.841   5.519   7.648
 4534SOL    HW230745   1.697   5.557   7.673
 4535SOL     OW30746   6.091   4.309   6.640
 4535SOL    HW130747   6.040   4.383   6.607
 4535SOL    HW230748   6.176   4.318   6.597
 4536SOL     OW30749   4.173   2.367   6.643
 4536SOL    HW130750   4.225   2.329   6.714
 4536SOL    HW230751   4.107   2.300   6.623
 4537SOL     OW30752   3.473   5.053   0.444
 4537SOL    HW130753   3.511   4.966   0.435
 4537SOL    HW230754   3.380   5.040   0.425
 4538SOL     OW30755   3.525   4.779   5.120
 4538SOL    HW130756   3.485   4.699   5.156
 4538SOL    HW230757   3.601   4.748   5.071
 4539SOL     OW30758   3.910   5.054   0.286
 4539SOL    HW130759   3.883   4.980   0.340
 4539SOL    HW230760   3.874   5.131   0.331
 4540SOL     OW30761   3.937   5.461   7.079
 4540SOL    HW130762   3.993   5.470   7.002
 4540SOL    HW230763   3.996   5.470   7.153
 4541SOL     OW30764   2.731   3.628   0.110
 4541SOL    HW130765   2.711   3.630   0.204
 4541SOL    HW230766   2.821   3.597   0.105
 4542SOL     OW30767   1.642   2.078   6.740
 4542SOL    HW130768   1.712   2.012   6.748
 4542SOL    HW230769   1.681   2.158   6.775
 4543SOL     OW30770   0.038   0.971   1.505
 4543SOL    HW130771   0.125   0.957   1.542
 4543SOL    HW230772  -0.021   0.964   1.580
 4544SOL     OW30773   3.899   3.440   0.973
 4544SOL    HW130774   3.810   3.411   0.994
 4544SOL    HW230775   3.914   3.407   0.884
 4545SOL     OW30776   3.897   2.508   7.084
 4545SOL    HW130777   3.957   2.450   7.129
 4545SOL    HW230778   3.863   2.566   7.153
 4546SOL     OW30779   5.092   2.876   7.797
 4546SOL    HW130780   5.025   2.812   7.775
 4546SOL    HW230781   5.174   2.836   7.768
 4547SOL     OW30782   0.296   0.067   7.795
 4547SOL    HW130783   0.390   0.066   7.774
 4547SOL    HW230784   0.284   0.145   7.848
 4548SOL     OW30785   2.055   2.571   6.662
 4548SOL    HW130786   1.965   2.568   6.693
 4548SOL    HW230787   2.079   2.479   6.650
 4549SOL     OW30788   2.431   5.933   1.917
 4549SOL    HW130789   2.424   5.847   1.957
 4549SOL    HW230790   2.481   5.985   1.980
 4550SOL     OW30791   2.290   3.869   7.776
 4550SOL    HW130792   2.299   3.802   7.844
 4550SOL    HW230793   2.376   3.870   7.732
 4551SOL     OW30794   4.255   0.271   1.365
 4551SOL    HW130795   4.275   0.230   1.449
 4551SOL    HW230796   4.298   0.356   1.369
 4552SOL     OW30797   3.486   5.749   1.155
 4552SOL    HW130798   3.506   5.790   1.071
 4552SOL    HW230799   3.553   5.682   1.165
 4553SOL     OW30800   0.684   4.274   7.179
 4553SOL    HW130801   0.744   4.202   7.199
 4553SOL    HW230802   0.691   4.286   7.085
 4554SOL     OW30803   4.078   3.414   6.322
 4554SOL    HW130804   4.041   3.486   6.371
 4554SOL    HW230805   4.165   3.445   6.297
 4555SOL     OW30806   2.521   5.767   7.578
 4555SOL    HW130807   2.539   5.859   7.560
 4555SOL    HW230808   2.594   5.738   7.633
 4556SOL     OW30809   1.310   1.951   7.681
 4556SOL    HW130810   1.381   1.932   7.620
 4556SOL    HW230811   1.231   1.923   7.636
 4557SOL     OW30812   0.476   2.284   1.416
 4557SOL    HW130813   0.509   2.354   1.472
 4557SOL    HW230814   0.536   2.283   1.341
 4558SOL     OW30815   1.654   0.124   1.433
 4558SOL    HW130816   1.659   0.180   1.512
 4558SOL    HW230817   1.711   0.168   1.370
 4559SOL     OW30818   3.405   2.193   7.211
 4559SOL    HW130819   3.462   2.184   7.135
 4559SOL    HW230820   3.319   2.166   7.180
 4560SOL     OW30821   6.054   1.692   7.458
 4560SOL    HW130822   6.088   1.779   7.435
 4560SOL    HW230823   6.015   1.704   7.544
 4561SOL     OW30824   5.866   0.241   1.641
 4561SOL    HW130825   5.880   0.289   1.723
 4561SOL    HW230826   5.866   0.149   1.667
 4562SOL     OW30827   1.205   2.295   1.586
 4562SOL    HW130828   1.287   2.250   1.566
 4562SOL    HW230829   1.214   2.323   1.677
 4563SOL     OW30830   0.932   5.888   6.874
 4563SOL    HW130831   0.890   5.869   6.958
 4563SOL    HW230832   0.895   5.823   6.814
 4564SOL     OW30833   4.976   2.989   5.979
 4564SOL    HW130834   4.923   2.909   5.967
 4564SOL    HW230835   4.914   3.054   6.010
 4565SOL     OW30836   2.240   0.581   0.325
 4565SOL    HW130837   2.160   0.532   0.346
 4565SOL    HW230838   2.211   0.672   0.316
 4566SOL     OW30839   5.525   4.759   1.509
 4566SOL    HW130840   5.475   4.837   1.533
 4566SOL    HW230841   5.500   4.741   1.418
 4567SOL     OW30842   2.634   4.236   7.080
 4567SOL    HW130843   2.646   4.308   7.141
 4567SOL    HW230844   2.576   4.175   7.125
 4568SOL     OW30845   5.801   5.720   0.234
 4568SOL    HW130846   5.744   5.705   0.159
 4568SOL    HW230847   5.882   5.755   0.196
 4569SOL     OW30848   2.104   6.286   2.170
 4569SOL    HW130849   2.093   6.222   2.101
 4569SOL    HW230850   2.019   6.330   2.176
 4570SOL     OW30851   3.109   4.406   7.386
 4570SOL    HW130852   3.198   4.440   7.378
 4570SOL    HW230853   3.120   4.312   7.396
 4571SOL     OW30854   0.021   4.675   0.601
 4571SOL    HW130855  -0.030   4.755   0.588
 4571SOL    HW230856   0.055   4.654   0.514
 4572SOL     OW30857   0.003   0.227   6.206
 4572SOL    HW130858  -0.022   0.265   6.290
 4572SOL    HW230859   0.062   0.291   6.166
 4573SOL     OW30860   4.786   4.221   1.370
 4573SOL    HW130861   4.851   4.152   1.357
 4573SOL    HW230862   4.705   4.174   1.390
 4574SOL     OW30863   0.649   2.121   0.429
 4574SOL    HW130864   0.697   2.141   0.510
 4574SOL    HW230865   0.702   2.055   0.385
 4575SOL     OW30866   5.066   2.214   1.423
 4575SOL    HW130867   5.138   2.238   1.365
 4575SOL    HW230868   5.097   2.237   1.511
 4576SOL     OW30869   3.348   6.341   0.726
 4576SOL    HW130870   3.343   6.246   0.729
 4576SOL    HW230871   3.415   6.360   0.661
 4577SOL     OW30872   6.119   0.550   0.320
 4577SOL    HW130873   6.198   0.522   0.275
 4577SOL    HW230874   6.129   0.645   0.329
 4578SOL     OW30875   5.967   0.809   1.475
 4578SOL    HW130876   5.900   0.875   1.457
 4578SOL    HW230877   5.942   0.733   1.423
 4579SOL     OW30878   5.800   5.236   2.049
 4579SOL    HW130879   5.734   5.305   2.045
 4579SOL    HW230880   5.882   5.280   2.028
 4580SOL     OW30881   5.228   2.001   0.532
 4580SOL    HW130882   5.241   2.008   0.438
 4580SOL    HW230883   5.142   2.039   0.547
 4581SOL     OW30884   1.929   1.864   6.173
 4581SOL    HW130885   1.873   1.849   6.097
 4581SOL    HW230886   1.979   1.942   6.151
 4582SOL     OW30887   4.759   0.668   0.962
 4582SOL    HW130888   4.738   0.692   1.052
 4582SOL    HW230889   4.835   0.722   0.939
 4583SOL     OW30890   5.246   5.684   0.912
 4583SOL    HW130891   5.220   5.657   1.001
 4583SOL    HW230892   5.164   5.708   0.870
 4584SOL     OW30893   3.590   1.897   7.150
 4584SOL    HW130894   3.650   1.896   7.224
 4584SOL    HW230895   3.600   1.984   7.112
 4585SOL     OW30896   3.394   5.162   7.508
 4585SOL    HW130897   3.379   5.178   7.415
 4585SOL    HW230898   3.484   5.191   7.523
 4586SOL     OW30899   5.416   1.324   6.562
 4586SOL    HW130900   5.462   1.279   6.633
 4586SOL    HW230901   5.428   1.417   6.582
 4587SOL     OW30902   2.382   5.259   7.187
 4587SOL    HW130903   2.351   5.340   7.229
 4587SOL    HW230904   2.402   5.201   7.261
 4588SOL     OW30905   3.626   6.059   7.289
 4588SOL    HW130906   3.560   5.989   7.291
 4588SOL    HW230907   3.581   6.136   7.323
 4589SOL     OW30908   5.764   2.017   6.746
 4589SOL    HW130909   5.711   1.943   6.717
 4589SOL    HW230910   5.710   2.062   6.811
 4590SOL     OW30911   5.480   5.829   1.098
 4590SOL    HW130912   5.388   5.847   1.118
 4590SOL    HW230913   5.483   5.825   1.003
 4591SOL     OW30914   2.209   6.414   7.391
 4591SOL    HW130915   2.119   6.445   7.377
 4591SOL    HW230916   2.203   6.319   7.383
 4592SOL     OW30917   1.951   3.657   0.786
 4592SOL    HW130918   1.859   3.630   0.783
 4592SOL    HW230919   1.979   3.653   0.694
 4593SOL     OW30920   4.464   2.117   6.003
 4593SOL    HW130921   4.527   2.182   5.974
 4593SOL    HW230922   4.464   2.051   5.934
 4594SOL     OW30923   3.686   5.626   7.577
 4594SOL    HW130924   3.649   5.707   7.613
 4594SOL    HW230925   3.628   5.603   7.504
 4595SOL     OW30926   1.270   1.537   1.470
 4595SOL    HW130927   1.354   1.524   1.514
 4595SOL    HW230928   1.227   1.605   1.523
 4596SOL     OW30929   4.581   2.638   1.655
 4596SOL    HW130930   4.615   2.642   1.744
 4596SOL    HW230931   4.486   2.645   1.665
 4597SOL     OW30932   6.151   4.486   0.049
 4597SOL    HW130933   6.084   4.553   0.034
 4597SOL    HW230934   6.218   4.505  -0.017
 4598SOL     OW30935   4.399   3.798   0.031
 4598SOL    HW130936   4.418   3.824  -0.059
 4598SOL    HW230937   4.430   3.707   0.037
 4599SOL     OW30938   5.010   6.335   7.572
 4599SOL    HW130939   4.946   6.375   7.631
 4599SOL    HW230940   5.081   6.305   7.630
 4600SOL     OW30941   2.964   2.631   7.663
 4600SOL    HW130942   2.917   2.660   7.585
 4600SOL    HW230943   3.055   2.659   7.648
 4601SOL     OW30944   4.682   1.579   0.731
 4601SOL    HW130945   4.716   1.498   0.693
 4601SOL    HW230946   4.744   1.599   0.802
 4602SOL     OW30947   5.078   2.111   6.020
 4602SOL    HW130948   5.067   2.016   6.026
 4602SOL    HW230949   5.006   2.140   5.963
 4603SOL     OW30950   6.052   2.758   7.593
 4603SOL    HW130951   5.976   2.771   7.649
 4603SOL    HW230952   6.025   2.790   7.507
 4604SOL     OW30953   5.026   1.618   6.071
 4604SOL    HW130954   5.071   1.536   6.092
 4604SOL    HW230955   5.016   1.661   6.156
 4605SOL     OW30956   1.236   2.493   0.769
 4605SOL    HW130957   1.282   2.553   0.828
 4605SOL    HW230958   1.221   2.544   0.690
 4606SOL     OW30959   4.987   2.774   5.675
 4606SOL    HW130960   5.028   2.690   5.653
 4606SOL    HW230961   4.964   2.766   5.767
 4607SOL     OW30962   3.243   4.705   1.074
 4607SOL    HW130963   3.258   4.753   1.155
 4607SOL    HW230964   3.326   4.713   1.027
 4608SOL     OW30965   1.398   1.094   5.937
 4608SOL    HW130966   1.396   1.042   6.016
 4608SOL    HW230967   1.359   1.038   5.870
 4609SOL     OW30968   1.772   1.712   0.371
 4609SOL    HW130969   1.729   1.759   0.299
 4609SOL    HW230970   1.849   1.766   0.392
 4610SOL     OW30971   4.698   5.150   7.047
 4610SOL    HW130972   4.714   5.242   7.063
 4610SOL    HW230973   4.766   5.124   6.985
 4611SOL     OW30974   6.394   1.232   1.459
 4611SOL    HW130975   6.455   1.160   1.443
 4611SOL    HW230976   6.409   1.257   1.550
 4612SOL     OW30977   0.923   5.775   0.021
 4612SOL    HW130978   0.990   5.724   0.066
 4612SOL    HW230979   0.864   5.804   0.090
 4613SOL     OW30980   5.759   0.046   6.182
 4613SOL    HW130981   5.718   0.113   6.236
 4613SOL    HW230982   5.836   0.018   6.231
 4614SOL     OW30983   5.326   5.599   7.480
 4614SOL    HW130984   5.343   5.576   7.389
 4614SOL    HW230985   5.234   5.575   7.494
 4615SOL     OW30986   3.137   3.222   6.925
 4615SOL    HW130987   3.166   3.224   7.016
 4615SOL    HW230988   3.199   3.279   6.879
 4616SOL     OW30989   6.119   1.638   1.803
 4616SOL    HW130990   6.040   1.620   1.752
 4616SOL    HW230991   6.191   1.618   1.744
 4617SOL     OW30992   4.897   3.220   6.316
 4617SOL    HW130993   4.967   3.161   6.343
 4617SOL    HW230994   4.890   3.284   6.387
 4618SOL     OW30995   4.523   6.144   7.567
 4618SOL    HW130996   4.542   6.095   7.647
 4618SOL    HW230997   4.449   6.099   7.527
 4619SOL     OW30998   1.265   3.758   0.444
 4619SOL    HW130999   1.285   3.751   0.351
 4619SOL    HW231000   1.284   3.849   0.466
 4620SOL     OW31001   0.591   5.023   1.191
 4620SOL    HW131002   0.550   5.107   1.211
 4620SOL    HW231003   0.561   5.002   1.103
 4621SOL     OW31004   0.728   1.229   0.328
 4621SOL    HW131005   0.684   1.313   0.345
 4621SOL    HW231006   0.811   1.252   0.287
 4622SOL     OW31007   3.416   6.429   7.718
 4622SOL    HW131008   3.446   6.516   7.744
 4622SOL    HW231009   3.446   6.371   7.787
 4623SOL     OW31010   3.205   4.457   1.205
 4623SOL    HW131011   3.258   4.523   1.250
 4623SOL    HW231012   3.252   4.439   1.124
 4624SOL     OW31013   1.608   0.883   0.112
 4624SOL    HW131014   1.591   0.813   0.049
 4624SOL    HW231015   1.569   0.853   0.194
 4625SOL     OW31016   0.434   0.223   6.649
 4625SOL    HW131017   0.378   0.194   6.721
 4625SOL    HW231018   0.521   0.192   6.673
 4626SOL     OW31019   5.724   0.027   5.698
 4626SOL    HW131020   5.805   0.005   5.652
 4626SOL    HW231021   5.662   0.049   5.628
 4627SOL     OW31022   2.348   0.427   7.062
 4627SOL    HW131023   2.305   0.490   7.005
 4627SOL    HW231024   2.407   0.378   7.005
 4628SOL     OW31025   3.404   0.774   1.621
 4628SOL    HW131026   3.439   0.726   1.546
 4628SOL    HW231027   3.392   0.863   1.589
 4629SOL     OW31028   5.104   0.114   6.373
 4629SOL    HW131029   5.082   0.145   6.285
 4629SOL    HW231030   5.153   0.188   6.412
 4630SOL     OW31031   0.716   4.596   6.587
 4630SOL    HW131032   0.643   4.577   6.528
 4630SOL    HW231033   0.703   4.687   6.613
 4631SOL     OW31034   6.287   4.800   0.855
 4631SOL    HW131035   6.381   4.782   0.857
 4631SOL    HW231036   6.264   4.792   0.762
 4632SOL     OW31037   2.983   0.149   0.316
 4632SOL    HW131038   3.007   0.226   0.368
 4632SOL    HW231039   3.050   0.143   0.249
 4633SOL     OW31040   5.240   3.447   0.899
 4633SOL    HW131041   5.221   3.531   0.857
 4633SOL    HW231042   5.336   3.440   0.894
 4634SOL     OW31043   0.996   5.075   5.369
 4634SOL    HW131044   1.079   5.054   5.327
 4634SOL    HW231045   0.939   5.106   5.298
 4635SOL     OW31046   0.695   3.898   2.382
 4635SOL    HW131047   0.624   3.959   2.360
 4635SOL    HW231048   0.732   3.932   2.464
 4636SOL     OW31049   3.088   1.420   6.343
 4636SOL    HW131050   3.161   1.478   6.368
 4636SOL    HW231051   3.127   1.356   6.284
 4637SOL     OW31052   4.594   5.597   0.164
 4637SOL    HW131053   4.637   5.681   0.183
 4637SOL    HW231054   4.504   5.610   0.195
 4638SOL     OW31055   2.663   0.492   0.264
 4638SOL    HW131056   2.720   0.416   0.258
 4638SOL    HW231057   2.576   0.458   0.243
 4639SOL     OW31058   3.114   5.185   0.257
 4639SOL    HW131059   3.192   5.237   0.238
 4639SOL    HW231060   3.145   5.117   0.317
 4640SOL     OW31061   4.522   6.140   5.932
 4640SOL    HW131062   4.566   6.221   5.907
 4640SOL    HW231063   4.521   6.088   5.852
 4641SOL     OW31064   3.913   4.436   6.151
 4641SOL    HW131065   3.900   4.402   6.062
 4641SOL    HW231066   3.988   4.495   6.143
 4642SOL     OW31067   6.380   0.559   7.053
 4642SOL    HW131068   6.422   0.529   7.134
 4642SOL    HW231069   6.450   0.560   6.988
 4643SOL     OW31070   5.194   2.449   0.153
 4643SOL    HW131071   5.271   2.496   0.185
 4643SOL    HW231072   5.199   2.363   0.195
 4644SOL     OW31073   0.603   3.872   7.227
 4644SOL    HW131074   0.571   3.899   7.314
 4644SOL    HW231075   0.694   3.847   7.242
 4645SOL     OW31076   2.522   3.376   6.169
 4645SOL    HW131077   2.430   3.398   6.162
 4645SOL    HW231078   2.527   3.317   6.245
 4646SOL     OW31079   6.075   2.942   5.788
 4646SOL    HW131080   5.996   2.960   5.737
 4646SOL    HW231081   6.109   2.861   5.751
 4647SOL     OW31082   6.013   1.921   0.936
 4647SOL    HW131083   5.933   1.921   0.883
 4647SOL    HW231084   5.982   1.920   1.026
 4648SOL     OW31085   3.146   4.201   0.534
 4648SOL    HW131086   3.171   4.289   0.562
 4648SOL    HW231087   3.229   4.158   0.513
 4649SOL     OW31088   3.945   4.602   6.898
 4649SOL    HW131089   3.850   4.593   6.885
 4649SOL    HW231090   3.955   4.608   6.993
 4650SOL     OW31091   2.597   0.249   1.231
 4650SOL    HW131092   2.571   0.235   1.140
 4650SOL    HW231093   2.543   0.190   1.282
 4651SOL     OW31094   4.855   3.372   6.035
 4651SOL    HW131095   4.865   3.375   5.940
 4651SOL    HW231096   4.815   3.286   6.051
 4652SOL     OW31097   5.402   3.377   6.111
 4652SOL    HW131098   5.308   3.358   6.112
 4652SOL    HW231099   5.436   3.332   6.034
 4653SOL     OW31100   3.682   0.578   0.425
 4653SOL    HW131101   3.776   0.559   0.431
 4653SOL    HW231102   3.641   0.509   0.477
 4654SOL     OW31103   2.480   5.571   0.365
 4654SOL    HW131104   2.391   5.567   0.331
 4654SOL    HW231105   2.478   5.644   0.428
 4655SOL     OW31106   0.126   5.175   6.736
 4655SOL    HW131107   0.083   5.177   6.822
 4655SOL    HW231108   0.162   5.087   6.730
 4656SOL     OW31109   0.898   4.294   1.829
 4656SOL    HW131110   0.804   4.312   1.817
 4656SOL    HW231111   0.938   4.320   1.746
 4657SOL     OW31112   2.588   5.040   1.408
 4657SOL    HW131113   2.618   4.986   1.335
 4657SOL    HW231114   2.575   5.127   1.369
 4658SOL     OW31115   5.933   3.520   5.599
 4658SOL    HW131116   5.845   3.482   5.602
 4658SOL    HW231117   5.990   3.448   5.574
 4659SOL     OW31118   2.102   3.803   6.425
 4659SOL    HW131119   2.161   3.879   6.429
 4659SOL    HW231120   2.066   3.795   6.513
 4660SOL     OW31121   0.083   6.170   6.736
 4660SOL    HW131122   0.062   6.094   6.791
 4660SOL    HW231123   0.069   6.138   6.646
 4661SOL     OW31124   5.738   0.131   7.339
 4661SOL    HW131125   5.712   0.042   7.363
 4661SOL    HW231126   5.824   0.143   7.381
 4662SOL     OW31127   4.171   1.866   5.979
 4662SOL    HW131128   4.219   1.828   6.053
 4662SOL    HW231129   4.238   1.899   5.920
 4663SOL     OW31130   5.949   1.517   0.904
 4663SOL    HW131131   5.854   1.515   0.903
 4663SOL    HW231132   5.974   1.555   0.820
 4664SOL     OW31133   4.717   5.426   0.376
 4664SOL    HW131134   4.673   5.447   0.458
 4664SOL    HW231135   4.753   5.509   0.345
 4665SOL     OW31136   0.619   0.837   6.694
 4665SOL    HW131137   0.593   0.818   6.604
 4665SOL    HW231138   0.715   0.844   6.691
 4666SOL     OW31139   3.249   4.884   6.388
 4666SOL    HW131140   3.177   4.938   6.355
 4666SOL    HW231141   3.249   4.806   6.332
 4667SOL     OW31142   2.599   2.736   6.392
 4667SOL    HW131143   2.512   2.710   6.363
 4667SOL    HW231144   2.585   2.778   6.476
 4668SOL     OW31145   4.368   1.955   5.793
 4668SOL    HW131146   4.353   2.030   5.736
 4668SOL    HW231147   4.398   1.886   5.733
 4669SOL     OW31148   1.520   2.317   1.361
 4669SOL    HW131149   1.492   2.406   1.379
 4669SOL    HW231150   1.521   2.274   1.447
 4670SOL     OW31151   3.230   0.316   0.933
 4670SOL    HW131152   3.269   0.297   1.018
 4670SOL    HW231153   3.178   0.239   0.913
 4671SOL     OW31154   6.151   4.076   0.873
 4671SOL    HW131155   6.210   4.001   0.873
 4671SOL    HW231156   6.115   4.078   0.784
 4672SOL     OW31157   1.691   1.234   6.971
 4672SOL    HW131158   1.723   1.241   6.880
 4672SOL    HW231159   1.728   1.152   7.002
 4673SOL     OW31160   2.973   2.489   2.251
 4673SOL    HW131161   3.013   2.429   2.314
 4673SOL    HW231162   2.983   2.575   2.290
 4674SOL     OW31163   0.287   2.504   0.776
 4674SOL    HW131164   0.378   2.532   0.779
 4674SOL    HW231165   0.245   2.552   0.847
 4675SOL     OW31166   1.681   3.390   7.027
 4675SOL    HW131167   1.649   3.301   7.042
 4675SOL    HW231168   1.746   3.404   7.095
 4676SOL     OW31169   4.703   4.451   6.066
 4676SOL    HW131170   4.720   4.446   6.160
 4676SOL    HW231171   4.748   4.531   6.038
 4677SOL     OW31172   5.260   4.191   6.414
 4677SOL    HW131173   5.194   4.126   6.438
 4677SOL    HW231174   5.225   4.273   6.448
 4678SOL     OW31175   6.435   1.504   0.180
 4678SOL    HW131176   6.520   1.464   0.199
 4678SOL    HW231177   6.414   1.553   0.260
 4679SOL     OW31178   0.323   2.040   1.037
 4679SOL    HW131179   0.389   1.988   1.084
 4679SOL    HW231180   0.373   2.095   0.978
 4680SOL     OW31181   0.911   2.110   0.067
 4680SOL    HW131182   0.819   2.090   0.049
 4680SOL    HW231183   0.953   2.107  -0.019
 4681SOL     OW31184   1.160   2.535   6.219
 4681SOL    HW131185   1.226   2.581   6.271
 4681SOL    HW231186   1.092   2.600   6.203
 4682SOL     OW31187   2.906   0.149   6.968
 4682SOL    HW131188   2.877   0.209   7.037
 4682SOL    HW231189   2.827   0.102   6.941
 4683SOL     OW31190   3.602   5.638   5.416
 4683SOL    HW131191   3.642   5.564   5.370
 4683SOL    HW231192   3.522   5.656   5.365
 4684SOL     OW31193   3.998   1.495   7.234
 4684SOL    HW131194   4.058   1.436   7.189
 4684SOL    HW231195   3.964   1.552   7.164
 4685SOL     OW31196   4.239   2.916   6.928
 4685SOL    HW131197   4.242   3.010   6.914
 4685SOL    HW231198   4.179   2.884   6.860
 4686SOL     OW31199   2.928   1.968   1.434
 4686SOL    HW131200   2.922   1.936   1.344
 4686SOL    HW231201   2.985   2.044   1.429
 4687SOL     OW31202   0.081   0.168   7.119
 4687SOL    HW131203   0.113   0.155   7.030
 4687SOL    HW231204   0.114   0.254   7.145
 4688SOL     OW31205   1.945   5.541   6.696
 4688SOL    HW131206   1.882   5.601   6.656
 4688SOL    HW231207   1.938   5.558   6.790
 4689SOL     OW31208   3.914   6.221   6.714
 4689SOL    HW131209   3.877   6.279   6.780
 4689SOL    HW231210   3.986   6.271   6.675
 4690SOL     OW31211   3.799   4.279   0.508
 4690SOL    HW131212   3.712   4.319   0.505
 4690SOL    HW231213   3.810   4.239   0.423
 4691SOL     OW31214   5.875   0.494   7.173
 4691SOL    HW131215   5.969   0.509   7.172
 4691SOL    HW231216   5.862   0.422   7.233
 4692SOL     OW31217   2.492   2.161   5.963
 4692SOL    HW131218   2.531   2.163   5.875
 4692SOL    HW231219   2.559   2.198   6.020
 4693SOL     OW31220   4.063   0.673   0.982
 4693SOL    HW131221   4.036   0.592   0.941
 4693SOL    HW231222   4.121   0.645   1.054
 4694SOL     OW31223   2.739   2.459   7.731
 4694SOL    HW131224   2.785   2.375   7.732
 4694SOL    HW231225   2.803   2.521   7.694
 4695SOL     OW31226   6.036   1.695   0.445
 4695SOL    HW131227   6.057   1.781   0.408
 4695SOL    HW231228   5.944   1.703   0.472
 4696SOL     OW31229   4.546   0.771   0.815
 4696SOL    HW131230   4.596   0.711   0.872
 4696SOL    HW231231   4.561   0.858   0.852
 4697SOL     OW31232   3.732   4.316   6.503
 4697SOL    HW131233   3.727   4.383   6.435
 4697SOL    HW231234   3.724   4.233   6.455
 4698SOL     OW31235   2.908   3.244   7.169
 4698SOL    HW131236   2.947   3.317   7.218
 4698SOL    HW231237   2.944   3.253   7.081
 4699SOL     OW31238   2.337   1.840   6.200
 4699SOL    HW131239   2.350   1.931   6.172
 4699SOL    HW231240   2.376   1.788   6.130
 4700SOL     OW31241   6.216   3.678   1.545
 4700SOL    HW131242   6.298   3.728   1.538
 4700SOL    HW231243   6.245   3.587   1.550
 4701SOL     OW31244   1.978   4.196   1.402
 4701SOL    HW131245   2.033   4.224   1.330
 4701SOL    HW231246   2.004   4.105   1.419
 4702SOL     OW31247   6.093   3.384   7.387
 4702SOL    HW131248   6.051   3.329   7.453
 4702SOL    HW231249   6.160   3.432   7.434
 4703SOL     OW31250   0.006   4.130   0.239
 4703SOL    HW131251  -0.078   4.094   0.212
 4703SOL    HW231252   0.055   4.055   0.272
 4704SOL     OW31253   5.082   2.127   6.326
 4704SOL    HW131254   5.090   2.176   6.244
 4704SOL    HW231255   4.993   2.091   6.323
 4705SOL     OW31256   3.470   5.973   6.821
 4705SOL    HW131257   3.441   5.992   6.732
 4705SOL    HW231258   3.518   6.052   6.848
 4706SOL     OW31259   1.757   5.512   6.126
 4706SOL    HW131260   1.811   5.541   6.052
 4706SOL    HW231261   1.689   5.578   6.133
 4707SOL     OW31262   5.568   0.555   1.265
 4707SOL    HW131263   5.543   0.465   1.245
 4707SOL    HW231264   5.593   0.592   1.180
 4708SOL     OW31265   1.119   4.366   0.762
 4708SOL    HW131266   1.078   4.284   0.734
 4708SOL    HW231267   1.060   4.399   0.829
 4709SOL     OW31268   3.897   2.978   0.261
 4709SOL    HW131269   3.900   3.068   0.295
 4709SOL    HW231270   3.916   2.987   0.167
 4710SOL     OW31271   3.948   6.091   5.926
 4710SOL    HW131272   4.029   6.074   5.875
 4710SOL    HW231273   3.912   6.003   5.942
 4711SOL     OW31274   0.800   0.449   6.838
 4711SOL    HW131275   0.825   0.357   6.835
 4711SOL    HW231276   0.868   0.491   6.890
 4712SOL     OW31277   3.303   3.375   1.654
 4712SOL    HW131278   3.328   3.286   1.678
 4712SOL    HW231279   3.345   3.430   1.720
 4713SOL     OW31280   0.294   4.485   6.137
 4713SOL    HW131281   0.298   4.402   6.090
 4713SOL    HW231282   0.272   4.550   6.069
 4714SOL     OW31283   3.149   2.459   1.533
 4714SOL    HW131284   3.237   2.483   1.505
 4714SOL    HW231285   3.132   2.512   1.611
 4715SOL     OW31286   0.559   6.227   0.382
 4715SOL    HW131287   0.499   6.267   0.445
 4715SOL    HW231288   0.525   6.253   0.297
 4716SOL     OW31289   5.395   2.051   7.100
 4716SOL    HW131290   5.484   2.017   7.090
 4716SOL    HW231291   5.354   1.992   7.164
 4717SOL     OW31292   3.499   3.867   6.727
 4717SOL    HW131293   3.565   3.842   6.663
 4717SOL    HW231294   3.492   3.962   6.719
 4718SOL     OW31295   2.768   1.956   7.631
 4718SOL    HW131296   2.760   2.006   7.714
 4718SOL    HW231297   2.761   1.865   7.658
 4719SOL     OW31298   4.865   3.334   0.056
 4719SOL    HW131299   4.885   3.250   0.016
 4719SOL    HW231300   4.865   3.316   0.150
 4720SOL     OW31301   2.703   3.033   7.161
 4720SOL    HW131302   2.753   2.955   7.140
 4720SOL    HW231303   2.768   3.104   7.163
 4721SOL     OW31304   1.132   3.182   0.929
 4721SOL    HW131305   1.222   3.207   0.950
 4721SOL    HW231306   1.108   3.118   0.996
 4722SOL     OW31307   0.658   5.943   5.478
 4722SOL    HW131308   0.569   5.907   5.476
 4722SOL    HW231309   0.649   6.033   5.446
 4723SOL     OW31310   4.009   0.443   5.944
 4723SOL    HW131311   4.096   0.404   5.944
 4723SOL    HW231312   4.022   0.530   5.905
 4724SOL     OW31313   2.344   5.003   0.001
 4724SOL    HW131314   2.315   4.984   0.090
 4724SOL    HW231315   2.336   5.098  -0.007
 4725SOL     OW31316   4.277   2.823   0.065
 4725SOL    HW131317   4.251   2.739   0.027
 4725SOL    HW231318   4.297   2.879  -0.010
 4726SOL     OW31319   0.980   0.099   7.359
 4726SOL    HW131320   0.980   0.006   7.337
 4726SOL    HW231321   0.888   0.124   7.355
 4727SOL     OW31322   5.066   3.052   0.218
 4727SOL    HW131323   5.161   3.059   0.215
 4727SOL    HW231324   5.037   3.073   0.129
 4728SOL     OW31325   0.760   4.386   1.386
 4728SOL    HW131326   0.825   4.347   1.326
 4728SOL    HW231327   0.681   4.333   1.372
 4729SOL     OW31328   0.230   4.839   2.728
 4729SOL    HW131329   0.137   4.824   2.742
 4729SOL    HW231330   0.240   4.934   2.729
 4730SOL     OW31331   5.410   4.426   1.426
 4730SOL    HW131332   5.447   4.513   1.436
 4730SOL    HW231333   5.340   4.422   1.491
 4731SOL     OW31334   1.879   0.992   6.668
 4731SOL    HW131335   1.934   1.008   6.591
 4731SOL    HW231336   1.813   0.930   6.638
 4732SOL     OW31337   5.241   1.019   7.674
 4732SOL    HW131338   5.167   1.000   7.733
 4732SOL    HW231339   5.266   0.934   7.638
 4733SOL     OW31340   0.114   4.752   0.870
 4733SOL    HW131341   0.142   4.683   0.809
 4733SOL    HW231342   0.167   4.828   0.844
 4734SOL     OW31343   1.928   4.890   5.661
 4734SOL    HW131344   1.902   4.846   5.742
 4734SOL    HW231345   1.856   4.872   5.600
 4735SOL     OW31346   3.534   3.568   7.441
 4735SOL    HW131347   3.453   3.517   7.436
 4735SOL    HW231348   3.591   3.517   7.499
 4736SOL     OW31349   4.628   4.800   6.439
 4736SOL    HW131350   4.638   4.741   6.514
 4736SOL    HW231351   4.678   4.758   6.369
 4737SOL     OW31352   2.941   2.792   0.825
 4737SOL    HW131353   3.009   2.733   0.858
 4737SOL    HW231354   2.870   2.786   0.889
 4738SOL     OW31355   1.494   4.902   1.583
 4738SOL    HW131356   1.444   4.829   1.545
 4738SOL    HW231357   1.430   4.953   1.632
 4739SOL     OW31358   2.536   0.081   5.598
 4739SOL    HW131359   2.499   0.117   5.517
 4739SOL    HW231360   2.627   0.062   5.576
 4740SOL     OW31361   1.580   2.830   0.934
 4740SOL    HW131362   1.608   2.783   1.012
 4740SOL    HW231363   1.643   2.901   0.925
 4741SOL     OW31364   4.155   0.753   0.514
 4741SOL    HW131365   4.218   0.722   0.579
 4741SOL    HW231366   4.075   0.767   0.564
 4742SOL     OW31367   5.950   5.146   0.518
 4742SOL    HW131368   6.037   5.186   0.515
 4742SOL    HW231369   5.926   5.149   0.611
 4743SOL     OW31370   2.996   4.858   0.162
 4743SOL    HW131371   3.081   4.902   0.149
 4743SOL    HW231372   2.984   4.855   0.257
 4744SOL     OW31373   4.123   2.856   6.476
 4744SOL    HW131374   4.044   2.898   6.444
 4744SOL    HW231375   4.093   2.779   6.524
 4745SOL     OW31376   6.410   3.895   7.146
 4745SOL    HW131377   6.327   3.857   7.173
 4745SOL    HW231378   6.458   3.823   7.106
 4746SOL     OW31379   2.713   5.124   0.709
 4746SOL    HW131380   2.785   5.085   0.759
 4746SOL    HW231381   2.713   5.076   0.626
 4747SOL     OW31382   3.209   3.594   1.171
 4747SOL    HW131383   3.158   3.618   1.248
 4747SOL    HW231384   3.244   3.507   1.193
 4748SOL     OW31385   1.728   5.247   6.198
 4748SOL    HW131386   1.779   5.289   6.268
 4748SOL    HW231387   1.684   5.319   6.154
 4749SOL     OW31388   4.037   2.501   1.286
 4749SOL    HW131389   4.087   2.428   1.250
 4749SOL    HW231390   4.069   2.578   1.240
 4750SOL     OW31391   3.031   4.052   7.250
 4750SOL    HW131392   3.110   4.055   7.196
 4750SOL    HW231393   3.061   4.076   7.338
 4751SOL     OW31394   4.268   3.795   6.295
 4751SOL    HW131395   4.255   3.839   6.211
 4751SOL    HW231396   4.290   3.705   6.271
 4752SOL     OW31397   5.065   5.859   6.504
 4752SOL    HW131398   5.141   5.836   6.451
 4752SOL    HW231399   4.993   5.808   6.467
 4753SOL     OW31400   5.542   1.641   1.838
 4753SOL    HW131401   5.487   1.698   1.892
 4753SOL    HW231402   5.596   1.593   1.900
 4754SOL     OW31403   5.569   0.532   6.158
 4754SOL    HW131404   5.499   0.595   6.141
 4754SOL    HW231405   5.595   0.501   6.071
 4755SOL     OW31406   5.385   5.923   7.721
 4755SOL    HW131407   5.427   6.007   7.700
 4755SOL    HW231408   5.292   5.941   7.713
 4756SOL     OW31409   2.863   4.086   7.017
 4756SOL    HW131410   2.770   4.103   7.033
 4756SOL    HW231411   2.907   4.110   7.099
 4757SOL     OW31412   3.964   1.636   7.007
 4757SOL    HW131413   4.024   1.568   6.975
 4757SOL    HW231414   3.976   1.709   6.946
 4758SOL     OW31415   2.151   4.256   7.399
 4758SOL    HW131416   2.095   4.178   7.394
 4758SOL    HW231417   2.103   4.323   7.351
 4759SOL     OW31418   3.627   3.718   6.220
 4759SOL    HW131419   3.598   3.804   6.190
 4759SOL    HW231420   3.603   3.715   6.312
 4760SOL     OW31421   2.152   0.376   7.458
 4760SOL    HW131422   2.142   0.470   7.470
 4760SOL    HW231423   2.159   0.341   7.547
 4761SOL     OW31424   1.497   5.531   0.803
 4761SOL    HW131425   1.429   5.497   0.860
 4761SOL    HW231426   1.519   5.458   0.745
 4762SOL     OW31427   5.915   5.052   1.405
 4762SOL    HW131428   5.859   5.104   1.464
 4762SOL    HW231429   5.859   4.978   1.380
 4763SOL     OW31430   1.070   2.474   6.839
 4763SOL    HW131431   1.017   2.410   6.792
 4763SOL    HW231432   1.007   2.528   6.887
 4764SOL     OW31433   5.285   5.803   1.404
 4764SOL    HW131434   5.231   5.779   1.480
 4764SOL    HW231435   5.341   5.873   1.436
 4765SOL     OW31436   3.971   5.467   0.721
 4765SOL    HW131437   3.919   5.403   0.769
 4765SOL    HW231438   4.023   5.415   0.658
 4766SOL     OW31439   1.528   0.057   7.537
 4766SOL    HW131440   1.476   0.136   7.551
 4766SOL    HW231441   1.555   0.062   7.445
 4767SOL     OW31442   3.279   4.942   7.592
 4767SOL    HW131443   3.287   4.922   7.687
 4767SOL    HW231444   3.327   5.024   7.582
 4768SOL     OW31445   5.294   6.022   1.188
 4768SOL    HW131446   5.309   6.038   1.281
 4768SOL    HW231447   5.216   6.072   1.166
 4769SOL     OW31448   4.648   3.135   7.235
 4769SOL    HW131449   4.739   3.154   7.211
 4769SOL    HW231450   4.636   3.042   7.212
 4770SOL     OW31451   3.973   1.423   2.490
 4770SOL    HW131452   3.900   1.362   2.495
 4770SOL    HW231453   4.051   1.369   2.504
 4771SOL     OW31454   5.980   1.295   0.672
 4771SOL    HW131455   5.907   1.235   0.688
 4771SOL    HW231456   5.983   1.304   0.577
 4772SOL     OW31457   2.387   0.041   0.052
 4772SOL    HW131458   2.421   0.013  -0.033
 4772SOL    HW231459   2.434  -0.012   0.116
 4773SOL     OW31460   3.541   4.973   1.047
 4773SOL    HW131461   3.461   5.025   1.039
 4773SOL    HW231462   3.612   5.034   1.032
 4774SOL     OW31463   1.087   3.328   7.789
 4774SOL    HW131464   1.116   3.236   7.786
 4774SOL    HW231465   1.095   3.352   7.881
 4775SOL     OW31466   1.891   4.564   1.036
 4775SOL    HW131467   1.957   4.509   0.994
 4775SOL    HW231468   1.939   4.611   1.104
 4776SOL     OW31469   3.901   1.084   0.829
 4776SOL    HW131470   3.915   1.003   0.782
 4776SOL    HW231471   3.863   1.057   0.913
 4777SOL     OW31472   1.240   5.991   7.130
 4777SOL    HW131473   1.180   5.936   7.180
 4777SOL    HW231474   1.235   5.958   7.041
 4778SOL     OW31475   4.823   0.074   1.488
 4778SOL    HW131476   4.795   0.165   1.490
 4778SOL    HW231477   4.888   0.070   1.419
 4779SOL     OW31478   5.041   3.090   6.639
 4779SOL    HW131479   5.088   3.125   6.714
 4779SOL    HW231480   5.084   3.128   6.563
 4780SOL     OW31481   5.071   5.809   7.472
 4780SOL    HW131482   5.020   5.889   7.472
 4780SOL    HW231483   5.139   5.824   7.539
 4781SOL     OW31484   3.869   1.941   0.684
 4781SOL    HW131485   3.784   1.940   0.641
 4781SOL    HW231486   3.892   1.849   0.694
 4782SOL     OW31487   4.287   5.692   1.142
 4782SOL    HW131488   4.200   5.709   1.179
 4782SOL    HW231489   4.345   5.751   1.189
 4783SOL     OW31490   3.034   1.434   0.654
 4783SOL    HW131491   3.118   1.472   0.626
 4783SOL    HW231492   3.012   1.482   0.734
 4784SOL     OW31493   5.950   1.614   7.733
 4784SOL    HW131494   5.896   1.651   7.802
 4784SOL    HW231495   6.037   1.604   7.771
 4785SOL     OW31496   4.053   3.025   0.700
 4785SOL    HW131497   4.086   3.114   0.685
 4785SOL    HW231498   4.130   2.969   0.694
 4786SOL     OW31499   4.289   0.313   6.688
 4786SOL    HW131500   4.203   0.355   6.675
 4786SOL    HW231501   4.352   0.385   6.678
 4787SOL     OW31502   5.182   0.674   1.356
 4787SOL    HW131503   5.182   0.724   1.274
 4787SOL    HW231504   5.198   0.740   1.423
 4788SOL     OW31505   1.353   2.410   0.194
 4788SOL    HW131506   1.380   2.338   0.138
 4788SOL    HW231507   1.276   2.377   0.240
 4789SOL     OW31508   3.920   0.262   0.662
 4789SOL    HW131509   3.916   0.169   0.680
 4789SOL    HW231510   4.007   0.288   0.690
 4790SOL     OW31511   3.409   3.831   6.417
 4790SOL    HW131512   3.386   3.848   6.325
 4790SOL    HW231513   3.423   3.736   6.420
 4791SOL     OW31514   3.488   2.366   0.951
 4791SOL    HW131515   3.456   2.454   0.971
 4791SOL    HW231516   3.581   2.368   0.975
 4792SOL     OW31517   3.372   4.370   6.453
 4792SOL    HW131518   3.403   4.401   6.539
 4792SOL    HW231519   3.363   4.450   6.401
 4793SOL     OW31520   5.010   6.120   7.172
 4793SOL    HW131521   5.068   6.058   7.127
 4793SOL    HW231522   5.064   6.198   7.186
 4794SOL     OW31523   6.004   0.453   6.911
 4794SOL    HW131524   5.987   0.469   7.004
 4794SOL    HW231525   6.019   0.358   6.905
 4795SOL     OW31526   6.154   5.227   1.075
 4795SOL    HW131527   6.095   5.157   1.045
 4795SOL    HW231528   6.124   5.246   1.164
 4796SOL     OW31529   6.427   1.240   2.038
 4796SOL    HW131530   6.435   1.156   1.993
 4796SOL    HW231531   6.479   1.301   1.984
 4797SOL     OW31532   0.975   4.649   6.523
 4797SOL    HW131533   0.881   4.656   6.539
 4797SOL    HW231534   0.982   4.588   6.449
 4798SOL     OW31535   2.922   0.007   5.907
 4798SOL    HW131536   2.998  -0.017   5.961
 4798SOL    HW231537   2.846  -0.015   5.961
 4799SOL     OW31538   6.276   3.026   0.556
 4799SOL    HW131539   6.225   3.045   0.635
 4799SOL    HW231540   6.292   3.111   0.516
 4800SOL     OW31541   5.044   2.802   6.614
 4800SOL    HW131542   5.026   2.895   6.601
 4800SOL    HW231543   5.108   2.781   6.547
 4801SOL     OW31544   0.724   1.050   5.641
 4801SOL    HW131545   0.676   1.028   5.562
 4801SOL    HW231546   0.669   1.019   5.713
 4802SOL     OW31547   1.000   1.486   5.710
 4802SOL    HW131548   1.056   1.519   5.781
 4802SOL    HW231549   0.978   1.397   5.735
 4803SOL     OW31550   0.036   4.772   2.232
 4803SOL    HW131551   0.099   4.843   2.219
 4803SOL    HW231552  -0.040   4.814   2.271
 4804SOL     OW31553   1.036   5.916   0.468
 4804SOL    HW131554   0.972   5.851   0.496
 4804SOL    HW231555   1.021   5.925   0.374
 4805SOL     OW31556   3.049   1.802   5.106
 4805SOL    HW131557   3.016   1.870   5.047
 4805SOL    HW231558   2.978   1.788   5.168
 4806SOL     OW31559   2.633   4.713   6.477
 4806SOL    HW131560   2.543   4.726   6.449
 4806SOL    HW231561   2.686   4.758   6.410
 4807SOL     OW31562   4.806   3.459   1.085
 4807SOL    HW131563   4.731   3.426   1.037
 4807SOL    HW231564   4.882   3.430   1.035
 4808SOL     OW31565   0.408   5.992   1.077
 4808SOL    HW131566   0.319   6.007   1.045
 4808SOL    HW231567   0.396   5.935   1.154
 4809SOL     OW31568   2.698   3.324   1.380
 4809SOL    HW131569   2.691   3.247   1.322
 4809SOL    HW231570   2.693   3.288   1.468
 4810SOL     OW31571   1.549   4.477   6.974
 4810SOL    HW131572   1.566   4.445   6.886
 4810SOL    HW231573   1.590   4.563   6.977
 4811SOL     OW31574   6.438   3.518   1.788
 4811SOL    HW131575   6.497   3.496   1.717
 4811SOL    HW231576   6.489   3.502   1.868
 4812SOL     OW31577   4.822   2.886   1.015
 4812SOL    HW131578   4.811   2.823   1.086
 4812SOL    HW231579   4.889   2.946   1.046
 4813SOL     OW31580   2.269   0.964   1.398
 4813SOL    HW131581   2.214   1.020   1.453
 4813SOL    HW231582   2.341   1.021   1.371
 4814SOL     OW31583   1.939   3.148   7.360
 4814SOL    HW131584   1.844   3.138   7.364
 4814SOL    HW231585   1.953   3.243   7.364
 4815SOL     OW31586   0.209   1.099   5.940
 4815SOL    HW131587   0.303   1.115   5.953
 4815SOL    HW231588   0.196   1.008   5.965
 4816SOL     OW31589   6.046   5.662   2.012
 4816SOL    HW131590   6.023   5.569   2.021
 4816SOL    HW231591   6.019   5.702   2.095
 4817SOL     OW31592   6.388   2.159   7.045
 4817SOL    HW131593   6.430   2.208   7.115
 4817SOL    HW231594   6.307   2.207   7.027
 4818SOL     OW31595   3.987   1.294   0.591
 4818SOL    HW131596   4.052   1.264   0.654
 4818SOL    HW231597   3.982   1.224   0.526
 4819SOL     OW31598   0.329   4.290   7.093
 4819SOL    HW131599   0.329   4.196   7.109
 4819SOL    HW231600   0.334   4.298   6.997
 4820SOL     OW31601   0.099   2.161   0.324
 4820SOL    HW131602   0.188   2.137   0.297
 4820SOL    HW231603   0.086   2.114   0.406
 4821SOL     OW31604   3.270   5.521   6.677
 4821SOL    HW131605   3.208   5.499   6.747
 4821SOL    HW231606   3.340   5.569   6.721
 4822SOL     OW31607   0.047   4.521   1.573
 4822SOL    HW131608   0.054   4.469   1.493
 4822SOL    HW231609   0.136   4.549   1.592
 4823SOL     OW31610   5.687   6.087   6.671
 4823SOL    HW131611   5.678   6.162   6.730
 4823SOL    HW231612   5.600   6.047   6.670
 4824SOL     OW31613   2.010   0.067   7.625
 4824SOL    HW131614   2.081   0.110   7.672
 4824SOL    HW231615   2.026   0.089   7.533
 4825SOL     OW31616   0.311   4.293   5.675
 4825SOL    HW131617   0.321   4.202   5.704
 4825SOL    HW231618   0.257   4.334   5.742
 4826SOL     OW31619   0.025   2.665   6.819
 4826SOL    HW131620   0.041   2.695   6.730
 4826SOL    HW231621   0.008   2.745   6.869
 4827SOL     OW31622   4.091   1.711   6.614
 4827SOL    HW131623   4.183   1.687   6.603
 4827SOL    HW231624   4.086   1.747   6.702
 4828SOL     OW31625   2.964   4.858   0.447
 4828SOL    HW131626   2.922   4.937   0.481
 4828SOL    HW231627   2.906   4.787   0.473
 4829SOL     OW31628   5.170   1.834   6.563
 4829SOL    HW131629   5.094   1.823   6.619
 4829SOL    HW231630   5.203   1.921   6.584
 4830SOL     OW31631   5.718   0.858   6.182
 4830SOL    HW131632   5.649   0.830   6.243
 4830SOL    HW231633   5.687   0.830   6.096
 4831SOL     OW31634   1.289   4.389   6.457
 4831SOL    HW131635   1.324   4.437   6.382
 4831SOL    HW231636   1.359   4.392   6.523
 4832SOL     OW31637   1.972   3.130   1.308
 4832SOL    HW131638   2.049   3.078   1.332
 4832SOL    HW231639   1.919   3.134   1.388
 4833SOL     OW31640   5.219   3.201   5.241
 4833SOL    HW131641   5.129   3.214   5.211
 4833SOL    HW231642   5.248   3.121   5.197
 4834SOL     OW31643   2.922   4.259   0.318
 4834SOL    HW131644   3.016   4.264   0.336
 4834SOL    HW231645   2.891   4.349   0.323
 4835SOL     OW31646   3.336   0.521   0.772
 4835SOL    HW131647   3.294   0.444   0.812
 4835SOL    HW231648   3.320   0.511   0.679
 4836SOL     OW31649   2.243   4.478   6.160
 4836SOL    HW131650   2.324   4.454   6.206
 4836SOL    HW231651   2.266   4.476   6.068
 4837SOL     OW31652   4.819   1.080   7.316
 4837SOL    HW131653   4.793   1.165   7.281
 4837SOL    HW231654   4.798   1.018   7.246
 4838SOL     OW31655   4.914   5.224  -0.003
 4838SOL    HW131656   4.839   5.250   0.049
 4838SOL    HW231657   4.974   5.298   0.002
 4839SOL     OW31658   3.099   2.203   1.426
 4839SOL    HW131659   3.045   2.210   1.347
 4839SOL    HW231660   3.084   2.285   1.473
 4840SOL     OW31661   1.699   3.694   0.193
 4840SOL    HW131662   1.728   3.722   0.280
 4840SOL    HW231663   1.604   3.701   0.197
 4841SOL     OW31664   1.090   2.637   1.824
 4841SOL    HW131665   1.162   2.576   1.844
 4841SOL    HW231666   1.129   2.702   1.766
 4842SOL     OW31667   4.158   3.675   7.550
 4842SOL    HW131668   4.211   3.753   7.538
 4842SOL    HW231669   4.152   3.665   7.645
 4843SOL     OW31670   4.966   4.749   0.764
 4843SOL    HW131671   4.979   4.764   0.671
 4843SOL    HW231672   4.899   4.812   0.790
 4844SOL     OW31673   0.907   2.362   6.068
 4844SOL    HW131674   0.986   2.389   6.117
 4844SOL    HW231675   0.891   2.272   6.096
 4845SOL     OW31676   4.382   2.527   5.743
 4845SOL    HW131677   4.291   2.508   5.719
 4845SOL    HW231678   4.429   2.527   5.660
 4846SOL     OW31679   2.345   5.924   7.256
 4846SOL    HW131680   2.412   5.926   7.325
 4846SOL    HW231681   2.373   5.853   7.198
 4847SOL     OW31682   2.017   0.760   6.365
 4847SOL    HW131683   2.009   0.665   6.365
 4847SOL    HW231684   1.987   0.787   6.278
 4848SOL     OW31685   6.019   6.403   6.292
 4848SOL    HW131686   6.100   6.353   6.303
 4848SOL    HW231687   6.045   6.495   6.304
 4849SOL     OW31688   4.162   4.283   2.524
 4849SOL    HW131689   4.087   4.341   2.538
 4849SOL    HW231690   4.236   4.342   2.509
 4850SOL     OW31691   4.144   3.940   2.046
 4850SOL    HW131692   4.116   3.911   1.959
 4850SOL    HW231693   4.117   3.869   2.105
 4851SOL     OW31694   4.583   4.648   2.594
 4851SOL    HW131695   4.613   4.564   2.627
 4851SOL    HW231696   4.658   4.707   2.606
 4852SOL     OW31697   0.711   4.069   2.094
 4852SOL    HW131698   0.664   4.027   2.166
 4852SOL    HW231699   0.700   4.163   2.111
 4853SOL     OW31700   3.645   3.833   0.906
 4853SOL    HW131701   3.729   3.830   0.952
 4853SOL    HW231702   3.579   3.826   0.975
 4854SOL     OW31703   3.912   5.711   7.477
 4854SOL    HW131704   3.821   5.695   7.500
 4854SOL    HW231705   3.909   5.784   7.415
 4855SOL     OW31706   5.911   4.690   5.878
 4855SOL    HW131707   5.980   4.635   5.915
 4855SOL    HW231708   5.833   4.634   5.880
 4856SOL     OW31709   2.563   2.295   0.238
 4856SOL    HW131710   2.493   2.284   0.303
 4856SOL    HW231711   2.521   2.338   0.164
 4857SOL     OW31712   5.779   1.728   0.109
 4857SOL    HW131713   5.699   1.767   0.072
 4857SOL    HW231714   5.803   1.786   0.181
 4858SOL     OW31715   5.218   4.258   7.177
 4858SOL    HW131716   5.258   4.343   7.195
 4858SOL    HW231717   5.256   4.231   7.094
 4859SOL     OW31718   2.370   5.459   0.624
 4859SOL    HW131719   2.378   5.369   0.655
 4859SOL    HW231720   2.422   5.462   0.544
 4860SOL     OW31721   0.367   4.094   6.538
 4860SOL    HW131722   0.385   4.187   6.532
 4860SOL    HW231723   0.429   4.061   6.602
 4861SOL     OW31724   1.390   0.174   1.298
 4861SOL    HW131725   1.467   0.221   1.332
 4861SOL    HW231726   1.350   0.133   1.374
 4862SOL     OW31727   5.284   6.419   6.501
 4862SOL    HW131728   5.267   6.326   6.488
 4862SOL    HW231729   5.202   6.462   6.480
 4863SOL     OW31730   1.185   5.654   1.332
 4863SOL    HW131731   1.104   5.604   1.330
 4863SOL    HW231732   1.192   5.683   1.424
 4864SOL     OW31733   4.628   4.732   0.029
 4864SOL    HW131734   4.625   4.788  -0.049
 4864SOL    HW231735   4.608   4.644  -0.003
 4865SOL     OW31736   2.188   1.923   0.426
 4865SOL    HW131737   2.252   1.900   0.494
 4865SOL    HW231738   2.107   1.881   0.454
 4866SOL     OW31739   6.061   1.666   6.198
 4866SOL    HW131740   5.988   1.728   6.189
 4866SOL    HW231741   6.024   1.593   6.249
 4867SOL     OW31742   5.852   0.797   0.703
 4867SOL    HW131743   5.787   0.856   0.664
 4867SOL    HW231744   5.821   0.783   0.792
 4868SOL     OW31745   2.129   2.968   1.509
 4868SOL    HW131746   2.077   2.947   1.586
 4868SOL    HW231747   2.151   2.882   1.472
 4869SOL     OW31748   1.946   2.050   6.681
 4869SOL    HW131749   2.000   2.056   6.602
 4869SOL    HW231750   1.950   1.957   6.706
 4870SOL     OW31751   5.414   2.729   1.860
 4870SOL    HW131752   5.507   2.721   1.879
 4870SOL    HW231753   5.371   2.726   1.946
 4871SOL     OW31754   4.298   3.432   1.226
 4871SOL    HW131755   4.210   3.444   1.261
 4871SOL    HW231756   4.329   3.351   1.266
 4872SOL     OW31757   0.110   3.770   6.082
 4872SOL    HW131758   0.055   3.751   6.006
 4872SOL    HW231759   0.102   3.692   6.137
 4873SOL     OW31760   5.772   3.094   6.857
 4873SOL    HW131761   5.776   3.023   6.922
 4873SOL    HW231762   5.780   3.174   6.909
 4874SOL     OW31763   2.167   4.972   6.408
 4874SOL    HW131764   2.177   5.017   6.491
 4874SOL    HW231765   2.087   5.009   6.370
 4875SOL     OW31766   2.983   6.079   5.992
 4875SOL    HW131767   3.003   6.136   5.918
 4875SOL    HW231768   2.907   6.028   5.964
 4876SOL     OW31769   5.445   2.036   0.774
 4876SOL    HW131770   5.479   2.073   0.856
 4876SOL    HW231771   5.369   1.984   0.801
 4877SOL     OW31772   1.280   5.356   0.406
 4877SOL    HW131773   1.325   5.345   0.490
 4877SOL    HW231774   1.350   5.350   0.341
 4878SOL     OW31775   6.168   3.400   6.312
 4878SOL    HW131776   6.203   3.366   6.394
 4878SOL    HW231777   6.073   3.397   6.323
 4879SOL     OW31778   0.593   0.850   0.507
 4879SOL    HW131779   0.565   0.942   0.502
 4879SOL    HW231780   0.614   0.828   0.416
 4880SOL     OW31781   1.958   2.184   7.130
 4880SOL    HW131782   2.013   2.109   7.107
 4880SOL    HW231783   2.020   2.249   7.164
 4881SOL     OW31784   1.410   3.994   0.026
 4881SOL    HW131785   1.455   4.069  -0.012
 4881SOL    HW231786   1.372   3.948  -0.049
 4882SOL     OW31787   0.042   2.673   1.830
 4882SOL    HW131788   0.007   2.594   1.789
 4882SOL    HW231789   0.094   2.641   1.903
 4883SOL     OW31790   4.759   1.311   1.257
 4883SOL    HW131791   4.854   1.308   1.258
 4883SOL    HW231792   4.733   1.285   1.345
 4884SOL     OW31793   0.998   0.033   1.202
 4884SOL    HW131794   0.934   0.044   1.133
 4884SOL    HW231795   0.953  -0.019   1.269
 4885SOL     OW31796   3.035   4.884   6.857
 4885SOL    HW131797   3.000   4.953   6.800
 4885SOL    HW231798   2.958   4.848   6.901
 4886SOL     OW31799   2.501   4.162   1.848
 4886SOL    HW131800   2.488   4.143   1.755
 4886SOL    HW231801   2.436   4.107   1.892
 4887SOL     OW31802   1.886   3.355   6.401
 4887SOL    HW131803   1.867   3.429   6.342
 4887SOL    HW231804   1.932   3.291   6.346
 4888SOL     OW31805   1.379   5.618   7.598
 4888SOL    HW131806   1.315   5.687   7.612
 4888SOL    HW231807   1.464   5.661   7.603
 4889SOL     OW31808   0.039   3.222   0.708
 4889SOL    HW131809   0.117   3.257   0.665
 4889SOL    HW231810   0.071   3.146   0.756
 4890SOL     OW31811   5.934   2.329   6.568
 4890SOL    HW131812   5.918   2.258   6.506
 4890SOL    HW231813   6.023   2.313   6.600
 4891SOL     OW31814   0.917   5.851   1.622
 4891SOL    HW131815   0.865   5.788   1.672
 4891SOL    HW231816   0.884   5.937   1.649
 4892SOL     OW31817   4.248   3.138   7.428
 4892SOL    HW131818   4.321   3.198   7.442
 4892SOL    HW231819   4.246   3.124   7.334
 4893SOL     OW31820   5.127   1.937   1.106
 4893SOL    HW131821   5.047   1.959   1.154
 4893SOL    HW231822   5.132   1.841   1.112
 4894SOL     OW31823   5.812   2.156   1.045
 4894SOL    HW131824   5.850   2.083   1.095
 4894SOL    HW231825   5.742   2.115   0.994
 4895SOL     OW31826   4.173   3.973   6.017
 4895SOL    HW131827   4.123   3.915   5.959
 4895SOL    HW231828   4.207   4.040   5.958
 4896SOL     OW31829   3.301   3.331   1.205
 4896SOL    HW131830   3.233   3.266   1.224
 4896SOL    HW231831   3.382   3.291   1.236
 4897SOL     OW31832   4.352   3.057   0.245
 4897SOL    HW131833   4.341   2.983   0.185
 4897SOL    HW231834   4.307   3.030   0.325
 4898SOL     OW31835   5.358   3.666   0.813
 4898SOL    HW131836   5.326   3.749   0.776
 4898SOL    HW231837   5.448   3.659   0.780
 4899SOL     OW31838   2.517   6.377   5.823
 4899SOL    HW131839   2.507   6.289   5.788
 4899SOL    HW231840   2.535   6.431   5.746
 4900SOL     OW31841   4.363   3.662   6.559
 4900SOL    HW131842   4.358   3.687   6.467
 4900SOL    HW231843   4.439   3.710   6.593
 4901SOL     OW31844   4.346   3.485   6.930
 4901SOL    HW131845   4.406   3.446   6.995
 4901SOL    HW231846   4.354   3.579   6.944
 4902SOL     OW31847   6.333   0.050   0.701
 4902SOL    HW131848   6.328   0.145   0.712
 4902SOL    HW231849   6.373   0.019   0.783
 4903SOL     OW31850   4.721   5.858   0.232
 4903SOL    HW131851   4.811   5.880   0.253
 4903SOL    HW231852   4.674   5.862   0.315
 4904SOL     OW31853   2.252   4.126   1.361
 4904SOL    HW131854   2.294   4.186   1.300
 4904SOL    HW231855   2.303   4.046   1.356
 4905SOL     OW31856   5.376   4.696   7.613
 4905SOL    HW131857   5.344   4.626   7.670
 4905SOL    HW231858   5.464   4.716   7.647
 4906SOL     OW31859   4.336   1.921   1.452
 4906SOL    HW131860   4.301   1.910   1.364
 4906SOL    HW231861   4.260   1.910   1.509
 4907SOL     OW31862   5.738   3.921   1.250
 4907SOL    HW131863   5.649   3.900   1.221
 4907SOL    HW231864   5.789   3.924   1.169
 4908SOL     OW31865   2.278   2.082   6.986
 4908SOL    HW131866   2.323   2.022   6.926
 4908SOL    HW231867   2.187   2.052   6.986
 4909SOL     OW31868   2.201   0.251   0.968
 4909SOL    HW131869   2.253   0.221   0.894
 4909SOL    HW231870   2.193   0.346   0.954
 4910SOL     OW31871   6.263   2.184   0.278
 4910SOL    HW131872   6.358   2.184   0.285
 4910SOL    HW231873   6.242   2.264   0.231
 4911SOL     OW31874   0.819   5.993   7.592
 4911SOL    HW131875   0.880   6.047   7.542
 4911SOL    HW231876   0.828   6.024   7.682
 4912SOL     OW31877   5.635   5.035   6.759
 4912SOL    HW131878   5.629   5.045   6.664
 4912SOL    HW231879   5.619   5.123   6.793
 4913SOL     OW31880   1.552   3.784   6.414
 4913SOL    HW131881   1.619   3.730   6.456
 4913SOL    HW231882   1.572   3.781   6.321
 4914SOL     OW31883   5.205   3.931   7.408
 4914SOL    HW131884   5.198   4.025   7.424
 4914SOL    HW231885   5.239   3.896   7.490
 4915SOL     OW31886   6.295   1.555   1.599
 4915SOL    HW131887   6.329   1.522   1.516
 4915SOL    HW231888   6.316   1.648   1.598
 4916SOL     OW31889   4.452   1.376   6.955
 4916SOL    HW131890   4.462   1.346   6.865
 4916SOL    HW231891   4.472   1.470   6.951
 4917SOL     OW31892   2.141   2.557   2.301
 4917SOL    HW131893   2.085   2.546   2.378
 4917SOL    HW231894   2.227   2.578   2.337
 4918SOL     OW31895   0.210   4.106   1.746
 4918SOL    HW131896   0.290   4.068   1.783
 4918SOL    HW231897   0.209   4.076   1.655
 4919SOL     OW31898   3.306   2.286   1.266
 4919SOL    HW131899   3.236   2.267   1.329
 4919SOL    HW231900   3.374   2.327   1.319
 4920SOL     OW31901   2.054   3.524   6.704
 4920SOL    HW131902   2.122   3.513   6.637
 4920SOL    HW231903   2.083   3.470   6.777
 4921SOL     OW31904   5.528   1.949   1.528
 4921SOL    HW131905   5.524   1.944   1.432
 4921SOL    HW231906   5.568   1.866   1.555
 4922SOL     OW31907   0.963   2.292   0.542
 4922SOL    HW131908   0.899   2.344   0.590
 4922SOL    HW231909   0.925   2.204   0.538
 4923SOL     OW31910   2.258   5.903   1.683
 4923SOL    HW131911   2.325   5.894   1.751
 4923SOL    HW231912   2.175   5.889   1.729
 4924SOL     OW31913   6.132   6.312   2.211
 4924SOL    HW131914   6.070   6.377   2.242
 4924SOL    HW231915   6.194   6.361   2.157
 4925SOL     OW31916   3.952   4.356   7.796
 4925SOL    HW131917   3.950   4.412   7.719
 4925SOL    HW231918   3.913   4.409   7.865
 4926SOL     OW31919   6.139   2.480   2.265
 4926SOL    HW131920   6.145   2.541   2.338
 4926SOL    HW231921   6.053   2.439   2.275
 4927SOL     OW31922   2.604   5.735   2.227
 4927SOL    HW131923   2.539   5.738   2.158
 4927SOL    HW231924   2.561   5.774   2.303
 4928SOL     OW31925   5.257   3.892   0.714
 4928SOL    HW131926   5.169   3.930   0.716
 4928SOL    HW231927   5.311   3.956   0.760
 4929SOL     OW31928   6.041   4.083   7.020
 4929SOL    HW131929   5.974   4.052   7.080
 4929SOL    HW231930   6.025   4.035   6.939
 4930SOL     OW31931   4.644   2.120   2.561
 4930SOL    HW131932   4.627   2.201   2.513
 4930SOL    HW231933   4.713   2.076   2.510
 4931SOL     OW31934   1.261   0.004   1.466
 4931SOL    HW131935   1.182   0.011   1.518
 4931SOL    HW231936   1.324  -0.040   1.524
 4932SOL     OW31937   0.116   0.606   0.535
 4932SOL    HW131938   0.034   0.566   0.564
 4932SOL    HW231939   0.088   0.682   0.484
 4933SOL     OW31940   1.686   1.483   7.149
 4933SOL    HW131941   1.704   1.390   7.131
 4933SOL    HW231942   1.685   1.489   7.244
 4934SOL     OW31943   6.015   1.581   1.446
 4934SOL    HW131944   6.018   1.673   1.421
 4934SOL    HW231945   6.066   1.536   1.379
 4935SOL     OW31946   4.338   4.544   1.816
 4935SOL    HW131947   4.358   4.622   1.764
 4935SOL    HW231948   4.242   4.535   1.810
 4936SOL     OW31949   1.474   4.554   7.560
 4936SOL    HW131950   1.539   4.617   7.591
 4936SOL    HW231951   1.401   4.609   7.530
 4937SOL     OW31952   2.746   1.528   2.034
 4937SOL    HW131953   2.724   1.620   2.021
 4937SOL    HW231954   2.670   1.480   2.001
 4938SOL     OW31955   5.717   0.118   6.758
 4938SOL    HW131956   5.730   0.068   6.677
 4938SOL    HW231957   5.623   0.117   6.772
 4939SOL     OW31958   4.826   1.748   7.682
 4939SOL    HW131959   4.800   1.804   7.756
 4939SOL    HW231960   4.880   1.680   7.724
 4940SOL     OW31961   5.418   5.560   7.226
 4940SOL    HW131962   5.512   5.552   7.237
 4940SOL    HW231963   5.404   5.547   7.132
 4941SOL     OW31964   3.547   0.157   6.871
 4941SOL    HW131965   3.522   0.083   6.927
 4941SOL    HW231966   3.567   0.117   6.786
 4942SOL     OW31967   1.303   1.757   7.155
 4942SOL    HW131968   1.327   1.666   7.176
 4942SOL    HW231969   1.256   1.788   7.232
 4943SOL     OW31970   5.444   2.678   0.081
 4943SOL    HW131971   5.497   2.753   0.052
 4943SOL    HW231972   5.381   2.715   0.142
 4944SOL     OW31973   2.356   4.825   0.560
 4944SOL    HW131974   2.349   4.787   0.648
 4944SOL    HW231975   2.441   4.795   0.528
 4945SOL     OW31976   5.043   1.168   1.288
 4945SOL    HW131977   5.011   1.141   1.202
 4945SOL    HW231978   5.033   1.090   1.343
 4946SOL     OW31979   0.680   4.512   0.053
 4946SOL    HW131980   0.738   4.436   0.047
 4946SOL    HW231981   0.739   4.586   0.071
 4947SOL     OW31982   5.523   2.118   0.527
 4947SOL    HW131983   5.518   2.210   0.553
 4947SOL    HW231984   5.492   2.071   0.605
 4948SOL     OW31985   3.394   0.368   7.704
 4948SOL    HW131986   3.453   0.330   7.767
 4948SOL    HW231987   3.433   0.347   7.617
 4949SOL     OW31988   1.693   1.095   5.815
 4949SOL    HW131989   1.773   1.043   5.810
 4949SOL    HW231990   1.623   1.030   5.829
 4950SOL     OW31991   0.179   3.237   1.966
 4950SOL    HW131992   0.177   3.333   1.974
 4950SOL    HW231993   0.267   3.213   1.993
 4951SOL     OW31994   4.357   0.091   7.744
 4951SOL    HW131995   4.318   0.126   7.662
 4951SOL    HW231996   4.283   0.052   7.791
 4952SOL     OW31997   5.093   5.148   1.316
 4952SOL    HW131998   5.187   5.139   1.328
 4952SOL    HW231999   5.081   5.239   1.288
 4953SOL     OW32000   0.504   1.699   6.776
 4953SOL    HW132001   0.425   1.739   6.811
 4953SOL    HW232002   0.474   1.621   6.731
 4954SOL     OW32003   2.232   4.575   7.394
 4954SOL    HW132004   2.299   4.608   7.335
 4954SOL    HW232005   2.198   4.496   7.351
 4955SOL     OW32006   4.542   4.756   5.379
 4955SOL    HW132007   4.452   4.743   5.347
 4955SOL    HW232008   4.566   4.673   5.419
 4956SOL     OW32009   1.794   0.281   7.320
 4956SOL    HW132010   1.794   0.356   7.379
 4956SOL    HW232011   1.702   0.257   7.311
 4957SOL     OW32012   3.394   4.811   5.731
 4957SOL    HW132013   3.375   4.857   5.813
 4957SOL    HW232014   3.489   4.801   5.730
 4958SOL     OW32015   2.935   3.726   0.530
 4958SOL    HW132016   3.030   3.732   0.520
 4958SOL    HW232017   2.907   3.817   0.542
 4959SOL     OW32018   0.073   4.417   1.044
 4959SOL    HW132019   0.058   4.444   0.954
 4959SOL    HW232020   0.166   4.396   1.048
 4960SOL     OW32021   5.194   3.643   5.265
 4960SOL    HW132022   5.226   3.576   5.325
 4960SOL    HW232023   5.264   3.709   5.263
 4961SOL     OW32024   1.418   1.206   0.696
 4961SOL    HW132025   1.362   1.142   0.652
 4961SOL    HW232026   1.475   1.239   0.627
 4962SOL     OW32027   4.067   1.398   7.780
 4962SOL    HW132028   4.015   1.367   7.854
 4962SOL    HW232029   4.124   1.324   7.757
 4963SOL     OW32030   3.356   3.211   0.018
 4963SOL    HW132031   3.383   3.199  -0.072
 4963SOL    HW232032   3.429   3.259   0.058
 4964SOL     OW32033   4.234   4.241   6.235
 4964SOL    HW132034   4.186   4.299   6.295
 4964SOL    HW232035   4.280   4.301   6.176
 4965SOL     OW32036   0.753   5.653   1.442
 4965SOL    HW132037   0.716   5.705   1.513
 4965SOL    HW232038   0.790   5.717   1.381
 4966SOL     OW32039   4.072   3.933   1.060
 4966SOL    HW132040   4.096   3.962   1.147
 4966SOL    HW232041   4.074   3.838   1.064
 4967SOL     OW32042   2.289   1.372   6.994
 4967SOL    HW132043   2.346   1.443   7.022
 4967SOL    HW232044   2.324   1.294   7.037
 4968SOL     OW32045   5.590   6.125   5.720
 4968SOL    HW132046   5.584   6.071   5.641
 4968SOL    HW232047   5.523   6.193   5.708
 4969SOL     OW32048   1.471   1.541   7.006
 4969SOL    HW132049   1.507   1.581   6.926
 4969SOL    HW232050   1.548   1.512   7.055
 4970SOL     OW32051   0.856   5.342   0.368
 4970SOL    HW132052   0.881   5.427   0.403
 4970SOL    HW232053   0.761   5.348   0.355
 4971SOL     OW32054   1.514   5.219   7.051
 4971SOL    HW132055   1.463   5.271   6.988
 4971SOL    HW232056   1.605   5.241   7.032
 4972SOL     OW32057   5.754   6.422   5.231
 4972SOL    HW132058   5.801   6.339   5.223
 4972SOL    HW232059   5.824   6.488   5.234
 4973SOL     OW32060   3.719   2.574   1.975
 4973SOL    HW132061   3.662   2.502   1.951
 4973SOL    HW232062   3.764   2.544   2.053
 4974SOL     OW32063   6.069   2.075   6.962
 4974SOL    HW132064   6.026   2.008   6.909
 4974SOL    HW232065   6.085   2.147   6.901
 4975SOL     OW32066   3.522   5.266   2.297
 4975SOL    HW132067   3.572   5.340   2.331
 4975SOL    HW232068   3.503   5.290   2.206
 4976SOL     OW32069   3.130   2.322   7.159
 4976SOL    HW132070   3.174   2.300   7.241
 4976SOL    HW232071   3.041   2.290   7.170
 4977SOL     OW32072   3.849   2.322   0.197
 4977SOL    HW132073   3.941   2.344   0.215
 4977SOL    HW232074   3.818   2.282   0.278
 4978SOL     OW32075   0.818   5.811   0.289
 4978SOL    HW132076   0.763   5.759   0.347
 4978SOL    HW232077   0.769   5.892   0.276
 4979SOL     OW32078   4.288   1.167   0.721
 4979SOL    HW132079   4.289   1.244   0.663
 4979SOL    HW232080   4.380   1.145   0.733
 4980SOL     OW32081   1.538   4.294   0.650
 4980SOL    HW132082   1.464   4.343   0.614
 4980SOL    HW232083   1.602   4.360   0.674
 4981SOL     OW32084   1.065   0.880   7.419
 4981SOL    HW132085   0.999   0.948   7.431
 4981SOL    HW232086   1.015   0.798   7.418
 4982SOL     OW32087   1.556   0.145   7.258
 4982SOL    HW132088   1.577   0.084   7.188
 4982SOL    HW232089   1.462   0.160   7.250
 4983SOL     OW32090   2.600   4.930   7.744
 4983SOL    HW132091   2.512   4.955   7.771
 4983SOL    HW232092   2.587   4.849   7.695
 4984SOL     OW32093   3.389   0.706   7.694
 4984SOL    HW132094   3.467   0.686   7.641
 4984SOL    HW232095   3.348   0.620   7.710
 4985SOL     OW32096   3.306   2.778   6.988
 4985SOL    HW132097   3.305   2.683   6.992
 4985SOL    HW232098   3.330   2.798   6.898
 4986SOL     OW32099   5.841   6.413   0.859
 4986SOL    HW132100   5.786   6.338   0.835
 4986SOL    HW232101   5.840   6.469   0.782
 4987SOL     OW32102   5.272   5.743   1.875
 4987SOL    HW132103   5.274   5.808   1.945
 4987SOL    HW232104   5.191   5.763   1.827
 4988SOL     OW32105   2.258   0.844   4.842
 4988SOL    HW132106   2.285   0.876   4.756
 4988SOL    HW232107   2.261   0.748   4.833
 4989SOL     OW32108   6.416   4.691   6.597
 4989SOL    HW132109   6.511   4.684   6.591
 4989SOL    HW232110   6.396   4.781   6.571
 4990SOL     OW32111   2.785   6.435   5.662
 4990SOL    HW132112   2.849   6.419   5.733
 4990SOL    HW232113   2.809   6.521   5.628
 4991SOL     OW32114   4.716   2.729   7.352
 4991SOL    HW132115   4.713   2.780   7.271
 4991SOL    HW232116   4.649   2.767   7.408
 4992SOL     OW32117   3.916   1.667   5.380
 4992SOL    HW132118   3.982   1.604   5.353
 4992SOL    HW232119   3.859   1.619   5.440
 4993SOL     OW32120   6.174   3.556   6.895
 4993SOL    HW132121   6.109   3.501   6.851
 4993SOL    HW232122   6.226   3.593   6.824
 4994SOL     OW32123   3.568   4.435   0.439
 4994SOL    HW132124   3.586   4.502   0.373
 4994SOL    HW232125   3.512   4.480   0.503
 4995SOL     OW32126   0.490   5.279   1.232
 4995SOL    HW132127   0.395   5.275   1.218
 4995SOL    HW232128   0.511   5.372   1.221
 4996SOL     OW32129   2.657   2.818   7.545
 4996SOL    HW132130   2.613   2.873   7.480
 4996SOL    HW232131   2.740   2.794   7.504
 4997SOL     OW32132   5.978   6.236   7.180
 4997SOL    HW132133   5.970   6.327   7.152
 4997SOL    HW232134   6.040   6.196   7.120
 4998SOL     OW32135   3.795   2.263   7.727
 4998SOL    HW132136   3.803   2.218   7.811
 4998SOL    HW232137   3.878   2.310   7.717
 4999SOL     OW32138   4.936   4.047   5.441
 4999SOL    HW132139   4.841   4.040   5.450
 4999SOL    HW232140   4.956   4.137   5.468
 5000SOL     OW32141   5.055   2.019   0.016
 5000SOL    HW132142   4.979   1.962   0.019
 5000SOL    HW232143   5.043   2.070  -0.065
 5001SOL     OW32144   1.676   1.332   6.404
 5001SOL    HW132145   1.770   1.324   6.423
 5001SOL    HW232146   1.657   1.424   6.420
 5002SOL     OW32147   4.938   3.716   7.049
 5002SOL    HW132148   4.915   3.633   7.008
 5002SOL    HW232149   4.968   3.691   7.137
 5003SOL     OW32150   2.535   4.836   2.151
 5003SOL    HW132151   2.441   4.830   2.170
 5003SOL    HW232152   2.575   4.863   2.234
 5004SOL     OW32153   4.378   2.168   5.639
 5004SOL    HW132154   4.368   2.187   5.546
 5004SOL    HW232155   4.462   2.207   5.663
 5005SOL     OW32156   2.977   2.079   2.254
 5005SOL    HW132157   2.882   2.090   2.253
 5005SOL    HW232158   3.010   2.162   2.289
 5006SOL     OW32159   3.817   2.072   1.624
 5006SOL    HW132160   3.813   2.090   1.530
 5006SOL    HW232161   3.746   2.010   1.639
 5007SOL     OW32162   1.226   5.674   0.098
 5007SOL    HW132163   1.165   5.621   0.047
 5007SOL    HW232164   1.245   5.749   0.042
 5008SOL     OW32165   2.081   5.904   6.418
 5008SOL    HW132166   2.068   5.897   6.512
 5008SOL    HW232167   1.993   5.918   6.382
 5009SOL     OW32168   3.626   3.232   6.929
 5009SOL    HW132169   3.709   3.194   6.902
 5009SOL    HW232170   3.568   3.156   6.943
 5010SOL     OW32171   0.089   3.654   6.844
 5010SOL    HW132172   0.028   3.670   6.771
 5010SOL    HW232173   0.158   3.718   6.831
 5011SOL     OW32174   5.332   2.427   6.633
 5011SOL    HW132175   5.277   2.403   6.708
 5011SOL    HW232176   5.274   2.477   6.575
 5012SOL     OW32177   3.907   3.682   0.801
 5012SOL    HW132178   3.916   3.602   0.853
 5012SOL    HW232179   3.961   3.667   0.723
 5013SOL     OW32180   3.434   3.573   6.475
 5013SOL    HW132181   3.404   3.600   6.562
 5013SOL    HW232182   3.459   3.481   6.485
 5014SOL     OW32183   5.991   2.437   7.123
 5014SOL    HW132184   6.016   2.363   7.179
 5014SOL    HW232185   6.031   2.419   7.039
 5015SOL     OW32186   5.452   2.955   7.025
 5015SOL    HW132187   5.443   2.944   6.930
 5015SOL    HW232188   5.505   3.034   7.034
 5016SOL     OW32189   5.216   2.926   0.591
 5016SOL    HW132190   5.174   2.844   0.565
 5016SOL    HW232191   5.307   2.916   0.565
 5017SOL     OW32192   5.237   2.782   6.181
 5017SOL    HW132193   5.197   2.737   6.106
 5017SOL    HW232194   5.326   2.746   6.184
 5018SOL     OW32195   3.602   1.044   6.381
 5018SOL    HW132196   3.653   1.032   6.461
 5018SOL    HW232197   3.584   0.954   6.351
 5019SOL     OW32198   0.615   2.759   1.265
 5019SOL    HW132199   0.546   2.700   1.235
 5019SOL    HW232200   0.607   2.760   1.360
 5020SOL     OW32201   5.260   2.247   0.749
 5020SOL    HW132202   5.320   2.311   0.786
 5020SOL    HW232203   5.303   2.162   0.763
 5021SOL     OW32204   1.769   2.942   0.192
 5021SOL    HW132205   1.787   2.859   0.236
 5021SOL    HW232206   1.705   2.986   0.248
 5022SOL     OW32207   4.133   0.867   1.786
 5022SOL    HW132208   4.144   0.936   1.851
 5022SOL    HW232209   4.215   0.818   1.789
 5023SOL     OW32210   2.612   2.547   1.007
 5023SOL    HW132211   2.695   2.514   0.975
 5023SOL    HW232212   2.579   2.602   0.937
 5024SOL     OW32213   2.411   2.882   7.017
 5024SOL    HW132214   2.332   2.898   7.068
 5024SOL    HW232215   2.436   2.792   7.038
 5025SOL     OW32216   2.055   4.798   6.816
 5025SOL    HW132217   2.065   4.832   6.904
 5025SOL    HW232218   2.038   4.705   6.827
 5026SOL     OW32219   5.251   1.150   1.789
 5026SOL    HW132220   5.159   1.175   1.785
 5026SOL    HW232221   5.273   1.154   1.882
 5027SOL     OW32222   0.042   5.381   7.262
 5027SOL    HW132223  -0.031   5.442   7.268
 5027SOL    HW232224   0.083   5.402   7.178
 5028SOL     OW32225   5.751   2.811   6.251
 5028SOL    HW132226   5.760   2.806   6.156
 5028SOL    HW232227   5.713   2.898   6.266
 5029SOL     OW32228   4.712   2.626   5.694
 5029SOL    HW132229   4.772   2.557   5.720
 5029SOL    HW232230   4.670   2.592   5.614
 5030SOL     OW32231   3.478   3.215   5.311
 5030SOL    HW132232   3.460   3.121   5.308
 5030SOL    HW232233   3.443   3.242   5.396
 5031SOL     OW32234   5.817   6.046   0.507
 5031SOL    HW132235   5.738   5.996   0.486
 5031SOL    HW232236   5.873   5.985   0.553
 5032SOL     OW32237   4.057   0.649   0.228
 5032SOL    HW132238   4.088   0.729   0.272
 5032SOL    HW232239   4.138   0.605   0.200
 5033SOL     OW32240   0.810   5.813   0.934
 5033SOL    HW132241   0.814   5.720   0.911
 5033SOL    HW232242   0.890   5.850   0.897
 5034SOL     OW32243   1.862   0.583   1.200
 5034SOL    HW132244   1.934   0.524   1.177
 5034SOL    HW232245   1.787   0.549   1.150
 5035SOL     OW32246   1.078   4.868   6.433
 5035SOL    HW132247   1.173   4.863   6.448
 5035SOL    HW232248   1.042   4.796   6.484
 5036SOL     OW32249   0.372   6.384   1.105
 5036SOL    HW132250   0.310   6.451   1.078
 5036SOL    HW232251   0.377   6.392   1.200
 5037SOL     OW32252   1.078   5.842   5.692
 5037SOL    HW132253   1.018   5.804   5.628
 5037SOL    HW232254   1.135   5.770   5.717
 5038SOL     OW32255   4.746   6.297   7.456
 5038SOL    HW132256   4.820   6.264   7.507
 5038SOL    HW232257   4.683   6.225   7.456
 5039SOL     OW32258   3.520   4.265   5.340
 5039SOL    HW132259   3.465   4.188   5.356
 5039SOL    HW232260   3.501   4.323   5.414
 5040SOL     OW32261   3.722   1.337   1.211
 5040SOL    HW132262   3.763   1.278   1.273
 5040SOL    HW232263   3.698   1.282   1.137
 5041SOL     OW32264   3.955   1.893   5.835
 5041SOL    HW132265   4.033   1.862   5.884
 5041SOL    HW232266   3.900   1.815   5.826
 5042SOL     OW32267   2.469   2.742   7.795
 5042SOL    HW132268   2.551   2.730   7.748
 5042SOL    HW232269   2.471   2.676   7.864
 5043SOL     OW32270   1.116   0.994   0.252
 5043SOL    HW132271   1.034   0.965   0.292
 5043SOL    HW232272   1.091   1.070   0.198
 5044SOL     OW32273   1.099   5.048   1.943
 5044SOL    HW132274   1.149   5.068   2.022
 5044SOL    HW232275   1.039   5.123   1.933
 5045SOL     OW32276   5.562   0.567   0.659
 5045SOL    HW132277   5.647   0.561   0.704
 5045SOL    HW232278   5.583   0.557   0.567
 5046SOL     OW32279   1.493   2.363   2.096
 5046SOL    HW132280   1.554   2.345   2.025
 5046SOL    HW232281   1.465   2.277   2.126
 5047SOL     OW32282   3.816   3.396   1.589
 5047SOL    HW132283   3.906   3.383   1.619
 5047SOL    HW232284   3.804   3.491   1.591
 5048SOL     OW32285   5.565   5.170   1.635
 5048SOL    HW132286   5.487   5.135   1.593
 5048SOL    HW232287   5.561   5.138   1.725
 5049SOL     OW32288   6.221   0.783   1.509
 5049SOL    HW132289   6.127   0.783   1.489
 5049SOL    HW232290   6.230   0.847   1.580
 5050SOL     OW32291   2.492   3.467   2.331
 5050SOL    HW132292   2.555   3.399   2.357
 5050SOL    HW232293   2.474   3.514   2.412
 5051SOL     OW32294   1.947   6.320   0.023
 5051SOL    HW132295   2.024   6.333   0.079
 5051SOL    HW232296   1.975   6.352  -0.063
 5052SOL     OW32297   3.863   5.025   7.057
 5052SOL    HW132298   3.952   5.027   7.022
 5052SOL    HW232299   3.861   5.095   7.123
 5053SOL     OW32300   0.897   0.204   1.432
 5053SOL    HW132301   0.852   0.135   1.382
 5053SOL    HW232302   0.947   0.155   1.498
 5054SOL     OW32303   5.636   1.075   0.860
 5054SOL    HW132304   5.579   1.001   0.839
 5054SOL    HW232305   5.659   1.112   0.774
 5055SOL     OW32306   0.009   4.184   7.182
 5055SOL    HW132307   0.003   4.242   7.106
 5055SOL    HW232308   0.002   4.096   7.145
 5056SOL     OW32309   0.129   2.965   0.881
 5056SOL    HW132310   0.039   2.961   0.914
 5056SOL    HW232311   0.120   2.952   0.786
 5057SOL     OW32312   4.730   4.063   0.152
 5057SOL    HW132313   4.647   4.095   0.188
 5057SOL    HW232314   4.796   4.121   0.189
 5058SOL     OW32315   4.405   3.194   5.335
 5058SOL    HW132316   4.340   3.220   5.401
 5058SOL    HW232317   4.353   3.158   5.263
 5059SOL     OW32318   5.685   0.404   5.950
 5059SOL    HW132319   5.646   0.321   5.978
 5059SOL    HW232320   5.762   0.379   5.899
 5060SOL     OW32321   2.752   1.188   0.376
 5060SOL    HW132322   2.831   1.212   0.327
 5060SOL    HW232323   2.697   1.267   0.372
 5061SOL     OW32324   1.588   0.471   1.057
 5061SOL    HW132325   1.589   0.501   0.967
 5061SOL    HW232326   1.507   0.420   1.065
 5062SOL     OW32327   0.281   4.145   2.082
 5062SOL    HW132328   0.341   4.198   2.134
 5062SOL    HW232329   0.228   4.098   2.147
 5063SOL     OW32330   5.734   2.297   7.022
 5063SOL    HW132331   5.811   2.347   7.048
 5063SOL    HW232332   5.722   2.232   7.091
 5064SOL     OW32333   3.009   2.175   0.246
 5064SOL    HW132334   2.962   2.237   0.300
 5064SOL    HW232335   2.940   2.121   0.206
 5065SOL     OW32336   1.006   0.436   7.214
 5065SOL    HW132337   1.058   0.446   7.293
 5065SOL    HW232338   1.027   0.512   7.161
 5066SOL     OW32339   3.198   2.722   0.937
 5066SOL    HW132340   3.213   2.692   1.027
 5066SOL    HW232341   3.271   2.686   0.887
 5067SOL     OW32342   0.635   3.318   6.396
 5067SOL    HW132343   0.694   3.281   6.329
 5067SOL    HW232344   0.687   3.385   6.439
 5068SOL     OW32345   3.610   0.630   0.166
 5068SOL    HW132346   3.634   0.595   0.252
 5068SOL    HW232347   3.520   0.662   0.178
 5069SOL     OW32348   5.409   0.990   5.917
 5069SOL    HW132349   5.330   0.950   5.955
 5069SOL    HW232350   5.386   1.006   5.826
 5070SOL     OW32351   4.453   1.721   1.990
 5070SOL    HW132352   4.433   1.629   2.006
 5070SOL    HW232353   4.516   1.744   2.058
 5071SOL     OW32354   0.583   4.361   5.730
 5071SOL    HW132355   0.593   4.281   5.781
 5071SOL    HW232356   0.493   4.358   5.697
 5072SOL     OW32357   3.011   1.161   5.759
 5072SOL    HW132358   2.960   1.242   5.760
 5072SOL    HW232359   2.946   1.091   5.757
 5073SOL     OW32360   5.998   5.868   0.621
 5073SOL    HW132361   6.080   5.848   0.577
 5073SOL    HW232362   6.021   5.878   0.713
 5074SOL     OW32363   4.799   2.381   6.105
 5074SOL    HW132364   4.838   2.467   6.093
 5074SOL    HW232365   4.708   2.400   6.129
 5075SOL     OW32366   3.844   4.787   1.079
 5075SOL    HW132367   3.816   4.867   1.123
 5075SOL    HW232368   3.939   4.786   1.089
 5076SOL     OW32369   3.359   4.611   6.255
 5076SOL    HW132370   3.405   4.684   6.213
 5076SOL    HW232371   3.373   4.537   6.196
 5077SOL     OW32372   0.312   5.464   5.663
 5077SOL    HW132373   0.264   5.414   5.597
 5077SOL    HW232374   0.368   5.399   5.706
 5078SOL     OW32375   4.289   0.667   0.756
 5078SOL    HW132376   4.216   0.710   0.801
 5078SOL    HW232377   4.366   0.689   0.808
 5079SOL     OW32378   0.338   0.742   5.651
 5079SOL    HW132379   0.245   0.737   5.631
 5079SOL    HW232380   0.358   0.658   5.693
 5080SOL     OW32381   0.839   5.424   6.470
 5080SOL    HW132382   0.878   5.385   6.392
 5080SOL    HW232383   0.766   5.477   6.437
 5081SOL     OW32384   2.282   5.461   7.349
 5081SOL    HW132385   2.196   5.502   7.364
 5081SOL    HW232386   2.335   5.491   7.422
 5082SOL     OW32387   4.973   1.550   6.640
 5082SOL    HW132388   4.970   1.608   6.564
 5082SOL    HW232389   5.065   1.545   6.663
 5083SOL     OW32390   3.172   3.729   0.391
 5083SOL    HW132391   3.178   3.735   0.295
 5083SOL    HW232392   3.244   3.670   0.415
 5084SOL     OW32393   1.013   3.008   1.752
 5084SOL    HW132394   0.953   2.956   1.806
 5084SOL    HW232395   1.080   2.946   1.723
 5085SOL     OW32396   3.004   1.910   7.508
 5085SOL    HW132397   2.920   1.951   7.528
 5085SOL    HW232398   3.059   1.929   7.584
 5086SOL     OW32399   0.343   5.112   7.355
 5086SOL    HW132400   0.414   5.076   7.408
 5086SOL    HW232401   0.274   5.132   7.419
 5087SOL     OW32402   4.186   1.540   0.829
 5087SOL    HW132403   4.139   1.507   0.905
 5087SOL    HW232404   4.202   1.463   0.775
 5088SOL     OW32405   1.393   5.373   7.729
 5088SOL    HW132406   1.388   5.451   7.672
 5088SOL    HW232407   1.304   5.359   7.759
 5089SOL     OW32408   0.483   4.001   1.784
 5089SOL    HW132409   0.501   4.065   1.853
 5089SOL    HW232410   0.507   3.916   1.823
 5090SOL     OW32411   1.208   0.835   0.991
 5090SOL    HW132412   1.135   0.775   1.003
 5090SOL    HW232413   1.286   0.780   0.994
 5091SOL     OW32414   3.863   6.046   7.492
 5091SOL    HW132415   3.935   6.001   7.446
 5091SOL    HW232416   3.785   6.023   7.441
 5092SOL     OW32417   5.425   1.866   5.341
 5092SOL    HW132418   5.484   1.833   5.273
 5092SOL    HW232419   5.428   1.961   5.331
 5093SOL     OW32420   5.521   1.586   7.739
 5093SOL    HW132421   5.518   1.678   7.765
 5093SOL    HW232422   5.434   1.552   7.759
 5094SOL     OW32423   4.722   3.546   7.448
 5094SOL    HW132424   4.797   3.593   7.410
 5094SOL    HW232425   4.645   3.587   7.408
 5095SOL     OW32426   5.999   1.044   0.244
 5095SOL    HW132427   6.073   1.104   0.239
 5095SOL    HW232428   5.940   1.072   0.174
 5096SOL     OW32429   5.610   2.642   5.710
 5096SOL    HW132430   5.669   2.717   5.697
 5096SOL    HW232431   5.653   2.570   5.663
 5097SOL     OW32432   1.848   1.023   5.006
 5097SOL    HW132433   1.901   0.945   5.017
 5097SOL    HW232434   1.883   1.086   5.069
 5098SOL     OW32435   2.626   2.998   0.143
 5098SOL    HW132436   2.720   2.996   0.129
 5098SOL    HW232437   2.588   3.003   0.056
 5099SOL     OW32438   2.363   2.044   0.784
 5099SOL    HW132439   2.394   1.990   0.711
 5099SOL    HW232440   2.442   2.066   0.833
 5100SOL     OW32441   5.607   0.485   7.774
 5100SOL    HW132442   5.634   0.465   7.863
 5100SOL    HW232443   5.682   0.529   7.735
 5101SOL     OW32444   0.780   6.104   0.555
 5101SOL    HW132445   0.832   6.108   0.475
 5101SOL    HW232446   0.690   6.121   0.526
 5102SOL     OW32447   0.191   5.450   6.349
 5102SOL    HW132448   0.225   5.369   6.312
 5102SOL    HW232449   0.155   5.424   6.433
 5103SOL     OW32450   5.775   4.263   1.289
 5103SOL    HW132451   5.780   4.169   1.273
 5103SOL    HW232452   5.800   4.273   1.381
 5104SOL     OW32453   4.736   0.254   0.134
 5104SOL    HW132454   4.714   0.301   0.215
 5104SOL    HW232455   4.670   0.186   0.128
 5105SOL     OW32456   6.406   1.575   1.335
 5105SOL    HW132457   6.499   1.588   1.356
 5105SOL    HW232458   6.375   1.663   1.312
 5106SOL     OW32459   2.990   5.133   5.561
 5106SOL    HW132460   2.911   5.184   5.577
 5106SOL    HW232461   2.971   5.047   5.598
 5107SOL     OW32462   0.065   2.487   6.995
 5107SOL    HW132463   0.051   2.559   6.932
 5107SOL    HW232464   0.076   2.410   6.940
 5108SOL     OW32465   2.968   3.404   0.517
 5108SOL    HW132466   2.924   3.381   0.599
 5108SOL    HW232467   2.940   3.494   0.501
 5109SOL     OW32468   1.578   1.737   6.829
 5109SOL    HW132469   1.529   1.789   6.892
 5109SOL    HW232470   1.545   1.765   6.744
 5110SOL     OW32471   2.732   4.082   1.981
 5110SOL    HW132472   2.657   4.137   1.957
 5110SOL    HW232473   2.743   4.023   1.907
 5111SOL     OW32474   1.466   5.367   0.210
 5111SOL    HW132475   1.464   5.370   0.114
 5111SOL    HW232476   1.453   5.458   0.236
 5112SOL     OW32477   2.026   4.022   0.706
 5112SOL    HW132478   1.946   4.024   0.653
 5112SOL    HW232479   2.094   3.992   0.646
 5113SOL     OW32480   3.715   4.856   7.574
 5113SOL    HW132481   3.787   4.834   7.515
 5113SOL    HW232482   3.750   4.926   7.629
 5114SOL     OW32483   2.931   2.391   0.437
 5114SOL    HW132484   2.992   2.406   0.509
 5114SOL    HW232485   2.856   2.447   0.457
 5115SOL     OW32486   3.479   2.663   1.009
 5115SOL    HW132487   3.531   2.703   0.940
 5115SOL    HW232488   3.526   2.684   1.090
 5116SOL     OW32489   3.859   5.617   1.147
 5116SOL    HW132490   3.930   5.669   1.184
 5116SOL    HW232491   3.793   5.612   1.217
 5117SOL     OW32492   2.525   0.413   0.533
 5117SOL    HW132493   2.595   0.395   0.471
 5117SOL    HW232494   2.495   0.500   0.511
 5118SOL     OW32495   4.627   0.405   0.311
 5118SOL    HW132496   4.652   0.459   0.386
 5118SOL    HW232497   4.532   0.413   0.306
 5119SOL     OW32498   3.287   6.036   6.626
 5119SOL    HW132499   3.233   5.956   6.631
 5119SOL    HW232500   3.223   6.107   6.627
 5120SOL     OW32501   1.651   2.613   1.108
 5120SOL    HW132502   1.698   2.592   1.028
 5120SOL    HW232503   1.690   2.556   1.175
 5121SOL     OW32504   3.948   0.798   0.676
 5121SOL    HW132505   3.916   0.737   0.742
 5121SOL    HW232506   3.868   0.829   0.632
 5122SOL     OW32507   3.245   1.857   6.793
 5122SOL    HW132508   3.285   1.843   6.879
 5122SOL    HW232509   3.306   1.817   6.731
 5123SOL     OW32510   4.684   2.043   6.923
 5123SOL    HW132511   4.642   1.990   6.855
 5123SOL    HW232512   4.716   2.120   6.876
 5124SOL     OW32513   4.511   3.996   0.516
 5124SOL    HW132514   4.516   3.941   0.594
 5124SOL    HW232515   4.473   3.940   0.450
 5125SOL     OW32516   0.963   4.669   0.231
 5125SOL    HW132517   0.965   4.678   0.326
 5125SOL    HW232518   0.877   4.703   0.206
 5126SOL     OW32519   3.723   4.729   1.423
 5126SOL    HW132520   3.804   4.700   1.381
 5126SOL    HW232521   3.655   4.672   1.388
 5127SOL     OW32522   0.966   2.449   5.398
 5127SOL    HW132523   0.962   2.537   5.436
 5127SOL    HW232524   1.012   2.397   5.464
 5128SOL     OW32525   2.975   0.634   7.381
 5128SOL    HW132526   3.040   0.564   7.372
 5128SOL    HW232527   3.026   0.710   7.409
 5129SOL     OW32528   2.269   5.074   5.343
 5129SOL    HW132529   2.329   5.005   5.372
 5129SOL    HW232530   2.299   5.152   5.389
 5130SOL     OW32531   0.688   4.552   7.309
 5130SOL    HW132532   0.687   4.483   7.242
 5130SOL    HW232533   0.724   4.509   7.387
 5131SOL     OW32534   4.383   4.563   7.128
 5131SOL    HW132535   4.452   4.559   7.062
 5131SOL    HW232536   4.411   4.499   7.194
 5132SOL     OW32537   2.441   6.243   7.002
 5132SOL    HW132538   2.411   6.334   7.005
 5132SOL    HW232539   2.465   6.230   6.910
 5133SOL     OW32540   2.704   6.032   0.197
 5133SOL    HW132541   2.672   5.942   0.188
 5133SOL    HW232542   2.797   6.027   0.176
 5134SOL     OW32543   2.842   1.064   6.456
 5134SOL    HW132544   2.917   1.044   6.400
 5134SOL    HW232545   2.839   1.159   6.459
 5135SOL     OW32546   4.837   2.000   6.343
 5135SOL    HW132547   4.793   1.978   6.261
 5135SOL    HW232548   4.798   2.083   6.369
 5136SOL     OW32549   0.207   3.979   0.419
 5136SOL    HW132550   0.223   3.955   0.328
 5136SOL    HW232551   0.276   4.042   0.440
 5137SOL     OW32552   2.411   0.086   6.351
 5137SOL    HW132553   2.495   0.109   6.310
 5137SOL    HW232554   2.429   0.090   6.445
 5138SOL     OW32555   6.273   1.755   6.071
 5138SOL    HW132556   6.333   1.706   6.128
 5138SOL    HW232557   6.186   1.737   6.106
 5139SOL     OW32558   0.844   1.175   1.226
 5139SOL    HW132559   0.765   1.129   1.197
 5139SOL    HW232560   0.842   1.168   1.322
 5140SOL     OW32561   2.443   4.181   1.047
 5140SOL    HW132562   2.423   4.087   1.046
 5140SOL    HW232563   2.424   4.210   0.958
 5141SOL     OW32564   1.266   5.042   7.667
 5141SOL    HW132565   1.207   5.114   7.643
 5141SOL    HW232566   1.216   4.963   7.647
 5142SOL     OW32567   1.406   1.036   0.001
 5142SOL    HW132568   1.493   1.004   0.023
 5142SOL    HW232569   1.359   1.039   0.084
 5143SOL     OW32570   6.098   4.071   1.711
 5143SOL    HW132571   6.009   4.090   1.739
 5143SOL    HW232572   6.089   4.011   1.637
 5144SOL     OW32573   5.268   0.382   7.300
 5144SOL    HW132574   5.363   0.379   7.287
 5144SOL    HW232575   5.256   0.367   7.393
 5145SOL     OW32576   3.242   3.285   6.576
 5145SOL    HW132577   3.310   3.297   6.643
 5145SOL    HW232578   3.206   3.373   6.564
 5146SOL     OW32579   4.626   3.786   0.722
 5146SOL    HW132580   4.628   3.758   0.630
 5146SOL    HW232581   4.681   3.723   0.768
 5147SOL     OW32582   1.828   1.274   5.679
 5147SOL    HW132583   1.774   1.222   5.738
 5147SOL    HW232584   1.839   1.219   5.601
 5148SOL     OW32585   4.388   4.050   5.439
 5148SOL    HW132586   4.330   3.991   5.487
 5148SOL    HW232587   4.379   4.022   5.348
 5149SOL     OW32588   3.944   1.665   1.900
 5149SOL    HW132589   3.943   1.573   1.872
 5149SOL    HW232590   3.877   1.670   1.967
 5150SOL     OW32591   5.316   3.218   7.210
 5150SOL    HW132592   5.314   3.160   7.133
 5150SOL    HW232593   5.266   3.295   7.183
 5151SOL     OW32594   3.126   6.418   5.614
 5151SOL    HW132595   3.090   6.504   5.594
 5151SOL    HW232596   3.203   6.436   5.667
 5152SOL     OW32597   1.673   0.693   7.109
 5152SOL    HW132598   1.677   0.641   7.029
 5152SOL    HW232599   1.757   0.737   7.114
 5153SOL     OW32600   2.332   2.549   7.085
 5153SOL    HW132601   2.282   2.567   7.005
 5153SOL    HW232602   2.403   2.492   7.056
 5154SOL     OW32603   4.369   2.214   1.930
 5154SOL    HW132604   4.404   2.302   1.916
 5154SOL    HW232605   4.333   2.188   1.846
 5155SOL     OW32606   0.108   3.681   1.164
 5155SOL    HW132607   0.139   3.644   1.247
 5155SOL    HW232608   0.019   3.710   1.183
 5156SOL     OW32609   5.602   2.417   1.330
 5156SOL    HW132610   5.618   2.438   1.237
 5156SOL    HW232611   5.689   2.403   1.366
 5157SOL     OW32612   3.887   4.764   6.267
 5157SOL    HW132613   3.808   4.817   6.263
 5157SOL    HW232614   3.931   4.780   6.183
 5158SOL     OW32615   2.102   4.291   0.507
 5158SOL    HW132616   2.038   4.258   0.444
 5158SOL    HW232617   2.180   4.238   0.492
 5159SOL     OW32618   4.545   6.338   1.244
 5159SOL    HW132619   4.542   6.281   1.321
 5159SOL    HW232620   4.542   6.427   1.280
 5160SOL     OW32621   3.586   3.914   1.563
 5160SOL    HW132622   3.588   3.839   1.503
 5160SOL    HW232623   3.633   3.884   1.641
 5161SOL     OW32624   5.841   5.577   7.115
 5161SOL    HW132625   5.819   5.605   7.204
 5161SOL    HW232626   5.840   5.481   7.119
 5162SOL     OW32627   1.094   1.152   1.095
 5162SOL    HW132628   1.101   1.122   1.004
 5162SOL    HW232629   1.011   1.115   1.126
 5163SOL     OW32630   3.980   1.608   5.764
 5163SOL    HW132631   4.054   1.609   5.704
 5163SOL    HW232632   3.903   1.597   5.707
 5164SOL     OW32633   1.576   6.230   0.813
 5164SOL    HW132634   1.626   6.305   0.846
 5164SOL    HW232635   1.619   6.154   0.852
 5165SOL     OW32636   1.161   2.141   7.274
 5165SOL    HW132637   1.113   2.223   7.283
 5165SOL    HW232638   1.242   2.154   7.324
 5166SOL     OW32639   2.577   0.355   7.432
 5166SOL    HW132640   2.590   0.421   7.365
 5166SOL    HW232641   2.496   0.310   7.406
 5167SOL     OW32642   3.999   3.270   7.459
 5167SOL    HW132643   4.090   3.240   7.452
 5167SOL    HW232644   4.005   3.365   7.458
 5168SOL     OW32645   5.394   1.875   1.232
 5168SOL    HW132646   5.350   1.954   1.199
 5168SOL    HW232647   5.481   1.879   1.194
 5169SOL     OW32648   4.553   1.301   7.517
 5169SOL    HW132649   4.533   1.224   7.570
 5169SOL    HW232650   4.481   1.308   7.455
 5170SOL     OW32651   3.232   5.379   5.230
 5170SOL    HW132652   3.172   5.412   5.163
 5170SOL    HW232653   3.179   5.319   5.282
 5171SOL     OW32654   0.483   4.557   6.417
 5171SOL    HW132655   0.484   4.652   6.415
 5171SOL    HW232656   0.530   4.530   6.338
 5172SOL     OW32657   5.128   4.469   1.516
 5172SOL    HW132658   5.107   4.377   1.500
 5172SOL    HW232659   5.079   4.491   1.596
 5173SOL     OW32660   6.079   5.570   1.096
 5173SOL    HW132661   6.149   5.508   1.119
 5173SOL    HW232662   5.998   5.522   1.114
 5174SOL     OW32663   1.835   5.888   6.307
 5174SOL    HW132664   1.831   5.864   6.214
 5174SOL    HW232665   1.749   5.926   6.325
 5175SOL     OW32666   2.873   0.906   6.070
 5175SOL    HW132667   2.884   0.898   5.976
 5175SOL    HW232668   2.892   0.819   6.104
 5176SOL     OW32669   4.035   3.716   6.411
 5176SOL    HW132670   4.126   3.730   6.392
 5176SOL    HW232671   3.987   3.758   6.340
 5177SOL     OW32672   4.090   5.411   7.719
 5177SOL    HW132673   4.177   5.397   7.756
 5177SOL    HW232674   4.033   5.356   7.771
 5178SOL     OW32675   2.807   2.530   7.232
 5178SOL    HW132676   2.819   2.467   7.161
 5178SOL    HW232677   2.712   2.545   7.234
 5179SOL     OW32678   2.764   2.266   6.615
 5179SOL    HW132679   2.764   2.213   6.694
 5179SOL    HW232680   2.685   2.238   6.567
 5180SOL     OW32681   1.180   4.813   5.986
 5180SOL    HW132682   1.111   4.806   6.052
 5180SOL    HW232683   1.234   4.735   5.999
 5181SOL     OW32684   1.751   5.922   6.935
 5181SOL    HW132685   1.677   5.918   6.996
 5181SOL    HW232686   1.808   5.850   6.962
 5182SOL     OW32687   1.844   1.292   0.449
 5182SOL    HW132688   1.827   1.208   0.406
 5182SOL    HW232689   1.760   1.315   0.489
 5183SOL     OW32690   3.316   6.248   1.274
 5183SOL    HW132691   3.247   6.205   1.224
 5183SOL    HW232692   3.397   6.206   1.245
 5184SOL     OW32693   0.482   1.449   1.106
 5184SOL    HW132694   0.424   1.374   1.105
 5184SOL    HW232695   0.493   1.473   1.014
 5185SOL     OW32696   3.822   5.844   6.316
 5185SOL    HW132697   3.802   5.888   6.398
 5185SOL    HW232698   3.902   5.794   6.334
 5186SOL     OW32699   4.498   1.859   0.763
 5186SOL    HW132700   4.432   1.798   0.730
 5186SOL    HW232701   4.577   1.837   0.714
 5187SOL     OW32702   3.603   5.838   5.818
 5187SOL    HW132703   3.599   5.912   5.757
 5187SOL    HW232704   3.632   5.875   5.900
 5188SOL     OW32705   4.475   0.686   6.027
 5188SOL    HW132706   4.442   0.681   6.116
 5188SOL    HW232707   4.537   0.759   6.028
 5189SOL     OW32708   1.435   5.637   7.001
 5189SOL    HW132709   1.495   5.600   6.936
 5189SOL    HW232710   1.476   5.720   7.027
 5190SOL     OW32711   6.098   4.048   6.418
 5190SOL    HW132712   6.183   4.032   6.378
 5190SOL    HW232713   6.063   4.123   6.370
 5191SOL     OW32714   4.521   1.907   7.742
 5191SOL    HW132715   4.548   1.987   7.787
 5191SOL    HW232716   4.513   1.932   7.648
 5192SOL     OW32717   2.354   0.967   5.053
 5192SOL    HW132718   2.343   0.916   5.132
 5192SOL    HW232719   2.340   0.905   4.981
 5193SOL     OW32720   2.965   0.697   1.162
 5193SOL    HW132721   2.918   0.763   1.111
 5193SOL    HW232722   2.957   0.616   1.110
 5194SOL     OW32723   2.970   3.484   0.180
 5194SOL    HW132724   2.950   3.411   0.121
 5194SOL    HW232725   3.044   3.454   0.231
 5195SOL     OW32726   1.720   5.024   6.540
 5195SOL    HW132727   1.750   5.051   6.627
 5195SOL    HW232728   1.712   4.928   6.546
 5196SOL     OW32729   0.101   2.033   0.662
 5196SOL    HW132730   0.081   2.003   0.750
 5196SOL    HW232731   0.195   2.018   0.652
 5197SOL     OW32732   1.247   4.575   0.042
 5197SOL    HW132733   1.302   4.503   0.014
 5197SOL    HW232734   1.285   4.604   0.125
 5198SOL     OW32735   4.282   4.557   0.773
 5198SOL    HW132736   4.231   4.621   0.724
 5198SOL    HW232737   4.282   4.478   0.718
 5199SOL     OW32738   1.633   2.114   7.526
 5199SOL    HW132739   1.680   2.100   7.608
 5199SOL    HW232740   1.667   2.046   7.468
 5200SOL     OW32741   4.559   5.814   0.450
 5200SOL    HW132742   4.491   5.855   0.503
 5200SOL    HW232743   4.514   5.741   0.407
 5201SOL     OW32744   6.311   3.263   5.287
 5201SOL    HW132745   6.307   3.168   5.296
 5201SOL    HW232746   6.246   3.283   5.219
 5202SOL     OW32747   0.403   6.031   0.665
 5202SOL    HW132748   0.474   5.990   0.714
 5202SOL    HW232749   0.402   6.122   0.697
 5203SOL     OW32750   3.699   3.529   6.592
 5203SOL    HW132751   3.721   3.532   6.686
 5203SOL    HW232752   3.703   3.620   6.564
 5204SOL     OW32753   2.153   0.082   0.696
 5204SOL    HW132754   2.075   0.028   0.706
 5204SOL    HW232755   2.122   0.160   0.649
 5205SOL     OW32756   6.353   1.847   1.286
 5205SOL    HW132757   6.299   1.912   1.242
 5205SOL    HW232758   6.442   1.861   1.251
 5206SOL     OW32759   6.278   3.801   0.466
 5206SOL    HW132760   6.339   3.865   0.504
 5206SOL    HW232761   6.201   3.805   0.521
 5207SOL     OW32762   5.296   5.423   1.486
 5207SOL    HW132763   5.216   5.449   1.441
 5207SOL    HW232764   5.275   5.430   1.579
 5208SOL     OW32765   6.184   2.123   0.853
 5208SOL    HW132766   6.116   2.062   0.882
 5208SOL    HW232767   6.263   2.094   0.898
 5209SOL     OW32768   4.627   0.910   6.000
 5209SOL    HW132769   4.709   0.886   5.958
 5209SOL    HW232770   4.631   1.005   6.010
 5210SOL     OW32771   1.101   4.232   6.134
 5210SOL    HW132772   1.040   4.169   6.173
 5210SOL    HW232773   1.187   4.203   6.163
 5211SOL     OW32774   4.088   5.559   7.312
 5211SOL    HW132775   4.102   5.483   7.367
 5211SOL    HW232776   4.025   5.612   7.359
 5212SOL     OW32777   3.833   5.235   6.344
 5212SOL    HW132778   3.895   5.215   6.275
 5212SOL    HW232779   3.867   5.188   6.421
 5213SOL     OW32780   3.732   2.349   6.742
 5213SOL    HW132781   3.651   2.375   6.700
 5213SOL    HW232782   3.759   2.426   6.792
 5214SOL     OW32783   4.530   3.975   0.890
 5214SOL    HW132784   4.459   3.938   0.942
 5214SOL    HW232785   4.534   3.918   0.812
 5215SOL     OW32786   6.087   0.483   7.442
 5215SOL    HW132787   6.123   0.399   7.470
 5215SOL    HW232788   5.992   0.472   7.452
 5216SOL     OW32789   1.708   2.084   1.163
 5216SOL    HW132790   1.722   2.074   1.069
 5216SOL    HW232791   1.614   2.077   1.175
 5217SOL     OW32792   2.514   1.702   0.664
 5217SOL    HW132793   2.576   1.630   0.672
 5217SOL    HW232794   2.545   1.767   0.727
 5218SOL     OW32795   5.773   1.513   0.271
 5218SOL    HW132796   5.780   1.578   0.202
 5218SOL    HW232797   5.682   1.482   0.266
 5219SOL     OW32798   5.277   2.757   0.271
 5219SOL    HW132799   5.195   2.805   0.281
 5219SOL    HW232800   5.274   2.690   0.338
 5220SOL     OW32801   0.301   3.828   1.068
 5220SOL    HW132802   0.252   3.910   1.074
 5220SOL    HW232803   0.241   3.761   1.100
 5221SOL     OW32804   0.784   3.117   6.858
 5221SOL    HW132805   0.708   3.125   6.800
 5221SOL    HW232806   0.764   3.176   6.931
 5222SOL     OW32807   1.800   3.449   6.747
 5222SOL    HW132808   1.779   3.463   6.840
 5222SOL    HW232809   1.889   3.480   6.737
 5223SOL     OW32810   3.573   0.668   0.901
 5223SOL    HW132811   3.621   0.591   0.933
 5223SOL    HW232812   3.504   0.632   0.846
 5224SOL     OW32813   5.435   2.458   7.688
 5224SOL    HW132814   5.472   2.388   7.741
 5224SOL    HW232815   5.406   2.523   7.750
 5225SOL     OW32816   5.973   3.602   5.866
 5225SOL    HW132817   5.989   3.509   5.881
 5225SOL    HW232818   5.953   3.608   5.772
 5226SOL     OW32819   0.455   0.582   0.212
 5226SOL    HW132820   0.417   0.666   0.183
 5226SOL    HW232821   0.379   0.527   0.229
 5227SOL     OW32822   2.983   3.161   6.051
 5227SOL    HW132823   2.957   3.132   6.138
 5227SOL    HW232824   2.917   3.226   6.026
 5228SOL     OW32825   1.529   0.673   7.336
 5228SOL    HW132826   1.581   0.676   7.256
 5228SOL    HW232827   1.450   0.724   7.315
 5229SOL     OW32828   2.727   4.753   5.973
 5229SOL    HW132829   2.689   4.666   5.977
 5229SOL    HW232830   2.715   4.780   5.882
 5230SOL     OW32831   4.595   1.978   5.429
 5230SOL    HW132832   4.666   2.004   5.371
 5230SOL    HW232833   4.521   1.962   5.371
 5231SOL     OW32834   3.360   4.474   7.340
 5231SOL    HW132835   3.423   4.539   7.308
 5231SOL    HW232836   3.415   4.401   7.370
 5232SOL     OW32837   1.592   6.369   6.808
 5232SOL    HW132838   1.594   6.398   6.899
 5232SOL    HW232839   1.499   6.372   6.784
 5233SOL     OW32840   4.606   2.500   7.250
 5233SOL    HW132841   4.666   2.471   7.182
 5233SOL    HW232842   4.640   2.586   7.277
 5234SOL     OW32843   5.828   1.646   2.186
 5234SOL    HW132844   5.911   1.621   2.145
 5234SOL    HW232845   5.847   1.728   2.231
 5235SOL     OW32846   1.809   1.764   7.798
 5235SOL    HW132847   1.780   1.698   7.735
 5235SOL    HW232848   1.732   1.819   7.812
 5236SOL     OW32849   0.119   0.583   6.846
 5236SOL    HW132850   0.117   0.643   6.771
 5236SOL    HW232851   0.212   0.561   6.857
 5237SOL     OW32852   0.770   6.036   6.056
 5237SOL    HW132853   0.822   6.061   5.980
 5237SOL    HW232854   0.696   6.097   6.057
 5238SOL     OW32855   6.245   3.690   5.958
 5238SOL    HW132856   6.247   3.785   5.967
 5238SOL    HW232857   6.159   3.672   5.919
 5239SOL     OW32858   1.741   3.831   7.017
 5239SOL    HW132859   1.784   3.783   7.088
 5239SOL    HW232860   1.684   3.894   7.061
 5240SOL     OW32861   4.388   3.217   1.322
 5240SOL    HW132862   4.478   3.203   1.292
 5240SOL    HW232863   4.355   3.129   1.339
 5241SOL     OW32864   3.292   5.559   0.390
 5241SOL    HW132865   3.320   5.609   0.313
 5241SOL    HW232866   3.234   5.619   0.437
 5242SOL     OW32867   0.348   4.248   6.000
 5242SOL    HW132868   0.372   4.181   5.935
 5242SOL    HW232869   0.431   4.270   6.043
 5243SOL     OW32870   1.647   1.168   0.195
 5243SOL    HW132871   1.647   1.097   0.130
 5243SOL    HW232872   1.636   1.247   0.143
 5244SOL     OW32873   3.725   1.727   5.193
 5244SOL    HW132874   3.789   1.706   5.261
 5244SOL    HW232875   3.761   1.804   5.149
 5245SOL     OW32876   4.426   2.926   1.784
 5245SOL    HW132877   4.362   2.919   1.854
 5245SOL    HW232878   4.427   2.839   1.743
 5246SOL     OW32879   3.759   2.720   5.776
 5246SOL    HW132880   3.810   2.660   5.722
 5246SOL    HW232881   3.703   2.662   5.829
 5247SOL     OW32882   4.116   4.659   7.132
 5247SOL    HW132883   4.197   4.619   7.099
 5247SOL    HW232884   4.126   4.752   7.114
 5248SOL     OW32885   0.548   3.716   0.996
 5248SOL    HW132886   0.489   3.782   1.033
 5248SOL    HW232887   0.493   3.641   0.978
 5249SOL     OW32888   3.889   6.195   7.231
 5249SOL    HW132889   3.803   6.153   7.229
 5249SOL    HW232890   3.943   6.139   7.286
 5250SOL     OW32891   0.061   4.186   1.442
 5250SOL    HW132892   0.029   4.242   1.370
 5250SOL    HW232893  -0.005   4.196   1.510
 5251SOL     OW32894   4.118   2.177   0.049
 5251SOL    HW132895   4.137   2.249  -0.011
 5251SOL    HW232896   4.200   2.129   0.056
 5252SOL     OW32897   3.527   2.541   1.685
 5252SOL    HW132898   3.536   2.630   1.718
 5252SOL    HW232899   3.515   2.487   1.763
 5253SOL     OW32900   1.596   0.938   4.949
 5253SOL    HW132901   1.685   0.975   4.955
 5253SOL    HW232902   1.608   0.844   4.959
 5254SOL     OW32903   1.447   1.901   6.989
 5254SOL    HW132904   1.389   1.863   7.056
 5254SOL    HW232905   1.475   1.985   7.026
 5255SOL     OW32906   0.575   1.676   7.589
 5255SOL    HW132907   0.485   1.668   7.618
 5255SOL    HW232908   0.578   1.760   7.543
 5256SOL     OW32909   4.538   6.019   0.015
 5256SOL    HW132910   4.472   5.950   0.023
 5256SOL    HW232911   4.560   6.042   0.105
 5257SOL     OW32912   4.103   4.898   6.052
 5257SOL    HW132913   4.197   4.911   6.038
 5257SOL    HW232914   4.072   4.980   6.090
 5258SOL     OW32915   3.048   0.298   6.280
 5258SOL    HW132916   3.045   0.332   6.191
 5258SOL    HW232917   3.052   0.203   6.269
 5259SOL     OW32918   4.165   5.344   5.498
 5259SOL    HW132919   4.248   5.390   5.502
 5259SOL    HW232920   4.099   5.412   5.506
 5260SOL     OW32921   0.434   3.373   7.103
 5260SOL    HW132922   0.401   3.395   7.016
 5260SOL    HW232923   0.355   3.354   7.154
 5261SOL     OW32924   4.101   3.481   0.368
 5261SOL    HW132925   4.050   3.520   0.297
 5261SOL    HW232926   4.113   3.390   0.341
 5262SOL     OW32927   5.079   2.780   1.105
 5262SOL    HW132928   4.994   2.740   1.089
 5262SOL    HW232929   5.094   2.768   1.199
 5263SOL     OW32930   6.224   1.139   6.585
 5263SOL    HW132931   6.291   1.201   6.614
 5263SOL    HW232932   6.234   1.065   6.645
 5264SOL     OW32933   5.723   4.542   1.739
 5264SOL    HW132934   5.629   4.551   1.751
 5264SOL    HW232935   5.759   4.552   1.827
 5265SOL     OW32936   0.115   3.118   6.391
 5265SOL    HW132937   0.029   3.085   6.419
 5265SOL    HW232938   0.101   3.211   6.377
 5266SOL     OW32939   4.250   6.151   7.086
 5266SOL    HW132940   4.267   6.244   7.069
 5266SOL    HW232941   4.277   6.107   7.005
 5267SOL     OW32942   2.947   3.167   2.436
 5267SOL    HW132943   3.009   3.103   2.402
 5267SOL    HW232944   2.991   3.251   2.424
 5268SOL     OW32945   2.332   2.435   5.350
 5268SOL    HW132946   2.242   2.411   5.331
 5268SOL    HW232947   2.343   2.521   5.309
 5269SOL     OW32948   4.189   5.044   7.417
 5269SOL    HW132949   4.203   5.071   7.327
 5269SOL    HW232950   4.193   4.949   7.415
 5270SOL     OW32951   6.405   5.322   1.614
 5270SOL    HW132952   6.375   5.348   1.701
 5270SOL    HW232953   6.427   5.229   1.623
 5271SOL     OW32954   4.844   2.446   6.593
 5271SOL    HW132955   4.838   2.514   6.526
 5271SOL    HW232956   4.935   2.417   6.591
 5272SOL     OW32957   4.618   6.383   6.386
 5272SOL    HW132958   4.701   6.339   6.406
 5272SOL    HW232959   4.613   6.382   6.291
 5273SOL     OW32960   5.625   1.286   1.361
 5273SOL    HW132961   5.545   1.322   1.400
 5273SOL    HW232962   5.668   1.362   1.321
 5274SOL     OW32963   1.991   2.294   7.685
 5274SOL    HW132964   2.077   2.332   7.665
 5274SOL    HW232965   1.932   2.339   7.623
 5275SOL     OW32966   2.323   2.041   1.084
 5275SOL    HW132967   2.320   2.100   1.008
 5275SOL    HW232968   2.359   1.959   1.049
 5276SOL     OW32969   3.978   3.541   7.423
 5276SOL    HW132970   4.050   3.592   7.462
 5276SOL    HW232971   3.937   3.601   7.361
 5277SOL     OW32972   2.295   5.441   1.047
 5277SOL    HW132973   2.320   5.398   1.129
 5277SOL    HW232974   2.277   5.368   0.987
 5278SOL     OW32975   4.152   2.197   6.367
 5278SOL    HW132976   4.209   2.215   6.292
 5278SOL    HW232977   4.114   2.282   6.390
 5279SOL     OW32978   4.546   4.826   5.937
 5279SOL    HW132979   4.641   4.816   5.929
 5279SOL    HW232980   4.533   4.855   6.028
 5280SOL     OW32981   0.858   3.621   6.716
 5280SOL    HW132982   0.814   3.705   6.699
 5280SOL    HW232983   0.951   3.642   6.711
 5281SOL     OW32984   0.095   1.819   5.460
 5281SOL    HW132985   0.045   1.824   5.379
 5281SOL    HW232986   0.172   1.767   5.438
 5282SOL     OW32987   2.555   3.935   6.061
 5282SOL    HW132988   2.641   3.969   6.035
 5282SOL    HW232989   2.559   3.842   6.042
 5283SOL     OW32990   3.954   5.689   7.749
 5283SOL    HW132991   4.026   5.630   7.728
 5283SOL    HW232992   3.909   5.704   7.665
 5284SOL     OW32993   4.400   2.153   6.637
 5284SOL    HW132994   4.406   2.171   6.543
 5284SOL    HW232995   4.469   2.207   6.676
 5285SOL     OW32996   3.186   2.605   6.528
 5285SOL    HW132997   3.270   2.649   6.531
 5285SOL    HW232998   3.178   2.571   6.439
 5286SOL     OW32999   4.808   5.320   6.821
 5286SOL    HW133000   4.805   5.328   6.725
 5286SOL    HW233001   4.816   5.226   6.837
 5287SOL     OW33002   5.029   2.978   5.348
 5287SOL    HW133003   4.957   2.931   5.390
 5287SOL    HW233004   5.024   3.066   5.383
 5288SOL     OW33005   4.553   2.326   2.420
 5288SOL    HW133006   4.478   2.379   2.448
 5288SOL    HW233007   4.528   2.291   2.335
 5289SOL     OW33008   0.994   3.935   1.174
 5289SOL    HW133009   0.953   3.849   1.172
 5289SOL    HW233010   1.085   3.919   1.147
 5290SOL     OW33011   3.907   2.008   0.049
 5290SOL    HW133012   3.973   2.076   0.057
 5290SOL    HW233013   3.943   1.948  -0.017
 5291SOL     OW33014   3.256   4.075   1.091
 5291SOL    HW133015   3.337   4.047   1.133
 5291SOL    HW233016   3.284   4.122   1.013
 5292SOL     OW33017   2.385   1.180   7.140
 5292SOL    HW133018   2.335   1.179   7.221
 5292SOL    HW233019   2.470   1.143   7.164
 5293SOL     OW33020   1.739   4.737   5.536
 5293SOL    HW133021   1.744   4.679   5.460
 5293SOL    HW233022   1.711   4.679   5.608
 5294SOL     OW33023   0.090   2.847   1.317
 5294SOL    HW133024   0.158   2.882   1.260
 5294SOL    HW233025   0.009   2.859   1.268
 5295SOL     OW33026   5.841   3.679   0.346
 5295SOL    HW133027   5.921   3.710   0.304
 5295SOL    HW233028   5.863   3.672   0.439
 5296SOL     OW33029   1.213   0.218   0.845
 5296SOL    HW133030   1.126   0.183   0.867
 5296SOL    HW233031   1.267   0.139   0.832
 5297SOL     OW33032   3.379   5.001   6.939
 5297SOL    HW133033   3.285   4.990   6.950
 5297SOL    HW233034   3.394   5.095   6.948
 5298SOL     OW33035   3.672   6.363   1.491
 5298SOL    HW133036   3.584   6.348   1.526
 5298SOL    HW233037   3.681   6.300   1.420
 5299SOL     OW33038   0.164   3.032   7.252
 5299SOL    HW133039   0.140   3.088   7.178
 5299SOL    HW233040   0.168   2.943   7.215
 5300SOL     OW33041   1.737   0.302   5.847
 5300SOL    HW133042   1.705   0.362   5.780
 5300SOL    HW233043   1.734   0.217   5.805
 5301SOL     OW33044   5.075   3.548   1.681
 5301SOL    HW133045   5.170   3.547   1.695
 5301SOL    HW233046   5.041   3.482   1.741
 5302SOL     OW33047   5.571   3.220   7.659
 5302SOL    HW133048   5.625   3.277   7.715
 5302SOL    HW233049   5.532   3.278   7.594
 5303SOL     OW33050   1.644   5.481   1.106
 5303SOL    HW133051   1.665   5.571   1.127
 5303SOL    HW233052   1.553   5.484   1.075
 5304SOL     OW33053   2.565   6.151   1.208
 5304SOL    HW133054   2.537   6.063   1.235
 5304SOL    HW233055   2.496   6.209   1.239
 5305SOL     OW33056   4.120   3.683   6.685
 5305SOL    HW133057   4.079   3.732   6.614
 5305SOL    HW233058   4.211   3.673   6.657
 5306SOL     OW33059   6.127   3.062   5.538
 5306SOL    HW133060   6.042   3.043   5.577
 5306SOL    HW233061   6.148   2.985   5.485
 5307SOL     OW33062   3.954   6.261   0.538
 5307SOL    HW133063   3.960   6.233   0.629
 5307SOL    HW233064   4.038   6.233   0.499
 5308SOL     OW33065   4.645   4.328   0.300
 5308SOL    HW133066   4.559   4.357   0.268
 5308SOL    HW233067   4.708   4.374   0.245
 5309SOL     OW33068   1.386   6.384   0.564
 5309SOL    HW133069   1.327   6.368   0.638
 5309SOL    HW233070   1.448   6.449   0.597
 5310SOL     OW33071   1.796   0.281   7.686
 5310SOL    HW133072   1.863   0.216   7.664
 5310SOL    HW233073   1.846   0.357   7.716
 5311SOL     OW33074   0.533   4.964   1.796
 5311SOL    HW133075   0.577   4.998   1.719
 5311SOL    HW233076   0.600   4.912   1.841
 5312SOL     OW33077   0.408   6.366   0.562
 5312SOL    HW133078   0.414   6.366   0.657
 5312SOL    HW233079   0.335   6.424   0.542
 5313SOL     OW33080   4.526   4.864   7.595
 5313SOL    HW133081   4.486   4.812   7.525
 5313SOL    HW233082   4.561   4.941   7.550
 5314SOL     OW33083   5.663   3.573   1.322
 5314SOL    HW133084   5.597   3.565   1.391
 5314SOL    HW233085   5.740   3.608   1.367
 5315SOL     OW33086   1.436   4.982   1.231
 5315SOL    HW133087   1.415   5.037   1.307
 5315SOL    HW233088   1.498   5.034   1.181
 5316SOL     OW33089   5.049   1.988   2.471
 5316SOL    HW133090   5.119   1.996   2.536
 5316SOL    HW233091   5.094   1.960   2.391
 5317SOL     OW33092   5.012   2.143   7.583
 5317SOL    HW133093   4.980   2.163   7.495
 5317SOL    HW233094   5.074   2.213   7.603
 5318SOL     OW33095   1.448   2.729   0.479
 5318SOL    HW133096   1.476   2.702   0.565
 5318SOL    HW233097   1.410   2.816   0.492
 5319SOL     OW33098   3.598   4.551   1.233
 5319SOL    HW133099   3.546   4.603   1.172
 5319SOL    HW233100   3.640   4.485   1.177
 5320SOL     OW33101   6.014   0.590   0.588
 5320SOL    HW133102   5.939   0.641   0.619
 5320SOL    HW233103   6.017   0.607   0.495
 5321SOL     OW33104   1.423   5.000   2.271
 5321SOL    HW133105   1.416   4.941   2.347
 5321SOL    HW233106   1.463   4.946   2.203
 5322SOL     OW33107   2.539   1.352   0.098
 5322SOL    HW133108   2.499   1.419   0.043
 5322SOL    HW233109   2.476   1.280   0.098
 5323SOL     OW33110   2.809   1.797   1.613
 5323SOL    HW133111   2.881   1.832   1.560
 5323SOL    HW233112   2.743   1.866   1.613
 5324SOL     OW33113   2.388   5.941   5.875
 5324SOL    HW133114   2.447   5.992   5.931
 5324SOL    HW233115   2.385   5.989   5.792
 5325SOL     OW33116   0.934   4.934   1.534
 5325SOL    HW133117   0.969   4.855   1.574
 5325SOL    HW233118   0.894   4.903   1.453
 5326SOL     OW33119   2.912   4.882   5.691
 5326SOL    HW133120   2.819   4.870   5.709
 5326SOL    HW233121   2.934   4.810   5.631
 5327SOL     OW33122   4.879   5.606   7.061
 5327SOL    HW133123   4.902   5.676   7.122
 5327SOL    HW233124   4.954   5.600   7.001
 5328SOL     OW33125   1.068   0.910   6.325
 5328SOL    HW133126   1.029   0.869   6.402
 5328SOL    HW233127   1.116   0.839   6.281
 5329SOL     OW33128   6.190   6.330   6.595
 5329SOL    HW133129   6.236   6.309   6.513
 5329SOL    HW233130   6.107   6.284   6.588
 5330SOL     OW33131   4.555   5.363   1.223
 5330SOL    HW133132   4.521   5.372   1.313
 5330SOL    HW233133   4.645   5.334   1.235
 5331SOL     OW33134   2.571   3.518   1.229
 5331SOL    HW133135   2.606   3.601   1.196
 5331SOL    HW233136   2.645   3.477   1.274
 5332SOL     OW33137   1.339   0.197   0.273
 5332SOL    HW133138   1.419   0.144   0.284
 5332SOL    HW233139   1.356   0.276   0.323
 5333SOL     OW33140   3.714   3.456   6.167
 5333SOL    HW133141   3.720   3.548   6.192
 5333SOL    HW233142   3.713   3.409   6.250
 5334SOL     OW33143   5.127   1.982   2.206
 5334SOL    HW133144   5.035   1.963   2.223
 5334SOL    HW233145   5.127   2.072   2.173
 5335SOL     OW33146   4.391   5.390   7.205
 5335SOL    HW133147   4.379   5.353   7.292
 5335SOL    HW233148   4.435   5.473   7.221
 5336SOL     OW33149   2.523   4.698   7.481
 5336SOL    HW133150   2.615   4.711   7.456
 5336SOL    HW233151   2.475   4.704   7.399
 5337SOL     OW33152   2.727   6.248   7.792
 5337SOL    HW133153   2.821   6.240   7.777
 5337SOL    HW233154   2.715   6.223   7.883
 5338SOL     OW33155   2.170   1.298   7.645
 5338SOL    HW133156   2.182   1.370   7.583
 5338SOL    HW233157   2.108   1.331   7.712
 5339SOL     OW33158   3.082   3.201   0.024
 5339SOL    HW133159   3.137   3.194  -0.054
 5339SOL    HW233160   3.134   3.159   0.093
 5340SOL     OW33161   2.318   3.136   5.979
 5340SOL    HW133162   2.300   3.207   6.040
 5340SOL    HW233163   2.246   3.074   5.993
 5341SOL     OW33164   5.534   6.022   0.720
 5341SOL    HW133165   5.525   5.934   0.756
 5341SOL    HW233166   5.629   6.036   0.714
 5342SOL     OW33167   5.606   4.851   1.838
 5342SOL    HW133168   5.617   4.945   1.852
 5342SOL    HW233169   5.514   4.835   1.859
 5343SOL     OW33170   4.797   1.449   6.817
 5343SOL    HW133171   4.737   1.506   6.865
 5343SOL    HW233172   4.824   1.502   6.742
 5344SOL     OW33173   3.497   3.261   7.609
 5344SOL    HW133174   3.452   3.267   7.525
 5344SOL    HW233175   3.587   3.286   7.590
 5345SOL     OW33176   5.441   0.749   2.436
 5345SOL    HW133177   5.457   0.695   2.358
 5345SOL    HW233178   5.440   0.686   2.509
 5346SOL     OW33179   3.191   0.071   0.646
 5346SOL    HW133180   3.144   0.013   0.587
 5346SOL    HW233181   3.265   0.019   0.677
 5347SOL     OW33182   0.724   1.030   1.678
 5347SOL    HW133183   0.780   1.071   1.744
 5347SOL    HW233184   0.750   0.938   1.678
 5348SOL     OW33185   4.278   4.357   0.563
 5348SOL    HW133186   4.207   4.312   0.517
 5348SOL    HW233187   4.337   4.386   0.494
 5349SOL     OW33188   5.723   3.945   6.818
 5349SOL    HW133189   5.781   4.002   6.768
 5349SOL    HW233190   5.747   3.961   6.909
 5350SOL     OW33191   3.932   3.720   7.203
 5350SOL    HW133192   3.955   3.692   7.115
 5350SOL    HW233193   3.959   3.812   7.207
 5351SOL     OW33194   3.732   2.834   6.502
 5351SOL    HW133195   3.783   2.885   6.438
 5351SOL    HW233196   3.646   2.875   6.501
 5352SOL     OW33197   6.399   6.184   0.318
 5352SOL    HW133198   6.465   6.228   0.264
 5352SOL    HW233199   6.447   6.114   0.362
 5353SOL     OW33200   5.677   5.069   0.237
 5353SOL    HW133201   5.688   5.029   0.151
 5353SOL    HW233202   5.754   5.125   0.248
 5354SOL     OW33203   4.201   2.577   6.211
 5354SOL    HW133204   4.125   2.633   6.196
 5354SOL    HW233205   4.180   2.530   6.292
 5355SOL     OW33206   6.375   1.829   0.229
 5355SOL    HW133207   6.295   1.876   0.252
 5355SOL    HW233208   6.443   1.872   0.280
 5356SOL     OW33209   4.650   0.472   1.900
 5356SOL    HW133210   4.619   0.562   1.900
 5356SOL    HW233211   4.713   0.468   1.973
 5357SOL     OW33212   0.613   4.817   7.322
 5357SOL    HW133213   0.657   4.732   7.316
 5357SOL    HW233214   0.563   4.824   7.241
 5358SOL     OW33215   6.275   5.718   0.572
 5358SOL    HW133216   6.197   5.674   0.540
 5358SOL    HW233217   6.334   5.719   0.497
 5359SOL     OW33218   5.739   1.424   0.514
 5359SOL    HW133219   5.666   1.486   0.523
 5359SOL    HW233220   5.774   1.440   0.428
 5360SOL     OW33221   0.841   6.360   1.427
 5360SOL    HW133222   0.746   6.374   1.424
 5360SOL    HW233223   0.860   6.341   1.519
 5361SOL     OW33224   0.108   6.318   0.132
 5361SOL    HW133225   0.162   6.385   0.091
 5361SOL    HW233226   0.129   6.238   0.085
 5362SOL     OW33227   2.444   4.432   0.667
 5362SOL    HW133228   2.480   4.406   0.582
 5362SOL    HW233229   2.380   4.364   0.687
 5363SOL     OW33230   5.784   2.536   7.774
 5363SOL    HW133231   5.822   2.459   7.817
 5363SOL    HW233232   5.758   2.504   7.688
 5364SOL     OW33233   3.517   5.558   7.344
 5364SOL    HW133234   3.557   5.474   7.365
 5364SOL    HW233235   3.436   5.536   7.300
 5365SOL     OW33236   4.322   2.534   1.416
 5365SOL    HW133237   4.341   2.494   1.500
 5365SOL    HW233238   4.305   2.460   1.357
 5366SOL     OW33239   6.310   3.415   7.578
 5366SOL    HW133240   6.364   3.364   7.638
 5366SOL    HW233241   6.280   3.490   7.629
 5367SOL     OW33242   0.294   4.944   0.761
 5367SOL    HW133243   0.267   5.026   0.719
 5367SOL    HW233244   0.383   4.961   0.791
 5368SOL     OW33245   6.034   2.731   6.952
 5368SOL    HW133246   5.977   2.704   7.025
 5368SOL    HW233247   6.021   2.826   6.946
 5369SOL     OW33248   3.409   4.700   6.624
 5369SOL    HW133249   3.374   4.745   6.548
 5369SOL    HW233250   3.332   4.684   6.680
 5370SOL     OW33251   1.643   0.983   7.161
 5370SOL    HW133252   1.718   0.926   7.181
 5370SOL    HW233253   1.600   0.942   7.086
 5371SOL     OW33254   3.349   5.159   0.916
 5371SOL    HW133255   3.346   5.254   0.905
 5371SOL    HW233256   3.288   5.140   0.987
 5372SOL     OW33257   1.854   2.698   0.323
 5372SOL    HW133258   1.845   2.671   0.231
 5372SOL    HW233259   1.807   2.630   0.372
 5373SOL     OW33260   4.299   4.132   5.842
 5373SOL    HW133261   4.374   4.166   5.891
 5373SOL    HW233262   4.338   4.076   5.774
 5374SOL     OW33263   2.159   1.458   7.410
 5374SOL    HW133264   2.191   1.530   7.356
 5374SOL    HW233265   2.151   1.384   7.349
 5375SOL     OW33266   1.177   5.619   0.484
 5375SOL    HW133267   1.219   5.537   0.458
 5375SOL    HW233268   1.213   5.684   0.423
 5376SOL     OW33269   1.644   6.183   7.125
 5376SOL    HW133270   1.688   6.190   7.210
 5376SOL    HW233271   1.675   6.100   7.088
 5377SOL     OW33272   4.103   3.362   6.867
 5377SOL    HW133273   4.179   3.418   6.884
 5377SOL    HW233274   4.136   3.273   6.884
 5378SOL     OW33275   5.454   2.923   5.978
 5378SOL    HW133276   5.523   2.989   5.983
 5378SOL    HW233277   5.375   2.971   5.953
 5379SOL     OW33278   1.937   2.048   0.532
 5379SOL    HW133279   1.848   2.058   0.565
 5379SOL    HW233280   1.991   2.040   0.611
 5380SOL     OW33281   0.225   4.009   7.792
 5380SOL    HW133282   0.284   4.022   7.718
 5380SOL    HW233283   0.138   4.010   7.753
 5381SOL     OW33284   4.552   1.644   6.064
 5381SOL    HW133285   4.612   1.569   6.057
 5381SOL    HW233286   4.573   1.699   5.988
 5382SOL     OW33287   6.304   5.642   6.691
 5382SOL    HW133288   6.217   5.605   6.709
 5382SOL    HW233289   6.289   5.736   6.684
 5383SOL     OW33290   2.895   6.167   7.455
 5383SOL    HW133291   2.934   6.208   7.533
 5383SOL    HW233292   2.951   6.195   7.383
 5384SOL     OW33293   2.329   5.641   7.126
 5384SOL    HW133294   2.346   5.580   7.197
 5384SOL    HW233295   2.398   5.624   7.062
 5385SOL     OW33296   2.011   4.881   2.175
 5385SOL    HW133297   1.944   4.890   2.107
 5385SOL    HW233298   2.034   4.788   2.174
 5386SOL     OW33299   3.084   1.047   0.349
 5386SOL    HW133300   3.075   0.966   0.298
 5386SOL    HW233301   3.096   1.018   0.439
 5387SOL     OW33302   4.170   6.346   1.949
 5387SOL    HW133303   4.232   6.396   1.896
 5387SOL    HW233304   4.085   6.385   1.928
 5388SOL     OW33305   0.111   6.067   6.308
 5388SOL    HW133306   0.173   6.027   6.247
 5388SOL    HW233307   0.030   6.074   6.257
 5389SOL     OW33308   3.842   2.121   1.331
 5389SOL    HW133309   3.890   2.040   1.316
 5389SOL    HW233310   3.750   2.097   1.315
 5390SOL     OW33311   3.197   0.607   5.887
 5390SOL    HW133312   3.154   0.657   5.818
 5390SOL    HW233313   3.290   0.628   5.876
 5391SOL     OW33314   2.869   5.661   7.658
 5391SOL    HW133315   2.851   5.747   7.621
 5391SOL    HW233316   2.788   5.636   7.704
 5392SOL     OW33317   0.991   4.779   1.910
 5392SOL    HW133318   1.043   4.859   1.916
 5392SOL    HW233319   1.050   4.710   1.938
 5393SOL     OW33320   5.272   2.798   2.289
 5393SOL    HW133321   5.281   2.787   2.384
 5393SOL    HW233322   5.351   2.845   2.263
 5394SOL     OW33323   1.788   5.020   7.306
 5394SOL    HW133324   1.762   5.106   7.341
 5394SOL    HW233325   1.790   4.963   7.383
 5395SOL     OW33326  -0.002   5.133   0.294
 5395SOL    HW133327   0.050   5.176   0.362
 5395SOL    HW233328   0.050   5.056   0.269
 5396SOL     OW33329   1.575   3.166   1.139
 5396SOL    HW133330   1.650   3.219   1.112
 5396SOL    HW233331   1.613   3.085   1.172
 5397SOL     OW33332   1.141   5.199   7.154
 5397SOL    HW133333   1.082   5.134   7.193
 5397SOL    HW233334   1.176   5.247   7.229
 5398SOL     OW33335   5.983   2.952   0.457
 5398SOL    HW133336   5.929   2.880   0.427
 5398SOL    HW233337   6.065   2.943   0.408
 5399SOL     OW33338   3.987   2.829   7.507
 5399SOL    HW133339   3.975   2.756   7.568
 5399SOL    HW233340   4.068   2.808   7.461
 5400SOL     OW33341   2.927   5.167   1.216
 5400SOL    HW133342   2.881   5.084   1.227
 5400SOL    HW233343   2.968   5.183   1.300
 5401SOL     OW33344   3.860   4.055   1.764
 5401SOL    HW133345   3.832   4.134   1.719
 5401SOL    HW233346   3.786   3.995   1.755
 5402SOL     OW33347   3.800   3.102   6.757
 5402SOL    HW133348   3.718   3.075   6.715
 5402SOL    HW233349   3.855   3.133   6.685
 5403SOL     OW33350   2.054   3.613   6.244
 5403SOL    HW133351   2.094   3.557   6.311
 5403SOL    HW233352   2.074   3.702   6.271
 5404SOL     OW33353   0.325   3.625   1.713
 5404SOL    HW133354   0.338   3.625   1.808
 5404SOL    HW233355   0.234   3.600   1.701
 5405SOL     OW33356   1.113   2.967   0.665
 5405SOL    HW133357   1.170   2.904   0.709
 5405SOL    HW233358   1.164   3.048   0.664
 5406SOL     OW33359   3.519   4.201   0.304
 5406SOL    HW133360   3.479   4.148   0.373
 5406SOL    HW233361   3.524   4.289   0.342
 5407SOL     OW33362   4.476   5.027   6.438
 5407SOL    HW133363   4.527   5.079   6.376
 5407SOL    HW233364   4.530   4.950   6.455
 5408SOL     OW33365   4.792   2.781   5.912
 5408SOL    HW133366   4.714   2.791   5.965
 5408SOL    HW233367   4.762   2.739   5.831
 5409SOL     OW33368   4.715   4.432   7.215
 5409SOL    HW133369   4.781   4.371   7.182
 5409SOL    HW233370   4.763   4.490   7.274
 5410SOL     OW33371   4.366   4.065   2.092
 5410SOL    HW133372   4.358   4.160   2.093
 5410SOL    HW233373   4.279   4.034   2.065
 5411SOL     OW33374   5.477   6.001   2.002
 5411SOL    HW133375   5.502   5.971   2.089
 5411SOL    HW233376   5.406   6.063   2.017
 5412SOL     OW33377   4.064   5.756   6.446
 5412SOL    HW133378   4.096   5.844   6.465
 5412SOL    HW233379   4.036   5.723   6.531
 5413SOL     OW33380   4.524   4.963   1.679
 5413SOL    HW133381   4.445   4.910   1.693
 5413SOL    HW233382   4.574   4.955   1.760
 5414SOL     OW33383   5.987   4.540   2.082
 5414SOL    HW133384   5.919   4.604   2.059
 5414SOL    HW233385   6.044   4.588   2.142
 5415SOL     OW33386   2.496   0.069   1.398
 5415SOL    HW133387   2.474   0.149   1.445
 5415SOL    HW233388   2.535   0.012   1.464
 5416SOL     OW33389   4.924   2.341   0.518
 5416SOL    HW133390   4.932   2.389   0.437
 5416SOL    HW233391   4.886   2.404   0.579
 5417SOL     OW33392   1.797   1.234   5.385
 5417SOL    HW133393   1.719   1.288   5.375
 5417SOL    HW233394   1.840   1.237   5.300
 5418SOL     OW33395   5.186   4.844   6.520
 5418SOL    HW133396   5.159   4.931   6.549
 5418SOL    HW233397   5.104   4.798   6.502
 5419SOL     OW33398   6.420   1.599   1.856
 5419SOL    HW133399   6.486   1.532   1.873
 5419SOL    HW233400   6.388   1.580   1.768
 5420SOL     OW33401   4.588   4.014   6.668
 5420SOL    HW133402   4.624   4.016   6.579
 5420SOL    HW233403   4.494   4.000   6.656
 5421SOL     OW33404   4.797   2.425   7.092
 5421SOL    HW133405   4.758   2.459   7.011
 5421SOL    HW233406   4.875   2.378   7.062
 5422SOL     OW33407   5.270   2.622   5.476
 5422SOL    HW133408   5.184   2.602   5.513
 5422SOL    HW233409   5.250   2.663   5.392
 5423SOL     OW33410   0.970   5.697   6.400
 5423SOL    HW133411   1.033   5.757   6.440
 5423SOL    HW233412   1.018   5.655   6.329
 5424SOL     OW33413   3.154   4.854   1.788
 5424SOL    HW133414   3.114   4.869   1.702
 5424SOL    HW233415   3.107   4.777   1.822
 5425SOL     OW33416   6.059   5.876   0.258
 5425SOL    HW133417   6.060   5.781   0.254
 5425SOL    HW233418   6.097   5.904   0.175
 5426SOL     OW33419   5.489   5.198   6.050
 5426SOL    HW133420   5.542   5.134   6.097
 5426SOL    HW233421   5.483   5.164   5.961
 5427SOL     OW33422   0.846   6.064   0.049
 5427SOL    HW133423   0.924   6.053   0.103
 5427SOL    HW233424   0.773   6.063   0.111
 5428SOL     OW33425   3.493   5.516   1.503
 5428SOL    HW133426   3.488   5.601   1.546
 5428SOL    HW233427   3.557   5.466   1.554
 5429SOL     OW33428   2.596   2.143   0.900
 5429SOL    HW133429   2.626   2.171   0.987
 5429SOL    HW233430   2.638   2.204   0.839
 5430SOL     OW33431   6.326   4.409   6.525
 5430SOL    HW133432   6.387   4.360   6.470
 5430SOL    HW233433   6.362   4.498   6.528
 5431SOL     OW33434   5.254   3.133   7.481
 5431SOL    HW133435   5.201   3.212   7.485
 5431SOL    HW233436   5.243   3.102   7.390
 5432SOL     OW33437   6.412   4.245   6.300
 5432SOL    HW133438   6.464   4.227   6.222
 5432SOL    HW233439   6.358   4.167   6.312
 5433SOL     OW33440   0.677   6.410   6.436
 5433SOL    HW133441   0.635   6.333   6.472
 5433SOL    HW233442   0.652   6.482   6.495
 5434SOL     OW33443   2.880   1.208   1.709
 5434SOL    HW133444   2.939   1.255   1.769
 5434SOL    HW233445   2.929   1.129   1.687
 5435SOL     OW33446   1.436   3.740   0.777
 5435SOL    HW133447   1.461   3.809   0.839
 5435SOL    HW233448   1.363   3.776   0.728
 5436SOL     OW33449   1.539   0.847   5.800
 5436SOL    HW133450   1.480   0.840   5.725
 5436SOL    HW233451   1.577   0.759   5.809
 5437SOL     OW33452   0.088   3.355   6.646
 5437SOL    HW133453   0.034   3.418   6.694
 5437SOL    HW233454   0.091   3.388   6.556
 5438SOL     OW33455   4.284   1.363   0.520
 5438SOL    HW133456   4.254   1.325   0.439
 5438SOL    HW233457   4.326   1.445   0.496
 5439SOL     OW33458   0.293   2.266   0.014
 5439SOL    HW133459   0.352   2.203   0.055
 5439SOL    HW233460   0.279   2.232  -0.074
 5440SOL     OW33461   1.489   4.885   0.668
 5440SOL    HW133462   1.516   4.844   0.750
 5440SOL    HW233463   1.561   4.943   0.644
 5441SOL     OW33464   4.647   4.490   0.969
 5441SOL    HW133465   4.648   4.399   0.939
 5441SOL    HW233466   4.650   4.483   1.065
 5442SOL     OW33467   6.205   1.809   0.756
 5442SOL    HW133468   6.143   1.836   0.824
 5442SOL    HW233469   6.181   1.720   0.735
 5443SOL     OW33470   0.273   4.241   0.605
 5443SOL    HW133471   0.344   4.294   0.641
 5443SOL    HW233472   0.253   4.178   0.674
 5444SOL     OW33473   1.724   0.810   6.537
 5444SOL    HW133474   1.678   0.822   6.453
 5444SOL    HW233475   1.764   0.723   6.531
 5445SOL     OW33476   3.439   5.746   1.630
 5445SOL    HW133477   3.396   5.789   1.557
 5445SOL    HW233478   3.421   5.802   1.706
 5446SOL     OW33479   1.831   3.835   7.638
 5446SOL    HW133480   1.886   3.767   7.600
 5446SOL    HW233481   1.893   3.894   7.682
 5447SOL     OW33482   5.767   6.088   1.604
 5447SOL    HW133483   5.768   6.179   1.576
 5447SOL    HW233484   5.792   6.090   1.696
 5448SOL     OW33485   4.131   2.248   0.769
 5448SOL    HW133486   4.079   2.243   0.688
 5448SOL    HW233487   4.103   2.328   0.811
 5449SOL     OW33488   3.666   2.531   0.104
 5449SOL    HW133489   3.700   2.585   0.034
 5449SOL    HW233490   3.722   2.453   0.104
 5450SOL     OW33491   5.753   4.312   0.845
 5450SOL    HW133492   5.666   4.346   0.827
 5450SOL    HW233493   5.744   4.263   0.927
 5451SOL     OW33494   4.123   5.490   6.877
 5451SOL    HW133495   4.117   5.544   6.798
 5451SOL    HW233496   4.202   5.522   6.921
 5452SOL     OW33497   2.696   6.387   0.902
 5452SOL    HW133498   2.623   6.438   0.935
 5452SOL    HW233499   2.667   6.296   0.905
 5453SOL     OW33500   0.117   5.929   7.406
 5453SOL    HW133501   0.111   5.836   7.426
 5453SOL    HW233502   0.107   5.973   7.490
 5454SOL     OW33503   2.163   5.686   7.771
 5454SOL    HW133504   2.072   5.702   7.746
 5454SOL    HW233505   2.192   5.768   7.809
 5455SOL     OW33506   0.876   6.093   2.012
 5455SOL    HW133507   0.829   6.089   2.096
 5455SOL    HW233508   0.825   6.155   1.960
 5456SOL     OW33509   4.969   5.356   5.918
 5456SOL    HW133510   5.047   5.325   5.872
 5456SOL    HW233511   4.896   5.313   5.872
 5457SOL     OW33512   6.264   3.283   6.537
 5457SOL    HW133513   6.341   3.229   6.557
 5457SOL    HW233514   6.228   3.306   6.622
 5458SOL     OW33515   5.188   0.017   5.748
 5458SOL    HW133516   5.113   0.077   5.755
 5458SOL    HW233517   5.255   0.056   5.804
 5459SOL     OW33518   4.652   4.028   5.544
 5459SOL    HW133519   4.616   3.979   5.617
 5459SOL    HW233520   4.576   4.053   5.491
 5460SOL     OW33521   1.474   0.761   0.321
 5460SOL    HW133522   1.480   0.674   0.283
 5460SOL    HW233523   1.402   0.756   0.383
 5461SOL     OW33524   2.436   2.999   6.208
 5461SOL    HW133525   2.393   3.070   6.161
 5461SOL    HW233526   2.375   2.925   6.201
 5462SOL     OW33527   5.536   4.679   1.063
 5462SOL    HW133528   5.517   4.585   1.069
 5462SOL    HW233529   5.627   4.683   1.035
 5463SOL     OW33530   2.963   4.647   1.174
 5463SOL    HW133531   3.028   4.598   1.225
 5463SOL    HW233532   2.881   4.634   1.222
 5464SOL     OW33533   3.974   0.842   6.029
 5464SOL    HW133534   4.006   0.924   5.992
 5464SOL    HW233535   4.047   0.780   6.013
 5465SOL     OW33536   2.470   2.335   6.551
 5465SOL    HW133537   2.424   2.290   6.623
 5465SOL    HW233538   2.496   2.419   6.588
 5466SOL     OW33539   2.540   0.463   6.398
 5466SOL    HW133540   2.575   0.516   6.470
 5466SOL    HW233541   2.470   0.516   6.361
 5467SOL     OW33542   2.363   2.447   1.429
 5467SOL    HW133543   2.273   2.459   1.399
 5467SOL    HW233544   2.355   2.395   1.509
 5468SOL     OW33545   3.494   6.397   1.785
 5468SOL    HW133546   3.437   6.356   1.850
 5468SOL    HW233547   3.575   6.415   1.833
 5469SOL     OW33548   6.095   1.911   1.433
 5469SOL    HW133549   6.106   2.004   1.456
 5469SOL    HW233550   6.182   1.883   1.406
 5470SOL     OW33551   1.438   2.748   0.196
 5470SOL    HW133552   1.357   2.769   0.242
 5470SOL    HW233553   1.476   2.676   0.245
 5471SOL     OW33554   2.613   5.862   5.603
 5471SOL    HW133555   2.669   5.792   5.638
 5471SOL    HW233556   2.674   5.928   5.572
 5472SOL     OW33557   2.279   0.970   0.608
 5472SOL    HW133558   2.352   1.013   0.562
 5472SOL    HW233559   2.201   1.014   0.574
 5473SOL     OW33560   5.251   1.732   2.142
 5473SOL    HW133561   5.333   1.751   2.096
 5473SOL    HW233562   5.216   1.818   2.164
 5474SOL     OW33563   0.977   4.684   0.510
 5474SOL    HW133564   1.025   4.754   0.555
 5474SOL    HW233565   0.977   4.610   0.570
 5475SOL     OW33566   3.699   0.487   1.494
 5475SOL    HW133567   3.707   0.391   1.494
 5475SOL    HW233568   3.691   0.510   1.586
 5476SOL     OW33569   0.049   0.703   6.577
 5476SOL    HW133570  -0.039   0.732   6.552
 5476SOL    HW233571   0.107   0.739   6.509
 5477SOL     OW33572   5.059   5.100   0.933
 5477SOL    HW133573   5.019   5.187   0.934
 5477SOL    HW233574   5.020   5.055   1.008
 5478SOL     OW33575   5.456   4.059   5.405
 5478SOL    HW133576   5.401   4.094   5.475
 5478SOL    HW233577   5.414   4.089   5.324
 5479SOL     OW33578   6.450   5.656   0.761
 5479SOL    HW133579   6.399   5.596   0.817
 5479SOL    HW233580   6.390   5.678   0.690
 5480SOL     OW33581   5.794   0.543   0.848
 5480SOL    HW133582   5.875   0.552   0.898
 5480SOL    HW233583   5.803   0.461   0.801
 5481SOL     OW33584   6.348   1.882   0.546
 5481SOL    HW133585   6.298   1.855   0.623
 5481SOL    HW233586   6.424   1.928   0.581
 5482SOL     OW33587   1.050   2.108   6.832
 5482SOL    HW133588   1.025   2.033   6.886
 5482SOL    HW233589   1.031   2.080   6.742
 5483SOL     OW33590   4.030   2.936   1.768
 5483SOL    HW133591   3.954   2.985   1.802
 5483SOL    HW233592   4.064   2.992   1.699
 5484SOL     OW33593   5.726   0.730   7.143
 5484SOL    HW133594   5.777   0.649   7.151
 5484SOL    HW233595   5.702   0.752   7.233
 5485SOL     OW33596   3.518   5.409   0.043
 5485SOL    HW133597   3.611   5.419   0.019
 5485SOL    HW233598   3.476   5.379  -0.037
 5486SOL     OW33599   5.092   4.114   1.035
 5486SOL    HW133600   5.129   4.114   1.123
 5486SOL    HW233601   5.075   4.206   1.016
 5487SOL     OW33602   3.400   0.839   6.035
 5487SOL    HW133603   3.430   0.774   5.972
 5487SOL    HW233604   3.348   0.901   5.984
 5488SOL     OW33605   6.210   5.867   6.317
 5488SOL    HW133606   6.216   5.869   6.222
 5488SOL    HW233607   6.295   5.833   6.346
 5489SOL     OW33608   4.959   3.801   1.771
 5489SOL    HW133609   4.987   3.712   1.751
 5489SOL    HW233610   4.916   3.795   1.856
 5490SOL     OW33611   2.272   1.083   0.252
 5490SOL    HW133612   2.279   1.128   0.167
 5490SOL    HW233613   2.235   0.998   0.230
 5491SOL     OW33614   3.307   1.103   7.105
 5491SOL    HW133615   3.353   1.143   7.179
 5491SOL    HW233616   3.355   1.134   7.028
 5492SOL     OW33617   3.921   4.795   0.420
 5492SOL    HW133618   3.994   4.817   0.363
 5492SOL    HW233619   3.946   4.712   0.461
 5493SOL     OW33620   1.976   6.277   6.894
 5493SOL    HW133621   1.966   6.367   6.865
 5493SOL    HW233622   1.917   6.227   6.837
 5494SOL     OW33623   5.885   0.275   6.564
 5494SOL    HW133624   5.804   0.225   6.571
 5494SOL    HW233625   5.932   0.256   6.646
 5495SOL     OW33626   6.187   0.712   6.578
 5495SOL    HW133627   6.198   0.709   6.673
 5495SOL    HW233628   6.142   0.631   6.556
 5496SOL     OW33629   5.581   4.156   6.022
 5496SOL    HW133630   5.516   4.128   5.958
 5496SOL    HW233631   5.655   4.187   5.970
 5497SOL     OW33632   0.059   2.173   5.964
 5497SOL    HW133633   0.034   2.243   5.903
 5497SOL    HW233634  -0.025   2.136   5.993
 5498SOL     OW33635   3.157   1.635   0.858
 5498SOL    HW133636   3.224   1.621   0.925
 5498SOL    HW233637   3.074   1.634   0.905
 5499SOL     OW33638   1.310   0.167   0.002
 5499SOL    HW133639   1.368   0.240  -0.020
 5499SOL    HW233640   1.305   0.168   0.098
 5500SOL     OW33641   0.199   4.254   7.366
 5500SOL    HW133642   0.184   4.213   7.452
 5500SOL    HW233643   0.131   4.217   7.310
 5501SOL     OW33644   4.915   2.754   6.857
 5501SOL    HW133645   4.970   2.763   6.780
 5501SOL    HW233646   4.888   2.843   6.878
 5502SOL     OW33647   5.345   4.886   6.848
 5502SOL    HW133648   5.428   4.921   6.816
 5502SOL    HW233649   5.337   4.800   6.807
 5503SOL     OW33650   0.844   6.108   1.663
 5503SOL    HW133651   0.750   6.128   1.667
 5503SOL    HW233652   0.887   6.191   1.686
 5504SOL     OW33653   0.243   0.210   6.895
 5504SOL    HW133654   0.303   0.135   6.904
 5504SOL    HW233655   0.290   0.283   6.933
 5505SOL     OW33656   3.448   5.526   6.215
 5505SOL    HW133657   3.395   5.458   6.173
 5505SOL    HW233658   3.500   5.479   6.280
 5506SOL     OW33659   6.310   0.629   0.952
 5506SOL    HW133660   6.267   0.553   0.991
 5506SOL    HW233661   6.402   0.619   0.975
 5507SOL     OW33662   3.879   1.582   1.015
 5507SOL    HW133663   3.901   1.493   0.990
 5507SOL    HW233664   3.785   1.580   1.032
 5508SOL     OW33665   1.760   6.148   6.777
 5508SOL    HW133666   1.736   6.071   6.829
 5508SOL    HW233667   1.695   6.214   6.799
 5509SOL     OW33668   0.398   4.635   0.892
 5509SOL    HW133669   0.356   4.634   0.978
 5509SOL    HW233670   0.419   4.727   0.876
 5510SOL     OW33671   3.816   4.331   7.431
 5510SOL    HW133672   3.885   4.371   7.379
 5510SOL    HW233673   3.847   4.242   7.449
 5511SOL     OW33674   0.649   4.106   0.162
 5511SOL    HW133675   0.554   4.118   0.161
 5511SOL    HW233676   0.678   4.144   0.079
 5512SOL     OW33677   2.166   4.404   0.189
 5512SOL    HW133678   2.074   4.381   0.175
 5512SOL    HW233679   2.215   4.329   0.156
 5513SOL     OW33680   5.241   4.692   2.153
 5513SOL    HW133681   5.253   4.597   2.153
 5513SOL    HW233682   5.146   4.704   2.151
 5514SOL     OW33683   6.282   2.497   2.023
 5514SOL    HW133684   6.247   2.478   2.110
 5514SOL    HW233685   6.376   2.508   2.037
 5515SOL     OW33686   0.369   3.636   0.046
 5515SOL    HW133687   0.441   3.598  -0.004
 5515SOL    HW233688   0.309   3.671  -0.019
 5516SOL     OW33689   3.455   5.071   2.474
 5516SOL    HW133690   3.499   5.141   2.425
 5516SOL    HW233691   3.520   5.042   2.537
 5517SOL     OW33692   2.180   2.630   0.319
 5517SOL    HW133693   2.113   2.638   0.387
 5517SOL    HW233694   2.132   2.595   0.243
 5518SOL     OW33695   5.287   3.406   5.395
 5518SOL    HW133696   5.366   3.374   5.440
 5518SOL    HW233697   5.257   3.331   5.344
 5519SOL     OW33698   6.058   2.675   2.489
 5519SOL    HW133699   6.106   2.740   2.438
 5519SOL    HW233700   6.123   2.641   2.551
 5520SOL     OW33701   2.832   1.593   5.573
 5520SOL    HW133702   2.820   1.664   5.509
 5520SOL    HW233703   2.913   1.616   5.619
 5521SOL     OW33704   3.107   6.298   5.326
 5521SOL    HW133705   3.135   6.276   5.414
 5521SOL    HW233706   3.131   6.390   5.315
 5522SOL     OW33707   3.336   4.972   5.959
 5522SOL    HW133708   3.243   4.948   5.962
 5522SOL    HW233709   3.352   5.016   6.042
 5523SOL     OW33710   3.149   2.338   7.542
 5523SOL    HW133711   3.240   2.309   7.551
 5523SOL    HW233712   3.097   2.263   7.571
 5524SOL     OW33713   2.369   5.683   5.921
 5524SOL    HW133714   2.356   5.647   5.833
 5524SOL    HW233715   2.369   5.777   5.908
 5525SOL     OW33716   4.687   2.507   6.877
 5525SOL    HW133717   4.762   2.509   6.817
 5525SOL    HW233718   4.637   2.586   6.854
 5526SOL     OW33719   3.957   5.204   6.604
 5526SOL    HW133720   4.024   5.139   6.628
 5526SOL    HW233721   4.006   5.285   6.592
 5527SOL     OW33722   0.263   2.113   7.584
 5527SOL    HW133723   0.332   2.087   7.523
 5527SOL    HW233724   0.264   2.045   7.651
 5528SOL     OW33725   3.347   2.208   0.719
 5528SOL    HW133726   3.382   2.241   0.637
 5528SOL    HW233727   3.393   2.258   0.787
 5529SOL     OW33728   3.697   0.565   1.764
 5529SOL    HW133729   3.714   0.636   1.825
 5529SOL    HW233730   3.696   0.486   1.818
 5530SOL     OW33731   2.764   6.154   6.771
 5530SOL    HW133732   2.754   6.094   6.845
 5530SOL    HW233733   2.677   6.193   6.760
 5531SOL     OW33734   1.209   0.301   6.501
 5531SOL    HW133735   1.161   0.290   6.582
 5531SOL    HW233736   1.227   0.213   6.471
 5532SOL     OW33737   0.715   6.287   1.894
 5532SOL    HW133738   0.683   6.374   1.920
 5532SOL    HW233739   0.772   6.304   1.819
 5533SOL     OW33740   3.904   3.908   6.774
 5533SOL    HW133741   3.826   3.896   6.828
 5533SOL    HW233742   3.952   3.979   6.817
 5534SOL     OW33743   4.866   0.692   7.092
 5534SOL    HW133744   4.902   0.781   7.086
 5534SOL    HW233745   4.849   0.667   7.001
 5535SOL     OW33746   0.003   3.488   0.190
 5535SOL    HW133747   0.098   3.481   0.197
 5535SOL    HW233748  -0.026   3.516   0.277
 5536SOL     OW33749   2.127   2.861   7.154
 5536SOL    HW133750   2.035   2.884   7.166
 5536SOL    HW233751   2.139   2.783   7.209
 5537SOL     OW33752   3.637   0.549   7.664
 5537SOL    HW133753   3.574   0.540   7.737
 5537SOL    HW233754   3.694   0.472   7.671
 5538SOL     OW33755   3.550   1.230   0.516
 5538SOL    HW133756   3.546   1.138   0.543
 5538SOL    HW233757   3.615   1.269   0.574
 5539SOL     OW33758   0.026   5.962   5.868
 5539SOL    HW133759  -0.011   5.943   5.782
 5539SOL    HW233760   0.037   6.057   5.869
 5540SOL     OW33761   3.278   1.873   1.740
 5540SOL    HW133762   3.345   1.905   1.800
 5540SOL    HW233763   3.289   1.928   1.662
 5541SOL     OW33764   0.359   5.857   6.723
 5541SOL    HW133765   0.345   5.880   6.814
 5541SOL    HW233766   0.353   5.940   6.676
 5542SOL     OW33767   2.630   3.297   7.330
 5542SOL    HW133768   2.663   3.336   7.249
 5542SOL    HW233769   2.698   3.314   7.395
 5543SOL     OW33770   1.426   1.051   6.639
 5543SOL    HW133771   1.427   1.134   6.686
 5543SOL    HW233772   1.446   1.074   6.548
 5544SOL     OW33773   1.900   1.926   7.459
 5544SOL    HW133774   1.887   1.949   7.551
 5544SOL    HW233775   1.969   1.986   7.429
 5545SOL     OW33776   4.047   3.071   6.026
 5545SOL    HW133777   3.992   3.013   5.972
 5545SOL    HW233778   3.985   3.109   6.088
 5546SOL     OW33779   0.183   2.495   0.207
 5546SOL    HW133780   0.102   2.468   0.163
 5546SOL    HW233781   0.234   2.414   0.214
 5547SOL     OW33782   3.261   5.600   7.664
 5547SOL    HW133783   3.190   5.577   7.604
 5547SOL    HW233784   3.304   5.517   7.687
 5548SOL     OW33785   5.610   5.820   7.540
 5548SOL    HW133786   5.543   5.889   7.546
 5548SOL    HW233787   5.576   5.748   7.592
 5549SOL     OW33788   6.376   6.410   5.601
 5549SOL    HW133789   6.465   6.443   5.614
 5549SOL    HW233790   6.387   6.315   5.593
 5550SOL     OW33791   2.552   0.514   1.053
 5550SOL    HW133792   2.596   0.561   0.981
 5550SOL    HW233793   2.602   0.434   1.064
 5551SOL     OW33794   2.276   1.206   5.995
 5551SOL    HW133795   2.360   1.245   5.970
 5551SOL    HW233796   2.279   1.201   6.090
 5552SOL     OW33797   0.329   3.883   1.560
 5552SOL    HW133798   0.346   3.790   1.549
 5552SOL    HW233799   0.409   3.917   1.601
 5553SOL     OW33800   3.664   2.792   6.995
 5553SOL    HW133801   3.740   2.825   6.946
 5553SOL    HW233802   3.615   2.740   6.931
 5554SOL     OW33803   2.143   5.154   0.587
 5554SOL    HW133804   2.220   5.129   0.638
 5554SOL    HW233805   2.171   5.146   0.497
 5555SOL     OW33806   0.356   4.635   0.603
 5555SOL    HW133807   0.415   4.560   0.594
 5555SOL    HW233808   0.348   4.648   0.697
 5556SOL     OW33809   2.524   2.911   1.161
 5556SOL    HW133810   2.534   2.939   1.070
 5556SOL    HW233811   2.478   2.827   1.155
 5557SOL     OW33812   5.112   3.504   2.043
 5557SOL    HW133813   5.039   3.447   2.017
 5557SOL    HW233814   5.178   3.492   1.975
 5558SOL     OW33815   5.677   3.948   0.389
 5558SOL    HW133816   5.677   3.987   0.476
 5558SOL    HW233817   5.734   3.872   0.397
 5559SOL     OW33818   3.943   5.340   1.078
 5559SOL    HW133819   3.868   5.333   1.019
 5559SOL    HW233820   3.927   5.419   1.129
 5560SOL     OW33821   0.354   3.983   7.134
 5560SOL    HW133822   0.351   4.009   7.226
 5560SOL    HW233823   0.439   3.939   7.124
 5561SOL     OW33824   2.075   1.376   1.473
 5561SOL    HW133825   2.164   1.399   1.501
 5561SOL    HW233826   2.018   1.428   1.530
 5562SOL     OW33827   6.354   6.257   1.223
 5562SOL    HW133828   6.416   6.237   1.293
 5562SOL    HW233829   6.386   6.339   1.185
 5563SOL     OW33830   4.442   5.468   2.339
 5563SOL    HW133831   4.355   5.437   2.365
 5563SOL    HW233832   4.496   5.389   2.341
 5564SOL     OW33833   1.826   2.510   6.839
 5564SOL    HW133834   1.868   2.425   6.826
 5564SOL    HW233835   1.820   2.520   6.934
 5565SOL     OW33836   1.370   4.571   0.893
 5565SOL    HW133837   1.339   4.553   0.804
 5565SOL    HW233838   1.449   4.623   0.881
 5566SOL     OW33839   3.550   1.215   1.035
 5566SOL    HW133840   3.535   1.121   1.034
 5566SOL    HW233841   3.463   1.253   1.050
 5567SOL     OW33842   2.606   0.109   7.162
 5567SOL    HW133843   2.698   0.136   7.153
 5567SOL    HW233844   2.561   0.188   7.195
 5568SOL     OW33845   5.360   4.984   1.515
 5568SOL    HW133846   5.334   5.062   1.466
 5568SOL    HW233847   5.278   4.950   1.551
 5569SOL     OW33848   2.543   5.477   0.891
 5569SOL    HW133849   2.469   5.479   0.952
 5569SOL    HW233850   2.506   5.508   0.808
 5570SOL     OW33851   3.539   5.404   1.115
 5570SOL    HW133852   3.495   5.356   1.185
 5570SOL    HW233853   3.472   5.462   1.079
 5571SOL     OW33854   2.415   0.951   6.186
 5571SOL    HW133855   2.359   1.022   6.218
 5571SOL    HW233856   2.480   0.939   6.256
 5572SOL     OW33857   4.028   4.054   0.039
 5572SOL    HW133858   3.969   4.051   0.115
 5572SOL    HW233859   3.988   4.121  -0.018
 5573SOL     OW33860   0.121   5.768   6.947
 5573SOL    HW133861   0.048   5.724   6.991
 5573SOL    HW233862   0.089   5.856   6.929
 5574SOL     OW33863   5.063   3.822   2.111
 5574SOL    HW133864   5.095   3.853   2.027
 5574SOL    HW233865   4.967   3.822   2.102
 5575SOL     OW33866   1.761   0.370   6.301
 5575SOL    HW133867   1.838   0.406   6.258
 5575SOL    HW233868   1.687   0.405   6.251
 5576SOL     OW33869   3.285   0.254   6.454
 5576SOL    HW133870   3.324   0.341   6.449
 5576SOL    HW233871   3.283   0.224   6.363
 5577SOL     OW33872   6.157   3.584   2.159
 5577SOL    HW133873   6.193   3.592   2.070
 5577SOL    HW233874   6.097   3.510   2.154
 5578SOL     OW33875   5.643   1.718   6.134
 5578SOL    HW133876   5.615   1.687   6.220
 5578SOL    HW233877   5.579   1.682   6.073
 5579SOL     OW33878   1.592   2.557   7.682
 5579SOL    HW133879   1.499   2.578   7.689
 5579SOL    HW233880   1.603   2.520   7.595
 5580SOL     OW33881   1.195   6.351   7.453
 5580SOL    HW133882   1.277   6.347   7.502
 5580SOL    HW233883   1.217   6.317   7.367
 5581SOL     OW33884   6.294   5.450   1.373
 5581SOL    HW133885   6.345   5.407   1.442
 5581SOL    HW233886   6.222   5.389   1.355
 5582SOL     OW33887   4.690   2.024   5.680
 5582SOL    HW133888   4.725   2.111   5.700
 5582SOL    HW233889   4.664   2.028   5.589
 5583SOL     OW33890   5.694   5.752   6.972
 5583SOL    HW133891   5.753   5.698   7.025
 5583SOL    HW233892   5.742   5.834   6.958
 5584SOL     OW33893   0.815   3.993   0.917
 5584SOL    HW133894   0.864   3.965   0.839
 5584SOL    HW233895   0.880   3.992   0.987
 5585SOL     OW33896   4.639   3.909   1.387
 5585SOL    HW133897   4.631   3.887   1.294
 5585SOL    HW233898   4.578   3.981   1.400
 5586SOL     OW33899   2.795   4.765   7.418
 5586SOL    HW133900   2.772   4.856   7.398
 5586SOL    HW233901   2.886   4.770   7.449
 5587SOL     OW33902   3.582   5.251   5.973
 5587SOL    HW133903   3.524   5.241   6.048
 5587SOL    HW233904   3.598   5.161   5.942
 5588SOL     OW33905   0.027   5.728   0.388
 5588SOL    HW133906   0.086   5.653   0.390
 5588SOL    HW233907  -0.003   5.732   0.297
 5589SOL     OW33908   4.742   5.460   6.378
 5589SOL    HW133909   4.786   5.437   6.296
 5589SOL    HW233910   4.793   5.417   6.446
 5590SOL     OW33911   6.058   5.266   1.339
 5590SOL    HW133912   6.042   5.172   1.353
 5590SOL    HW233913   6.003   5.309   1.405
 5591SOL     OW33914   1.479   4.585   1.694
 5591SOL    HW133915   1.464   4.601   1.787
 5591SOL    HW233916   1.393   4.590   1.654
 5592SOL     OW33917   0.680   5.042   1.602
 5592SOL    HW133918   0.613   5.025   1.536
 5592SOL    HW233919   0.761   5.010   1.563
 5593SOL     OW33920   5.378   5.874   6.829
 5593SOL    HW133921   5.286   5.853   6.817
 5593SOL    HW233922   5.415   5.872   6.741
 5594SOL     OW33923   0.153   3.142   6.789
 5594SOL    HW133924   0.126   3.228   6.758
 5594SOL    HW233925   0.241   3.130   6.751
 5595SOL     OW33926   0.095   4.013   6.472
 5595SOL    HW133927   0.179   4.024   6.516
 5595SOL    HW233928   0.117   4.014   6.378
 5596SOL     OW33929   4.581   4.243   7.697
 5596SOL    HW133930   4.617   4.155   7.680
 5596SOL    HW233931   4.496   4.227   7.737
 5597SOL     OW33932   0.906   2.954   0.409
 5597SOL    HW133933   0.837   3.020   0.420
 5597SOL    HW233934   0.897   2.898   0.486
 5598SOL     OW33935   4.506   0.122   1.340
 5598SOL    HW133936   4.549   0.206   1.317
 5598SOL    HW233937   4.413   0.142   1.337
 5599SOL     OW33938   0.809   0.906   7.130
 5599SOL    HW133939   0.840   0.961   7.202
 5599SOL    HW233940   0.735   0.954   7.094
 5600SOL     OW33941   5.784   6.129   1.115
 5600SOL    HW133942   5.796   6.044   1.155
 5600SOL    HW233943   5.855   6.183   1.149
 5601SOL     OW33944   5.588   5.923   7.200
 5601SOL    HW133945   5.508   5.924   7.253
 5601SOL    HW233946   5.579   5.845   7.145
 5602SOL     OW33947   4.809   6.241   1.516
 5602SOL    HW133948   4.884   6.214   1.463
 5602SOL    HW233949   4.802   6.335   1.501
 5603SOL     OW33950   2.542   5.187   5.660
 5603SOL    HW133951   2.580   5.167   5.745
 5603SOL    HW233952   2.518   5.101   5.624
 5604SOL     OW33953   2.243   2.082   0.197
 5604SOL    HW133954   2.199   2.167   0.201
 5604SOL    HW233955   2.218   2.038   0.278
 5605SOL     OW33956   1.268   3.939   7.614
 5605SOL    HW133957   1.201   3.880   7.649
 5605SOL    HW233958   1.218   4.012   7.576
 5606SOL     OW33959   4.180   1.882   1.201
 5606SOL    HW133960   4.209   1.791   1.200
 5606SOL    HW233961   4.211   1.919   1.118
 5607SOL     OW33962   5.549   5.237   6.462
 5607SOL    HW133963   5.597   5.288   6.396
 5607SOL    HW233964   5.462   5.278   6.466
 5608SOL     OW33965   5.013   3.825   6.335
 5608SOL    HW133966   5.103   3.793   6.339
 5608SOL    HW233967   4.962   3.751   6.303
 5609SOL     OW33968   0.235   2.017   6.096
 5609SOL    HW133969   0.185   2.094   6.066
 5609SOL    HW233970   0.173   1.969   6.152
 5610SOL     OW33971   5.073   5.464   0.306
 5610SOL    HW133972   5.164   5.434   0.307
 5610SOL    HW233973   5.023   5.384   0.288
 5611SOL     OW33974   3.121   6.272   6.474
 5611SOL    HW133975   3.160   6.325   6.544
 5611SOL    HW233976   3.033   6.251   6.506
 5612SOL     OW33977   3.958   2.797   1.463
 5612SOL    HW133978   4.039   2.811   1.513
 5612SOL    HW233979   3.959   2.866   1.397
 5613SOL     OW33980   4.702   5.641   2.313
 5613SOL    HW133981   4.717   5.722   2.263
 5613SOL    HW233982   4.617   5.609   2.283
 5614SOL     OW33983   6.165   1.667   2.636
 5614SOL    HW133984   6.149   1.620   2.554
 5614SOL    HW233985   6.115   1.619   2.702
 5615SOL     OW33986   0.599   6.316   7.243
 5615SOL    HW133987   0.526   6.314   7.181
 5615SOL    HW233988   0.567   6.270   7.321
 5616SOL     OW33989   6.146   1.532   2.412
 5616SOL    HW133990   6.073   1.495   2.361
 5616SOL    HW233991   6.220   1.533   2.352
 5617SOL     OW33992   2.470   0.239   0.238
 5617SOL    HW133993   2.557   0.257   0.204
 5617SOL    HW233994   2.434   0.172   0.179
 5618SOL     OW33995   2.090   5.597   6.051
 5618SOL    HW133996   2.018   5.587   5.988
 5618SOL    HW233997   2.168   5.573   6.001
 5619SOL     OW33998   2.080   2.334   0.176
 5619SOL    HW133999   1.993   2.307   0.204
 5619SOL    HW234000   2.079   2.326   0.081
 5620SOL     OW34001   1.717   5.030   5.784
 5620SOL    HW134002   1.763   5.081   5.850
 5620SOL    HW234003   1.715   5.087   5.707
 5621SOL     OW34004   2.158   5.058   1.697
 5621SOL    HW134005   2.117   4.990   1.644
 5621SOL    HW234006   2.089   5.087   1.757
 5622SOL     OW34007   4.807   2.269   6.381
 5622SOL    HW134008   4.864   2.332   6.336
 5622SOL    HW234009   4.771   2.318   6.455
 5623SOL     OW34010   0.900   1.885   1.076
 5623SOL    HW134011   0.851   1.961   1.046
 5623SOL    HW234012   0.849   1.851   1.150
 5624SOL     OW34013   4.709   1.923   6.131
 5624SOL    HW134014   4.719   1.878   6.047
 5624SOL    HW234015   4.620   1.904   6.158
 5625SOL     OW34016   2.222   5.321   0.299
 5625SOL    HW134017   2.224   5.301   0.205
 5625SOL    HW234018   2.280   5.257   0.339
 5626SOL     OW34019   2.948   0.671   6.187
 5626SOL    HW134020   2.891   0.598   6.207
 5626SOL    HW234021   3.033   0.631   6.170
 5627SOL     OW34022   5.430   6.021   1.470
 5627SOL    HW134023   5.462   6.106   1.439
 5627SOL    HW234024   5.398   6.037   1.558
 5628SOL     OW34025   1.015   4.208   0.004
 5628SOL    HW134026   1.058   4.146   0.063
 5628SOL    HW234027   1.008   4.289   0.056
 5629SOL     OW34028   0.995   3.782   6.006
 5629SOL    HW134029   1.072   3.834   6.029
 5629SOL    HW234030   1.013   3.695   6.040
 5630SOL     OW34031   4.710   6.381   2.429
 5630SOL    HW134032   4.652   6.447   2.468
 5630SOL    HW234033   4.785   6.432   2.397
 5631SOL     OW34034   4.016   0.830   2.130
 5631SOL    HW134035   3.965   0.907   2.155
 5631SOL    HW234036   4.048   0.849   2.041
 5632SOL     OW34037   4.297   0.031   7.275
 5632SOL    HW134038   4.342   0.042   7.191
 5632SOL    HW234039   4.293  -0.064   7.288
 5633SOL     OW34040   0.441   1.247   7.356
 5633SOL    HW134041   0.423   1.162   7.396
 5633SOL    HW234042   0.384   1.250   7.279
 5634SOL     OW34043   4.885   6.193   0.134
 5634SOL    HW134044   4.872   6.121   0.073
 5634SOL    HW234045   4.884   6.272   0.079
 5635SOL     OW34046   4.465   6.091   1.089
 5635SOL    HW134047   4.460   6.186   1.104
 5635SOL    HW234048   4.389   6.071   1.034
 5636SOL     OW34049   1.252   2.402   1.868
 5636SOL    HW134050   1.251   2.347   1.946
 5636SOL    HW234051   1.323   2.465   1.884
 5637SOL     OW34052   1.181   6.050   0.638
 5637SOL    HW134053   1.244   6.114   0.606
 5637SOL    HW234054   1.150   6.005   0.560
 5638SOL     OW34055   0.098   2.797   7.469
 5638SOL    HW134056   0.130   2.734   7.535
 5638SOL    HW234057   0.163   2.868   7.470
 5639SOL     OW34058   4.202   5.575   6.321
 5639SOL    HW134059   4.146   5.635   6.370
 5639SOL    HW234060   4.291   5.604   6.340
 5640SOL     OW34061   0.737   6.143   6.734
 5640SOL    HW134062   0.712   6.061   6.778
 5640SOL    HW234063   0.667   6.158   6.670
 5641SOL     OW34064   5.390   0.208   5.815
 5641SOL    HW134065   5.462   0.182   5.873
 5641SOL    HW234066   5.432   0.261   5.747
 5642SOL     OW34067   3.017   1.794   0.103
 5642SOL    HW134068   2.960   1.800   0.026
 5642SOL    HW234069   2.960   1.761   0.173
 5643SOL     OW34070   3.863   3.127   1.806
 5643SOL    HW134071   3.852   3.203   1.748
 5643SOL    HW234072   3.773   3.098   1.824
 5644SOL     OW34073   2.681   3.280   2.372
 5644SOL    HW134074   2.703   3.187   2.372
 5644SOL    HW234075   2.761   3.325   2.398
 5645SOL     OW34076   2.092   3.193   2.115
 5645SOL    HW134077   2.053   3.257   2.174
 5645SOL    HW234078   2.087   3.232   2.028
 5646SOL     OW34079   3.262   5.464   7.317
 5646SOL    HW134080   3.196   5.441   7.382
 5646SOL    HW234081   3.298   5.379   7.289
 5647SOL     OW34082   4.872   6.061   2.196
 5647SOL    HW134083   4.948   6.095   2.148
 5647SOL    HW234084   4.900   6.060   2.287
 5648SOL     OW34085   1.604   0.122   1.753
 5648SOL    HW134086   1.664   0.094   1.822
 5648SOL    HW234087   1.607   0.219   1.757
 5649SOL     OW34088   2.955   0.757   0.651
 5649SOL    HW134089   2.889   0.826   0.660
 5649SOL    HW234090   2.916   0.695   0.589
 5650SOL     OW34091   3.138   4.649   2.084
 5650SOL    HW134092   3.083   4.629   2.008
 5650SOL    HW234093   3.226   4.621   2.058
 5651SOL     OW34094   3.233   5.405   1.036
 5651SOL    HW134095   3.191   5.451   1.108
 5651SOL    HW234096   3.161   5.374   0.981
 5652SOL     OW34097   3.900   0.843   1.661
 5652SOL    HW134098   3.988   0.845   1.700
 5652SOL    HW234099   3.840   0.840   1.736
 5653SOL     OW34100   1.694   0.368   1.554
 5653SOL    HW134101   1.788   0.373   1.566
 5653SOL    HW234102   1.657   0.414   1.629
 5654SOL     OW34103   2.522   4.096   7.648
 5654SOL    HW134104   2.544   4.008   7.678
 5654SOL    HW234105   2.559   4.154   7.716
 5655SOL     OW34106   3.732   5.702   0.120
 5655SOL    HW134107   3.808   5.698   0.063
 5655SOL    HW234108   3.728   5.793   0.150
 5656MOL     N2    1   3.707   3.075   7.284
 5656MOL     C4    2   3.715   2.935   7.245
 5656MOL    Br1    3   4.343   3.177   7.338
 5656MOL     C1    4   3.940   3.066   7.364
 5656MOL    C10    5   3.796   3.278   7.366
 5656MOL    C11    6   3.842   3.329   7.489
 5656MOL    C12    7   3.821   3.463   7.518
 5656MOL    C13    8   3.717   3.484   7.304
 5656MOL    C14    9   3.757   3.543   7.424
 5656MOL     C2   10   3.810   3.132   7.334
 5656MOL     C3   11   3.720   2.843   7.367
 5656MOL     C5   12   4.072   2.883   7.454
 5656MOL     C6   13   4.189   2.954   7.432
 5656MOL     C7   14   3.947   2.937   7.420
 5656MOL     C8   15   4.182   3.080   7.373
 5656MOL     C9   16   4.060   3.136   7.341
 5656MOL     EP   17   4.514   3.279   7.301
 5656MOL    H10   18   3.840   2.790   7.520
 5656MOL     H3   19   4.285   2.910   7.458
 5656MOL     H4   20   4.055   3.235   7.297
 5656MOL     H5   21   4.076   2.784   7.498
 5656MOL     H6   22   3.891   3.263   7.560
 5656MOL     H7   23   3.854   3.504   7.613
 5656MOL     H9   24   3.739   3.648   7.442
 5656MOL     N1   25   3.832   2.861   7.448
 5656MOL     N3   26   3.735   3.355   7.275
 5656MOL     O1   27   3.636   2.761   7.394
 5656MOL     H1   28   3.625   2.908   7.189
 5656MOL     H2   29   3.803   2.915   7.183
 5656MOL     H8   30   3.668   3.543   7.228
   6.44792   6.44792   7.80269
