; MOL_GMX.top created by acpype (Rev: 0) on Thu Aug  3 23:23:15 2023

[ moleculetype ]
;name            nrexcl
 MOL              3

[ atoms ]
;   nr  type  resi  res  atom  cgnr     charge      mass       ; qtot   bond_type
     1   ca     1   MOL    C1    1     0.114425     12.01000 ; qtot 0.114
     2   ce     1   MOL    C2    2     0.216902     12.01000 ; qtot 0.331
     3    n     1   MOL    N1    3    -0.543157     14.01000 ; qtot -0.212
     4   n2     1   MOL    N2    4    -0.522984     14.01000 ; qtot -0.735
     5    c     1   MOL    C3    5     0.583740     12.01000 ; qtot -0.151
     6   c3     1   MOL    C4    6     0.271942     12.01000 ; qtot 0.121
     7   h1     1   MOL    H1    7     0.020575      1.00800 ; qtot 0.141
     8   h1     1   MOL    H2    8     0.003584      1.00800 ; qtot 0.145
     9   ca     1   MOL    C5    9    -0.206558     12.01000 ; qtot -0.062
    10   ca     1   MOL    C6   10    -0.154602     12.01000 ; qtot -0.216
    11   ca     1   MOL    C7   11     0.100976     12.01000 ; qtot -0.115
    12   ca     1   MOL    C8   12     0.126997     12.01000 ; qtot 0.012
    13   ca     1   MOL    C9   13    -0.241763     12.01000 ; qtot -0.230
    14   ha     1   MOL    H3   14     0.186861      1.00800 ; qtot -0.043
    15   ha     1   MOL    H4   15     0.188126      1.00800 ; qtot 0.145
    16   ha     1   MOL    H5   16     0.166556      1.00800 ; qtot 0.312
    17    o     1   MOL    O1   17    -0.565547     16.00000 ; qtot -0.254
    18   ca     1   MOL   C10   18     0.580476     12.01000 ; qtot 0.327
    19   ca     1   MOL   C11   19    -0.474749     12.01000 ; qtot -0.148
    20   nb     1   MOL    N3   20    -0.679603     14.01000 ; qtot -0.828
    21   ca     1   MOL   C12   21     0.159728     12.01000 ; qtot -0.668
    22   ca     1   MOL   C13   22     0.424914     12.01000 ; qtot -0.243
    23   ca     1   MOL   C14   23    -0.479896     12.01000 ; qtot -0.723
    24   ha     1   MOL    H6   24     0.164645      1.00800 ; qtot -0.558
    25   ha     1   MOL    H7   25     0.117557      1.00800 ; qtot -0.441
    26   h4     1   MOL    H8   26     0.058843      1.00800 ; qtot -0.382
    27   ha     1   MOL    H9   27     0.192749      1.00800 ; qtot -0.189
    28   hn     1   MOL   H10   28     0.364007      1.00800 ; qtot 0.175
    29   br     1   MOL   BR1   29    -0.231518     79.90000 ; qtot -0.057
    30   ep     1   MOL    EP   30     0.056772      0.00000 ; qtot 0.000
 
[ virtual_sites2 ]
30 29 12 2 -0.202

[ bonds ]
;   ai     aj funct   r             k
     1      2   1    1.4763e-01    3.0234e+05 ;     C1 - C2    
     1     11   1    1.3984e-01    3.8585e+05 ;     C1 - C7    
     1     13   1    1.3984e-01    3.8585e+05 ;     C1 - C9    
     2      4   1    1.2874e-01    4.8735e+05 ;     C2 - N2    
     2     18   1    1.4763e-01    3.0234e+05 ;     C2 - C10   
     3      5   1    1.3789e-01    3.5782e+05 ;     N1 - C3    
     3     11   1    1.4121e-01    3.2150e+05 ;     N1 - C7    
     3     28   1    1.0129e-01    3.3740e+05 ;     N1 - H10   
     4      6   1    1.4661e-01    2.7154e+05 ;     N2 - C4    
     5      6   1    1.5241e-01    2.6192e+05 ;     C3 - C4    
     5     17   1    1.2183e-01    5.3363e+05 ;     C3 - O1    
     6      7   1    1.0969e-01    2.7665e+05 ;     C4 - H1    
     6      8   1    1.0969e-01    2.7665e+05 ;     C4 - H2    
     9     10   1    1.3984e-01    3.8585e+05 ;     C5 - C6    
     9     11   1    1.3984e-01    3.8585e+05 ;     C5 - C7    
     9     16   1    1.0860e-01    2.8937e+05 ;     C5 - H5    
    10     12   1    1.3984e-01    3.8585e+05 ;     C6 - C8    
    10     14   1    1.0860e-01    2.8937e+05 ;     C6 - H3    
    12     13   1    1.3984e-01    3.8585e+05 ;     C8 - C9    
    12     29   1    1.9079e-01    2.1983e+05 ;     C8 - BR1   
    13     15   1    1.0860e-01    2.8937e+05 ;     C9 - H4    
    18     19   1    1.3984e-01    3.8585e+05 ;    C10 - C11   
    18     20   1    1.3390e-01    4.0836e+05 ;    C10 - N3    
    19     21   1    1.3984e-01    3.8585e+05 ;    C11 - C12   
    19     24   1    1.0860e-01    2.8937e+05 ;    C11 - H6    
    20     22   1    1.3390e-01    4.0836e+05 ;     N3 - C13   
    21     23   1    1.3984e-01    3.8585e+05 ;    C12 - C14   
    21     25   1    1.0860e-01    2.8937e+05 ;    C12 - H7    
    22     23   1    1.3984e-01    3.8585e+05 ;    C13 - C14   
    22     26   1    1.0890e-01    2.8577e+05 ;    C13 - H8    
    23     27   1    1.0860e-01    2.8937e+05 ;    C14 - H9    

[ pairs ]
;   ai     aj    funct
     1      5      1 ;     C1 - C3    
     1      6      1 ;     C1 - C4    
     1     10      1 ;     C1 - C6    
     1     16      1 ;     C1 - H5    
     1     19      1 ;     C1 - C11   
     1     20      1 ;     C1 - N3    
     1     28      1 ;     C1 - H10   
     1     29      1 ;     C1 - BR1   
     2      3      1 ;     C2 - N1    
     2      5      1 ;     C2 - C3    
     2      7      1 ;     C2 - H1    
     2      8      1 ;     C2 - H2    
     2      9      1 ;     C2 - C5    
     2     12      1 ;     C2 - C8    
     2     15      1 ;     C2 - H4    
     2     21      1 ;     C2 - C12   
     2     22      1 ;     C2 - C13   
     2     24      1 ;     C2 - H6    
     3      4      1 ;     N1 - N2    
     3      7      1 ;     N1 - H1    
     3      8      1 ;     N1 - H2    
     3     10      1 ;     N1 - C6    
     3     16      1 ;     N1 - H5    
     4     17      1 ;     N2 - O1    
     4     19      1 ;     N2 - C11   
     4     20      1 ;     N2 - N3    
     5      9      1 ;     C3 - C5    
     6     11      1 ;     C4 - C7    
     6     18      1 ;     C4 - C10   
     6     28      1 ;     C4 - H10   
     7     17      1 ;     H1 - O1    
     8     17      1 ;     H2 - O1    
     9     13      1 ;     C5 - C9    
     9     28      1 ;     C5 - H10   
     9     29      1 ;     C5 - BR1   
    10     15      1 ;     C6 - H4    
    11      4      1 ;     C7 - N2    
    11     12      1 ;     C7 - C8    
    11     14      1 ;     C7 - H3    
    11     15      1 ;     C7 - H4    
    11     17      1 ;     C7 - O1    
    11     18      1 ;     C7 - C10   
    12     16      1 ;     C8 - H5    
    13      3      1 ;     C9 - N1    
    13      4      1 ;     C9 - N2    
    13     14      1 ;     C9 - H3    
    13     18      1 ;     C9 - C10   
    14     16      1 ;     H3 - H5    
    14     29      1 ;     H3 - BR1   
    15     29      1 ;     H4 - BR1   
    17     28      1 ;     O1 - H10   
    18     23      1 ;    C10 - C14   
    18     25      1 ;    C10 - H7    
    18     26      1 ;    C10 - H8    
    19     22      1 ;    C11 - C13   
    19     27      1 ;    C11 - H9    
    20     21      1 ;     N3 - C12   
    20     24      1 ;     N3 - H6    
    20     27      1 ;     N3 - H9    
    21     26      1 ;    C12 - H8    
    22     25      1 ;    C13 - H7    
    23     24      1 ;    C14 - H6    
    24     25      1 ;     H6 - H7    
    25     27      1 ;     H7 - H9    
    26     27      1 ;     H8 - H9    

[ angles ]
;   ai     aj     ak    funct   theta         cth
     1      2      4      1    1.2072e+02    5.7095e+02 ;     C1 - C2     - N2    
     1      2     18      1    1.1783e+02    5.3296e+02 ;     C1 - C2     - C10   
     1     11      3      1    1.2019e+02    5.6794e+02 ;     C1 - C7     - N1    
     1     11      9      1    1.2002e+02    5.5748e+02 ;     C1 - C7     - C5    
     1     13     12      1    1.2002e+02    5.5748e+02 ;     C1 - C9     - C8    
     1     13     15      1    1.1988e+02    4.0317e+02 ;     C1 - C9     - H4    
     2      1     11      1    1.2082e+02    5.3974e+02 ;     C2 - C1     - C7    
     2      1     13      1    1.2082e+02    5.3974e+02 ;     C2 - C1     - C9    
     2      4      6      1    1.1867e+02    5.4819e+02 ;     C2 - N2     - C4    
     2     18     19      1    1.2082e+02    5.3974e+02 ;     C2 - C10    - C11   
     2     18     20      1    1.1756e+02    5.7053e+02 ;     C2 - C10    - N3    
     3      5      6      1    1.1518e+02    5.5890e+02 ;     N1 - C3     - C4    
     3      5     17      1    1.2305e+02    6.2107e+02 ;     N1 - C3     - O1    
     3     11      9      1    1.2019e+02    5.6794e+02 ;     N1 - C7     - C5    
     4      2     18      1    1.2072e+02    5.7095e+02 ;     N2 - C2     - C10   
     4      6      5      1    1.0967e+02    5.5840e+02 ;     N2 - C4     - C3    
     4      6      7      1    1.0981e+02    4.1422e+02 ;     N2 - C4     - H1    
     4      6      8      1    1.0981e+02    4.1422e+02 ;     N2 - C4     - H2    
     5      3     11      1    1.2371e+02    5.3405e+02 ;     C3 - N1     - C7    
     5      3     28      1    1.1755e+02    4.0443e+02 ;     C3 - N1     - H10   
     5      6      7      1    1.0822e+02    3.9363e+02 ;     C3 - C4     - H1    
     5      6      8      1    1.0822e+02    3.9363e+02 ;     C3 - C4     - H2    
     6      5     17      1    1.2320e+02    5.6400e+02 ;     C4 - C3     - O1    
     7      6      8      1    1.0846e+02    3.2836e+02 ;     H1 - C4     - H2    
     9     10     12      1    1.2002e+02    5.5748e+02 ;     C5 - C6     - C8    
     9     10     14      1    1.1988e+02    4.0317e+02 ;     C5 - C6     - H3    
    10      9     11      1    1.2002e+02    5.5748e+02 ;     C6 - C5     - C7    
    10      9     16      1    1.1988e+02    4.0317e+02 ;     C6 - C5     - H5    
    10     12     13      1    1.2002e+02    5.5748e+02 ;     C6 - C8     - C9    
    10     12     29      1    1.1930e+02    5.2534e+02 ;     C6 - C8     - BR1   
    11      1     13      1    1.2002e+02    5.5748e+02 ;     C7 - C1     - C9    
    11      3     28      1    1.1600e+02    3.9857e+02 ;     C7 - N1     - H10   
    11      9     16      1    1.1988e+02    4.0317e+02 ;     C7 - C5     - H5    
    12     10     14      1    1.1988e+02    4.0317e+02 ;     C8 - C6     - H3    
    12     13     15      1    1.1988e+02    4.0317e+02 ;     C8 - C9     - H4    
    13     12     29      1    1.1930e+02    5.2534e+02 ;     C9 - C8     - BR1   
    18     19     21      1    1.2002e+02    5.5748e+02 ;    C10 - C11    - C12   
    18     19     24      1    1.1988e+02    4.0317e+02 ;    C10 - C11    - H6    
    18     20     22      1    1.1722e+02    5.7195e+02 ;    C10 - N3     - C13   
    19     18     20      1    1.2294e+02    5.7597e+02 ;    C11 - C10    - N3    
    19     21     23      1    1.2002e+02    5.5748e+02 ;    C11 - C12    - C14   
    19     21     25      1    1.1988e+02    4.0317e+02 ;    C11 - C12    - H7    
    20     22     23      1    1.2294e+02    5.7597e+02 ;     N3 - C13    - C14   
    20     22     26      1    1.1603e+02    4.3413e+02 ;     N3 - C13    - H8    
    21     19     24      1    1.1988e+02    4.0317e+02 ;    C12 - C11    - H6    
    21     23     22      1    1.2002e+02    5.5748e+02 ;    C12 - C14    - C13   
    21     23     27      1    1.1988e+02    4.0317e+02 ;    C12 - C14    - H9    
    22     23     27      1    1.1988e+02    4.0317e+02 ;    C13 - C14    - H9    
    23     21     25      1    1.1988e+02    4.0317e+02 ;    C14 - C12    - H7    
    23     22     26      1    1.2034e+02    4.0217e+02 ;    C14 - C13    - H8    

[ dihedrals ] ; propers
; treated as RBs in GROMACS to use combine multiple AMBER torsions per quartet
;    i      j      k      l   func    C0         C1         C2         C3         C4         C5
     1      2      4      6      3   34.72720    0.00000  -34.72720    0.00000    0.00000    0.00000 ;     C1-    C2-    N2-    C4
     1      2     18     19      3    5.85760    0.00000   -5.85760    0.00000    0.00000    0.00000 ;     C1-    C2-   C10-   C11
     1      2     18     20      3    5.85760    0.00000   -5.85760    0.00000    0.00000    0.00000 ;     C1-    C2-   C10-    N3
     1     11      3      5      3    3.76560    0.00000   -3.76560    0.00000    0.00000    0.00000 ;     C1-    C7-    N1-    C3
     1     11      3     28      3    3.76560    0.00000   -3.76560    0.00000    0.00000    0.00000 ;     C1-    C7-    N1-   H10
     1     11      9     10      3   30.33400    0.00000  -30.33400    0.00000    0.00000    0.00000 ;     C1-    C7-    C5-    C6
     1     11      9     16      3   30.33400    0.00000  -30.33400    0.00000    0.00000    0.00000 ;     C1-    C7-    C5-    H5
     1     13     12     10      3   30.33400    0.00000  -30.33400    0.00000    0.00000    0.00000 ;     C1-    C9-    C8-    C6
     1     13     12     29      3   30.33400    0.00000  -30.33400    0.00000    0.00000    0.00000 ;     C1-    C9-    C8-   BR1
     2      1     11      3      3   30.33400    0.00000  -30.33400    0.00000    0.00000    0.00000 ;     C2-    C1-    C7-    N1
     2      1     11      9      3   30.33400    0.00000  -30.33400    0.00000    0.00000    0.00000 ;     C2-    C1-    C7-    C5
     2      1     13     12      3   30.33400    0.00000  -30.33400    0.00000    0.00000    0.00000 ;     C2-    C1-    C9-    C8
     2      1     13     15      3   30.33400    0.00000  -30.33400    0.00000    0.00000    0.00000 ;     C2-    C1-    C9-    H4
     2      4      6      5      3    0.00000    0.00000    0.00000    0.00000    0.00000    0.00000 ;     C2-    N2-    C4-    C3
     2      4      6      7      3    0.00000    0.00000    0.00000    0.00000    0.00000    0.00000 ;     C2-    N2-    C4-    H1
     2      4      6      8      3    0.00000    0.00000    0.00000    0.00000    0.00000    0.00000 ;     C2-    N2-    C4-    H2
     2     18     19     21      3   30.33400    0.00000  -30.33400    0.00000    0.00000    0.00000 ;     C2-   C10-   C11-   C12
     2     18     19     24      3   30.33400    0.00000  -30.33400    0.00000    0.00000    0.00000 ;     C2-   C10-   C11-    H6
     2     18     20     22      3   40.16640    0.00000  -40.16640    0.00000    0.00000    0.00000 ;     C2-   C10-    N3-   C13
     3      5      6      4      3    0.00000    0.00000    0.00000    0.00000    0.00000    0.00000 ;     N1-    C3-    C4-    N2
     3      5      6      7      3    0.00000    0.00000    0.00000    0.00000    0.00000    0.00000 ;     N1-    C3-    C4-    H1
     3      5      6      8      3    0.00000    0.00000    0.00000    0.00000    0.00000    0.00000 ;     N1-    C3-    C4-    H2
     3     11      9     10      3   30.33400    0.00000  -30.33400    0.00000    0.00000    0.00000 ;     N1-    C7-    C5-    C6
     3     11      9     16      3   30.33400    0.00000  -30.33400    0.00000    0.00000    0.00000 ;     N1-    C7-    C5-    H5
     4      2     18     19      3    5.85760    0.00000   -5.85760    0.00000    0.00000    0.00000 ;     N2-    C2-   C10-   C11
     4      2     18     20      3    5.85760    0.00000   -5.85760    0.00000    0.00000    0.00000 ;     N2-    C2-   C10-    N3
     4      6      5     17      3    0.00000    0.00000    0.00000    0.00000    0.00000    0.00000 ;     N2-    C4-    C3-    O1
     5      3     11      9      3    3.76560    0.00000   -3.76560    0.00000    0.00000    0.00000 ;     C3-    N1-    C7-    C5
     6      4      2     18      3   34.72720    0.00000  -34.72720    0.00000    0.00000    0.00000 ;     C4-    N2-    C2-   C10
     6      5      3     11      3   20.92000    0.00000  -20.92000    0.00000    0.00000    0.00000 ;     C4-    C3-    N1-    C7
     6      5      3     28      3   20.92000    0.00000  -20.92000    0.00000    0.00000    0.00000 ;     C4-    C3-    N1-   H10
     7      6      5     17      3    3.68192   -4.35136    0.00000    1.33888    0.00000    0.00000 ;     H1-    C4-    C3-    O1
     8      6      5     17      3    3.68192   -4.35136    0.00000    1.33888    0.00000    0.00000 ;     H2-    C4-    C3-    O1
     9     10     12     13      3   30.33400    0.00000  -30.33400    0.00000    0.00000    0.00000 ;     C5-    C6-    C8-    C9
     9     10     12     29      3   30.33400    0.00000  -30.33400    0.00000    0.00000    0.00000 ;     C5-    C6-    C8-   BR1
     9     11      3     28      3    3.76560    0.00000   -3.76560    0.00000    0.00000    0.00000 ;     C5-    C7-    N1-   H10
    10     12     13     15      3   30.33400    0.00000  -30.33400    0.00000    0.00000    0.00000 ;     C6-    C8-    C9-    H4
    11      1      2      4      3    5.85760    0.00000   -5.85760    0.00000    0.00000    0.00000 ;     C7-    C1-    C2-    N2
    11      1      2     18      3    5.85760    0.00000   -5.85760    0.00000    0.00000    0.00000 ;     C7-    C1-    C2-   C10
    11      1     13     12      3   30.33400    0.00000  -30.33400    0.00000    0.00000    0.00000 ;     C7-    C1-    C9-    C8
    11      1     13     15      3   30.33400    0.00000  -30.33400    0.00000    0.00000    0.00000 ;     C7-    C1-    C9-    H4
    11      3      5     17      3   20.92000    0.00000  -20.92000    0.00000    0.00000    0.00000 ;     C7-    N1-    C3-    O1
    11      9     10     12      3   30.33400    0.00000  -30.33400    0.00000    0.00000    0.00000 ;     C7-    C5-    C6-    C8
    11      9     10     14      3   30.33400    0.00000  -30.33400    0.00000    0.00000    0.00000 ;     C7-    C5-    C6-    H3
    12     10      9     16      3   30.33400    0.00000  -30.33400    0.00000    0.00000    0.00000 ;     C8-    C6-    C5-    H5
    13      1      2      4      3    5.85760    0.00000   -5.85760    0.00000    0.00000    0.00000 ;     C9-    C1-    C2-    N2
    13      1      2     18      3    5.85760    0.00000   -5.85760    0.00000    0.00000    0.00000 ;     C9-    C1-    C2-   C10
    13      1     11      3      3   30.33400    0.00000  -30.33400    0.00000    0.00000    0.00000 ;     C9-    C1-    C7-    N1
    13      1     11      9      3   30.33400    0.00000  -30.33400    0.00000    0.00000    0.00000 ;     C9-    C1-    C7-    C5
    13     12     10     14      3   30.33400    0.00000  -30.33400    0.00000    0.00000    0.00000 ;     C9-    C8-    C6-    H3
    14     10      9     16      3   30.33400    0.00000  -30.33400    0.00000    0.00000    0.00000 ;     H3-    C6-    C5-    H5
    14     10     12     29      3   30.33400    0.00000  -30.33400    0.00000    0.00000    0.00000 ;     H3-    C6-    C8-   BR1
    15     13     12     29      3   30.33400    0.00000  -30.33400    0.00000    0.00000    0.00000 ;     H4-    C9-    C8-   BR1
    17      5      3     28      3   29.28800   -8.36800  -20.92000    0.00000    0.00000    0.00000 ;     O1-    C3-    N1-   H10
    18     19     21     23      3   30.33400    0.00000  -30.33400    0.00000    0.00000    0.00000 ;    C10-   C11-   C12-   C14
    18     19     21     25      3   30.33400    0.00000  -30.33400    0.00000    0.00000    0.00000 ;    C10-   C11-   C12-    H7
    18     20     22     23      3   40.16640    0.00000  -40.16640    0.00000    0.00000    0.00000 ;    C10-    N3-   C13-   C14
    18     20     22     26      3   40.16640    0.00000  -40.16640    0.00000    0.00000    0.00000 ;    C10-    N3-   C13-    H8
    19     18     20     22      3   40.16640    0.00000  -40.16640    0.00000    0.00000    0.00000 ;    C11-   C10-    N3-   C13
    19     21     23     22      3   30.33400    0.00000  -30.33400    0.00000    0.00000    0.00000 ;    C11-   C12-   C14-   C13
    19     21     23     27      3   30.33400    0.00000  -30.33400    0.00000    0.00000    0.00000 ;    C11-   C12-   C14-    H9
    20     18     19     21      3   30.33400    0.00000  -30.33400    0.00000    0.00000    0.00000 ;     N3-   C10-   C11-   C12
    20     18     19     24      3   30.33400    0.00000  -30.33400    0.00000    0.00000    0.00000 ;     N3-   C10-   C11-    H6
    20     22     23     21      3   30.33400    0.00000  -30.33400    0.00000    0.00000    0.00000 ;     N3-   C13-   C14-   C12
    20     22     23     27      3   30.33400    0.00000  -30.33400    0.00000    0.00000    0.00000 ;     N3-   C13-   C14-    H9
    21     23     22     26      3   30.33400    0.00000  -30.33400    0.00000    0.00000    0.00000 ;    C12-   C14-   C13-    H8
    22     23     21     25      3   30.33400    0.00000  -30.33400    0.00000    0.00000    0.00000 ;    C13-   C14-   C12-    H7
    23     21     19     24      3   30.33400    0.00000  -30.33400    0.00000    0.00000    0.00000 ;    C14-   C12-   C11-    H6
    24     19     21     25      3   30.33400    0.00000  -30.33400    0.00000    0.00000    0.00000 ;     H6-   C11-   C12-    H7
    25     21     23     27      3   30.33400    0.00000  -30.33400    0.00000    0.00000    0.00000 ;     H7-   C12-   C14-    H9
    26     22     23     27      3   30.33400    0.00000  -30.33400    0.00000    0.00000    0.00000 ;     H8-   C13-   C14-    H9

[ dihedrals ] ; impropers
; treated as propers in GROMACS to use correct AMBER analytical function
;    i      j      k      l   func   phase     kd      pn
     1      9     11      3      1   180.00   4.60240   2 ;     C1-    C5-    C7-    N1
     1     12     13     15      1   180.00   4.60240   2 ;     C1-    C8-    C9-    H4
     1     18      2      4      1   180.00   4.60240   2 ;     C1-   C10-    C2-    N2
     2      1     13     11      1   180.00   4.60240   2 ;     C2-    C1-    C9-    C7
     5     11      3     28      1   180.00   4.60240   2 ;     C3-    C7-    N1-   H10
     6      3      5     17      1   180.00  43.93200   2 ;     C4-    N1-    C3-    O1
     9     12     10     14      1   180.00   4.60240   2 ;     C5-    C8-    C6-    H3
    10     11      9     16      1   180.00   4.60240   2 ;     C6-    C7-    C5-    H5
    10     13     12     29      1   180.00   4.60240   2 ;     C6-    C9-    C8-   BR1
    18     21     19     24      1   180.00   4.60240   2 ;    C10-   C12-   C11-    H6
    19      2     18     20      1   180.00   4.60240   2 ;    C11-    C2-   C10-    N3
    19     23     21     25      1   180.00   4.60240   2 ;    C11-   C14-   C12-    H7
    21     22     23     27      1   180.00   4.60240   2 ;    C12-   C13-   C14-    H9
    23     26     22     20      1   180.00   4.60240   2 ;    C14-    H8-   C13-    N3

; Include Position restraint file
#ifdef POSRES_MOL
#include "posres_bromodiazepam_EP.itp"
#endif

