POPC bilayer and 5FIBZ with EP hydrated
34138
    1PA    C116    1   1.172   5.061   4.254
    1PA    H16R    2   1.270   5.040   4.211
    1PA    H16S    3   1.182   5.068   4.363
    1PA    H16T    4   1.138   5.157   4.217
    1PA    C115    5   1.071   4.951   4.215
    1PA    H15R    6   0.973   4.974   4.257
    1PA    H15S    7   1.061   4.951   4.107
    1PA    C114    8   1.116   4.811   4.261
    1PA    H14R    9   1.051   4.737   4.212
    1PA    H14S   10   1.218   4.792   4.228
    1PA    C113   11   1.105   4.791   4.414
    1PA    H13R   12   1.171   4.862   4.465
    1PA    H13S   13   1.002   4.812   4.446
    1PA    C112   14   1.144   4.648   4.453
    1PA    H12R   15   1.079   4.577   4.400
    1PA    H12S   16   1.246   4.628   4.421
    1PA    C111   17   1.132   4.624   4.605
    1PA    H11R   18   1.197   4.693   4.658
    1PA    H11S   19   1.029   4.643   4.637
    1PA    C110   20   1.171   4.478   4.638
    1PA    H10R   21   1.105   4.410   4.584
    1PA    H10S   22   1.273   4.460   4.603
    1PA     C19   23   1.163   4.448   4.789
    1PA     H9R   24   1.230   4.514   4.844
    1PA     H9S   25   1.061   4.464   4.825
    1PA     C18   26   1.204   4.301   4.813
    1PA     H8R   27   1.136   4.236   4.758
    1PA     H8S   28   1.304   4.285   4.772
    1PA     C17   29   1.204   4.260   4.962
    1PA     H7R   30   1.276   4.321   5.017
    1PA     H7S   31   1.105   4.277   5.005
    1PA     C16   32   1.242   4.111   4.971
    1PA     H6R   33   1.169   4.053   4.915
    1PA     H6S   34   1.339   4.096   4.924
    1PA     C15   35   1.248   4.058   5.115
    1PA     H5R   36   1.325   4.110   5.172
    1PA     H5S   37   1.152   4.075   5.165
    1PA     C14   38   1.278   3.906   5.110
    1PA     H4R   39   1.201   3.858   5.051
    1PA     H4S   40   1.373   3.889   5.059
    1PA     C13   41   1.282   3.839   5.249
    1PA     H3R   42   1.199   3.874   5.311
    1PA     H3S   43   1.269   3.732   5.234
    1PA     C12   44   1.417   3.862   5.320
    1PA     H2R   45   1.499   3.855   5.249
    1PA     H2S   46   1.419   3.962   5.363
    2PC     C11   47   1.442   3.761   5.430
    2PC     O12   48   1.554   3.719   5.456
    2PC     O11   49   1.331   3.723   5.496
    2PC      C1   50   1.342   3.620   5.597
    2PC      HR   51   1.385   3.529   5.554
    2PC      HS   52   1.407   3.655   5.678
    2PC      C2   53   1.201   3.591   5.651
    2PC      HX   54   1.155   3.685   5.680
    2PC      C3   55   1.203   3.495   5.772
    2PC      HA   56   1.234   3.395   5.742
    2PC      HB   57   1.273   3.532   5.848
    2PC     O31   58   1.069   3.491   5.827
    2PC     P31   59   1.037   3.403   5.956
    2PC     O32   60   1.150   3.459   6.053
    2PC     C31   61   1.179   3.387   6.174
    2PC     H1A   62   1.091   3.386   6.239
    2PC     H1B   63   1.209   3.285   6.150
    2PC     C32   64   1.295   3.464   6.241
    2PC     H2A   65   1.381   3.462   6.173
    2PC     H2B   66   1.266   3.568   6.255
    2PC     N31   67   1.345   3.414   6.374
    2PC     C33   68   1.467   3.493   6.412
    2PC     H3A   69   1.544   3.475   6.336
    2PC     H3B   70   1.441   3.599   6.415
    2PC     H3C   71   1.502   3.459   6.509
    2PC     C34   72   1.241   3.436   6.480
    2PC     H4A   73   1.280   3.401   6.576
    2PC     H4B   74   1.218   3.543   6.485
    2PC     H4C   75   1.151   3.380   6.453
    2PC     C35   76   1.383   3.269   6.368
    2PC     H5A   77   1.460   3.257   6.291
    2PC     H5B   78   1.294   3.211   6.342
    2PC     H5C   79   1.421   3.239   6.465
    2PC     O33   80   0.903   3.437   6.007
    2PC     O34   81   1.040   3.257   5.932
    2PC     O21   82   1.127   3.527   5.544
    2PC     C21   83   0.993   3.545   5.540
    2PC     O22   84   0.932   3.620   5.613
    3OL     C12   85   0.927   3.465   5.431
    3OL     H2R   86   0.819   3.472   5.441
    3OL     H2S   87   0.955   3.360   5.444
    3OL     C13   88   0.970   3.511   5.290
    3OL     H3R   89   0.923   3.446   5.216
    3OL     H3S   90   1.078   3.501   5.279
    3OL     C14   91   0.928   3.657   5.264
    3OL     H4R   92   0.975   3.720   5.339
    3OL     H4S   93   0.820   3.668   5.274
    3OL     C15   94   0.972   3.707   5.125
    3OL     H5R   95   1.075   3.675   5.105
    3OL     H5S   96   0.973   3.816   5.126
    3OL     C16   97   0.880   3.660   5.011
    3OL     H6R   98   0.778   3.694   5.032
    3OL     H6S   99   0.879   3.551   5.007
    3OL     C17  100   0.927   3.718   4.876
    3OL     H7R  101   1.027   3.680   4.852
    3OL     H7S  102   0.935   3.827   4.885
    3OL     C18  103   0.831   3.685   4.761
    3OL     H8R  104   0.860   3.743   4.674
    3OL     H8S  105   0.731   3.720   4.789
    3OL     C19  106   0.825   3.537   4.731
    3OL     H9R  107   0.804   3.474   4.817
    3OL    C110  108   0.841   3.479   4.612
    3OL    H10R  109   0.833   3.371   4.605
    3OL    C111  110   0.871   3.548   4.481
    3OL    H11R  111   0.952   3.495   4.430
    3OL    H11S  112   0.906   3.651   4.496
    3OL    C112  113   0.746   3.549   4.391
    3OL    H12R  114   0.663   3.594   4.445
    3OL    H12S  115   0.719   3.447   4.366
    3OL    C113  116   0.771   3.630   4.262
    3OL    H13R  117   0.856   3.587   4.209
    3OL    H13S  118   0.796   3.733   4.287
    3OL    C114  119   0.646   3.628   4.171
    3OL    H14R  120   0.561   3.664   4.229
    3OL    H14S  121   0.623   3.526   4.141
    3OL    C115  122   0.662   3.718   4.047
    3OL    H15R  123   0.690   3.818   4.081
    3OL    H15S  124   0.565   3.727   3.997
    3OL    C116  125   0.767   3.668   3.945
    3OL    H16R  126   0.861   3.644   3.995
    3OL    H16S  127   0.787   3.749   3.874
    3OL    C117  128   0.717   3.546   3.866
    3OL    H17R  129   0.624   3.571   3.814
    3OL    H17S  130   0.695   3.463   3.934
    3OL    C118  131   0.822   3.500   3.764
    3OL    H18R  132   0.784   3.415   3.707
    3OL    H18S  133   0.914   3.470   3.814
    3OL    H18T  134   0.845   3.580   3.694
    1PA    C116  135   0.986   3.342   4.077
    1PA    H16R  136   0.889   3.381   4.046
    1PA    H16S  137   1.062   3.384   4.012
    1PA    H16T  138   1.005   3.375   4.179
    1PA    C115  139   0.987   3.188   4.067
    1PA    H15R  140   0.975   3.160   3.962
    1PA    H15S  141   1.083   3.149   4.101
    1PA    C114  142   0.872   3.125   4.148
    1PA    H14R  143   0.778   3.175   4.126
    1PA    H14S  144   0.861   3.020   4.117
    1PA    C113  145   0.899   3.129   4.300
    1PA    H13R  146   0.991   3.074   4.322
    1PA    H13S  147   0.913   3.232   4.333
    1PA    C112  148   0.782   3.067   4.378
    1PA    H12R  149   0.691   3.125   4.360
    1PA    H12S  150   0.764   2.965   4.343
    1PA    C111  151   0.812   3.065   4.529
    1PA    H11R  152   0.904   3.009   4.547
    1PA    H11S  153   0.828   3.166   4.565
    1PA    C110  154   0.697   3.000   4.609
    1PA    H10R  155   0.606   3.059   4.596
    1PA    H10S  156   0.678   2.900   4.571
    1PA     C19  157   0.735   2.992   4.758
    1PA     H9R  158   0.829   2.939   4.768
    1PA     H9S  159   0.750   3.092   4.799
    1PA     C18  160   0.628   2.918   4.842
    1PA     H8R  161   0.593   2.829   4.788
    1PA     H8S  162   0.676   2.883   4.934
    1PA     C17  163   0.509   3.009   4.878
    1PA     H7R  164   0.546   3.095   4.935
    1PA     H7S  165   0.464   3.048   4.786
    1PA     C16  166   0.400   2.937   4.959
    1PA     H6R  167   0.315   3.004   4.970
    1PA     H6S  168   0.365   2.849   4.904
    1PA     C15  169   0.450   2.894   5.100
    1PA     H5R  170   0.530   2.821   5.088
    1PA     H5S  171   0.492   2.980   5.152
    1PA     C14  172   0.338   2.828   5.184
    1PA     H4R  173   0.290   2.751   5.124
    1PA     H4S  174   0.383   2.778   5.270
    1PA     C13  175   0.231   2.928   5.234
    1PA     H3R  176   0.187   2.982   5.150
    1PA     H3S  177   0.149   2.871   5.280
    1PA     C12  178   0.285   3.030   5.337
    1PA     H2R  179   0.365   3.089   5.293
    1PA     H2S  180   0.206   3.100   5.364
    2PC     C11  181   0.334   2.962   5.463
    2PC     O12  182   0.263   2.897   5.537
    2PC     O11  183   0.465   2.985   5.484
    2PC      C1  184   0.531   2.927   5.600
    2PC      HR  185   0.630   2.971   5.611
    2PC      HS  186   0.473   2.950   5.690
    2PC      C2  187   0.545   2.773   5.585
    2PC      HX  188   0.446   2.728   5.576
    2PC      C3  189   0.617   2.715   5.708
    2PC      HA  190   0.558   2.740   5.798
    2PC      HB  191   0.625   2.606   5.701
    2PC     O31  192   0.749   2.774   5.718
    2PC     P31  193   0.820   2.785   5.860
    2PC     O32  194   0.960   2.718   5.827
    2PC     C31  195   1.080   2.791   5.859
    2PC     H1A  196   1.075   2.890   5.813
    2PC     H1B  197   1.091   2.802   5.967
    2PC     C32  198   1.200   2.714   5.799
    2PC     H2A  199   1.177   2.689   5.696
    2PC     H2B  200   1.288   2.779   5.799
    2PC     N31  201   1.243   2.585   5.865
    2PC     C33  202   1.128   2.490   5.882
    2PC     H3A  203   1.055   2.535   5.950
    2PC     H3B  204   1.083   2.472   5.784
    2PC     H3C  205   1.165   2.396   5.924
    2PC     C34  206   1.347   2.519   5.779
    2PC     H4A  207   1.433   2.587   5.770
    2PC     H4B  208   1.378   2.426   5.827
    2PC     H4C  209   1.303   2.499   5.681
    2PC     C35  210   1.305   2.611   6.000
    2PC     H5A  211   1.395   2.670   5.986
    2PC     H5B  212   1.329   2.514   6.045
    2PC     H5C  213   1.233   2.664   6.062
    2PC     O33  214   0.830   2.926   5.902
    2PC     O34  215   0.750   2.713   5.969
    2PC     O21  216   0.622   2.746   5.465
    2PC     C21  217   0.623   2.620   5.416
    2PC     O22  218   0.559   2.528   5.464
    3OL     C12  219   0.710   2.609   5.293
    3OL     H2R  220   0.812   2.636   5.319
    3OL     H2S  221   0.675   2.682   5.220
    3OL     C13  222   0.708   2.468   5.231
    3OL     H3R  223   0.608   2.445   5.194
    3OL     H3S  224   0.731   2.394   5.308
    3OL     C14  225   0.810   2.452   5.116
    3OL     H4R  226   0.802   2.350   5.076
    3OL     H4S  227   0.912   2.464   5.155
    3OL     C15  228   0.787   2.553   5.002
    3OL     H5R  229   0.807   2.654   5.038
    3OL     H5S  230   0.682   2.550   4.971
    3OL     C16  231   0.877   2.524   4.880
    3OL     H6R  232   0.857   2.423   4.844
    3OL     H6S  233   0.982   2.529   4.910
    3OL     C17  234   0.849   2.625   4.768
    3OL     H7R  235   0.878   2.725   4.802
    3OL     H7S  236   0.741   2.628   4.747
    3OL     C18  237   0.924   2.590   4.639
    3OL     H8R  238   0.897   2.489   4.609
    3OL     H8S  239   1.032   2.592   4.658
    3OL     C19  240   0.884   2.686   4.528
    3OL     H9R  241   0.778   2.708   4.524
    3OL    C110  242   0.965   2.747   4.442
    3OL    H10R  243   0.921   2.816   4.370
    3OL    C111  244   1.115   2.728   4.428
    3OL    H11R  245   1.151   2.650   4.496
    3OL    H11S  246   1.166   2.820   4.455
    3OL    C112  247   1.154   2.690   4.284
    3OL    H12R  248   1.102   2.598   4.255
    3OL    H12S  249   1.261   2.669   4.281
    3OL    C113  250   1.121   2.802   4.183
    3OL    H13R  251   1.173   2.894   4.212
    3OL    H13S  252   1.014   2.823   4.183
    3OL    C114  253   1.165   2.761   4.042
    3OL    H14R  254   1.110   2.671   4.011
    3OL    H14S  255   1.271   2.737   4.042
    3OL    C115  256   1.140   2.874   3.940
    3OL    H15R  257   1.192   2.964   3.974
    3OL    H15S  258   1.034   2.898   3.934
    3OL    C116  259   1.194   2.837   3.800
    3OL    H16R  260   1.294   2.795   3.809
    3OL    H16S  261   1.203   2.927   3.741
    3OL    C117  262   1.101   2.738   3.728
    3OL    H17R  263   1.002   2.782   3.717
    3OL    H17S  264   1.091   2.647   3.787
    3OL    C118  265   1.156   2.703   3.589
    3OL    H18R  266   1.254   2.656   3.597
    3OL    H18S  267   1.166   2.793   3.528
    3OL    H18T  268   1.089   2.634   3.538
    1PA    C116  269   0.846   4.343   4.292
    1PA    H16R  270   0.776   4.335   4.208
    1PA    H16S  271   0.916   4.259   4.287
    1PA    H16T  272   0.902   4.436   4.281
    1PA    C115  273   0.769   4.343   4.425
    1PA    H15R  274   0.839   4.351   4.509
    1PA    H15S  275   0.705   4.432   4.428
    1PA    C114  276   0.681   4.218   4.441
    1PA    H14R  277   0.607   4.238   4.519
    1PA    H14S  278   0.626   4.199   4.349
    1PA    C113  279   0.764   4.094   4.481
    1PA    H13R  280   0.842   4.078   4.407
    1PA    H13S  281   0.813   4.111   4.577
    1PA    C112  282   0.678   3.966   4.489
    1PA    H12R  283   0.622   3.953   4.396
    1PA    H12S  284   0.744   3.880   4.500
    1PA    C111  285   0.580   3.968   4.609
    1PA    H11R  286   0.637   3.981   4.701
    1PA    H11S  287   0.512   4.053   4.599
    1PA    C110  288   0.498   3.838   4.615
    1PA    H10R  289   0.447   3.825   4.519
    1PA    H10S  290   0.564   3.752   4.628
    1PA     C19  291   0.392   3.840   4.727
    1PA     H9R  292   0.329   3.928   4.716
    1PA     H9S  293   0.328   3.752   4.716
    1PA     C18  294   0.455   3.838   4.868
    1PA     H8R  295   0.522   3.752   4.877
    1PA     H8S  296   0.515   3.928   4.883
    1PA     C17  297   0.347   3.830   4.977
    1PA     H7R  298   0.277   3.913   4.965
    1PA     H7S  299   0.290   3.738   4.967
    1PA     C16  300   0.411   3.837   5.117
    1PA     H6R  301   0.487   3.759   5.125
    1PA     H6S  302   0.462   3.933   5.129
    1PA     C15  303   0.310   3.819   5.231
    1PA     H5R  304   0.254   3.726   5.218
    1PA     H5S  305   0.365   3.811   5.325
    1PA     C14  306   0.212   3.937   5.242
    1PA     H4R  307   0.269   4.031   5.248
    1PA     H4S  308   0.149   3.942   5.154
    1PA     C13  309   0.124   3.924   5.368
    1PA     H3R  310   0.068   3.830   5.364
    1PA     H3S  311   0.188   3.921   5.457
    1PA     C12  312   0.026   4.043   5.378
    1PA     H2R  313   0.082   4.136   5.377
    1PA     H2S  314   6.407   4.043   5.292
    2PC     C11  315   6.391   4.040   5.504
    2PC     O12  316   6.422   3.979   5.605
    2PC     O11  317   6.279   4.114   5.491
    2PC      C1  318   6.188   4.127   5.603
    2PC      HR  319   6.154   4.029   5.635
    2PC      HS  320   6.242   4.175   5.686
    2PC      C2  321   6.068   4.215   5.561
    2PC      HX  322   6.103   4.302   5.504
    2PC      C3  323   5.991   4.266   5.685
    2PC      HA  324   6.051   4.342   5.735
    2PC      HB  325   5.896   4.310   5.654
    2PC     O31  326   5.966   4.157   5.776
    2PC     P31  327   5.899   4.187   5.918
    2PC     O32  328   5.864   4.038   5.956
    2PC     C31  329   5.889   3.991   6.090
    2PC     H1A  330   5.996   3.998   6.111
    2PC     H1B  331   5.834   4.053   6.161
    2PC     C32  332   5.840   3.845   6.095
    2PC     H2A  333   5.732   3.843   6.078
    2PC     H2B  334   5.889   3.788   6.016
    2PC     N31  335   5.864   3.768   6.223
    2PC     C33  336   6.011   3.755   6.252
    2PC     H3A  337   6.058   3.704   6.168
    2PC     H3B  338   6.054   3.855   6.265
    2PC     H3C  339   6.024   3.698   6.344
    2PC     C34  340   5.795   3.835   6.339
    2PC     H4A  341   5.689   3.844   6.316
    2PC     H4B  342   5.810   3.774   6.428
    2PC     H4C  343   5.839   3.934   6.354
    2PC     C35  344   5.807   3.630   6.208
    2PC     H5A  345   5.699   3.640   6.191
    2PC     H5B  346   5.827   3.573   6.298
    2PC     H5C  347   5.854   3.583   6.121
    2PC     O33  348   5.994   4.253   6.011
    2PC     O34  349   5.776   4.268   5.908
    2PC     O21  350   5.976   4.136   5.479
    2PC     C21  351   5.998   4.129   5.346
    2PC     O22  352   6.082   4.194   5.286
    3OL     C12  353   5.900   4.036   5.277
    3OL     H2R  354   5.800   4.054   5.316
    3OL     H2S  355   5.927   3.933   5.301
    3OL     C13  356   5.899   4.057   5.123
    3OL     H3R  357   6.002   4.048   5.086
    3OL     H3S  358   5.865   4.158   5.099
    3OL     C14  359   5.812   3.953   5.049
    3OL     H4R  360   5.838   3.852   5.083
    3OL     H4S  361   5.836   3.959   4.943
    3OL     C15  362   5.661   3.977   5.067
    3OL     H5R  363   5.636   4.079   5.039
    3OL     H5S  364   5.633   3.963   5.172
    3OL     C16  365   5.582   3.878   4.979
    3OL     H6R  366   5.607   3.776   5.007
    3OL     H6S  367   5.612   3.891   4.875
    3OL     C17  368   5.429   3.898   4.990
    3OL     H7R  369   5.404   4.003   4.972
    3OL     H7S  370   5.396   3.873   5.090
    3OL     C18  371   5.357   3.810   4.886
    3OL     H8R  372   5.379   3.706   4.909
    3OL     H8S  373   5.398   3.831   4.788
    3OL     C19  374   5.207   3.830   4.890
    3OL     H9R  375   5.161   3.809   4.986
    3OL    C110  376   5.129   3.870   4.789
    3OL    H10R  377   5.022   3.880   4.806
    3OL    C111  378   5.175   3.897   4.647
    3OL    H11R  379   5.274   3.854   4.628
    3OL    H11S  380   5.183   4.005   4.631
    3OL    C112  381   5.076   3.839   4.545
    3OL    H12R  382   4.982   3.895   4.549
    3OL    H12S  383   5.055   3.735   4.568
    3OL    C113  384   5.137   3.848   4.403
    3OL    H13R  385   5.228   3.789   4.400
    3OL    H13S  386   5.164   3.952   4.382
    3OL    C114  387   5.039   3.798   4.295
    3OL    H14R  388   4.950   3.860   4.294
    3OL    H14S  389   5.009   3.695   4.318
    3OL    C115  390   5.109   3.802   4.158
    3OL    H15R  391   5.199   3.739   4.163
    3OL    H15S  392   5.142   3.904   4.137
    3OL    C116  393   5.019   3.751   4.044
    3OL    H16R  394   4.932   3.817   4.035
    3OL    H16S  395   4.984   3.650   4.067
    3OL    C117  396   5.097   3.750   3.911
    3OL    H17R  397   5.183   3.683   3.920
    3OL    H17S  398   5.136   3.850   3.890
    3OL    C118  399   5.009   3.704   3.794
    3OL    H18R  400   4.924   3.771   3.782
    3OL    H18S  401   4.971   3.603   3.812
    3OL    H18T  402   5.066   3.704   3.701
    1PA    C116  403   1.492   3.118   3.846
    1PA    H16R  404   1.588   3.085   3.884
    1PA    H16S  405   1.509   3.195   3.771
    1PA    H16T  406   1.444   3.033   3.796
    1PA    C115  407   1.403   3.171   3.959
    1PA    H15R  408   1.309   3.207   3.917
    1PA    H15S  409   1.379   3.089   4.027
    1PA    C114  410   1.473   3.285   4.037
    1PA    H14R  411   1.566   3.248   4.081
    1PA    H14S  412   1.500   3.364   3.966
    1PA    C113  413   1.382   3.344   4.146
    1PA    H13R  414   1.425   3.439   4.180
    1PA    H13S  415   1.284   3.367   4.104
    1PA    C112  416   1.368   3.251   4.268
    1PA    H12R  417   1.330   3.154   4.236
    1PA    H12S  418   1.466   3.235   4.313
    1PA    C111  419   1.272   3.311   4.373
    1PA    H11R  420   1.310   3.408   4.406
    1PA    H11S  421   1.174   3.326   4.328
    1PA    C110  422   1.260   3.216   4.494
    1PA    H10R  423   1.227   3.118   4.460
    1PA    H10S  424   1.358   3.204   4.540
    1PA     C19  425   1.160   3.270   4.598
    1PA     H9R  426   1.193   3.368   4.633
    1PA     H9S  427   1.062   3.282   4.553
    1PA     C18  428   1.151   3.173   4.717
    1PA     H8R  429   1.119   3.075   4.682
    1PA     H8S  430   1.251   3.161   4.762
    1PA     C17  431   1.053   3.222   4.826
    1PA     H7R  432   1.084   3.320   4.862
    1PA     H7S  433   0.953   3.233   4.783
    1PA     C16  434   1.050   3.121   4.942
    1PA     H6R  435   1.020   3.024   4.904
    1PA     H6S  436   1.151   3.111   4.983
    1PA     C15  437   0.954   3.163   5.054
    1PA     H5R  438   0.981   3.262   5.091
    1PA     H5S  439   0.852   3.169   5.015
    1PA     C14  440   0.960   3.061   5.170
    1PA     H4R  441   0.938   2.961   5.131
    1PA     H4S  442   1.061   3.060   5.211
    1PA     C13  443   0.858   3.096   5.280
    1PA     H3R  444   0.875   3.197   5.316
    1PA     H3S  445   0.758   3.093   5.238
    1PA     C12  446   0.866   2.996   5.398
    1PA     H2R  447   0.786   3.020   5.468
    1PA     H2S  448   0.849   2.894   5.363
    2PC     C11  449   0.996   3.001   5.476
    2PC     O12  450   1.044   2.902   5.528
    2PC     O11  451   1.047   3.125   5.487
    2PC      C1  452   1.164   3.149   5.570
    2PC      HR  453   1.181   3.257   5.575
    2PC      HS  454   1.144   3.113   5.672
    2PC      C2  455   1.291   3.081   5.513
    2PC      HX  456   1.275   2.973   5.504
    2PC      C3  457   1.412   3.106   5.606
    2PC      HA  458   1.395   3.055   5.701
    2PC      HB  459   1.504   3.066   5.562
    2PC     O31  460   1.428   3.248   5.631
    2PC     P31  461   1.519   3.295   5.753
    2PC     O32  462   1.654   3.216   5.723
    2PC     C31  463   1.764   3.231   5.814
    2PC     H1A  464   1.728   3.228   5.917
    2PC     H1B  465   1.833   3.147   5.798
    2PC     C32  466   1.837   3.364   5.783
    2PC     H2A  467   1.877   3.360   5.682
    2PC     H2B  468   1.765   3.446   5.788
    2PC     N31  469   1.950   3.404   5.873
    2PC     C33  470   2.052   3.294   5.885
    2PC     H3A  471   2.079   3.262   5.784
    2PC     H3B  472   2.139   3.333   5.937
    2PC     H3C  473   2.008   3.211   5.940
    2PC     C34  474   2.016   3.526   5.815
    2PC     H4A  475   2.058   3.499   5.717
    2PC     H4B  476   1.940   3.604   5.803
    2PC     H4C  477   2.095   3.559   5.882
    2PC     C35  478   1.899   3.437   6.010
    2PC     H5A  479   1.984   3.470   6.072
    2PC     H5B  480   1.853   3.348   6.054
    2PC     H5C  481   1.826   3.518   6.001
    2PC     O33  482   1.541   3.442   5.756
    2PC     O34  483   1.458   3.260   5.883
    2PC     O21  484   1.315   3.138   5.382
    2PC     C21  485   1.405   3.082   5.300
    2PC     O22  486   1.467   2.980   5.326
    3OL     C12  487   1.413   3.148   5.164
    3OL     H2R  488   1.351   3.092   5.095
    3OL     H2S  489   1.516   3.143   5.128
    3OL     C13  490   1.365   3.295   5.167
    3OL     H3R  491   1.423   3.351   5.241
    3OL     H3S  492   1.260   3.298   5.197
    3OL     C14  493   1.380   3.362   5.029
    3OL     H4R  494   1.327   3.304   4.954
    3OL     H4S  495   1.486   3.366   5.001
    3OL     C15  496   1.322   3.505   5.036
    3OL     H5R  497   1.375   3.564   5.111
    3OL     H5S  498   1.218   3.497   5.069
    3OL     C16  499   1.324   3.577   4.900
    3OL     H6R  500   1.253   3.659   4.906
    3OL     H6S  501   1.290   3.510   4.821
    3OL     C17  502   1.464   3.634   4.866
    3OL     H7R  503   1.535   3.552   4.853
    3OL     H7S  504   1.500   3.696   4.949
    3OL     C18  505   1.460   3.720   4.738
    3OL     H8R  506   1.431   3.657   4.654
    3OL     H8S  507   1.561   3.757   4.718
    3OL     C19  508   1.367   3.838   4.755
    3OL     H9R  509   1.390   3.901   4.841
    3OL    C110  510   1.258   3.864   4.682
    3OL    H10R  511   1.197   3.950   4.709
    3OL    C111  512   1.216   3.792   4.556
    3OL    H11R  513   1.149   3.709   4.581
    3OL    H11S  514   1.303   3.751   4.504
    3OL    C112  515   1.142   3.890   4.464
    3OL    H12R  516   1.197   3.984   4.462
    3OL    H12S  517   1.043   3.910   4.504
    3OL    C113  518   1.131   3.837   4.319
    3OL    H13R  519   1.072   3.745   4.317
    3OL    H13S  520   1.230   3.814   4.281
    3OL    C114  521   1.065   3.944   4.231
    3OL    H14R  522   1.117   4.039   4.244
    3OL    H14S  523   0.961   3.959   4.263
    3OL    C115  524   1.066   3.906   4.081
    3OL    H15R  525   1.004   3.818   4.064
    3OL    H15S  526   1.169   3.881   4.053
    3OL    C116  527   1.019   4.023   3.993
    3OL    H16R  528   1.045   4.002   3.889
    3OL    H16S  529   1.073   4.114   4.022
    3OL    C117  530   0.868   4.049   4.003
    3OL    H17R  531   0.838   4.064   4.106
    3OL    H17S  532   0.814   3.962   3.965
    3OL    C118  533   0.828   4.173   3.920
    3OL    H18R  534   0.880   4.261   3.957
    3OL    H18S  535   0.721   4.190   3.928
    3OL    H18T  536   0.854   4.158   3.815
    1PA    C116  537   0.575   3.176   3.867
    1PA    H16R  538   0.501   3.119   3.811
    1PA    H16S  539   0.660   3.111   3.889
    1PA    H16T  540   0.610   3.258   3.804
    1PA    C115  541   0.514   3.231   3.998
    1PA    H15R  542   0.589   3.288   4.052
    1PA    H15S  543   0.432   3.298   3.974
    1PA    C114  544   0.463   3.116   4.087
    1PA    H14R  545   0.386   3.060   4.033
    1PA    H14S  546   0.545   3.047   4.109
    1PA    C113  547   0.405   3.169   4.219
    1PA    H13R  548   0.482   3.221   4.276
    1PA    H13S  549   0.325   3.241   4.198
    1PA    C112  550   0.349   3.053   4.303
    1PA    H12R  551   0.274   2.999   4.245
    1PA    H12S  552   0.429   2.983   4.327
    1PA    C111  553   0.283   3.102   4.434
    1PA    H11R  554   0.358   3.154   4.495
    1PA    H11S  555   0.204   3.173   4.410
    1PA    C110  556   0.224   2.983   4.513
    1PA    H10R  557   0.153   2.930   4.449
    1PA    H10S  558   0.303   2.914   4.540
    1PA     C19  559   0.151   3.032   4.640
    1PA     H9R  560   0.223   3.080   4.707
    1PA     H9S  561   0.076   3.106   4.613
    1PA     C18  562   0.082   2.915   4.713
    1PA     H8R  563   0.017   2.862   4.644
    1PA     H8S  564   0.157   2.844   4.748
    1PA     C17  565   6.447   2.967   4.832
    1PA     H7R  566   0.065   3.013   4.906
    1PA     H7S  567   6.379   3.045   4.796
    1PA     C16  568   6.361   2.857   4.900
    1PA     H6R  569   6.295   2.906   4.971
    1PA     H6S  570   6.299   2.808   4.825
    1PA     C15  571   6.447   2.753   4.975
    1PA     H5R  572   0.057   2.693   4.904
    1PA     H5S  573   0.070   2.806   5.038
    1PA     C14  574   6.362   2.661   5.065
    1PA     H4R  575   6.429   2.607   5.132
    1PA     H4S  576   6.296   2.721   5.128
    1PA     C13  577   6.278   2.559   4.985
    1PA     H3R  578   6.206   2.612   4.922
    1PA     H3S  579   6.343   2.502   4.918
    1PA     C12  580   6.201   2.461   5.077
    1PA     H2R  581   6.137   2.519   5.145
    1PA     H2S  582   6.136   2.398   5.017
    2PC     C11  583   6.292   2.373   5.160
    2PC     O12  584   6.405   2.341   5.126
    2PC     O11  585   6.234   2.334   5.275
    2PC      C1  586   6.318   2.284   5.383
    2PC      HR  587   6.255   2.230   5.455
    2PC      HS  588   6.393   2.213   5.345
    2PC      C2  589   6.387   2.401   5.458
    2PC      HX  590   6.435   2.363   5.549
    2PC      C3  591   6.287   2.512   5.495
    2PC      HA  592   6.249   2.558   5.403
    2PC      HB  593   6.203   2.471   5.552
    2PC     O31  594   6.357   2.611   5.574
    2PC     P31  595   6.284   2.747   5.614
    2PC     O32  596   6.414   2.811   5.678
    2PC     C31  597   6.405   2.878   5.805
    2PC     H1A  598   6.337   2.824   5.871
    2PC     H1B  599   0.056   2.878   5.852
    2PC     C32  600   6.357   3.023   5.786
    2PC     H2A  601   6.261   3.023   5.734
    2PC     H2B  602   6.342   3.069   5.884
    2PC     N31  603   6.448   3.118   5.710
    2PC     C33  604   0.141   3.114   5.763
    2PC     H3A  605   0.138   3.134   5.870
    2PC     H3B  606   0.182   3.015   5.743
    2PC     H3C  607   0.199   3.190   5.711
    2PC     C34  608   6.448   3.086   5.563
    2PC     H4A  609   0.042   2.986   5.549
    2PC     H4B  610   6.345   3.088   5.527
    2PC     H4C  611   0.059   3.161   5.511
    2PC     C35  612   6.395   3.257   5.727
    2PC     H5A  613   0.011   3.326   5.672
    2PC     H5B  614   6.395   3.282   5.833
    2PC     H5C  615   6.293   3.260   5.688
    2PC     O33  616   6.230   2.829   5.503
    2PC     O34  617   6.175   2.727   5.712
    2PC     O21  618   0.039   2.462   5.372
    2PC     C21  619   0.158   2.402   5.352
    2PC     O22  620   0.195   2.301   5.410
    3OL     C12  621   0.241   2.477   5.251
    3OL     H2R  622   0.317   2.535   5.303
    3OL     H2S  623   0.177   2.548   5.199
    3OL     C13  624   0.307   2.383   5.148
    3OL     H3R  625   0.234   2.308   5.115
    3OL     H3S  626   0.390   2.330   5.195
    3OL     C14  627   0.356   2.462   5.025
    3OL     H4R  628   0.422   2.544   5.057
    3OL     H4S  629   0.270   2.507   4.975
    3OL     C15  630   0.432   2.371   4.927
    3OL     H5R  631   0.371   2.283   4.905
    3OL     H5S  632   0.524   2.336   4.975
    3OL     C16  633   0.465   2.443   4.795
    3OL     H6R  634   0.516   2.538   4.816
    3OL     H6S  635   0.372   2.467   4.743
    3OL     C17  636   0.555   2.355   4.706
    3OL     H7R  637   0.511   2.255   4.697
    3OL     H7S  638   0.651   2.343   4.755
    3OL     C18  639   0.576   2.414   4.566
    3OL     H8R  640   0.658   2.361   4.517
    3OL     H8S  641   0.606   2.519   4.575
    3OL     C19  642   0.449   2.405   4.483
    3OL     H9R  643   0.360   2.445   4.530
    3OL    C110  644   0.439   2.349   4.363
    3OL    H10R  645   0.341   2.346   4.315
    3OL    C111  646   0.553   2.293   4.281
    3OL    H11R  647   0.584   2.197   4.323
    3OL    H11S  648   0.638   2.361   4.283
    3OL    C112  649   0.507   2.271   4.135
    3OL    H12R  650   0.481   2.367   4.090
    3OL    H12S  651   0.418   2.209   4.135
    3OL    C113  652   0.617   2.203   4.051
    3OL    H13R  653   0.646   2.109   4.098
    3OL    H13S  654   0.705   2.267   4.047
    3OL    C114  655   0.566   2.175   3.908
    3OL    H14R  656   0.537   2.269   3.860
    3OL    H14S  657   0.477   2.111   3.913
    3OL    C115  658   0.674   2.105   3.823
    3OL    H15R  659   0.706   2.013   3.873
    3OL    H15S  660   0.761   2.170   3.814
    3OL    C116  661   0.620   2.070   3.683
    3OL    H16R  662   0.590   2.162   3.631
    3OL    H16S  663   0.531   2.007   3.692
    3OL    C117  664   0.727   1.997   3.599
    3OL    H17R  665   0.756   1.904   3.650
    3OL    H17S  666   0.816   2.059   3.590
    3OL    C118  667   0.674   1.963   3.459
    3OL    H18R  668   0.645   2.053   3.406
    3OL    H18S  669   0.587   1.897   3.465
    3OL    H18T  670   0.751   1.912   3.401
    1PA    C116  671   0.368   3.944   3.997
    1PA    H16R  672   0.351   3.839   3.972
    1PA    H16S  673   0.471   3.957   4.029
    1PA    H16T  674   0.352   4.004   3.906
    1PA    C115  675   0.271   3.990   4.107
    1PA    H15R  676   0.289   4.096   4.127
    1PA    H15S  677   0.168   3.981   4.071
    1PA    C114  678   0.289   3.911   4.238
    1PA    H14R  679   0.395   3.894   4.258
    1PA    H14S  680   0.249   3.970   4.320
    1PA    C113  681   0.213   3.776   4.233
    1PA    H13R  682   0.107   3.795   4.216
    1PA    H13S  683   0.250   3.715   4.151
    1PA    C112  684   0.229   3.698   4.366
    1PA    H12R  685   0.334   3.675   4.381
    1PA    H12S  686   0.196   3.761   4.449
    1PA    C111  687   0.147   3.567   4.362
    1PA    H11R  688   0.042   3.590   4.346
    1PA    H11S  689   0.181   3.507   4.278
    1PA    C110  690   0.163   3.484   4.492
    1PA    H10R  691   0.120   3.385   4.474
    1PA    H10S  692   0.270   3.470   4.513
    1PA     C19  693   0.092   3.548   4.613
    1PA     H9R  694   0.137   3.645   4.636
    1PA     H9S  695   6.435   3.567   4.586
    1PA     C18  696   0.094   3.458   4.738
    1PA     H8R  697   0.026   3.501   4.812
    1PA     H8S  698   0.056   3.359   4.713
    1PA     C17  699   0.235   3.445   4.801
    1PA     H7R  700   0.303   3.398   4.730
    1PA     H7S  701   0.274   3.545   4.823
    1PA     C16  702   0.230   3.361   4.930
    1PA     H6R  703   0.163   3.408   5.002
    1PA     H6S  704   0.188   3.263   4.906
    1PA     C15  705   0.369   3.340   4.994
    1PA     H5R  706   0.360   3.262   5.070
    1PA     H5S  707   0.439   3.305   4.918
    1PA     C14  708   0.424   3.469   5.060
    1PA     H4R  709   0.437   3.545   4.982
    1PA     H4S  710   0.352   3.508   5.132
    1PA     C13  711   0.561   3.445   5.127
    1PA     H3R  712   0.624   3.384   5.062
    1PA     H3S  713   0.612   3.541   5.139
    1PA     C12  714   0.550   3.378   5.266
    1PA     H2R  715   0.488   3.289   5.261
    1PA     H2S  716   0.650   3.347   5.299
    2PC     C11  717   0.494   3.471   5.371
    2PC     O12  718   0.383   3.461   5.419
    2PC     O11  719   0.579   3.571   5.402
    2PC      C1  720   0.544   3.661   5.511
    2PC      HR  721   0.446   3.706   5.494
    2PC      HS  722   0.543   3.605   5.605
    2PC      C2  723   0.652   3.770   5.517
    2PC      HX  724   0.749   3.722   5.509
    2PC      C3  725   0.647   3.851   5.648
    2PC      HA  726   0.680   3.788   5.731
    2PC      HB  727   0.715   3.937   5.641
    2PC     O31  728   0.513   3.899   5.676
    2PC     P31  729   0.494   4.003   5.795
    2PC     O32  730   0.509   3.909   5.921
    2PC     C31  731   0.397   3.828   5.963
    2PC     H1A  732   0.312   3.893   5.984
    2PC     H1B  733   0.371   3.758   5.883
    2PC     C32  734   0.437   3.752   6.091
    2PC     H2A  735   0.469   3.825   6.167
    2PC     H2B  736   0.350   3.699   6.130
    2PC     N31  737   0.549   3.650   6.081
    2PC     C33  738   0.509   3.538   5.989
    2PC     H3A  739   0.495   3.578   5.889
    2PC     H3B  740   0.590   3.464   5.988
    2PC     H3C  741   0.418   3.492   6.027
    2PC     C34  742   0.678   3.711   6.034
    2PC     H4A  743   0.755   3.634   6.036
    2PC     H4B  744   0.663   3.747   5.932
    2PC     H4C  745   0.704   3.793   6.101
    2PC     C35  746   0.574   3.593   6.218
    2PC     H5A  747   0.604   3.675   6.284
    2PC     H5B  748   0.653   3.519   6.211
    2PC     H5C  749   0.482   3.547   6.253
    2PC     O33  750   0.600   4.105   5.798
    2PC     O34  751   0.367   4.081   5.797
    2PC     O21  752   0.635   3.859   5.403
    2PC     C21  753   0.740   3.935   5.366
    2PC     O22  754   0.849   3.931   5.421
    3OL     C12  755   0.707   4.025   5.250
    3OL     H2R  756   0.615   4.080   5.275
    3OL     H2S  757   0.685   3.963   5.163
    3OL     C13  758   0.820   4.125   5.216
    3OL     H3R  759   0.908   4.072   5.179
    3OL     H3S  760   0.849   4.177   5.308
    3OL     C14  761   0.773   4.230   5.114
    3OL     H4R  762   0.843   4.314   5.115
    3OL     H4S  763   0.676   4.270   5.145
    3OL     C15  764   0.765   4.174   4.970
    3OL     H5R  765   0.707   4.082   4.967
    3OL     H5S  766   0.866   4.150   4.937
    3OL     C16  767   0.704   4.278   4.873
    3OL     H6R  768   0.735   4.255   4.771
    3OL     H6S  769   0.741   4.378   4.897
    3OL     C17  770   0.549   4.275   4.879
    3OL     H7R  771   0.515   4.285   4.982
    3OL     H7S  772   0.514   4.178   4.843
    3OL     C18  773   0.485   4.386   4.793
    3OL     H8R  774   0.379   4.364   4.782
    3OL     H8S  775   0.528   4.384   4.693
    3OL     C19  776   0.499   4.522   4.860
    3OL     H9R  777   0.437   4.535   4.948
    3OL    C110  778   0.577   4.622   4.821
    3OL    H10R  779   0.576   4.714   4.879
    3OL    C111  780   0.671   4.623   4.702
    3OL    H11R  781   0.670   4.528   4.649
    3OL    H11S  782   0.773   4.637   4.739
    3OL    C112  783   0.639   4.736   4.604
    3OL    H12R  784   0.708   4.731   4.520
    3OL    H12S  785   0.654   4.832   4.653
    3OL    C113  786   0.494   4.730   4.551
    3OL    H13R  787   0.423   4.741   4.633
    3OL    H13S  788   0.476   4.632   4.505
    3OL    C114  789   0.470   4.841   4.447
    3OL    H14R  790   0.537   4.826   4.362
    3OL    H14S  791   0.494   4.938   4.492
    3OL    C115  792   0.324   4.842   4.398
    3OL    H15R  793   0.257   4.862   4.482
    3OL    H15S  794   0.299   4.744   4.357
    3OL    C116  795   0.304   4.951   4.290
    3OL    H16R  796   0.369   4.931   4.205
    3OL    H16S  797   0.334   5.048   4.332
    3OL    C117  798   0.158   4.962   4.243
    3OL    H17R  799   0.147   5.051   4.182
    3OL    H17S  800   0.092   4.973   4.329
    3OL    C118  801   0.115   4.840   4.160
    3OL    H18R  802   0.181   4.826   4.074
    3OL    H18S  803   0.013   4.854   4.123
    3OL    H18T  804   0.117   4.748   4.220
    1PA    C116  805   5.322   2.395   3.484
    1PA    H16R  806   5.379   2.342   3.409
    1PA    H16S  807   5.350   2.501   3.480
    1PA    H16T  808   5.216   2.386   3.459
    1PA    C115  809   5.350   2.338   3.624
    1PA    H15R  810   5.323   2.232   3.627
    1PA    H15S  811   5.457   2.344   3.642
    1PA    C114  812   5.276   2.416   3.734
    1PA    H14R  813   5.328   2.402   3.829
    1PA    H14S  814   5.280   2.522   3.712
    1PA    C113  815   5.129   2.372   3.752
    1PA    H13R  816   5.077   2.451   3.806
    1PA    H13S  817   5.080   2.362   3.654
    1PA    C112  818   5.118   2.240   3.831
    1PA    H12R  819   5.169   2.160   3.776
    1PA    H12S  820   5.170   2.250   3.927
    1PA    C111  821   4.973   2.195   3.859
    1PA    H11R  822   4.921   2.176   3.764
    1PA    H11S  823   4.976   2.101   3.914
    1PA    C110  824   4.894   2.300   3.941
    1PA    H10R  825   4.954   2.333   4.026
    1PA    H10S  826   4.873   2.387   3.878
    1PA     C19  827   4.761   2.242   3.993
    1PA     H9R  828   4.705   2.197   3.910
    1PA     H9S  829   4.782   2.163   4.066
    1PA     C18  830   4.676   2.353   4.058
    1PA     H8R  831   4.734   2.406   4.133
    1PA     H8S  832   4.649   2.425   3.981
    1PA     C17  833   4.547   2.298   4.121
    1PA     H7R  834   4.475   2.380   4.130
    1PA     H7S  835   4.503   2.222   4.057
    1PA     C16  836   4.572   2.241   4.262
    1PA     H6R  837   4.646   2.160   4.257
    1PA     H6S  838   4.614   2.320   4.325
    1PA     C15  839   4.441   2.187   4.324
    1PA     H5R  840   4.365   2.266   4.326
    1PA     H5S  841   4.403   2.107   4.262
    1PA     C14  842   4.462   2.133   4.467
    1PA     H4R  843   4.372   2.079   4.497
    1PA     H4S  844   4.545   2.062   4.468
    1PA     C13  845   4.488   2.246   4.570
    1PA     H3R  846   4.580   2.300   4.543
    1PA     H3S  847   4.406   2.318   4.568
    1PA     C12  848   4.503   2.189   4.712
    1PA     H2R  849   4.411   2.139   4.742
    1PA     H2S  850   4.582   2.114   4.714
    2PC     C11  851   4.536   2.294   4.814
    2PC     O12  852   4.542   2.413   4.791
    2PC     O11  853   4.558   2.241   4.936
    2PC      C1  854   4.572   2.333   5.048
    2PC      HR  855   4.646   2.410   5.025
    2PC      HS  856   4.476   2.381   5.068
    2PC      C2  857   4.617   2.253   5.172
    2PC      HX  858   4.572   2.153   5.168
    2PC      C3  859   4.575   2.323   5.303
    2PC      HA  860   4.470   2.301   5.323
    2PC      HB  861   4.635   2.286   5.387
    2PC     O31  862   4.591   2.467   5.293
    2PC     P31  863   4.512   2.562   5.393
    2PC     O32  864   4.371   2.563   5.320
    2PC     C31  865   4.256   2.618   5.388
    2PC     H1A  866   4.169   2.599   5.325
    2PC     H1B  867   4.243   2.567   5.484
    2PC     C32  868   4.276   2.770   5.409
    2PC     H2A  869   4.331   2.786   5.501
    2PC     H2B  870   4.335   2.810   5.326
    2PC     N31  871   4.151   2.855   5.416
    2PC     C33  872   4.191   2.994   5.454
    2PC     H3A  873   4.101   3.056   5.461
    2PC     H3B  874   4.243   2.991   5.550
    2PC     H3C  875   4.257   3.033   5.376
    2PC     C34  876   4.084   2.860   5.282
    2PC     H4A  877   4.154   2.902   5.210
    2PC     H4B  878   4.055   2.759   5.253
    2PC     H4C  879   3.995   2.923   5.291
    2PC     C35  880   4.055   2.804   5.520
    2PC     H5A  881   3.970   2.873   5.525
    2PC     H5B  882   4.106   2.800   5.616
    2PC     H5C  883   4.021   2.704   5.491
    2PC     O33  884   4.502   2.512   5.532
    2PC     O34  885   4.574   2.696   5.401
    2PC     O21  886   4.762   2.240   5.164
    2PC     C21  887   4.826   2.149   5.241
    2PC     O22  888   4.771   2.075   5.321
    3OL     C12  889   4.974   2.146   5.213
    3OL     H2R  890   5.027   2.119   5.305
    3OL     H2S  891   5.007   2.245   5.183
    3OL     C13  892   5.006   2.045   5.102
    3OL     H3R  893   4.946   2.067   5.014
    3OL     H3S  894   4.980   1.944   5.136
    3OL     C14  895   5.156   2.049   5.064
    3OL     H4R  896   5.217   2.032   5.153
    3OL     H4S  897   5.180   2.148   5.025
    3OL     C15  898   5.188   1.942   4.957
    3OL     H5R  899   5.127   1.961   4.869
    3OL     H5S  900   5.162   1.844   4.996
    3OL     C16  901   5.338   1.945   4.919
    3OL     H6R  902   5.397   1.930   5.010
    3OL     H6S  903   5.364   2.044   4.880
    3OL     C17  904   5.374   1.836   4.817
    3OL     H7R  905   5.341   1.739   4.854
    3OL     H7S  906   5.483   1.832   4.808
    3OL     C18  907   5.313   1.862   4.678
    3OL     H8R  908   5.336   1.964   4.647
    3OL     H8S  909   5.204   1.854   4.683
    3OL     C19  910   5.371   1.767   4.574
    3OL     H9R  911   5.478   1.778   4.558
    3OL    C110  912   5.304   1.679   4.500
    3OL    H10R  913   5.359   1.619   4.428
    3OL    C111  914   5.156   1.647   4.510
    3OL    H11R  915   5.114   1.679   4.606
    3OL    H11S  916   5.144   1.538   4.506
    3OL    C112  917   5.075   1.709   4.394
    3OL    H12R  918   4.973   1.670   4.399
    3OL    H12S  919   5.118   1.678   4.299
    3OL    C113  920   5.072   1.864   4.403
    3OL    H13R  921   5.174   1.902   4.403
    3OL    H13S  922   5.028   1.893   4.499
    3OL    C114  923   4.994   1.932   4.289
    3OL    H14R  924   5.045   1.916   4.194
    3OL    H14S  925   4.996   2.040   4.307
    3OL    C115  926   4.846   1.887   4.278
    3OL    H15R  927   4.783   1.974   4.257
    3OL    H15S  928   4.813   1.848   4.375
    3OL    C116  929   4.823   1.781   4.168
    3OL    H16R  930   4.727   1.732   4.186
    3OL    H16S  931   4.900   1.704   4.173
    3OL    C117  932   4.820   1.845   4.028
    3OL    H17R  933   4.914   1.896   4.008
    3OL    H17S  934   4.740   1.919   4.022
    3OL    C118  935   4.798   1.738   3.919
    3OL    H18R  936   4.877   1.664   3.922
    3OL    H18S  937   4.798   1.785   3.820
    3OL    H18T  938   4.702   1.688   3.934
    1PA    C116  939   2.125   4.273   3.454
    1PA    H16R  940   2.202   4.208   3.414
    1PA    H16S  941   2.155   4.377   3.438
    1PA    H16T  942   2.032   4.255   3.399
    1PA    C115  943   2.104   4.247   3.604
    1PA    H15R  944   2.025   4.313   3.642
    1PA    H15S  945   2.070   4.144   3.618
    1PA    C114  946   2.234   4.271   3.683
    1PA    H14R  947   2.313   4.205   3.644
    1PA    H14S  948   2.266   4.374   3.670
    1PA    C113  949   2.212   4.242   3.833
    1PA    H13R  950   2.133   4.307   3.870
    1PA    H13S  951   2.178   4.139   3.845
    1PA    C112  952   2.341   4.262   3.914
    1PA    H12R  953   2.420   4.199   3.873
    1PA    H12S  954   2.375   4.366   3.907
    1PA    C111  955   2.319   4.224   4.062
    1PA    H11R  956   2.264   4.130   4.068
    1PA    H11S  957   2.416   4.208   4.110
    1PA    C110  958   2.244   4.335   4.139
    1PA    H10R  959   2.307   4.423   4.148
    1PA    H10S  960   2.155   4.365   4.082
    1PA     C19  961   2.199   4.288   4.278
    1PA     H9R  962   2.134   4.201   4.268
    1PA     H9S  963   2.286   4.259   4.337
    1PA     C18  964   2.123   4.401   4.350
    1PA     H8R  965   2.192   4.483   4.372
    1PA     H8S  966   2.045   4.440   4.285
    1PA     C17  967   2.058   4.351   4.480
    1PA     H7R  968   1.990   4.268   4.458
    1PA     H7S  969   2.135   4.314   4.548
    1PA     C16  970   1.980   4.466   4.547
    1PA     H6R  971   2.047   4.551   4.559
    1PA     H6S  972   1.899   4.498   4.481
    1PA     C15  973   1.924   4.428   4.685
    1PA     H5R  974   2.006   4.389   4.746
    1PA     H5S  975   1.889   4.519   4.734
    1PA     C14  976   1.809   4.326   4.682
    1PA     H4R  977   1.723   4.369   4.631
    1PA     H4S  978   1.840   4.236   4.627
    1PA     C13  979   1.773   4.288   4.826
    1PA     H3R  980   1.861   4.247   4.875
    1PA     H3S  981   1.743   4.378   4.881
    1PA     C12  982   1.659   4.184   4.834
    1PA     H2R  983   1.565   4.229   4.801
    1PA     H2S  984   1.681   4.100   4.768
    2PC     C11  985   1.641   4.132   4.975
    2PC     O12  986   1.591   4.024   5.000
    2PC     O11  987   1.678   4.220   5.070
    2PC      C1  988   1.672   4.183   5.210
    2PC      HR  989   1.691   4.272   5.270
    2PC      HS  990   1.571   4.147   5.233
    2PC      C2  991   1.776   4.075   5.245
    2PC      HX  992   1.756   3.983   5.188
    2PC      C3  993   1.770   4.045   5.396
    2PC      HA  994   1.667   4.020   5.425
    2PC      HB  995   1.834   3.961   5.423
    2PC     O31  996   1.811   4.165   5.467
    2PC     P31  997   1.813   4.165   5.626
    2PC     O32  998   1.969   4.165   5.654
    2PC     C31  999   2.045   4.046   5.626
    2PC     H1A 1000   2.010   3.964   5.690
    2PC     H1B 1001   2.031   4.019   5.521
    2PC     C32 1002   2.193   4.079   5.654
    2PC     H2A 1003   2.220   4.169   5.599
    2PC     H2B 1004   2.205   4.098   5.760
    2PC     N31 1005   2.297   3.976   5.617
    2PC     C33 1006   2.273   3.846   5.689
    2PC     H3A 1007   2.355   3.778   5.665
    2PC     H3B 1008   2.271   3.866   5.796
    2PC     H3C 1009   2.178   3.804   5.655
    2PC     C34 1010   2.299   3.951   5.469
    2PC     H4A 1011   2.201   3.914   5.438
    2PC     H4B 1012   2.321   4.045   5.418
    2PC     H4C 1013   2.376   3.877   5.447
    2PC     C35 1014   2.431   4.029   5.656
    2PC     H5A 1015   2.507   3.955   5.629
    2PC     H5B 1016   2.432   4.046   5.764
    2PC     H5C 1017   2.449   4.122   5.603
    2PC     O33 1018   1.745   4.287   5.677
    2PC     O34 1019   1.741   4.052   5.687
    2PC     O21 1020   1.908   4.126   5.210
    2PC     C21 1021   2.019   4.050   5.227
    2PC     O22 1022   2.018   3.936   5.268
    3OL     C12 1023   2.146   4.122   5.190
    3OL     H2R 1024   2.231   4.055   5.204
    3OL     H2S 1025   2.158   4.208   5.256
    3OL     C13 1026   2.143   4.171   5.044
    3OL     H3R 1027   2.057   4.236   5.029
    3OL     H3S 1028   2.130   4.085   4.977
    3OL     C14 1029   2.271   4.247   5.007
    3OL     H4R 1030   2.355   4.177   5.004
    3OL     H4S 1031   2.293   4.322   5.083
    3OL     C15 1032   2.255   4.314   4.870
    3OL     H5R 1033   2.170   4.383   4.876
    3OL     H5S 1034   2.231   4.239   4.795
    3OL     C16 1035   2.379   4.394   4.827
    3OL     H6R 1036   2.465   4.328   4.820
    3OL     H6S 1037   2.401   4.471   4.902
    3OL     C17 1038   2.351   4.461   4.691
    3OL     H7R 1039   2.262   4.523   4.698
    3OL     H7S 1040   2.332   4.383   4.617
    3OL     C18 1041   2.468   4.547   4.643
    3OL     H8R 1042   2.560   4.488   4.641
    3OL     H8S 1043   2.484   4.628   4.714
    3OL     C19 1044   2.435   4.607   4.508
    3OL     H9R 1045   2.347   4.670   4.507
    3OL    C110 1046   2.501   4.589   4.393
    3OL    H10R 1047   2.464   4.639   4.304
    3OL    C111 1048   2.626   4.507   4.372
    3OL    H11R 1049   2.660   4.458   4.464
    3OL    H11S 1050   2.706   4.573   4.340
    3OL    C112 1051   2.603   4.400   4.263
    3OL    H12R 1052   2.556   4.447   4.176
    3OL    H12S 1053   2.535   4.324   4.301
    3OL    C113 1054   2.736   4.336   4.220
    3OL    H13R 1055   2.785   4.291   4.306
    3OL    H13S 1056   2.802   4.415   4.182
    3OL    C114 1057   2.714   4.229   4.112
    3OL    H14R 1058   2.654   4.269   4.030
    3OL    H14S 1059   2.658   4.146   4.156
    3OL    C115 1060   2.849   4.175   4.057
    3OL    H15R 1061   2.831   4.081   4.006
    3OL    H15S 1062   2.917   4.155   4.140
    3OL    C116 1063   2.912   4.275   3.958
    3OL    H16R 1064   2.844   4.289   3.873
    3OL    H16S 1065   2.926   4.372   4.006
    3OL    C117 1066   3.048   4.226   3.906
    3OL    H17R 1067   3.036   4.129   3.857
    3OL    H17S 1068   3.117   4.212   3.990
    3OL    C118 1069   3.107   4.327   3.806
    3OL    H18R 1070   3.042   4.338   3.719
    3OL    H18S 1071   3.118   4.425   3.853
    3OL    H18T 1072   3.205   4.294   3.772
    1PA    C116 1073   6.228   3.692   5.339
    1PA    H16R 1074   6.336   3.676   5.341
    1PA    H16S 1075   6.181   3.617   5.403
    1PA    H16T 1076   6.207   3.791   5.379
    1PA    C115 1077   6.175   3.679   5.195
    1PA    H15R 1078   6.198   3.579   5.157
    1PA    H15S 1079   6.067   3.690   5.195
    1PA    C114 1080   6.238   3.785   5.103
    1PA    H14R 1081   6.215   3.885   5.140
    1PA    H14S 1082   6.347   3.773   5.103
    1PA    C113 1083   6.185   3.770   4.959
    1PA    H13R 1084   6.208   3.671   4.920
    1PA    H13S 1085   6.076   3.780   4.961
    1PA    C112 1086   6.241   3.877   4.863
    1PA    H12R 1087   6.185   3.873   4.769
    1PA    H12S 1088   6.226   3.976   4.906
    1PA    C111 1089   6.391   3.855   4.832
    1PA    H11R 1090   0.003   3.866   4.923
    1PA    H11S 1091   6.405   3.752   4.798
    1PA    C110 1092   6.443   3.949   4.722
    1PA    H10R 1093   0.097   3.919   4.695
    1PA    H10S 1094   6.382   3.936   4.632
    1PA     C19 1095   6.444   4.099   4.761
    1PA     H9R 1096   0.026   4.157   4.673
    1PA     H9S 1097   6.344   4.132   4.788
    1PA     C18 1098   0.094   4.130   4.876
    1PA     H8R 1099   0.061   4.079   4.967
    1PA     H8S 1100   0.193   4.091   4.850
    1PA     C17 1101   0.105   4.281   4.902
    1PA     H7R 1102   0.140   4.330   4.811
    1PA     H7S 1103   0.007   4.323   4.927
    1PA     C16 1104   0.205   4.310   5.016
    1PA     H6R 1105   0.288   4.239   5.010
    1PA     H6S 1106   0.248   4.410   5.003
    1PA     C15 1107   0.141   4.300   5.156
    1PA     H5R 1108   0.065   4.221   5.157
    1PA     H5S 1109   0.218   4.272   5.228
    1PA     C14 1110   0.079   4.434   5.199
    1PA     H4R 1111   0.157   4.511   5.199
    1PA     H4S 1112   0.003   4.464   5.127
    1PA     C13 1113   0.018   4.426   5.340
    1PA     H3R 1114   6.387   4.351   5.343
    1PA     H3S 1115   0.095   4.397   5.412
    1PA     C12 1116   6.407   4.563   5.379
    1PA     H2R 1117   0.036   4.640   5.369
    1PA     H2S 1118   6.326   4.589   5.310
    2PC     C11 1119   6.355   4.567   5.520
    2PC     O12 1120   6.425   4.551   5.619
    2PC     O11 1121   6.224   4.599   5.525
    2PC      C1 1122   6.165   4.643   5.651
    2PC      HR 1123   6.057   4.651   5.638
    2PC      HS 1124   6.187   4.570   5.730
    2PC      C2 1125   6.225   4.781   5.687
    2PC      HX 1126   6.333   4.772   5.699
    2PC      C3 1127   6.168   4.839   5.816
    2PC      HA 1128   6.063   4.868   5.803
    2PC      HB 1129   6.176   4.766   5.898
    2PC     O31 1130   6.249   4.955   5.846
    2PC     P31 1131   6.218   5.041   5.976
    2PC     O32 1132   6.267   5.183   5.926
    2PC     C31 1133   6.409   5.201   5.905
    2PC     H1A 1134   0.010   5.211   6.002
    2PC     H1B 1135   0.002   5.113   5.854
    2PC     C32 1136   6.432   5.326   5.819
    2PC     H2A 1137   6.409   5.415   5.878
    2PC     H2B 1138   0.090   5.330   5.792
    2PC     N31 1139   6.353   5.339   5.690
    2PC     C33 1140   6.347   5.209   5.615
    2PC     H3A 1141   0.001   5.178   5.590
    2PC     H3B 1142   6.298   5.134   5.678
    2PC     H3C 1143   6.289   5.225   5.524
    2PC     C34 1144   6.214   5.386   5.718
    2PC     H4A 1145   6.220   5.483   5.767
    2PC     H4B 1146   6.160   5.394   5.623
    2PC     H4C 1147   6.164   5.314   5.783
    2PC     C35 1148   6.419   5.440   5.601
    2PC     H5A 1149   0.074   5.408   5.580
    2PC     H5B 1150   6.419   5.536   5.654
    2PC     H5C 1151   6.362   5.448   5.509
    2PC     O33 1152   6.075   5.043   6.010
    2PC     O34 1153   6.288   4.992   6.097
    2PC     O21 1154   6.190   4.872   5.579
    2PC     C21 1155   6.287   4.911   5.494
    2PC     O22 1156   6.406   4.890   5.511
    3OL     C12 1157   6.234   4.982   5.373
    3OL     H2R 1158   6.310   5.052   5.338
    3OL     H2S 1159   6.145   5.040   5.400
    3OL     C13 1160   6.201   4.880   5.264
    3OL     H3R 1161   6.113   4.821   5.294
    3OL     H3S 1162   6.284   4.810   5.253
    3OL     C14 1163   6.176   4.948   5.128
    3OL     H4R 1164   6.265   5.004   5.099
    3OL     H4S 1165   6.093   5.018   5.136
    3OL     C15 1166   6.145   4.841   5.021
    3OL     H5R 1167   6.050   4.792   5.045
    3OL     H5S 1168   6.223   4.765   5.023
    3OL     C16 1169   6.138   4.903   4.881
    3OL     H6R 1170   6.232   4.953   4.858
    3OL     H6S 1171   6.058   4.978   4.876
    3OL     C17 1172   6.112   4.793   4.777
    3OL     H7R 1173   6.014   4.748   4.795
    3OL     H7S 1174   6.187   4.714   4.789
    3OL     C18 1175   6.119   4.846   4.633
    3OL     H8R 1176   6.218   4.885   4.614
    3OL     H8S 1177   6.049   4.929   4.623
    3OL     C19 1178   6.081   4.736   4.536
    3OL     H9R 1179   5.978   4.701   4.546
    3OL    C110 1180   6.160   4.677   4.446
    3OL    H10R 1181   6.118   4.598   4.385
    3OL    C111 1182   6.304   4.712   4.415
    3OL    H11R 1183   6.335   4.805   4.461
    3OL    H11S 1184   6.313   4.726   4.307
    3OL    C112 1185   6.401   4.598   4.456
    3OL    H12R 1186   0.050   4.615   4.410
    3OL    H12S 1187   6.363   4.504   4.415
    3OL    C113 1188   6.418   4.583   4.609
    3OL    H13R 1189   0.016   4.486   4.629
    3OL    H13S 1190   6.321   4.584   4.658
    3OL    C114 1191   0.061   4.694   4.666
    3OL    H14R 1192   0.016   4.792   4.649
    3OL    H14S 1193   0.157   4.692   4.614
    3OL    C115 1194   0.086   4.675   4.817
    3OL    H15R 1195   0.130   4.577   4.835
    3OL    H15S 1196   6.439   4.679   4.871
    3OL    C116 1197   0.181   4.785   4.870
    3OL    H16R 1198   0.138   4.883   4.854
    3OL    H16S 1199   0.274   4.780   4.813
    3OL    C117 1200   0.215   4.767   5.020
    3OL    H17R 1201   0.299   4.833   5.044
    3OL    H17S 1202   0.248   4.665   5.039
    3OL    C118 1203   0.097   4.803   5.111
    3OL    H18R 1204   0.063   4.905   5.092
    3OL    H18S 1205   0.127   4.796   5.216
    3OL    H18T 1206   0.014   4.734   5.095
    1PA    C116 1207   5.622   3.792   3.713
    1PA    H16R 1208   5.689   3.878   3.711
    1PA    H16S 1209   5.581   3.778   3.613
    1PA    H16T 1210   5.680   3.703   3.740
    1PA    C115 1211   5.509   3.814   3.815
    1PA    H15R 1212   5.453   3.904   3.787
    1PA    H15S 1213   5.440   3.730   3.811
    1PA    C114 1214   5.563   3.830   3.958
    1PA    H14R 1215   5.621   3.742   3.985
    1PA    H14S 1216   5.630   3.916   3.963
    1PA    C113 1217   5.447   3.849   4.057
    1PA    H13R 1218   5.389   3.936   4.026
    1PA    H13S 1219   5.381   3.762   4.053
    1PA    C112 1220   5.495   3.872   4.202
    1PA    H12R 1221   5.576   3.945   4.204
    1PA    H12S 1222   5.412   3.914   4.260
    1PA    C111 1223   5.540   3.741   4.271
    1PA    H11R 1224   5.458   3.669   4.271
    1PA    H11S 1225   5.623   3.697   4.215
    1PA    C110 1226   5.585   3.768   4.416
    1PA    H10R 1227   5.664   3.844   4.414
    1PA    H10S 1228   5.502   3.809   4.473
    1PA     C19 1229   5.638   3.641   4.485
    1PA     H9R 1230   5.557   3.568   4.495
    1PA     H9S 1231   5.716   3.596   4.422
    1PA     C18 1232   5.697   3.674   4.623
    1PA     H8R 1233   5.772   3.753   4.612
    1PA     H8S 1234   5.619   3.713   4.689
    1PA     C17 1235   5.764   3.551   4.688
    1PA     H7R 1236   5.688   3.477   4.713
    1PA     H7S 1237   5.831   3.506   4.614
    1PA     C16 1238   5.844   3.590   4.814
    1PA     H6R 1239   5.912   3.672   4.791
    1PA     H6S 1240   5.774   3.626   4.890
    1PA     C15 1241   5.926   3.472   4.873
    1PA     H5R 1242   5.971   3.506   4.967
    1PA     H5S 1243   5.859   3.389   4.897
    1PA     C14 1244   6.037   3.425   4.777
    1PA     H4R 1245   5.992   3.379   4.688
    1PA     H4S 1246   6.094   3.512   4.742
    1PA     C13 1247   6.137   3.324   4.839
    1PA     H3R 1248   6.207   3.295   4.761
    1PA     H3S 1249   6.196   3.374   4.916
    1PA     C12 1250   6.070   3.197   4.896
    1PA     H2R 1251   5.982   3.170   4.838
    1PA     H2S 1252   6.140   3.113   4.887
    2PC     C11 1253   6.033   3.209   5.042
    2PC     O12 1254   6.084   3.290   5.118
    2PC     O11 1255   5.937   3.122   5.079
    2PC      C1 1256   5.891   3.123   5.218
    2PC      HR 1257   5.831   3.033   5.236
    2PC      HS 1258   5.976   3.121   5.286
    2PC      C2 1259   5.804   3.248   5.241
    2PC      HX 1260   5.864   3.338   5.221
    2PC      C3 1261   5.749   3.254   5.385
    2PC      HA 1262   5.679   3.171   5.402
    2PC      HB 1263   5.831   3.249   5.457
    2PC     O31 1264   5.679   3.380   5.399
    2PC     P31 1265   5.614   3.420   5.538
    2PC     O32 1266   5.625   3.577   5.516
    2PC     C31 1267   5.616   3.663   5.630
    2PC     H1A 1268   5.518   3.652   5.677
    2PC     H1B 1269   5.694   3.635   5.702
    2PC     C32 1270   5.636   3.807   5.580
    2PC     H2A 1271   5.701   3.805   5.492
    2PC     H2B 1272   5.540   3.849   5.551
    2PC     N31 1273   5.700   3.904   5.676
    2PC     C33 1274   5.622   3.912   5.804
    2PC     H3A 1275   5.664   3.990   5.866
    2PC     H3B 1276   5.518   3.937   5.779
    2PC     H3C 1277   5.627   3.815   5.854
    2PC     C34 1278   5.842   3.862   5.703
    2PC     H4A 1279   5.842   3.768   5.757
    2PC     H4B 1280   5.894   3.851   5.607
    2PC     H4C 1281   5.891   3.940   5.762
    2PC     C35 1282   5.701   4.041   5.614
    2PC     H5A 1283   5.598   4.069   5.591
    2PC     H5B 1284   5.761   4.037   5.523
    2PC     H5C 1285   5.744   4.111   5.685
    2PC     O33 1286   5.473   3.380   5.556
    2PC     O34 1287   5.696   3.378   5.654
    2PC     O21 1288   5.693   3.239   5.149
    2PC     C21 1289   5.638   3.352   5.100
    2PC     O22 1290   5.683   3.464   5.117
    3OL     C12 1291   5.516   3.322   5.017
    3OL     H2R 1292   5.463   3.238   5.062
    3OL     H2S 1293   5.549   3.292   4.918
    3OL     C13 1294   5.421   3.443   5.008
    3OL     H3R 1295   5.478   3.531   4.978
    3OL     H3S 1296   5.380   3.463   5.108
    3OL     C14 1297   5.306   3.418   4.909
    3OL     H4R 1298   5.226   3.490   4.930
    3OL     H4S 1299   5.264   3.318   4.925
    3OL     C15 1300   5.352   3.435   4.763
    3OL     H5R 1301   5.433   3.366   4.741
    3OL     H5S 1302   5.390   3.536   4.749
    3OL     C16 1303   5.236   3.409   4.665
    3OL     H6R 1304   5.151   3.473   4.692
    3OL     H6S 1305   5.203   3.305   4.673
    3OL     C17 1306   5.279   3.440   4.521
    3OL     H7R 1307   5.365   3.378   4.493
    3OL     H7S 1308   5.310   3.544   4.514
    3OL     C18 1309   5.164   3.415   4.422
    3OL     H8R 1310   5.074   3.462   4.461
    3OL     H8S 1311   5.144   3.308   4.414
    3OL     C19 1312   5.196   3.476   4.287
    3OL     H9R 1313   5.222   3.582   4.291
    3OL    C110 1314   5.194   3.414   4.170
    3OL    H10R 1315   5.219   3.470   4.080
    3OL    C111 1316   5.163   3.268   4.149
    3OL    H11R 1317   5.062   3.246   4.184
    3OL    H11S 1318   5.234   3.207   4.206
    3OL    C112 1319   5.174   3.231   4.000
    3OL    H12R 1320   5.269   3.268   3.960
    3OL    H12S 1321   5.094   3.279   3.944
    3OL    C113 1322   5.168   3.078   3.980
    3OL    H13R 1323   5.074   3.039   4.020
    3OL    H13S 1324   5.250   3.031   4.035
    3OL    C114 1325   5.180   3.042   3.831
    3OL    H14R 1326   5.268   3.090   3.789
    3OL    H14S 1327   5.092   3.080   3.777
    3OL    C115 1328   5.190   2.889   3.811
    3OL    H15R 1329   5.104   2.841   3.857
    3OL    H15S 1330   5.279   2.851   3.863
    3OL    C116 1331   5.196   2.849   3.662
    3OL    H16R 1332   5.108   2.886   3.610
    3OL    H16S 1333   5.193   2.740   3.656
    3OL    C117 1334   5.324   2.900   3.593
    3OL    H17R 1335   5.412   2.866   3.648
    3OL    H17S 1336   5.325   3.009   3.591
    3OL    C118 1337   5.332   2.848   3.448
    3OL    H18R 1338   5.335   2.739   3.446
    3OL    H18S 1339   5.423   2.886   3.400
    3OL    H18T 1340   5.246   2.882   3.390
    1PA    C116 1341   6.021   3.745   4.394
    1PA    H16R 1342   5.959   3.765   4.306
    1PA    H16S 1343   6.118   3.795   4.381
    1PA    H16T 1344   5.972   3.788   4.481
    1PA    C115 1345   6.041   3.594   4.412
    1PA    H15R 1346   6.097   3.576   4.504
    1PA    H15S 1347   5.943   3.546   4.422
    1PA    C114 1348   6.116   3.532   4.292
    1PA    H14R 1349   6.061   3.555   4.201
    1PA    H14S 1350   6.215   3.578   4.282
    1PA    C113 1351   6.130   3.379   4.305
    1PA    H13R 1352   6.033   3.335   4.328
    1PA    H13S 1353   6.161   3.339   4.208
    1PA    C112 1354   6.235   3.340   4.411
    1PA    H12R 1355   6.329   3.389   4.386
    1PA    H12S 1356   6.205   3.376   4.510
    1PA    C111 1357   6.258   3.188   4.417
    1PA    H11R 1358   6.268   3.148   4.316
    1PA    H11S 1359   6.354   3.170   4.468
    1PA    C110 1360   6.148   3.112   4.493
    1PA    H10R 1361   6.135   3.154   4.593
    1PA    H10S 1362   6.052   3.121   4.440
    1PA     C19 1363   6.187   2.963   4.505
    1PA     H9R 1364   6.196   2.919   4.405
    1PA     H9S 1365   6.285   2.958   4.552
    1PA     C18 1366   6.088   2.881   4.591
    1PA     H8R 1367   6.141   2.792   4.625
    1PA     H8S 1368   6.060   2.938   4.679
    1PA     C17 1369   5.963   2.838   4.511
    1PA     H7R 1370   5.907   2.927   4.482
    1PA     H7S 1371   5.993   2.786   4.420
    1PA     C16 1372   5.872   2.746   4.595
    1PA     H6R 1373   5.857   2.789   4.695
    1PA     H6S 1374   5.773   2.741   4.548
    1PA     C15 1375   5.929   2.603   4.607
    1PA     H5R 1376   5.938   2.561   4.506
    1PA     H5S 1377   6.029   2.604   4.650
    1PA     C14 1378   5.839   2.509   4.690
    1PA     H4R 1379   5.735   2.519   4.658
    1PA     H4S 1380   5.869   2.406   4.672
    1PA     C13 1381   5.850   2.538   4.841
    1PA     H3R 1382   5.955   2.531   4.872
    1PA     H3S 1383   5.816   2.640   4.861
    1PA     C12 1384   5.766   2.438   4.923
    1PA     H2R 1385   5.661   2.443   4.891
    1PA     H2S 1386   5.801   2.337   4.906
    2PC     C11 1387   5.773   2.467   5.071
    2PC     O12 1388   5.867   2.435   5.142
    2PC     O11 1389   5.661   2.526   5.117
    2PC      C1 1390   5.652   2.563   5.258
    2PC      HR 1391   5.546   2.573   5.284
    2PC      HS 1392   5.694   2.483   5.320
    2PC      C2 1393   5.722   2.697   5.285
    2PC      HX 1394   5.826   2.696   5.250
    2PC      C3 1395   5.720   2.727   5.436
    2PC      HA 1396   5.616   2.730   5.471
    2PC      HB 1397   5.773   2.648   5.490
    2PC     O31 1398   5.784   2.853   5.464
    2PC     P31 1399   5.771   2.912   5.611
    2PC     O32 1400   5.630   2.983   5.595
    2PC     C31 1401   5.566   3.029   5.715
    2PC     H1A 1402   5.557   2.947   5.787
    2PC     H1B 1403   5.627   3.108   5.759
    2PC     C32 1404   5.426   3.085   5.679
    2PC     H2A 1405   5.381   3.127   5.769
    2PC     H2B 1406   5.437   3.164   5.605
    2PC     N31 1407   5.324   2.988   5.622
    2PC     C33 1408   5.305   2.870   5.713
    2PC     H3A 1409   5.225   2.808   5.672
    2PC     H3B 1410   5.398   2.813   5.717
    2PC     H3C 1411   5.278   2.906   5.812
    2PC     C34 1412   5.193   3.060   5.609
    2PC     H4A 1413   5.163   3.097   5.707
    2PC     H4B 1414   5.205   3.142   5.539
    2PC     H4C 1415   5.119   2.988   5.571
    2PC     C35 1416   5.364   2.940   5.486
    2PC     H5A 1417   5.457   2.885   5.494
    2PC     H5B 1418   5.376   3.027   5.420
    2PC     H5C 1419   5.285   2.875   5.448
    2PC     O33 1420   5.769   2.806   5.714
    2PC     O34 1421   5.879   3.004   5.651
    2PC     O21 1422   5.645   2.801   5.221
    2PC     C21 1423   5.679   2.843   5.098
    2PC     O22 1424   5.781   2.811   5.040
    3OL     C12 1425   5.571   2.932   5.041
    3OL     H2R 1426   5.577   3.030   5.089
    3OL     H2S 1427   5.475   2.890   5.071
    3OL     C13 1428   5.572   2.947   4.888
    3OL     H3R 1429   5.476   2.993   4.859
    3OL     H3S 1430   5.576   2.849   4.841
    3OL     C14 1431   5.687   3.035   4.835
    3OL     H4R 1432   5.780   2.979   4.834
    3OL     H4S 1433   5.701   3.122   4.900
    3OL     C15 1434   5.653   3.085   4.692
    3OL     H5R 1435   5.560   3.142   4.695
    3OL     H5S 1436   5.637   2.999   4.627
    3OL     C16 1437   5.765   3.174   4.635
    3OL     H6R 1438   5.854   3.113   4.614
    3OL     H6S 1439   5.793   3.248   4.710
    3OL     C17 1440   5.723   3.249   4.507
    3OL     H7R 1441   5.807   3.310   4.473
    3OL     H7S 1442   5.641   3.318   4.531
    3OL     C18 1443   5.678   3.157   4.392
    3OL     H8R 1444   5.589   3.102   4.422
    3OL     H8S 1445   5.757   3.085   4.371
    3OL     C19 1446   5.648   3.238   4.267
    3OL     H9R 1447   5.657   3.346   4.278
    3OL    C110 1448   5.615   3.186   4.149
    3OL    H10R 1449   5.597   3.252   4.065
    3OL    C111 1450   5.596   3.038   4.122
    3OL    H11R 1451   5.509   3.024   4.057
    3OL    H11S 1452   5.575   2.986   4.215
    3OL    C112 1453   5.720   2.979   4.053
    3OL    H12R 1454   5.809   2.998   4.115
    3OL    H12S 1455   5.736   3.029   3.958
    3OL    C113 1456   5.708   2.827   4.028
    3OL    H13R 1457   5.792   2.795   3.967
    3OL    H13S 1458   5.617   2.807   3.971
    3OL    C114 1459   5.707   2.746   4.159
    3OL    H14R 1460   5.619   2.772   4.218
    3OL    H14S 1461   5.795   2.771   4.218
    3OL    C115 1462   5.705   2.594   4.131
    3OL    H15R 1463   5.796   2.567   4.077
    3OL    H15S 1464   5.620   2.569   4.068
    3OL    C116 1465   5.696   2.515   4.263
    3OL    H16R 1466   5.603   2.541   4.314
    3OL    H16S 1467   5.778   2.544   4.330
    3OL    C117 1468   5.700   2.363   4.240
    3OL    H17R 1469   5.632   2.336   4.158
    3OL    H17S 1470   5.664   2.312   4.330
    3OL    C118 1471   5.842   2.313   4.210
    3OL    H18R 1472   5.910   2.340   4.291
    3OL    H18S 1473   5.880   2.358   4.118
    3OL    H18T 1474   5.842   2.205   4.198
    1PA    C116 1475   6.066   2.137   4.457
    1PA    H16R 1476   5.963   2.172   4.449
    1PA    H16S 1477   6.123   2.182   4.375
    1PA    H16T 1478   6.106   2.172   4.552
    1PA    C115 1479   6.070   1.984   4.449
    1PA    H15R 1480   6.010   1.942   4.530
    1PA    H15S 1481   6.026   1.951   4.355
    1PA    C114 1482   6.214   1.930   4.460
    1PA    H14R 1483   6.273   1.965   4.375
    1PA    H14S 1484   6.261   1.968   4.551
    1PA    C113 1485   6.214   1.776   4.464
    1PA    H13R 1486   6.167   1.742   4.556
    1PA    H13S 1487   6.156   1.737   4.380
    1PA    C112 1488   6.358   1.720   4.455
    1PA    H12R 1489   6.400   1.744   4.357
    1PA    H12S 1490   6.420   1.768   4.531
    1PA    C111 1491   6.358   1.567   4.477
    1PA    H11R 1492   6.332   1.546   4.581
    1PA    H11S 1493   6.280   1.523   4.415
    1PA    C110 1494   0.045   1.501   4.442
    1PA    H10R 1495   0.038   1.394   4.463
    1PA    H10S 1496   0.061   1.509   4.334
    1PA     C19 1497   0.168   1.561   4.514
    1PA     H9R 1498   0.257   1.508   4.481
    1PA     H9S 1499   0.180   1.665   4.482
    1PA     C18 1500   0.161   1.557   4.668
    1PA     H8R 1501   0.251   1.604   4.708
    1PA     H8S 1502   0.076   1.616   4.702
    1PA     C17 1503   0.152   1.413   4.725
    1PA     H7R 1504   0.059   1.366   4.692
    1PA     H7S 1505   0.234   1.354   4.685
    1PA     C16 1506   0.160   1.411   4.879
    1PA     H6R 1507   0.170   1.308   4.912
    1PA     H6S 1508   0.249   1.465   4.911
    1PA     C15 1509   0.036   1.474   4.946
    1PA     H5R 1510   0.027   1.579   4.917
    1PA     H5S 1511   6.393   1.422   4.912
    1PA     C14 1512   0.045   1.464   5.100
    1PA     H4R 1513   0.048   1.359   5.129
    1PA     H4S 1514   0.138   1.511   5.134
    1PA     C13 1515   6.373   1.533   5.167
    1PA     H3R 1516   6.372   1.638   5.139
    1PA     H3S 1517   6.281   1.488   5.130
    1PA     C12 1518   6.379   1.519   5.321
    1PA     H2R 1519   6.376   1.414   5.348
    1PA     H2S 1520   0.026   1.560   5.357
    2PC     C11 1521   6.267   1.591   5.393
    2PC     O12 1522   6.261   1.600   5.514
    2PC     O11 1523   6.171   1.642   5.311
    2PC      C1 1524   6.067   1.724   5.370
    2PC      HR 1525   5.985   1.734   5.298
    2PC      HS 1526   6.028   1.673   5.459
    2PC      C2 1527   6.123   1.863   5.408
    2PC      HX 1528   6.211   1.854   5.472
    2PC      C3 1529   6.016   1.945   5.483
    2PC      HA 1530   5.931   1.967   5.418
    2PC      HB 1531   5.980   1.888   5.570
    2PC     O31 1532   6.074   2.069   5.531
    2PC     P31 1533   5.982   2.173   5.610
    2PC     O32 1534   6.094   2.259   5.683
    2PC     C31 1535   6.066   2.311   5.815
    2PC     H1A 1536   5.973   2.368   5.813
    2PC     H1B 1537   6.056   2.227   5.885
    2PC     C32 1538   6.185   2.401   5.855
    2PC     H2A 1539   6.276   2.340   5.860
    2PC     H2B 1540   6.199   2.478   5.779
    2PC     N31 1541   6.177   2.475   5.987
    2PC     C33 1542   6.158   2.382   6.103
    2PC     H3A 1543   6.064   2.328   6.092
    2PC     H3B 1544   6.242   2.312   6.105
    2PC     H3C 1545   6.157   2.440   6.196
    2PC     C34 1546   6.304   2.552   6.009
    2PC     H4A 1547   6.317   2.620   5.924
    2PC     H4B 1548   6.296   2.608   6.102
    2PC     H4C 1549   6.387   2.481   6.015
    2PC     C35 1550   6.064   2.574   5.986
    2PC     H5A 1551   6.083   2.647   5.906
    2PC     H5B 1552   6.060   2.625   6.083
    2PC     H5C 1553   5.971   2.521   5.967
    2PC     O33 1554   5.898   2.253   5.518
    2PC     O34 1555   5.887   2.106   5.702
    2PC     O21 1556   6.156   1.935   5.285
    2PC     C21 1557   6.280   1.924   5.233
    2PC     O22 1558   6.369   1.856   5.280
    3OL     C12 1559   6.300   2.011   5.112
    3OL     H2R 1560   6.396   2.062   5.123
    3OL     H2S 1561   6.222   2.088   5.110
    3OL     C13 1562   6.298   1.931   4.980
    3OL     H3R 1563   6.196   1.899   4.957
    3OL     H3S 1564   6.358   1.840   4.993
    3OL     C14 1565   6.356   2.012   4.863
    3OL     H4R 1566   6.366   1.948   4.775
    3OL     H4S 1567   0.009   2.045   4.890
    3OL     C15 1568   6.269   2.134   4.826
    3OL     H5R 1569   6.248   2.193   4.915
    3OL     H5S 1570   6.173   2.099   4.787
    3OL     C16 1571   6.335   2.227   4.721
    3OL     H6R 1572   6.265   2.309   4.700
    3OL     H6S 1573   6.352   2.173   4.628
    3OL     C17 1574   0.020   2.286   4.772
    3OL     H7R 1575   0.099   2.212   4.763
    3OL     H7S 1576   0.011   2.311   4.878
    3OL     C18 1577   0.062   2.414   4.697
    3OL     H8R 1578   0.150   2.454   4.746
    3OL     H8S 1579   6.430   2.488   4.708
    3OL     C19 1580   0.094   2.389   4.551
    3OL     H9R 1581   0.144   2.294   4.530
    3OL    C110 1582   0.068   2.471   4.450
    3OL    H10R 1583   0.097   2.442   4.349
    3OL    C111 1584   0.001   2.607   4.461
    3OL    H11R 1585   0.067   2.684   4.420
    3OL    H11S 1586   6.431   2.634   4.564
    3OL    C112 1587   6.315   2.610   4.385
    3OL    H12R 1588   6.254   2.692   4.423
    3OL    H12S 1589   6.260   2.517   4.404
    3OL    C113 1590   6.337   2.629   4.233
    3OL    H13R 1591   6.402   2.551   4.194
    3OL    H13S 1592   6.386   2.725   4.217
    3OL    C114 1593   6.203   2.627   4.157
    3OL    H14R 1594   6.135   2.701   4.201
    3OL    H14S 1595   6.156   2.529   4.168
    3OL    C115 1596   6.225   2.660   4.008
    3OL    H15R 1597   6.297   2.591   3.964
    3OL    H15S 1598   6.268   2.760   4.001
    3OL    C116 1599   6.092   2.659   3.928
    3OL    H16R 1600   6.105   2.718   3.838
    3OL    H16S 1601   6.014   2.707   3.987
    3OL    C117 1602   6.047   2.516   3.889
    3OL    H17R 1603   5.943   2.520   3.857
    3OL    H17S 1604   6.052   2.450   3.975
    3OL    C118 1605   6.131   2.460   3.773
    3OL    H18R 1606   6.236   2.449   3.802
    3OL    H18S 1607   6.126   2.526   3.686
    3OL    H18T 1608   6.094   2.361   3.743
    1PA    C116 1609   3.864   6.417   3.607
    1PA    H16R 1610   3.960   0.016   3.584
    1PA    H16S 1611   3.822   0.019   3.694
    1PA    H16T 1612   3.797   6.432   3.522
    1PA    C115 1613   3.883   6.266   3.633
    1PA    H15R 1614   3.932   6.222   3.546
    1PA    H15S 1615   3.951   6.252   3.718
    1PA    C114 1616   3.749   6.193   3.658
    1PA    H14R 1617   3.679   6.220   3.579
    1PA    H14S 1618   3.765   6.085   3.651
    1PA    C113 1619   3.686   6.225   3.796
    1PA    H13R 1620   3.685   6.333   3.812
    1PA    H13S 1621   3.583   6.192   3.796
    1PA    C112 1622   3.760   6.155   3.912
    1PA    H12R 1623   3.757   6.047   3.897
    1PA    H12S 1624   3.865   6.185   3.912
    1PA    C111 1625   3.697   6.192   4.047
    1PA    H11R 1626   3.698   6.301   4.057
    1PA    H11S 1627   3.593   6.160   4.051
    1PA    C110 1628   3.776   6.132   4.166
    1PA    H10R 1629   3.883   6.142   4.147
    1PA    H10S 1630   3.753   6.191   4.255
    1PA     C19 1631   3.739   5.985   4.193
    1PA     H9R 1632   3.634   5.978   4.224
    1PA     H9S 1633   3.749   5.928   4.100
    1PA     C18 1634   3.830   5.921   4.300
    1PA     H8R 1635   3.807   5.814   4.305
    1PA     H8S 1636   3.934   5.930   4.269
    1PA     C17 1637   3.812   5.983   4.440
    1PA     H7R 1638   3.836   6.089   4.437
    1PA     H7S 1639   3.708   5.973   4.471
    1PA     C16 1640   3.904   5.913   4.542
    1PA     H6R 1641   3.879   5.807   4.547
    1PA     H6S 1642   4.007   5.921   4.508
    1PA     C15 1643   3.892   5.976   4.682
    1PA     H5R 1644   3.915   6.082   4.677
    1PA     H5S 1645   3.789   5.966   4.718
    1PA     C14 1646   3.988   5.907   4.780
    1PA     H4R 1647   3.966   5.800   4.783
    1PA     H4S 1648   4.091   5.919   4.744
    1PA     C13 1649   3.978   5.965   4.923
    1PA     H3R 1650   3.998   6.073   4.922
    1PA     H3S 1651   3.877   5.950   4.961
    1PA     C12 1652   4.080   5.894   5.014
    1PA     H2R 1653   4.069   5.786   5.003
    1PA     H2S 1654   4.182   5.919   4.982
    2PC     C11 1655   4.067   5.926   5.161
    2PC     O12 1656   4.014   6.026   5.207
    2PC     O11 1657   4.120   5.827   5.235
    2PC      C1 1658   4.116   5.832   5.380
    2PC      HR 1659   4.166   5.922   5.417
    2PC      HS 1660   4.013   5.831   5.414
    2PC      C2 1661   4.191   5.706   5.426
    2PC      HX 1662   4.155   5.622   5.367
    2PC      C3 1663   4.174   5.675   5.577
    2PC      HA 1664   4.069   5.658   5.601
    2PC      HB 1665   4.231   5.585   5.602
    2PC     O31 1666   4.221   5.786   5.656
    2PC     P31 1667   4.252   5.759   5.810
    2PC     O32 1668   4.111   5.717   5.869
    2PC     C31 1669   4.109   5.657   5.999
    2PC     H1A 1670   4.151   5.556   5.994
    2PC     H1B 1671   4.170   5.717   6.067
    2PC     C32 1672   3.964   5.655   6.051
    2PC     H2A 1673   3.965   5.634   6.159
    2PC     H2B 1674   3.920   5.754   6.036
    2PC     N31 1675   3.867   5.556   5.991
    2PC     C33 1676   3.857   5.570   5.841
    2PC     H3A 1677   3.954   5.548   5.797
    2PC     H3B 1678   3.781   5.500   5.805
    2PC     H3C 1679   3.827   5.673   5.818
    2PC     C34 1680   3.907   5.414   6.024
    2PC     H4A 1681   3.831   5.347   5.984
    2PC     H4B 1682   4.004   5.393   5.979
    2PC     H4C 1683   3.913   5.404   6.133
    2PC     C35 1684   3.731   5.581   6.049
    2PC     H5A 1685   3.660   5.511   6.003
    2PC     H5B 1686   3.702   5.684   6.026
    2PC     H5C 1687   3.735   5.566   6.157
    2PC     O33 1688   4.358   5.658   5.827
    2PC     O34 1689   4.304   5.882   5.873
    2PC     O21 1690   4.332   5.727   5.397
    2PC     C21 1691   4.415   5.621   5.395
    2PC     O22 1692   4.380   5.506   5.414
    3OL     C12 1693   4.556   5.668   5.366
    3OL     H2R 1694   4.580   5.747   5.437
    3OL     H2S 1695   4.558   5.712   5.266
    3OL     C13 1696   4.661   5.556   5.376
    3OL     H3R 1697   4.650   5.485   5.293
    3OL     H3S 1698   4.644   5.501   5.469
    3OL     C14 1699   4.805   5.613   5.380
    3OL     H4R 1700   4.872   5.536   5.419
    3OL     H4S 1701   4.808   5.697   5.449
    3OL     C15 1702   4.856   5.657   5.241
    3OL     H5R 1703   4.788   5.730   5.197
    3OL     H5S 1704   4.860   5.570   5.175
    3OL     C16 1705   4.997   5.718   5.255
    3OL     H6R 1706   5.063   5.646   5.304
    3OL     H6S 1707   4.991   5.807   5.319
    3OL     C17 1708   5.058   5.758   5.119
    3OL     H7R 1709   4.994   5.832   5.070
    3OL     H7S 1710   5.063   5.670   5.054
    3OL     C18 1711   5.199   5.816   5.138
    3OL     H8R 1712   5.263   5.742   5.187
    3OL     H8S 1713   5.193   5.901   5.206
    3OL     C19 1714   5.260   5.863   5.008
    3OL     H9R 1715   5.234   5.964   4.979
    3OL    C110 1716   5.345   5.795   4.931
    3OL    H10R 1717   5.384   5.843   4.841
    3OL    C111 1718   5.392   5.653   4.953
    3OL    H11R 1719   5.354   5.614   5.047
    3OL    H11S 1720   5.501   5.652   4.960
    3OL    C112 1721   5.349   5.560   4.838
    3OL    H12R 1722   5.241   5.563   4.828
    3OL    H12S 1723   5.376   5.458   4.865
    3OL    C113 1724   5.416   5.595   4.704
    3OL    H13R 1725   5.524   5.588   4.712
    3OL    H13S 1726   5.392   5.699   4.678
    3OL    C114 1727   5.366   5.505   4.589
    3OL    H14R 1728   5.404   5.545   4.495
    3OL    H14S 1729   5.257   5.509   4.584
    3OL    C115 1730   5.415   5.359   4.604
    3OL    H15R 1731   5.381   5.316   4.699
    3OL    H15S 1732   5.524   5.359   4.606
    3OL    C116 1733   5.367   5.269   4.488
    3OL    H16R 1734   5.423   5.175   4.492
    3OL    H16S 1735   5.390   5.316   4.392
    3OL    C117 1736   5.217   5.235   4.498
    3OL    H17R 1737   5.158   5.327   4.494
    3OL    H17S 1738   5.197   5.186   4.594
    3OL    C118 1739   5.174   5.142   4.383
    3OL    H18R 1740   5.190   5.190   4.287
    3OL    H18S 1741   5.068   5.118   4.392
    3OL    H18T 1742   5.230   5.049   4.386
    1PA    C116 1743   6.185   5.046   4.216
    1PA    H16R 1744   6.078   5.035   4.232
    1PA    H16S 1745   6.229   4.946   4.209
    1PA    H16T 1746   6.202   5.097   4.121
    1PA    C115 1747   6.250   5.124   4.332
    1PA    H15R 1748   6.236   5.067   4.424
    1PA    H15S 1749   6.357   5.134   4.314
    1PA    C114 1750   6.186   5.264   4.346
    1PA    H14R 1751   6.195   5.317   4.251
    1PA    H14S 1752   6.079   5.254   4.367
    1PA    C113 1753   6.252   5.349   4.457
    1PA    H13R 1754   6.358   5.363   4.434
    1PA    H13S 1755   6.206   5.448   4.457
    1PA    C112 1756   6.237   5.286   4.597
    1PA    H12R 1757   6.132   5.267   4.617
    1PA    H12S 1758   6.290   5.191   4.601
    1PA    C111 1759   6.294   5.380   4.706
    1PA    H11R 1760   6.395   5.409   4.678
    1PA    H11S 1761   6.234   5.471   4.711
    1PA    C110 1762   6.301   5.312   4.845
    1PA    H10R 1763   6.356   5.218   4.835
    1PA    H10S 1764   6.357   5.375   4.913
    1PA     C19 1765   6.162   5.282   4.907
    1PA     H9R 1766   6.097   5.234   4.833
    1PA     H9S 1767   6.177   5.210   4.988
    1PA     C18 1768   6.094   5.407   4.965
    1PA     H8R 1769   6.160   5.453   5.039
    1PA     H8S 1770   6.077   5.481   4.886
    1PA     C17 1771   5.960   5.370   5.030
    1PA     H7R 1772   5.893   5.330   4.954
    1PA     H7S 1773   5.976   5.291   5.104
    1PA     C16 1774   5.894   5.490   5.099
    1PA     H6R 1775   5.960   5.528   5.177
    1PA     H6S 1776   5.878   5.570   5.027
    1PA     C15 1777   5.759   5.449   5.162
    1PA     H5R 1778   5.692   5.415   5.083
    1PA     H5S 1779   5.775   5.366   5.231
    1PA     C14 1780   5.693   5.567   5.237
    1PA     H4R 1781   5.759   5.602   5.317
    1PA     H4S 1782   5.681   5.650   5.167
    1PA     C13 1783   5.554   5.529   5.293
    1PA     H3R 1784   5.504   5.620   5.327
    1PA     H3S 1785   5.493   5.488   5.213
    1PA     C12 1786   5.560   5.429   5.411
    1PA     H2R 1787   5.458   5.402   5.441
    1PA     H2S 1788   5.610   5.337   5.381
    2PC     C11 1789   5.630   5.487   5.531
    2PC     O12 1790   5.576   5.562   5.611
    2PC     O11 1791   5.759   5.447   5.541
    2PC      C1 1792   5.839   5.497   5.651
    2PC      HR 1793   5.944   5.469   5.636
    2PC      HS 1794   5.835   5.607   5.651
    2PC      C2 1795   5.791   5.441   5.787
    2PC      HX 1796   5.682   5.445   5.796
    2PC      C3 1797   5.852   5.524   5.902
    2PC      HA 1798   5.812   5.626   5.898
    2PC      HB 1799   5.828   5.480   5.999
    2PC     O31 1800   5.995   5.530   5.884
    2PC     P31 1801   6.081   5.622   5.981
    2PC     O32 1802   6.168   5.511   6.052
    2PC     C31 1803   6.131   5.471   6.185
    2PC     H1A 1804   6.146   5.555   6.253
    2PC     H1B 1805   6.026   5.440   6.186
    2PC     C32 1806   6.223   5.354   6.225
    2PC     H2A 1807   6.215   5.275   6.150
    2PC     H2B 1808   6.326   5.389   6.228
    2PC     N31 1809   6.195   5.289   6.359
    2PC     C33 1810   6.204   5.388   6.471
    2PC     H3A 1811   6.184   5.337   6.565
    2PC     H3B 1812   6.304   5.432   6.472
    2PC     H3C 1813   6.129   5.466   6.455
    2PC     C34 1814   6.059   5.225   6.359
    2PC     H4A 1815   5.984   5.304   6.347
    2PC     H4B 1816   6.053   5.154   6.277
    2PC     H4C 1817   6.044   5.175   6.455
    2PC     C35 1818   6.298   5.182   6.382
    2PC     H5A 1819   6.397   5.229   6.386
    2PC     H5B 1820   6.293   5.111   6.299
    2PC     H5C 1821   6.276   5.133   6.477
    2PC     O33 1822   6.167   5.715   5.905
    2PC     O34 1823   5.999   5.705   6.072
    2PC     O21 1824   5.838   5.304   5.803
    2PC     C21 1825   5.766   5.203   5.748
    2PC     O22 1826   5.658   5.217   5.693
    3OL     C12 1827   5.837   5.071   5.764
    3OL     H2R 1828   5.823   5.037   5.867
    3OL     H2S 1829   5.944   5.086   5.750
    3OL     C13 1830   5.787   4.962   5.667
    3OL     H3R 1831   5.679   4.950   5.678
    3OL     H3S 1832   5.833   4.867   5.694
    3OL     C14 1833   5.821   4.995   5.521
    3OL     H4R 1834   5.929   5.008   5.511
    3OL     H4S 1835   5.774   5.090   5.492
    3OL     C15 1836   5.774   4.883   5.426
    3OL     H5R 1837   5.667   4.867   5.438
    3OL     H5S 1838   5.824   4.790   5.455
    3OL     C16 1839   5.808   4.913   5.279
    3OL     H6R 1840   5.796   4.821   5.221
    3OL     H6S 1841   5.912   4.944   5.271
    3OL     C17 1842   5.716   5.021   5.218
    3OL     H7R 1843   5.730   5.116   5.270
    3OL     H7S 1844   5.612   4.991   5.230
    3OL     C18 1845   5.747   5.040   5.068
    3OL     H8R 1846   5.737   4.944   5.017
    3OL     H8S 1847   5.851   5.073   5.058
    3OL     C19 1848   5.654   5.142   5.006
    3OL     H9R 1849   5.597   5.201   5.077
    3OL    C110 1850   5.638   5.162   4.876
    3OL    H10R 1851   5.567   5.237   4.842
    3OL    C111 1852   5.711   5.088   4.765
    3OL    H11R 1853   5.637   5.035   4.704
    3OL    H11S 1854   5.780   5.014   4.804
    3OL    C112 1855   5.788   5.187   4.675
    3OL    H12R 1856   5.878   5.219   4.727
    3OL    H12S 1857   5.728   5.277   4.658
    3OL    C113 1858   5.826   5.125   4.539
    3OL    H13R 1859   5.860   5.022   4.554
    3OL    H13S 1860   5.908   5.182   4.497
    3OL    C114 1861   5.708   5.127   4.440
    3OL    H14R 1862   5.675   5.230   4.424
    3OL    H14S 1863   5.624   5.072   4.483
    3OL    C115 1864   5.747   5.064   4.305
    3OL    H15R 1865   5.773   4.959   4.319
    3OL    H15S 1866   5.836   5.115   4.267
    3OL    C116 1867   5.635   5.076   4.199
    3OL    H16R 1868   5.674   5.045   4.102
    3OL    H16S 1869   5.604   5.181   4.189
    3OL    C117 1870   5.511   4.990   4.232
    3OL    H17R 1871   5.467   5.022   4.327
    3OL    H17S 1872   5.540   4.886   4.242
    3OL    C118 1873   5.405   5.003   4.122
    3OL    H18R 1874   5.444   4.967   4.026
    3OL    H18S 1875   5.375   5.108   4.109
    3OL    H18T 1876   5.316   4.945   4.147
    1PA    C116 1877   1.888   3.219   4.084
    1PA    H16R 1878   1.896   3.327   4.100
    1PA    H16S 1879   1.807   3.201   4.013
    1PA    H16T 1880   1.981   3.183   4.040
    1PA    C115 1881   1.860   3.147   4.217
    1PA    H15R 1882   1.766   3.183   4.259
    1PA    H15S 1883   1.848   3.041   4.197
    1PA    C114 1884   1.974   3.170   4.318
    1PA    H14R 1885   2.069   3.135   4.275
    1PA    H14S 1886   1.983   3.277   4.335
    1PA    C113 1887   1.948   3.099   4.452
    1PA    H13R 1888   2.015   3.142   4.528
    1PA    H13S 1889   1.846   3.119   4.485
    1PA    C112 1890   1.973   2.947   4.445
    1PA    H12R 1891   1.909   2.903   4.369
    1PA    H12S 1892   2.076   2.928   4.416
    1PA    C111 1893   1.944   2.881   4.582
    1PA    H11R 1894   2.011   2.923   4.657
    1PA    H11S 1895   1.842   2.903   4.612
    1PA    C110 1896   1.964   2.729   4.574
    1PA    H10R 1897   1.898   2.686   4.499
    1PA    H10S 1898   2.067   2.708   4.544
    1PA     C19 1899   1.936   2.662   4.711
    1PA     H9R 1900   2.001   2.707   4.786
    1PA     H9S 1901   1.833   2.681   4.740
    1PA     C18 1902   1.961   2.510   4.705
    1PA     H8R 1903   1.893   2.463   4.634
    1PA     H8S 1904   2.063   2.493   4.668
    1PA     C17 1905   1.948   2.443   4.843
    1PA     H7R 1906   1.999   2.347   4.841
    1PA     H7S 1907   1.999   2.504   4.918
    1PA     C16 1908   1.801   2.420   4.885
    1PA     H6R 1909   1.746   2.515   4.883
    1PA     H6S 1910   1.753   2.352   4.815
    1PA     C15 1911   1.795   2.361   5.027
    1PA     H5R 1912   1.850   2.267   5.030
    1PA     H5S 1913   1.843   2.430   5.097
    1PA     C14 1914   1.649   2.337   5.072
    1PA     H4R 1915   1.592   2.429   5.062
    1PA     H4S 1916   1.603   2.262   5.006
    1PA     C13 1917   1.643   2.287   5.218
    1PA     H3R 1918   1.696   2.192   5.227
    1PA     H3S 1919   1.694   2.360   5.283
    1PA     C12 1920   1.497   2.270   5.265
    1PA     H2R 1921   1.442   2.363   5.247
    1PA     H2S 1922   1.449   2.192   5.206
    2PC     C11 1923   1.483   2.236   5.411
    2PC     O12 1924   1.377   2.247   5.470
    2PC     O11 1925   1.594   2.184   5.467
    2PC      C1 1926   1.589   2.138   5.606
    2PC      HR 1927   1.691   2.123   5.641
    2PC      HS 1928   1.543   2.215   5.668
    2PC      C2 1929   1.511   2.006   5.617
    2PC      HX 1930   1.408   2.021   5.583
    2PC      C3 1931   1.508   1.953   5.762
    2PC      HA 1932   1.459   2.027   5.826
    2PC      HB 1933   1.451   1.860   5.767
    2PC     O31 1934   1.643   1.930   5.811
    2PC     P31 1935   1.663   1.864   5.955
    2PC     O32 1936   1.636   1.982   6.057
    2PC     C31 1937   1.507   1.989   6.121
    2PC     H1A 1938   1.430   2.005   6.045
    2PC     H1B 1939   1.484   1.895   6.173
    2PC     C32 1940   1.505   2.107   6.221
    2PC     H2A 1941   1.537   2.198   6.170
    2PC     H2B 1942   1.402   2.121   6.255
    2PC     N31 1943   1.588   2.096   6.347
    2PC     C33 1944   1.553   1.972   6.425
    2PC     H3A 1945   1.446   1.972   6.445
    2PC     H3B 1946   1.580   1.884   6.365
    2PC     H3C 1947   1.609   1.972   6.518
    2PC     C34 1948   1.735   2.095   6.316
    2PC     H4A 1949   1.790   2.093   6.410
    2PC     H4B 1950   1.756   2.007   6.256
    2PC     H4C 1951   1.758   2.186   6.260
    2PC     C35 1952   1.558   2.215   6.433
    2PC     H5A 1953   1.451   2.215   6.456
    2PC     H5B 1954   1.585   2.305   6.377
    2PC     H5C 1955   1.617   2.209   6.524
    2PC     O33 1956   1.574   1.748   5.977
    2PC     O34 1957   1.801   1.814   5.972
    2PC     O21 1958   1.577   1.910   5.529
    2PC     C21 1959   1.519   1.793   5.500
    2PC     O22 1960   1.419   1.748   5.552
    3OL     C12 1961   1.591   1.722   5.388
    3OL     H2R 1962   1.599   1.616   5.414
    3OL     H2S 1963   1.692   1.761   5.379
    3OL     C13 1964   1.517   1.736   5.254
    3OL     H3R 1965   1.419   1.689   5.263
    3OL     H3S 1966   1.573   1.682   5.178
    3OL     C14 1967   1.500   1.884   5.213
    3OL     H4R 1968   1.596   1.935   5.209
    3OL     H4S 1969   1.439   1.936   5.288
    3OL     C15 1970   1.428   1.899   5.077
    3OL     H5R 1971   1.403   2.004   5.061
    3OL     H5S 1972   1.334   1.843   5.079
    3OL     C16 1973   1.515   1.850   4.958
    3OL     H6R 1974   1.547   1.748   4.975
    3OL     H6S 1975   1.604   1.913   4.949
    3OL     C17 1976   1.434   1.856   4.827
    3OL     H7R 1977   1.408   1.959   4.803
    3OL     H7S 1978   1.341   1.801   4.842
    3OL     C18 1979   1.511   1.792   4.710
    3OL     H8R 1980   1.555   1.698   4.744
    3OL     H8S 1981   1.593   1.858   4.679
    3OL     C19 1982   1.416   1.763   4.596
    3OL     H9R 1983   1.315   1.737   4.627
    3OL    C110 1984   1.445   1.765   4.466
    3OL    H10R 1985   1.365   1.742   4.395
    3OL    C111 1986   1.578   1.798   4.404
    3OL    H11R 1987   1.637   1.706   4.396
    3OL    H11S 1988   1.634   1.870   4.464
    3OL    C112 1989   1.557   1.855   4.262
    3OL    H12R 1990   1.496   1.945   4.270
    3OL    H12S 1991   1.499   1.784   4.202
    3OL    C113 1992   1.688   1.891   4.190
    3OL    H13R 1993   1.747   1.957   4.255
    3OL    H13S 1994   1.665   1.948   4.100
    3OL    C114 1995   1.776   1.769   4.152
    3OL    H14R 1996   1.798   1.711   4.242
    3OL    H14S 1997   1.872   1.806   4.115
    3OL    C115 1998   1.714   1.676   4.046
    3OL    H15R 1999   1.613   1.647   4.075
    3OL    H15S 2000   1.773   1.585   4.042
    3OL    C116 2001   1.712   1.741   3.905
    3OL    H16R 2002   1.814   1.763   3.874
    3OL    H16S 2003   1.658   1.836   3.909
    3OL    C117 2004   1.644   1.651   3.800
    3OL    H17R 2005   1.636   1.707   3.706
    3OL    H17S 2006   1.542   1.627   3.832
    3OL    C118 2007   1.721   1.521   3.773
    3OL    H18R 2008   1.678   1.468   3.688
    3OL    H18S 2009   1.718   1.455   3.860
    3OL    H18T 2010   1.826   1.543   3.750
    1PA    C116 2011   1.531   5.413   3.858
    1PA    H16R 2012   1.499   5.516   3.871
    1PA    H16S 2013   1.444   5.351   3.837
    1PA    H16T 2014   1.599   5.408   3.772
    1PA    C115 2015   1.603   5.362   3.984
    1PA    H15R 2016   1.636   5.259   3.968
    1PA    H15S 2017   1.691   5.424   4.003
    1PA    C114 2018   1.509   5.368   4.106
    1PA    H14R 2019   1.481   5.472   4.125
    1PA    H14S 2020   1.418   5.312   4.085
    1PA    C113 2021   1.578   5.309   4.230
    1PA    H13R 2022   1.604   5.205   4.212
    1PA    H13S 2023   1.670   5.364   4.251
    1PA    C112 2024   1.484   5.318   4.352
    1PA    H12R 2025   1.464   5.423   4.374
    1PA    H12S 2026   1.389   5.270   4.329
    1PA    C111 2027   1.547   5.251   4.475
    1PA    H11R 2028   1.568   5.147   4.453
    1PA    H11S 2029   1.641   5.301   4.500
    1PA    C110 2030   1.450   5.260   4.595
    1PA    H10R 2031   1.431   5.364   4.621
    1PA    H10S 2032   1.355   5.216   4.566
    1PA     C19 2033   1.503   5.184   4.718
    1PA     H9R 2034   1.421   5.175   4.789
    1PA     H9S 2035   1.534   5.083   4.690
    1PA     C18 2036   1.621   5.258   4.787
    1PA     H8R 2037   1.704   5.267   4.716
    1PA     H8S 2038   1.590   5.358   4.814
    1PA     C17 2039   1.671   5.184   4.912
    1PA     H7R 2040   1.699   5.082   4.886
    1PA     H7S 2041   1.761   5.233   4.949
    1PA     C16 2042   1.566   5.184   5.025
    1PA     H6R 2043   1.544   5.286   5.055
    1PA     H6S 2044   1.473   5.138   4.990
    1PA     C15 2045   1.616   5.104   5.147
    1PA     H5R 2046   1.642   5.002   5.117
    1PA     H5S 2047   1.706   5.150   5.188
    1PA     C14 2048   1.506   5.099   5.255
    1PA     H4R 2049   1.487   5.200   5.292
    1PA     H4S 2050   1.414   5.062   5.209
    1PA     C13 2051   1.547   5.007   5.372
    1PA     H3R 2052   1.563   4.905   5.336
    1PA     H3S 2053   1.642   5.043   5.413
    1PA     C12 2054   1.442   5.006   5.485
    1PA     H2R 2055   1.487   4.962   5.574
    1PA     H2S 2056   1.412   5.107   5.510
    2PC     C11 2057   1.318   4.926   5.452
    2PC     O12 2058   1.258   4.933   5.346
    2PC     O11 2059   1.280   4.849   5.556
    2PC      C1 2060   1.180   4.745   5.534
    2PC      HR 2061   1.125   4.731   5.627
    2PC      HS 2062   1.109   4.776   5.456
    2PC      C2 2063   1.249   4.613   5.495
    2PC      HX 2064   1.172   4.540   5.470
    2PC      C3 2065   1.337   4.560   5.611
    2PC      HA 2066   1.381   4.464   5.583
    2PC      HB 2067   1.416   4.631   5.633
    2PC     O31 2068   1.253   4.542   5.727
    2PC     P31 2069   1.316   4.485   5.862
    2PC     O32 2070   1.249   4.341   5.871
    2PC     C31 2071   1.216   4.266   5.752
    2PC     H1A 2072   1.152   4.328   5.688
    2PC     H1B 2073   1.307   4.239   5.699
    2PC     C32 2074   1.139   4.140   5.797
    2PC     H2A 2075   1.207   4.071   5.846
    2PC     H2B 2076   1.062   4.169   5.869
    2PC     N31 2077   1.066   4.062   5.689
    2PC     C33 2078   0.954   4.144   5.632
    2PC     H3A 2079   0.997   4.234   5.587
    2PC     H3B 2080   0.902   4.086   5.557
    2PC     H3C 2081   0.887   4.172   5.713
    2PC     C34 2082   1.159   4.019   5.579
    2PC     H4A 2083   1.200   4.108   5.531
    2PC     H4B 2084   1.239   3.958   5.621
    2PC     H4C 2085   1.101   3.962   5.506
    2PC     C35 2086   1.006   3.938   5.750
    2PC     H5A 2087   0.933   3.969   5.826
    2PC     H5B 2088   1.085   3.879   5.796
    2PC     H5C 2089   0.957   3.881   5.671
    2PC     O33 2090   1.465   4.479   5.866
    2PC     O34 2091   1.270   4.567   5.977
    2PC     O21 2092   1.335   4.637   5.380
    2PC     C21 2093   1.374   4.533   5.304
    2PC     O22 2094   1.324   4.422   5.309
    3OL     C12 2095   1.485   4.569   5.208
    3OL     H2R 2096   1.527   4.478   5.165
    3OL     H2S 2097   1.564   4.618   5.266
    3OL     C13 2098   1.437   4.664   5.097
    3OL     H3R 2099   1.384   4.749   5.142
    3OL     H3S 2100   1.366   4.612   5.032
    3OL     C14 2101   1.556   4.717   5.015
    3OL     H4R 2102   1.612   4.634   4.970
    3OL     H4S 2103   1.624   4.768   5.084
    3OL     C15 2104   1.512   4.818   4.907
    3OL     H5R 2105   1.594   4.886   4.886
    3OL     H5S 2106   1.430   4.879   4.946
    3OL     C16 2107   1.467   4.751   4.775
    3OL     H6R 2108   1.404   4.821   4.721
    3OL     H6S 2109   1.408   4.662   4.796
    3OL     C17 2110   1.587   4.715   4.685
    3OL     H7R 2111   1.649   4.638   4.732
    3OL     H7S 2112   1.650   4.804   4.671
    3OL     C18 2113   1.539   4.666   4.547
    3OL     H8R 2114   1.471   4.741   4.504
    3OL     H8S 2115   1.481   4.575   4.560
    3OL     C19 2116   1.655   4.639   4.454
    3OL     H9R 2117   1.701   4.542   4.466
    3OL    C110 2118   1.697   4.720   4.357
    3OL    H10R 2119   1.779   4.688   4.293
    3OL    C111 2120   1.644   4.860   4.330
    3OL    H11R 2121   1.727   4.924   4.297
    3OL    H11S 2122   1.605   4.904   4.421
    3OL    C112 2123   1.533   4.860   4.222
    3OL    H12R 2124   1.495   4.962   4.212
    3OL    H12S 2125   1.451   4.798   4.257
    3OL    C113 2126   1.583   4.808   4.085
    3OL    H13R 2127   1.628   4.710   4.098
    3OL    H13S 2128   1.660   4.875   4.045
    3OL    C114 2129   1.466   4.795   3.985
    3OL    H14R 2130   1.381   4.746   4.034
    3OL    H14S 2131   1.499   4.729   3.904
    3OL    C115 2132   1.423   4.930   3.925
    3OL    H15R 2133   1.504   4.972   3.865
    3OL    H15S 2134   1.402   5.001   4.005
    3OL    C116 2135   1.295   4.917   3.838
    3OL    H16R 2136   1.263   5.017   3.809
    3OL    H16S 2137   1.215   4.873   3.898
    3OL    C117 2138   1.317   4.833   3.710
    3OL    H17R 2139   1.349   4.732   3.736
    3OL    H17S 2140   1.396   4.878   3.649
    3OL    C118 2141   1.188   4.824   3.628
    3OL    H18R 2142   1.153   4.924   3.598
    3OL    H18S 2143   1.109   4.776   3.686
    3OL    H18T 2144   1.205   4.765   3.537
    1PA    C116 2145   2.374   2.695   3.836
    1PA    H16R 2146   2.394   2.701   3.943
    1PA    H16S 2147   2.335   2.595   3.815
    1PA    H16T 2148   2.296   2.768   3.811
    1PA    C115 2149   2.501   2.720   3.753
    1PA    H15R 2150   2.578   2.647   3.780
    1PA    H15S 2151   2.478   2.705   3.648
    1PA    C114 2152   2.556   2.863   3.772
    1PA    H14R 2153   2.632   2.882   3.697
    1PA    H14S 2154   2.476   2.936   3.756
    1PA    C113 2155   2.619   2.884   3.911
    1PA    H13R 2156   2.545   2.865   3.989
    1PA    H13S 2157   2.701   2.813   3.925
    1PA    C112 2158   2.673   3.028   3.926
    1PA    H12R 2159   2.750   3.045   3.851
    1PA    H12S 2160   2.592   3.099   3.908
    1PA    C111 2161   2.731   3.051   4.067
    1PA    H11R 2162   2.655   3.027   4.142
    1PA    H11S 2163   2.816   2.983   4.083
    1PA    C110 2164   2.778   3.197   4.083
    1PA    H10R 2165   2.851   3.219   4.006
    1PA    H10S 2166   2.694   3.264   4.069
    1PA     C19 2167   2.843   3.223   4.221
    1PA     H9R 2168   2.925   3.153   4.236
    1PA     H9S 2169   2.886   3.324   4.220
    1PA     C18 2170   2.743   3.213   4.337
    1PA     H8R 2171   2.659   3.281   4.320
    1PA     H8S 2172   2.703   3.112   4.343
    1PA     C17 2173   2.811   3.248   4.471
    1PA     H7R 2174   2.894   3.179   4.489
    1PA     H7S 2175   2.851   3.349   4.466
    1PA     C16 2176   2.709   3.238   4.586
    1PA     H6R 2177   2.626   3.307   4.567
    1PA     H6S 2178   2.668   3.137   4.589
    1PA     C15 2179   2.773   3.271   4.722
    1PA     H5R 2180   2.858   3.204   4.740
    1PA     H5S 2181   2.811   3.373   4.721
    1PA     C14 2182   2.669   3.254   4.833
    1PA     H4R 2183   2.583   3.320   4.812
    1PA     H4S 2184   2.632   3.151   4.834
    1PA     C13 2185   2.727   3.289   4.971
    1PA     H3R 2186   2.813   3.225   4.992
    1PA     H3S 2187   2.761   3.393   4.971
    1PA     C12 2188   2.619   3.270   5.079
    1PA     H2R 2189   2.529   3.324   5.051
    1PA     H2S 2190   2.593   3.164   5.088
    2PC     C11 2191   2.665   3.321   5.213
    2PC     O12 2192   2.611   3.414   5.269
    2PC     O11 2193   2.775   3.258   5.259
    2PC      C1 2194   2.832   3.306   5.383
    2PC      HR 2195   2.846   3.414   5.378
    2PC      HS 2196   2.765   3.282   5.466
    2PC      C2 2197   2.969   3.238   5.405
    2PC      HX 2198   2.954   3.133   5.429
    2PC      C3 2199   3.048   3.310   5.516
    2PC      HA 2200   3.070   3.411   5.482
    2PC      HB 2201   2.990   3.314   5.608
    2PC     O31 2202   3.171   3.239   5.540
    2PC     P31 2203   3.288   3.314   5.619
    2PC     O32 2204   3.262   3.267   5.768
    2PC     C31 2205   3.322   3.347   5.873
    2PC     H1A 2206   3.431   3.337   5.869
    2PC     H1B 2207   3.294   3.452   5.857
    2PC     C32 2208   3.267   3.298   6.008
    2PC     H2A 2209   3.158   3.306   6.005
    2PC     H2B 2210   3.293   3.193   6.022
    2PC     N31 2211   3.312   3.371   6.133
    2PC     C33 2212   3.307   3.520   6.116
    2PC     H3A 2213   3.206   3.548   6.085
    2PC     H3B 2214   3.331   3.566   6.212
    2PC     H3C 2215   3.380   3.550   6.041
    2PC     C34 2216   3.219   3.333   6.245
    2PC     H4A 2217   3.252   3.385   6.336
    2PC     H4B 2218   3.119   3.365   6.217
    2PC     H4C 2219   3.223   3.225   6.258
    2PC     C35 2220   3.452   3.330   6.171
    2PC     H5A 2221   3.520   3.359   6.090
    2PC     H5B 2222   3.454   3.222   6.185
    2PC     H5C 2223   3.478   3.381   6.263
    2PC     O33 2224   3.421   3.273   5.567
    2PC     O34 2225   3.279   3.460   5.606
    2PC     O21 2226   3.041   3.254   5.281
    2PC     C21 2227   3.100   3.147   5.224
    2PC     O22 2228   3.109   3.036   5.274
    3OL     C12 2229   3.148   3.182   5.085
    3OL     H2R 2230   3.232   3.251   5.093
    3OL     H2S 2231   3.067   3.234   5.035
    3OL     C13 2232   3.189   3.059   5.002
    3OL     H3R 2233   3.110   2.984   5.002
    3OL     H3S 2234   3.279   3.014   5.044
    3OL     C14 2235   3.218   3.104   4.858
    3OL     H4R 2236   3.293   3.183   4.861
    3OL     H4S 2237   3.127   3.145   4.814
    3OL     C15 2238   3.270   2.990   4.768
    3OL     H5R 2239   3.194   2.912   4.760
    3OL     H5S 2240   3.359   2.946   4.813
    3OL     C16 2241   3.304   3.047   4.629
    3OL     H6R 2242   3.375   3.129   4.641
    3OL     H6S 2243   3.215   3.089   4.582
    3OL     C17 2244   3.369   2.941   4.536
    3OL     H7R 2245   3.446   2.888   4.592
    3OL     H7S 2246   3.418   2.993   4.454
    3OL     C18 2247   3.268   2.840   4.478
    3OL     H8R 2248   3.225   2.781   4.559
    3OL     H8S 2249   3.321   2.770   4.413
    3OL     C19 2250   3.156   2.906   4.400
    3OL     H9R 2251   3.059   2.904   4.449
    3OL    C110 2252   3.167   2.963   4.280
    3OL    H10R 2253   3.079   3.007   4.234
    3OL    C111 2254   3.294   2.975   4.198
    3OL    H11R 2255   3.377   2.919   4.243
    3OL    H11S 2256   3.325   3.080   4.196
    3OL    C112 2257   3.273   2.929   4.053
    3OL    H12R 2258   3.362   2.953   3.994
    3OL    H12S 2259   3.190   2.985   4.011
    3OL    C113 2260   3.242   2.778   4.041
    3OL    H13R 2261   3.208   2.758   3.939
    3OL    H13S 2262   3.160   2.751   4.108
    3OL    C114 2263   3.366   2.690   4.070
    3OL    H14R 2264   3.400   2.707   4.173
    3OL    H14S 2265   3.447   2.719   4.003
    3OL    C115 2266   3.332   2.541   4.052
    3OL    H15R 2267   3.298   2.522   3.950
    3OL    H15S 2268   3.249   2.515   4.118
    3OL    C116 2269   3.451   2.449   4.087
    3OL    H16R 2270   3.416   2.346   4.096
    3OL    H16S 2271   3.490   2.477   4.185
    3OL    C117 2272   3.566   2.453   3.984
    3OL    H17R 2273   3.653   2.402   4.026
    3OL    H17S 2274   3.596   2.556   3.964
    3OL    C118 2275   3.528   2.384   3.852
    3OL    H18R 2276   3.614   2.381   3.785
    3OL    H18S 2277   3.447   2.437   3.801
    3OL    H18T 2278   3.495   2.281   3.871
    1PA    C116 2279   4.096   3.891   3.671
    1PA    H16R 2280   4.197   3.879   3.632
    1PA    H16S 2281   4.063   3.993   3.649
    1PA    H16T 2282   4.030   3.822   3.618
    1PA    C115 2283   4.094   3.864   3.822
    1PA    H15R 2284   4.129   3.763   3.842
    1PA    H15S 2285   4.163   3.933   3.871
    1PA    C114 2286   3.953   3.884   3.883
    1PA    H14R 2287   3.962   3.888   3.992
    1PA    H14S 2288   3.912   3.979   3.851
    1PA    C113 2289   3.857   3.769   3.847
    1PA    H13R 2290   3.853   3.757   3.738
    1PA    H13S 2291   3.895   3.675   3.888
    1PA    C112 2292   3.715   3.796   3.898
    1PA    H12R 2293   3.716   3.811   4.007
    1PA    H12S 2294   3.680   3.890   3.854
    1PA    C111 2295   3.617   3.683   3.860
    1PA    H11R 2296   3.525   3.729   3.822
    1PA    H11S 2297   3.658   3.622   3.779
    1PA    C110 2298   3.578   3.593   3.979
    1PA    H10R 2299   3.535   3.655   4.058
    1PA    H10S 2300   3.500   3.524   3.946
    1PA     C19 2301   3.696   3.512   4.037
    1PA     H9R 2302   3.739   3.449   3.959
    1PA     H9S 2303   3.774   3.579   4.073
    1PA     C18 2304   3.646   3.424   4.154
    1PA     H8R 2305   3.599   3.487   4.229
    1PA     H8S 2306   3.571   3.354   4.117
    1PA     C17 2307   3.761   3.345   4.219
    1PA     H7R 2308   3.806   3.278   4.145
    1PA     H7S 2309   3.839   3.414   4.253
    1PA     C16 2310   3.708   3.263   4.338
    1PA     H6R 2311   3.667   3.332   4.413
    1PA     H6S 2312   3.627   3.198   4.305
    1PA     C15 2313   3.820   3.178   4.402
    1PA     H5R 2314   3.865   3.116   4.325
    1PA     H5S 2315   3.899   3.243   4.442
    1PA     C14 2316   3.765   3.086   4.514
    1PA     H4R 2317   3.676   3.035   4.479
    1PA     H4S 2318   3.840   3.010   4.536
    1PA     C13 2319   3.735   3.164   4.643
    1PA     H3R 2320   3.826   3.211   4.679
    1PA     H3S 2321   3.662   3.244   4.623
    1PA     C12 2322   3.678   3.071   4.752
    1PA     H2R 2323   3.581   3.032   4.722
    1PA     H2S 2324   3.745   2.985   4.766
    2PC     C11 2325   3.664   3.144   4.882
    2PC     O12 2326   3.565   3.207   4.914
    2PC     O11 2327   3.775   3.132   4.958
    2PC      C1 2328   3.778   3.201   5.086
    2PC      HR 2329   3.762   3.308   5.072
    2PC      HS 2330   3.698   3.161   5.150
    2PC      C2 2331   3.915   3.176   5.151
    2PC      HX 2332   3.937   3.069   5.147
    2PC      C3 2333   3.914   3.226   5.297
    2PC      HA 2334   3.844   3.167   5.357
    2PC      HB 2335   4.014   3.217   5.341
    2PC     O31 2336   3.873   3.364   5.299
    2PC     P31 2337   3.881   3.444   5.437
    2PC     O32 2338   3.790   3.569   5.401
    2PC     C31 2339   3.647   3.554   5.415
    2PC     H1A 2340   3.614   3.466   5.358
    2PC     H1B 2341   3.623   3.540   5.520
    2PC     C32 2342   3.580   3.681   5.359
    2PC     H2A 2343   3.628   3.769   5.401
    2PC     H2B 2344   3.593   3.683   5.250
    2PC     N31 2345   3.431   3.697   5.385
    2PC     C33 2346   3.406   3.724   5.530
    2PC     H3A 2347   3.299   3.740   5.544
    2PC     H3B 2348   3.438   3.636   5.588
    2PC     H3C 2349   3.463   3.812   5.560
    2PC     C34 2350   3.380   3.815   5.306
    2PC     H4A 2351   3.395   3.794   5.200
    2PC     H4B 2352   3.274   3.828   5.328
    2PC     H4C 2353   3.436   3.904   5.336
    2PC     C35 2354   3.354   3.575   5.344
    2PC     H5A 2355   3.388   3.491   5.405
    2PC     H5B 2356   3.372   3.555   5.239
    2PC     H5C 2357   3.249   3.593   5.363
    2PC     O33 2358   3.826   3.366   5.550
    2PC     O34 2359   4.019   3.476   5.477
    2PC     O21 2360   4.014   3.250   5.076
    2PC     C21 2361   4.146   3.229   5.099
    2PC     O22 2362   4.188   3.147   5.178
    3OL     C12 2363   4.238   3.322   5.023
    3OL     H2R 2364   4.322   3.264   4.987
    3OL     H2S 2365   4.276   3.397   5.093
    3OL     C13 2366   4.169   3.393   4.905
    3OL     H3R 2367   4.091   3.460   4.942
    3OL     H3S 2368   4.120   3.318   4.842
    3OL     C14 2369   4.269   3.472   4.820
    3OL     H4R 2370   4.344   3.404   4.779
    3OL     H4S 2371   4.322   3.546   4.882
    3OL     C15 2372   4.195   3.544   4.705
    3OL     H5R 2373   4.134   3.625   4.746
    3OL     H5S 2374   4.128   3.473   4.656
    3OL     C16 2375   4.293   3.601   4.601
    3OL     H6R 2376   4.357   3.521   4.564
    3OL     H6S 2377   4.356   3.677   4.647
    3OL     C17 2378   4.213   3.662   4.484
    3OL     H7R 2379   4.156   3.747   4.520
    3OL     H7S 2380   4.143   3.588   4.446
    3OL     C18 2381   4.306   3.706   4.369
    3OL     H8R 2382   4.364   3.620   4.334
    3OL     H8S 2383   4.376   3.781   4.406
    3OL     C19 2384   4.222   3.766   4.258
    3OL     H9R 2385   4.170   3.857   4.286
    3OL    C110 2386   4.203   3.715   4.137
    3OL    H10R 2387   4.137   3.768   4.069
    3OL    C111 2388   4.267   3.591   4.079
    3OL    H11R 2389   4.361   3.567   4.129
    3OL    H11S 2390   4.291   3.611   3.974
    3OL    C112 2391   4.172   3.470   4.086
    3OL    H12R 2392   4.072   3.500   4.051
    3OL    H12S 2393   4.162   3.438   4.190
    3OL    C113 2394   4.223   3.354   3.999
    3OL    H13R 2395   4.325   3.330   4.028
    3OL    H13S 2396   4.225   3.385   3.895
    3OL    C114 2397   4.134   3.229   4.014
    3OL    H14R 2398   4.030   3.258   3.996
    3OL    H14S 2399   4.139   3.191   4.117
    3OL    C115 2400   4.172   3.117   3.915
    3OL    H15R 2401   4.181   3.159   3.814
    3OL    H15S 2402   4.091   3.044   3.913
    3OL    C116 2403   4.304   3.046   3.954
    3OL    H16R 2404   4.293   2.999   4.052
    3OL    H16S 2405   4.383   3.120   3.961
    3OL    C117 2406   4.346   2.940   3.850
    3OL    H17R 2407   4.448   2.907   3.874
    3OL    H17S 2408   4.350   2.985   3.751
    3OL    C118 2409   4.254   2.817   3.848
    3OL    H18R 2410   4.291   2.743   3.777
    3OL    H18S 2411   4.152   2.845   3.818
    3OL    H18T 2412   4.250   2.771   3.947
    1PA    C116 2413   4.072   1.862   4.265
    1PA    H16R 2414   4.117   1.794   4.192
    1PA    H16S 2415   4.152   1.904   4.326
    1PA    H16T 2416   4.023   1.943   4.211
    1PA    C115 2417   3.972   1.787   4.353
    1PA    H15R 2418   4.024   1.711   4.413
    1PA    H15S 2419   3.926   1.857   4.423
    1PA    C114 2420   3.862   1.719   4.269
    1PA    H14R 2421   3.814   1.792   4.204
    1PA    H14S 2422   3.907   1.642   4.205
    1PA    C113 2423   3.757   1.654   4.361
    1PA    H13R 2424   3.804   1.579   4.424
    1PA    H13S 2425   3.716   1.731   4.426
    1PA    C112 2426   3.641   1.590   4.281
    1PA    H12R 2427   3.597   1.664   4.214
    1PA    H12S 2428   3.680   1.508   4.220
    1PA    C111 2429   3.535   1.538   4.379
    1PA    H11R 2430   3.580   1.464   4.446
    1PA    H11S 2431   3.501   1.622   4.440
    1PA    C110 2432   3.413   1.476   4.309
    1PA    H10R 2433   3.367   1.550   4.243
    1PA    H10S 2434   3.444   1.391   4.247
    1PA     C19 2435   3.310   1.429   4.415
    1PA     H9R 2436   3.357   1.354   4.479
    1PA     H9S 2437   3.283   1.514   4.478
    1PA     C18 2438   3.182   1.371   4.351
    1PA     H8R 2439   3.136   1.447   4.288
    1PA     H8S 2440   3.208   1.286   4.288
    1PA     C17 2441   3.084   1.328   4.462
    1PA     H7R 2442   3.130   1.251   4.524
    1PA     H7S 2443   3.061   1.414   4.526
    1PA     C16 2444   2.953   1.273   4.403
    1PA     H6R 2445   2.907   1.348   4.338
    1PA     H6S 2446   2.974   1.185   4.342
    1PA     C15 2447   2.853   1.236   4.515
    1PA     H5R 2448   2.898   1.160   4.580
    1PA     H5S 2449   2.833   1.324   4.576
    1PA     C14 2450   2.721   1.182   4.456
    1PA     H4R 2451   2.680   1.255   4.387
    1PA     H4S 2452   2.740   1.090   4.401
    1PA     C13 2453   2.619   1.156   4.569
    1PA     H3R 2454   2.660   1.083   4.639
    1PA     H3S 2455   2.601   1.248   4.623
    1PA     C12 2456   2.486   1.103   4.511
    1PA     H2R 2457   2.446   1.174   4.439
    1PA     H2S 2458   2.503   1.008   4.459
    2PC     C11 2459   2.383   1.080   4.619
    2PC     O12 2460   2.390   0.991   4.701
    2PC     O11 2461   2.278   1.164   4.608
    2PC      C1 2462   2.168   1.155   4.703
    2PC      HR 2463   2.083   1.213   4.663
    2PC      HS 2464   2.137   1.051   4.715
    2PC      C2 2465   2.207   1.215   4.840
    2PC      HX 2466   2.291   1.159   4.885
    2PC      C3 2467   2.089   1.211   4.938
    2PC      HA 2468   2.006   1.272   4.899
    2PC      HB 2469   2.055   1.108   4.953
    2PC     O31 2470   2.132   1.266   5.064
    2PC     P31 2471   2.025   1.291   5.179
    2PC     O32 2472   2.120   1.284   5.306
    2PC     C31 2473   2.154   1.154   5.355
    2PC     H1A 2474   2.068   1.111   5.406
    2PC     H1B 2475   2.181   1.090   5.270
    2PC     C32 2476   2.276   1.164   5.448
    2PC     H2A 2477   2.308   1.063   5.475
    2PC     H2B 2478   2.358   1.213   5.396
    2PC     N31 2479   2.259   1.237   5.579
    2PC     C33 2480   2.387   1.222   5.657
    2PC     H3A 2481   2.376   1.275   5.752
    2PC     H3B 2482   2.405   1.116   5.673
    2PC     H3C 2483   2.468   1.266   5.599
    2PC     C34 2484   2.233   1.384   5.557
    2PC     H4A 2485   2.136   1.395   5.508
    2PC     H4B 2486   2.234   1.435   5.653
    2PC     H4C 2487   2.312   1.423   5.493
    2PC     C35 2488   2.147   1.178   5.659
    2PC     H5A 2489   2.053   1.198   5.608
    2PC     H5B 2490   2.147   1.223   5.758
    2PC     H5C 2491   2.164   1.070   5.666
    2PC     O33 2492   1.960   1.424   5.175
    2PC     O34 2493   1.916   1.191   5.185
    2PC     O21 2494   2.240   1.354   4.822
    2PC     C21 2495   2.370   1.390   4.815
    2PC     O22 2496   2.463   1.313   4.821
    3OL     C12 2497   2.389   1.538   4.794
    3OL     H2R 2498   2.373   1.558   4.688
    3OL     H2S 2499   2.492   1.563   4.818
    3OL     C13 2500   2.293   1.625   4.878
    3OL     H3R 2501   2.302   1.597   4.983
    3OL     H3S 2502   2.190   1.607   4.848
    3OL     C14 2503   2.325   1.776   4.865
    3OL     H4R 2504   2.427   1.794   4.898
    3OL     H4S 2505   2.259   1.832   4.931
    3OL     C15 2506   2.307   1.827   4.720
    3OL     H5R 2507   2.206   1.805   4.686
    3OL     H5S 2508   2.377   1.773   4.655
    3OL     C16 2509   2.334   1.978   4.710
    3OL     H6R 2510   2.434   2.001   4.747
    3OL     H6S 2511   2.263   2.031   4.773
    3OL     C17 2512   2.320   2.029   4.565
    3OL     H7R 2513   2.322   2.138   4.566
    3OL     H7S 2514   2.222   1.999   4.525
    3OL     C18 2515   2.432   1.978   4.473
    3OL     H8R 2516   2.427   1.869   4.466
    3OL     H8S 2517   2.529   2.003   4.517
    3OL     C19 2518   2.418   2.037   4.334
    3OL     H9R 2519   2.318   2.030   4.292
    3OL    C110 2520   2.513   2.100   4.266
    3OL    H10R 2521   2.490   2.141   4.168
    3OL    C111 2522   2.658   2.114   4.308
    3OL    H11R 2523   2.721   2.109   4.219
    3OL    H11S 2524   2.689   2.032   4.373
    3OL    C112 2525   2.682   2.250   4.378
    3OL    H12R 2526   2.634   2.250   4.477
    3OL    H12S 2527   2.634   2.328   4.319
    3OL    C113 2528   2.832   2.284   4.390
    3OL    H13R 2529   2.842   2.390   4.413
    3OL    H13S 2530   2.879   2.267   4.293
    3OL    C114 2531   2.907   2.200   4.497
    3OL    H14R 2532   3.014   2.199   4.472
    3OL    H14S 2533   2.874   2.097   4.492
    3OL    C115 2534   2.890   2.254   4.641
    3OL    H15R 2535   2.939   2.184   4.709
    3OL    H15S 2536   2.784   2.253   4.667
    3OL    C116 2537   2.946   2.396   4.666
    3OL    H16R 2538   2.930   2.419   4.771
    3OL    H16S 2539   2.891   2.471   4.609
    3OL    C117 2540   3.098   2.410   4.638
    3OL    H17R 2541   3.148   2.314   4.652
    3OL    H17S 2542   3.140   2.479   4.712
    3OL    C118 2543   3.128   2.466   4.498
    3OL    H18R 2544   3.092   2.400   4.419
    3OL    H18S 2545   3.236   2.478   4.484
    3OL    H18T 2546   3.082   2.564   4.485
    1PA    C116 2547   5.923   1.172   3.923
    1PA    H16R 2548   5.954   1.227   4.012
    1PA    H16S 2549   5.861   1.237   3.861
    1PA    H16T 2550   6.012   1.145   3.867
    1PA    C115 2551   5.846   1.045   3.963
    1PA    H15R 2552   5.822   0.987   3.874
    1PA    H15S 2553   5.909   0.984   4.028
    1PA    C114 2554   5.716   1.081   4.038
    1PA    H14R 2555   5.741   1.144   4.124
    1PA    H14S 2556   5.651   1.138   3.972
    1PA    C113 2557   5.642   0.954   4.086
    1PA    H13R 2558   5.623   0.889   4.001
    1PA    H13S 2559   5.707   0.898   4.155
    1PA    C112 2560   5.508   0.985   4.156
    1PA    H12R 2561   5.440   1.033   4.086
    1PA    H12S 2562   5.462   0.890   4.185
    1PA    C111 2563   5.526   1.074   4.281
    1PA    H11R 2564   5.602   1.031   4.346
    1PA    H11S 2565   5.562   1.172   4.249
    1PA    C110 2566   5.395   1.095   4.359
    1PA    H10R 2567   5.409   1.179   4.427
    1PA    H10S 2568   5.314   1.122   4.291
    1PA     C19 2569   5.356   0.971   4.441
    1PA     H9R 2570   5.328   0.889   4.375
    1PA     H9S 2571   5.442   0.938   4.499
    1PA     C18 2572   5.239   1.003   4.537
    1PA     H8R 2573   5.265   1.089   4.599
    1PA     H8S 2574   5.152   1.031   4.478
    1PA     C17 2575   5.202   0.884   4.628
    1PA     H7R 2576   5.111   0.910   4.682
    1PA     H7S 2577   5.179   0.796   4.567
    1PA     C16 2578   5.313   0.850   4.729
    1PA     H6R 2579   5.401   0.811   4.677
    1PA     H6S 2580   5.344   0.942   4.781
    1PA     C15 2581   5.265   0.747   4.833
    1PA     H5R 2582   5.175   0.786   4.882
    1PA     H5S 2583   5.238   0.654   4.783
    1PA     C14 2584   5.373   0.720   4.939
    1PA     H4R 2585   5.459   0.670   4.893
    1PA     H4S 2586   5.408   0.815   4.981
    1PA     C13 2587   5.316   0.632   5.052
    1PA     H3R 2588   5.223   0.678   5.087
    1PA     H3S 2589   5.290   0.534   5.014
    1PA     C12 2590   5.416   0.618   5.169
    1PA     H2R 2591   5.498   0.553   5.141
    1PA     H2S 2592   5.457   0.716   5.193
    2PC     C11 2593   5.352   0.565   5.295
    2PC     O12 2594   5.406   0.487   5.371
    2PC     O11 2595   5.229   0.617   5.318
    2PC      C1 2596   5.160   0.581   5.441
    2PC      HR 2597   5.153   0.472   5.450
    2PC      HS 2598   5.217   0.619   5.526
    2PC      C2 2599   5.019   0.643   5.435
    2PC      HX 2600   5.026   0.739   5.383
    2PC      C3 2601   4.964   0.667   5.577
    2PC      HA 2602   5.032   0.734   5.631
    2PC      HB 2603   4.866   0.715   5.572
    2PC     O31 2604   4.953   0.542   5.649
    2PC     P31 2605   4.925   0.544   5.806
    2PC     O32 2606   4.767   0.528   5.818
    2PC     C31 2607   4.707   0.397   5.840
    2PC     H1A 2608   4.598   0.406   5.828
    2PC     H1B 2609   4.744   0.327   5.765
    2PC     C32 2610   4.738   0.342   5.981
    2PC     H2A 2611   4.704   0.238   5.986
    2PC     H2B 2612   4.845   0.342   5.998
    2PC     N31 2613   4.676   0.410   6.102
    2PC     C33 2614   4.527   0.394   6.103
    2PC     H3A 2615   4.484   0.450   6.020
    2PC     H3B 2616   4.503   0.288   6.093
    2PC     H3C 2617   4.490   0.432   6.198
    2PC     C34 2618   4.733   0.346   6.225
    2PC     H4A 2619   4.709   0.240   6.223
    2PC     H4B 2620   4.841   0.361   6.225
    2PC     H4C 2621   4.688   0.394   6.312
    2PC     C35 2622   4.707   0.557   6.106
    2PC     H5A 2623   4.664   0.598   6.198
    2PC     H5B 2624   4.664   0.605   6.019
    2PC     H5C 2625   4.816   0.569   6.107
    2PC     O33 2626   5.004   0.440   5.876
    2PC     O34 2627   4.967   0.671   5.870
    2PC     O21 2628   4.932   0.554   5.360
    2PC     C21 2629   4.816   0.602   5.312
    2PC     O22 2630   4.776   0.715   5.331
    3OL     C12 2631   4.740   0.498   5.232
    3OL     H2R 2632   4.740   0.405   5.287
    3OL     H2S 2633   4.793   0.481   5.138
    3OL     C13 2634   4.594   0.542   5.203
    3OL     H3R 2635   4.594   0.636   5.148
    3OL     H3S 2636   4.544   0.561   5.299
    3OL     C14 2637   4.514   0.435   5.127
    3OL     H4R 2638   4.408   0.454   5.143
    3OL     H4S 2639   4.535   0.336   5.168
    3OL     C15 2640   4.544   0.436   4.975
    3OL     H5R 2641   4.650   0.413   4.961
    3OL     H5S 2642   4.528   0.535   4.933
    3OL     C16 2643   4.461   0.331   4.899
    3OL     H6R 2644   4.433   0.249   4.965
    3OL     H6S 2645   4.524   0.289   4.820
    3OL     C17 2646   4.334   0.388   4.830
    3OL     H7R 2647   4.291   0.310   4.767
    3OL     H7S 2648   4.362   0.470   4.764
    3OL     C18 2649   4.227   0.435   4.931
    3OL     H8R 2650   4.267   0.513   4.994
    3OL     H8S 2651   4.199   0.352   4.996
    3OL     C19 2652   4.104   0.490   4.860
    3OL     H9R 2653   4.104   0.598   4.847
    3OL    C110 2654   3.998   0.420   4.823
    3OL    H10R 2655   3.914   0.471   4.777
    3OL    C111 2656   3.985   0.269   4.829
    3OL    H11R 2657   3.913   0.242   4.907
    3OL    H11S 2658   4.080   0.222   4.855
    3OL    C112 2659   3.934   0.211   4.695
    3OL    H12R 2660   3.835   0.251   4.674
    3OL    H12S 2661   3.924   0.102   4.705
    3OL    C113 2662   4.029   0.242   4.577
    3OL    H13R 2663   4.126   0.195   4.594
    3OL    H13S 2664   4.044   0.350   4.569
    3OL    C114 2665   3.968   0.190   4.445
    3OL    H14R 2666   3.870   0.238   4.431
    3OL    H14S 2667   3.951   0.083   4.451
    3OL    C115 2668   4.054   0.224   4.322
    3OL    H15R 2669   4.086   0.328   4.325
    3OL    H15S 2670   3.992   0.212   4.233
    3OL    C116 2671   4.177   0.131   4.309
    3OL    H16R 2672   4.145   0.027   4.307
    3OL    H16S 2673   4.241   0.144   4.397
    3OL    C117 2674   4.260   0.163   4.183
    3OL    H17R 2675   4.357   0.114   4.191
    3OL    H17S 2676   4.278   0.271   4.176
    3OL    C118 2677   4.192   0.115   4.054
    3OL    H18R 2678   4.172   0.007   4.058
    3OL    H18S 2679   4.256   0.134   3.967
    3OL    H18T 2680   4.097   0.167   4.037
    1PA    C116 2681   1.697   4.111   3.765
    1PA    H16R 2682   1.668   4.120   3.659
    1PA    H16S 2683   1.806   4.113   3.771
    1PA    H16T 2684   1.656   4.196   3.819
    1PA    C115 2685   1.642   3.979   3.822
    1PA    H15R 2686   1.534   3.976   3.810
    1PA    H15S 2687   1.684   3.895   3.767
    1PA    C114 2688   1.677   3.966   3.972
    1PA    H14R 2689   1.785   3.974   3.985
    1PA    H14S 2690   1.631   4.048   4.027
    1PA    C113 2691   1.629   3.831   4.029
    1PA    H13R 2692   1.520   3.826   4.021
    1PA    H13S 2693   1.671   3.749   3.970
    1PA    C112 2694   1.670   3.815   4.177
    1PA    H12R 2695   1.779   3.824   4.185
    1PA    H12S 2696   1.626   3.895   4.237
    1PA    C111 2697   1.626   3.678   4.233
    1PA    H11R 2698   1.517   3.672   4.233
    1PA    H11S 2699   1.664   3.599   4.168
    1PA    C110 2700   1.681   3.657   4.375
    1PA    H10R 2701   1.790   3.667   4.373
    1PA    H10S 2702   1.642   3.735   4.442
    1PA     C19 2703   1.644   3.518   4.430
    1PA     H9R 2704   1.536   3.511   4.442
    1PA     H9S 2705   1.675   3.441   4.359
    1PA     C18 2706   1.713   3.493   4.566
    1PA     H8R 2707   1.821   3.505   4.553
    1PA     H8S 2708   1.681   3.568   4.638
    1PA     C17 2709   1.684   3.352   4.620
    1PA     H7R 2710   1.577   3.342   4.641
    1PA     H7S 2711   1.710   3.278   4.543
    1PA     C16 2712   1.766   3.326   4.747
    1PA     H6R 2713   1.871   3.350   4.728
    1PA     H6S 2714   1.731   3.391   4.828
    1PA     C15 2715   1.757   3.179   4.793
    1PA     H5R 2716   1.654   3.154   4.817
    1PA     H5S 2717   1.789   3.114   4.711
    1PA     C14 2718   1.848   3.155   4.915
    1PA     H4R 2719   1.948   3.192   4.891
    1PA     H4S 2720   1.811   3.212   5.000
    1PA     C13 2721   1.862   3.006   4.952
    1PA     H3R 2722   1.899   2.950   4.866
    1PA     H3S 2723   1.938   2.999   5.030
    1PA     C12 2724   1.731   2.944   5.004
    1PA     H2R 2725   1.688   3.009   5.080
    1PA     H2S 2726   1.658   2.933   4.924
    2PC     C11 2727   1.759   2.810   5.065
    2PC     O12 2728   1.834   2.727   5.017
    2PC     O11 2729   1.695   2.794   5.183
    2PC      C1 2730   1.725   2.675   5.259
    2PC      HR 2731   1.692   2.586   5.205
    2PC      HS 2732   1.833   2.669   5.274
    2PC      C2 2733   1.654   2.684   5.395
    2PC      HX 2734   1.659   2.788   5.431
    2PC      C3 2735   1.719   2.588   5.497
    2PC      HA 2736   1.668   2.491   5.494
    2PC      HB 2737   1.825   2.574   5.475
    2PC     O31 2738   1.708   2.646   5.628
    2PC     P31 2739   1.742   2.557   5.755
    2PC     O32 2740   1.898   2.578   5.773
    2PC     C31 2741   1.954   2.532   5.898
    2PC     H1A 2742   1.915   2.596   5.978
    2PC     H1B 2743   1.922   2.429   5.917
    2PC     C32 2744   2.108   2.542   5.894
    2PC     H2A 2745   2.138   2.643   5.865
    2PC     H2B 2746   2.146   2.523   5.994
    2PC     N31 2747   2.182   2.446   5.803
    2PC     C33 2748   2.156   2.478   5.659
    2PC     H3A 2749   2.209   2.405   5.597
    2PC     H3B 2750   2.049   2.473   5.640
    2PC     H3C 2751   2.194   2.579   5.638
    2PC     C34 2752   2.329   2.459   5.828
    2PC     H4A 2753   2.383   2.392   5.761
    2PC     H4B 2754   2.359   2.563   5.810
    2PC     H4C 2755   2.349   2.432   5.932
    2PC     C35 2756   2.143   2.303   5.829
    2PC     H5A 2757   2.162   2.281   5.935
    2PC     H5B 2758   2.205   2.239   5.766
    2PC     H5C 2759   2.038   2.290   5.805
    2PC     O33 2760   1.664   2.608   5.871
    2PC     O34 2761   1.711   2.414   5.735
    2PC     O21 2762   1.516   2.645   5.374
    2PC     C21 2763   1.421   2.685   5.460
    2PC     O22 2764   1.441   2.751   5.561
    3OL     C12 2765   1.282   2.641   5.420
    3OL     H2R 2766   1.213   2.673   5.498
    3OL     H2S 2767   1.278   2.532   5.415
    3OL     C13 2768   1.237   2.703   5.286
    3OL     H3R 2769   1.277   2.805   5.277
    3OL     H3S 2770   1.128   2.711   5.286
    3OL     C14 2771   1.280   2.617   5.165
    3OL     H4R 2772   1.227   2.522   5.171
    3OL     H4S 2773   1.387   2.596   5.167
    3OL     C15 2774   1.243   2.686   5.031
    3OL     H5R 2775   1.145   2.733   5.039
    3OL     H5S 2776   1.237   2.609   4.954
    3OL     C16 2777   1.350   2.790   4.991
    3OL     H6R 2778   1.447   2.741   4.978
    3OL     H6S 2779   1.362   2.861   5.073
    3OL     C17 2780   1.311   2.867   4.864
    3OL     H7R 2781   1.374   2.956   4.855
    3OL     H7S 2782   1.208   2.902   4.873
    3OL     C18 2783   1.324   2.785   4.734
    3OL     H8R 2784   1.286   2.844   4.651
    3OL     H8S 2785   1.260   2.697   4.740
    3OL     C19 2786   1.467   2.742   4.707
    3OL     H9R 2787   1.495   2.645   4.748
    3OL    C110 2788   1.556   2.811   4.636
    3OL    H10R 2789   1.656   2.768   4.622
    3OL    C111 2790   1.536   2.948   4.575
    3OL    H11R 2791   1.596   3.020   4.631
    3OL    H11S 2792   1.432   2.981   4.582
    3OL    C112 2793   1.583   2.953   4.428
    3OL    H12R 2794   1.685   2.918   4.422
    3OL    H12S 2795   1.582   3.057   4.395
    3OL    C113 2796   1.493   2.870   4.335
    3OL    H13R 2797   1.390   2.905   4.345
    3OL    H13S 2798   1.495   2.764   4.365
    3OL    C114 2799   1.536   2.883   4.188
    3OL    H14R 2800   1.550   2.989   4.163
    3OL    H14S 2801   1.456   2.845   4.124
    3OL    C115 2802   1.666   2.805   4.157
    3OL    H15R 2803   1.652   2.700   4.182
    3OL    H15S 2804   1.747   2.843   4.218
    3OL    C116 2805   1.703   2.818   4.008
    3OL    H16R 2806   1.712   2.923   3.980
    3OL    H16S 2807   1.622   2.775   3.948
    3OL    C117 2808   1.833   2.743   3.974
    3OL    H17R 2809   1.836   2.723   3.866
    3OL    H17S 2810   1.836   2.646   4.025
    3OL    C118 2811   1.958   2.826   4.010
    3OL    H18R 2812   1.964   2.841   4.118
    3OL    H18S 2813   1.955   2.923   3.961
    3OL    H18T 2814   2.048   2.774   3.978
    1PA    C116 2815   0.458   0.043   4.602
    1PA    H16R 2816   0.442   0.012   4.706
    1PA    H16S 2817   0.395   0.130   4.582
    1PA    H16T 2818   0.563   0.073   4.590
    1PA    C115 2819   0.424   6.377   4.505
    1PA    H15R 2820   0.321   6.344   4.522
    1PA    H15S 2821   0.428   6.415   4.403
    1PA    C114 2822   0.521   6.257   4.517
    1PA    H14R 2823   0.498   6.184   4.439
    1PA    H14S 2824   0.622   6.293   4.496
    1PA    C113 2825   0.520   6.187   4.655
    1PA    H13R 2826   0.596   6.108   4.654
    1PA    H13S 2827   0.550   6.258   4.732
    1PA    C112 2828   0.384   6.124   4.694
    1PA    H12R 2829   0.392   6.090   4.797
    1PA    H12S 2830   0.306   6.200   4.692
    1PA    C111 2831   0.346   6.005   4.603
    1PA    H11R 2832   0.338   6.040   4.500
    1PA    H11S 2833   0.423   5.929   4.606
    1PA    C110 2834   0.209   5.944   4.642
    1PA    H10R 2835   0.135   6.024   4.648
    1PA    H10S 2836   0.176   5.877   4.563
    1PA     C19 2837   0.210   5.867   4.776
    1PA     H9R 2838   0.256   5.928   4.855
    1PA     H9S 2839   0.107   5.850   4.806
    1PA     C18 2840   0.283   5.732   4.766
    1PA     H8R 2841   0.238   5.671   4.687
    1PA     H8S 2842   0.387   5.749   4.738
    1PA     C17 2843   0.280   5.655   4.900
    1PA     H7R 2844   0.356   5.576   4.897
    1PA     H7S 2845   0.306   5.723   4.981
    1PA     C16 2846   0.142   5.590   4.925
    1PA     H6R 2847   0.065   5.666   4.912
    1PA     H6S 2848   0.123   5.512   4.852
    1PA     C15 2849   0.128   5.535   5.068
    1PA     H5R 2850   0.154   5.613   5.140
    1PA     H5S 2851   0.023   5.509   5.085
    1PA     C14 2852   0.215   5.410   5.094
    1PA     H4R 2853   0.187   5.331   5.025
    1PA     H4S 2854   0.320   5.434   5.077
    1PA     C13 2855   0.196   5.362   5.239
    1PA     H3R 2856   0.218   5.444   5.308
    1PA     H3S 2857   0.092   5.334   5.255
    1PA     C12 2858   0.287   5.242   5.270
    1PA     H2R 2859   0.264   5.160   5.203
    1PA     H2S 2860   0.392   5.269   5.255
    2PC     C11 2861   0.270   5.195   5.413
    2PC     O12 2862   0.245   5.268   5.507
    2PC     O11 2863   0.280   5.061   5.423
    2PC      C1 2864   0.267   5.001   5.554
    2PC      HR 2865   0.349   5.034   5.619
    2PC      HS 2866   0.172   5.030   5.599
    2PC      C2 2867   0.271   4.848   5.536
    2PC      HX 2868   0.197   4.820   5.460
    2PC      C3 2869   0.238   4.775   5.668
    2PC      HA 2870   0.130   4.776   5.685
    2PC      HB 2871   0.272   4.671   5.663
    2PC     O31 2872   0.303   4.844   5.779
    2PC     P31 2873   0.292   4.785   5.926
    2PC     O32 2874   0.446   4.761   5.956
    2PC     C31 2875   0.508   4.640   5.908
    2PC     H1A 2876   0.468   4.555   5.964
    2PC     H1B 2877   0.486   4.626   5.802
    2PC     C32 2878   0.660   4.650   5.931
    2PC     H2A 2879   0.679   4.675   6.036
    2PC     H2B 2880   0.705   4.553   5.910
    2PC     N31 2881   0.737   4.750   5.848
    2PC     C33 2882   0.715   4.725   5.701
    2PC     H3A 2883   0.611   4.746   5.678
    2PC     H3B 2884   0.781   4.793   5.645
    2PC     H3C 2885   0.741   4.621   5.679
    2PC     C34 2886   0.700   4.892   5.881
    2PC     H4A 2887   0.718   4.909   5.987
    2PC     H4B 2888   0.762   4.959   5.821
    2PC     H4C 2889   0.594   4.907   5.857
    2PC     C35 2890   0.884   4.734   5.878
    2PC     H5A 2891   0.940   4.806   5.818
    2PC     H5B 2892   0.914   4.632   5.853
    2PC     H5C 2893   0.900   4.753   5.984
    2PC     O33 2894   0.236   4.876   6.028
    2PC     O34 2895   0.210   4.663   5.940
    2PC     O21 2896   0.404   4.812   5.491
    2PC     C21 2897   0.418   4.698   5.419
    2PC     O22 2898   0.327   4.620   5.397
    3OL     C12 2899   0.559   4.679   5.368
    3OL     H2R 2900   0.609   4.607   5.432
    3OL     H2S 2901   0.613   4.774   5.375
    3OL     C13 2902   0.560   4.630   5.221
    3OL     H3R 2903   0.524   4.710   5.155
    3OL     H3S 2904   0.490   4.546   5.211
    3OL     C14 2905   0.699   4.582   5.176
    3OL     H4R 2906   0.689   4.535   5.078
    3OL     H4S 2907   0.736   4.506   5.245
    3OL     C15 2908   0.802   4.697   5.166
    3OL     H5R 2909   0.815   4.743   5.264
    3OL     H5S 2910   0.764   4.773   5.098
    3OL     C16 2911   0.938   4.644   5.116
    3OL     H6R 2912   0.926   4.599   5.016
    3OL     H6S 2913   0.971   4.564   5.183
    3OL     C17 2914   1.046   4.754   5.112
    3OL     H7R 2915   1.143   4.707   5.097
    3OL     H7S 2916   1.049   4.805   5.208
    3OL     C18 2917   1.022   4.855   4.998
    3OL     H8R 2918   0.923   4.899   5.010
    3OL     H8S 2919   1.024   4.803   4.903
    3OL     C19 2920   1.125   4.967   5.004
    3OL     H9R 2921   1.151   4.999   5.105
    3OL    C110 2922   1.183   5.027   4.901
    3OL    H10R 2923   1.255   5.106   4.920
    3OL    C111 2924   1.163   4.995   4.754
    3OL    H11R 2925   1.113   4.899   4.741
    3OL    H11S 2926   1.261   4.985   4.707
    3OL    C112 2927   1.084   5.103   4.678
    3OL    H12R 2928   1.084   5.076   4.572
    3OL    H12S 2929   1.136   5.199   4.686
    3OL    C113 2930   0.939   5.118   4.729
    3OL    H13R 2931   0.941   5.166   4.828
    3OL    H13S 2932   0.893   5.020   4.741
    3OL    C114 2933   0.854   5.205   4.633
    3OL    H14R 2934   0.911   5.293   4.602
    3OL    H14S 2935   0.765   5.240   4.686
    3OL    C115 2936   0.810   5.123   4.510
    3OL    H15R 2937   0.749   5.039   4.543
    3OL    H15S 2938   0.897   5.083   4.459
    3OL    C116 2939   0.729   5.209   4.410
    3OL    H16R 2940   0.791   5.291   4.374
    3OL    H16S 2941   0.642   5.251   4.459
    3OL    C117 2942   0.684   5.122   4.290
    3OL    H17R 2943   0.624   5.039   4.326
    3OL    H17S 2944   0.772   5.081   4.240
    3OL    C118 2945   0.602   5.203   4.188
    3OL    H18R 2946   0.516   5.250   4.237
    3OL    H18S 2947   0.565   5.137   4.109
    3OL    H18T 2948   0.663   5.280   4.142
    1PA    C116 2949   3.991   4.181   4.132
    1PA    H16R 2950   4.016   4.227   4.037
    1PA    H16S 2951   3.961   4.259   4.202
    1PA    H16T 2952   3.905   4.114   4.116
    1PA    C115 2953   4.110   4.102   4.188
    1PA    H15R 2954   4.080   4.052   4.280
    1PA    H15S 2955   4.139   4.025   4.116
    1PA    C114 2956   4.230   4.193   4.217
    1PA    H14R 2957   4.260   4.245   4.126
    1PA    H14S 2958   4.200   4.269   4.290
    1PA    C113 2959   4.350   4.113   4.273
    1PA    H13R 2960   4.318   4.059   4.362
    1PA    H13S 2961   4.382   4.040   4.198
    1PA    C112 2962   4.467   4.207   4.308
    1PA    H12R 2963   4.494   4.265   4.219
    1PA    H12S 2964   4.435   4.279   4.384
    1PA    C111 2965   4.592   4.132   4.357
    1PA    H11R 2966   4.622   4.058   4.283
    1PA    H11S 2967   4.673   4.203   4.367
    1PA    C110 2968   4.570   4.063   4.494
    1PA    H10R 2969   4.535   4.138   4.566
    1PA    H10S 2970   4.494   3.986   4.485
    1PA     C19 2971   4.701   3.999   4.544
    1PA     H9R 2972   4.737   3.928   4.469
    1PA     H9S 2973   4.779   4.076   4.555
    1PA     C18 2974   4.683   3.925   4.678
    1PA     H8R 2975   4.596   3.859   4.672
    1PA     H8S 2976   4.770   3.861   4.696
    1PA     C17 2977   4.667   4.022   4.797
    1PA     H7R 2978   4.757   4.084   4.804
    1PA     H7S 2979   4.583   4.089   4.779
    1PA     C16 2980   4.645   3.946   4.930
    1PA     H6R 2981   4.562   3.876   4.917
    1PA     H6S 2982   4.734   3.888   4.954
    1PA     C15 2983   4.610   4.041   5.047
    1PA     H5R 2984   4.522   4.100   5.020
    1PA     H5S 2985   4.583   3.981   5.134
    1PA     C14 2986   4.727   4.134   5.083
    1PA     H4R 2987   4.813   4.074   5.112
    1PA     H4S 2988   4.756   4.193   4.996
    1PA     C13 2989   4.690   4.230   5.198
    1PA     H3R 2990   4.600   4.286   5.172
    1PA     H3S 2991   4.669   4.172   5.288
    1PA     C12 2992   4.807   4.328   5.223
    1PA     H2R 2993   4.897   4.272   5.247
    1PA     H2S 2994   4.826   4.385   5.133
    2PC     C11 2995   4.779   4.424   5.336
    2PC     O12 2996   4.689   4.413   5.417
    2PC     O11 2997   4.868   4.526   5.336
    2PC      C1 2998   4.865   4.624   5.445
    2PC      HR 2999   4.932   4.706   5.419
    2PC      HS 3000   4.763   4.664   5.455
    2PC      C2 3001   4.910   4.559   5.578
    2PC      HX 3002   4.842   4.479   5.608
    2PC      C3 3003   4.914   4.665   5.690
    2PC      HA 3004   4.999   4.733   5.675
    2PC      HB 3005   4.822   4.723   5.691
    2PC     O31 3006   4.928   4.598   5.818
    2PC     P31 3007   4.942   4.686   5.950
    2PC     O32 3008   5.096   4.724   5.943
    2PC     C31 3009   5.138   4.845   6.010
    2PC     H1A 3010   5.085   4.930   5.967
    2PC     H1B 3011   5.114   4.839   6.116
    2PC     C32 3012   5.290   4.864   5.987
    2PC     H2A 3013   5.313   4.847   5.882
    2PC     H2B 3014   5.316   4.967   6.012
    2PC     N31 3015   5.383   4.777   6.068
    2PC     C33 3016   5.525   4.814   6.035
    2PC     H3A 3017   5.541   4.796   5.929
    2PC     H3B 3018   5.539   4.920   6.058
    2PC     H3C 3019   5.592   4.752   6.095
    2PC     C34 3020   5.361   4.801   6.215
    2PC     H4A 3021   5.262   4.764   6.243
    2PC     H4B 3022   5.438   4.748   6.270
    2PC     H4C 3023   5.368   4.908   6.234
    2PC     C35 3024   5.364   4.631   6.037
    2PC     H5A 3025   5.380   4.617   5.930
    2PC     H5B 3026   5.262   4.603   6.064
    2PC     H5C 3027   5.437   4.574   6.094
    2PC     O33 3028   4.851   4.803   5.953
    2PC     O34 3029   4.909   4.609   6.073
    2PC     O21 3030   5.045   4.508   5.558
    2PC     C21 3031   5.062   4.383   5.510
    2PC     O22 3032   4.975   4.297   5.511
    3OL     C12 3033   5.200   4.362   5.455
    3OL     H2R 3034   5.230   4.259   5.472
    3OL     H2S 3035   5.269   4.426   5.510
    3OL     C13 3036   5.206   4.396   5.304
    3OL     H3R 3037   5.167   4.497   5.288
    3OL     H3S 3038   5.144   4.327   5.248
    3OL     C14 3039   5.352   4.389   5.254
    3OL     H4R 3040   5.392   4.289   5.268
    3OL     H4S 3041   5.413   4.456   5.314
    3OL     C15 3042   5.366   4.429   5.105
    3OL     H5R 3043   5.467   4.466   5.090
    3OL     H5S 3044   5.298   4.511   5.082
    3OL     C16 3045   5.341   4.312   5.009
    3OL     H6R 3046   5.237   4.280   5.015
    3OL     H6S 3047   5.403   4.227   5.039
    3OL     C17 3048   5.376   4.352   4.865
    3OL     H7R 3049   5.480   4.387   4.862
    3OL     H7S 3050   5.313   4.436   4.832
    3OL     C18 3051   5.360   4.235   4.767
    3OL     H8R 3052   5.254   4.215   4.752
    3OL     H8S 3053   5.403   4.145   4.810
    3OL     C19 3054   5.425   4.266   4.633
    3OL     H9R 3055   5.382   4.350   4.580
    3OL    C110 3056   5.527   4.199   4.578
    3OL    H10R 3057   5.564   4.231   4.481
    3OL    C111 3058   5.600   4.082   4.640
    3OL    H11R 3059   5.552   3.989   4.608
    3OL    H11S 3060   5.595   4.086   4.749
    3OL    C112 3061   5.749   4.076   4.599
    3OL    H12R 3062   5.756   4.073   4.490
    3OL    H12S 3063   5.792   3.984   4.638
    3OL    C113 3064   5.828   4.196   4.654
    3OL    H13R 3065   5.815   4.201   4.762
    3OL    H13S 3066   5.789   4.288   4.611
    3OL    C114 3067   5.978   4.184   4.619
    3OL    H14R 3068   5.989   4.180   4.511
    3OL    H14S 3069   6.019   4.090   4.659
    3OL    C115 3070   6.060   4.303   4.673
    3OL    H15R 3071   6.012   4.397   4.645
    3OL    H15S 3072   6.159   4.302   4.627
    3OL    C116 3073   6.078   4.296   4.827
    3OL    H16R 3074   6.130   4.205   4.854
    3OL    H16S 3075   5.980   4.294   4.875
    3OL    C117 3076   6.156   4.418   4.878
    3OL    H17R 3077   6.102   4.510   4.852
    3OL    H17S 3078   6.254   4.423   4.829
    3OL    C118 3079   6.176   4.413   5.030
    3OL    H18R 3080   6.234   4.325   5.058
    3OL    H18S 3081   6.080   4.409   5.081
    3OL    H18T 3082   6.229   4.502   5.065
    1PA    C116 3083   4.451   4.317   3.790
    1PA    H16R 3084   4.556   4.317   3.821
    1PA    H16S 3085   4.389   4.306   3.879
    1PA    H16T 3086   4.429   4.413   3.744
    1PA    C115 3087   4.424   4.202   3.691
    1PA    H15R 3088   4.320   4.209   3.658
    1PA    H15S 3089   4.486   4.214   3.602
    1PA    C114 3090   4.447   4.064   3.754
    1PA    H14R 3091   4.401   4.060   3.853
    1PA    H14S 3092   4.397   3.989   3.692
    1PA    C113 3093   4.597   4.030   3.762
    1PA    H13R 3094   4.639   4.031   3.661
    1PA    H13S 3095   4.650   4.105   3.821
    1PA    C112 3096   4.620   3.890   3.823
    1PA    H12R 3097   4.548   3.818   3.782
    1PA    H12S 3098   4.719   3.856   3.795
    1PA    C111 3099   4.610   3.892   3.977
    1PA    H11R 3100   4.684   3.963   4.016
    1PA    H11S 3101   4.511   3.926   4.008
    1PA    C110 3102   4.638   3.753   4.036
    1PA    H10R 3103   4.559   3.684   4.005
    1PA    H10S 3104   4.732   3.715   3.996
    1PA     C19 3105   4.645   3.759   4.189
    1PA     H9R 3106   4.719   3.834   4.219
    1PA     H9S 3107   4.549   3.790   4.230
    1PA     C18 3108   4.686   3.622   4.247
    1PA     H8R 3109   4.611   3.547   4.220
    1PA     H8S 3110   4.781   3.591   4.203
    1PA     C17 3111   4.701   3.629   4.400
    1PA     H7R 3112   4.767   3.712   4.427
    1PA     H7S 3113   4.603   3.647   4.446
    1PA     C16 3114   4.761   3.498   4.455
    1PA     H6R 3115   4.699   3.413   4.428
    1PA     H6S 3116   4.858   3.483   4.408
    1PA     C15 3117   4.780   3.505   4.608
    1PA     H5R 3118   4.865   3.442   4.635
    1PA     H5S 3119   4.805   3.607   4.638
    1PA     C14 3120   4.654   3.455   4.682
    1PA     H4R 3121   4.569   3.518   4.658
    1PA     H4S 3122   4.631   3.354   4.648
    1PA     C13 3123   4.674   3.451   4.835
    1PA     H3R 3124   4.591   3.396   4.879
    1PA     H3S 3125   4.766   3.397   4.860
    1PA     C12 3126   4.678   3.593   4.896
    1PA     H2R 3127   4.763   3.648   4.857
    1PA     H2S 3128   4.587   3.646   4.868
    2PC     C11 3129   4.687   3.590   5.047
    2PC     O12 3130   4.776   3.646   5.109
    2PC     O11 3131   4.588   3.520   5.105
    2PC      C1 3132   4.573   3.526   5.250
    2PC      HR 3133   4.512   3.441   5.283
    2PC      HS 3134   4.671   3.519   5.299
    2PC      C2 3135   4.501   3.657   5.288
    2PC      HX 3136   4.540   3.740   5.228
    2PC      C3 3137   4.520   3.688   5.439
    2PC      HA 3138   4.627   3.706   5.458
    2PC      HB 3139   4.464   3.778   5.467
    2PC     O31 3140   4.474   3.576   5.517
    2PC     P31 3141   4.529   3.553   5.665
    2PC     O32 3142   4.484   3.401   5.677
    2PC     C31 3143   4.587   3.303   5.699
    2PC     H1A 3144   4.672   3.324   5.633
    2PC     H1B 3145   4.619   3.308   5.803
    2PC     C32 3146   4.531   3.164   5.663
    2PC     H2A 3147   4.433   3.151   5.709
    2PC     H2B 3148   4.520   3.157   5.555
    2PC     N31 3149   4.616   3.047   5.707
    2PC     C33 3150   4.572   2.924   5.634
    2PC     H3A 3151   4.589   2.939   5.527
    2PC     H3B 3152   4.631   2.839   5.669
    2PC     H3C 3153   4.467   2.907   5.654
    2PC     C34 3154   4.762   3.068   5.675
    2PC     H4A 3155   4.799   3.155   5.731
    2PC     H4B 3156   4.818   2.979   5.705
    2PC     H4C 3157   4.772   3.085   5.568
    2PC     C35 3158   4.598   3.025   5.855
    2PC     H5A 3159   4.658   2.939   5.885
    2PC     H5B 3160   4.492   3.006   5.874
    2PC     H5C 3161   4.630   3.115   5.908
    2PC     O33 3162   4.675   3.570   5.678
    2PC     O34 3163   4.470   3.638   5.771
    2PC     O21 3164   4.361   3.635   5.259
    2PC     C21 3165   4.276   3.739   5.249
    2PC     O22 3166   4.310   3.855   5.254
    3OL     C12 3167   4.133   3.691   5.234
    3OL     H2R 3168   4.073   3.734   5.314
    3OL     H2S 3169   4.132   3.583   5.248
    3OL     C13 3170   4.071   3.725   5.097
    3OL     H3R 3171   4.139   3.694   5.018
    3OL     H3S 3172   4.057   3.833   5.089
    3OL     C14 3173   3.936   3.652   5.081
    3OL     H4R 3174   3.868   3.685   5.160
    3OL     H4S 3175   3.951   3.545   5.094
    3OL     C15 3176   3.872   3.679   4.944
    3OL     H5R 3177   3.944   3.659   4.865
    3OL     H5S 3178   3.844   3.785   4.938
    3OL     C16 3179   3.747   3.591   4.924
    3OL     H6R 3180   3.681   3.604   5.010
    3OL     H6S 3181   3.776   3.486   4.922
    3OL     C17 3182   3.669   3.627   4.796
    3OL     H7R 3183   3.652   3.735   4.792
    3OL     H7S 3184   3.571   3.579   4.802
    3OL     C18 3185   3.738   3.579   4.667
    3OL     H8R 3186   3.757   3.472   4.674
    3OL     H8S 3187   3.834   3.629   4.656
    3OL     C19 3188   3.647   3.606   4.548
    3OL     H9R 3189   3.543   3.576   4.564
    3OL    C110 3190   3.679   3.664   4.433
    3OL    H10R 3191   3.601   3.679   4.359
    3OL    C111 3192   3.816   3.709   4.388
    3OL    H11R 3193   3.838   3.661   4.292
    3OL    H11S 3194   3.894   3.676   4.457
    3OL    C112 3195   3.824   3.862   4.368
    3OL    H12R 3196   3.745   3.892   4.298
    3OL    H12S 3197   3.919   3.887   4.321
    3OL    C113 3198   3.808   3.942   4.499
    3OL    H13R 3199   3.717   3.912   4.551
    3OL    H13S 3200   3.798   4.048   4.474
    3OL    C114 3201   3.931   3.925   4.591
    3OL    H14R 3202   4.021   3.955   4.536
    3OL    H14S 3203   3.942   3.820   4.618
    3OL    C115 3204   3.918   4.009   4.719
    3OL    H15R 3205   3.824   3.985   4.769
    3OL    H15S 3206   3.916   4.116   4.695
    3OL    C116 3207   4.034   3.978   4.817
    3OL    H16R 3208   4.041   3.871   4.831
    3OL    H16S 3209   4.010   4.023   4.915
    3OL    C117 3210   4.169   4.033   4.769
    3OL    H17R 3211   4.167   4.142   4.767
    3OL    H17S 3212   4.191   3.998   4.667
    3OL    C118 3213   4.282   3.985   4.861
    3OL    H18R 3214   4.291   3.876   4.858
    3OL    H18S 3215   4.262   4.014   4.965
    3OL    H18T 3216   4.377   4.029   4.830
    1PA    C116 3217   6.363   0.984   3.865
    1PA    H16R 3218   6.303   0.995   3.774
    1PA    H16S 3219   6.330   0.895   3.918
    1PA    H16T 3220   0.019   0.971   3.836
    1PA    C115 3221   6.347   1.109   3.953
    1PA    H15R 3222   6.380   1.197   3.898
    1PA    H15S 3223   6.241   1.123   3.976
    1PA    C114 3224   6.428   1.095   4.083
    1PA    H14R 3225   6.395   1.007   4.139
    1PA    H14S 3226   0.085   1.079   4.058
    1PA    C113 3227   6.419   1.221   4.173
    1PA    H13R 3228   0.037   1.207   4.259
    1PA    H13S 3229   0.010   1.307   4.118
    1PA    C112 3230   6.276   1.253   4.223
    1PA    H12R 3231   6.280   1.345   4.283
    1PA    H12S 3232   6.211   1.274   4.138
    1PA    C111 3233   6.217   1.140   4.309
    1PA    H11R 3234   6.205   1.050   4.249
    1PA    H11S 3235   6.285   1.117   4.392
    1PA    C110 3236   6.079   1.180   4.366
    1PA    H10R 3237   6.090   1.268   4.431
    1PA    H10S 3238   6.012   1.207   4.284
    1PA     C19 3239   6.018   1.063   4.447
    1PA     H9R 3240   6.006   0.977   4.381
    1PA     H9S 3241   6.087   1.035   4.527
    1PA     C18 3242   5.881   1.101   4.507
    1PA     H8R 3243   5.894   1.184   4.576
    1PA     H8S 3244   5.814   1.133   4.427
    1PA     C17 3245   5.820   0.980   4.580
    1PA     H7R 3246   5.805   0.899   4.508
    1PA     H7S 3247   5.890   0.942   4.655
    1PA     C16 3248   5.683   1.013   4.644
    1PA     H6R 3249   5.621   1.065   4.571
    1PA     H6S 3250   5.632   0.919   4.669
    1PA     C15 3251   5.692   1.099   4.772
    1PA     H5R 3252   5.747   1.192   4.751
    1PA     H5S 3253   5.591   1.127   4.802
    1PA     C14 3254   5.760   1.024   4.889
    1PA     H4R 3255   5.710   0.929   4.905
    1PA     H4S 3256   5.864   1.003   4.863
    1PA     C13 3257   5.758   1.108   5.018
    1PA     H3R 3258   5.844   1.082   5.079
    1PA     H3S 3259   5.766   1.214   4.992
    1PA     C12 3260   5.630   1.082   5.102
    1PA     H2R 3261   5.542   1.088   5.038
    1PA     H2S 3262   5.633   0.982   5.145
    2PC     C11 3263   5.616   1.184   5.213
    2PC     O12 3264   5.667   1.294   5.209
    2PC     O11 3265   5.539   1.140   5.315
    2PC      C1 3266   5.535   1.216   5.439
    2PC      HR 3267   5.550   1.323   5.421
    2PC      HS 3268   5.437   1.201   5.486
    2PC      C2 3269   5.643   1.161   5.535
    2PC      HX 3270   5.637   1.052   5.536
    2PC      C3 3271   5.625   1.216   5.678
    2PC      HA 3272   5.532   1.178   5.722
    2PC      HB 3273   5.709   1.184   5.740
    2PC     O31 3274   5.619   1.361   5.673
    2PC     P31 3275   5.619   1.444   5.809
    2PC     O32 3276   5.754   1.388   5.871
    2PC     C31 3277   5.815   1.458   5.980
    2PC     H1A 3278   5.738   1.503   6.043
    2PC     H1B 3279   5.871   1.386   6.041
    2PC     C32 3280   5.910   1.566   5.926
    2PC     H2A 3281   5.858   1.627   5.852
    2PC     H2B 3282   5.941   1.631   6.008
    2PC     N31 3283   6.039   1.519   5.861
    2PC     C33 3284   6.112   1.640   5.811
    2PC     H3A 3285   6.201   1.606   5.757
    2PC     H3B 3286   6.046   1.695   5.743
    2PC     H3C 3287   6.140   1.702   5.896
    2PC     C34 3288   6.126   1.447   5.960
    2PC     H4A 3289   6.075   1.356   5.993
    2PC     H4B 3290   6.220   1.421   5.910
    2PC     H4C 3291   6.146   1.513   6.044
    2PC     C35 3292   6.013   1.429   5.743
    2PC     H5A 3293   5.965   1.337   5.779
    2PC     H5B 3294   6.109   1.406   5.696
    2PC     H5C 3295   5.948   1.482   5.673
    2PC     O33 3296   5.624   1.590   5.783
    2PC     O34 3297   5.499   1.419   5.893
    2PC     O21 3298   5.774   1.202   5.486
    2PC     C21 3299   5.881   1.128   5.518
    2PC     O22 3300   5.876   1.024   5.582
    3OL     C12 3301   6.009   1.181   5.459
    3OL     H2R 3302   6.093   1.123   5.498
    3OL     H2S 3303   6.023   1.285   5.491
    3OL     C13 3304   6.006   1.175   5.305
    3OL     H3R 3305   5.924   1.237   5.268
    3OL     H3S 3306   5.986   1.072   5.274
    3OL     C14 3307   6.139   1.222   5.244
    3OL     H4R 3308   6.221   1.164   5.288
    3OL     H4S 3309   6.157   1.327   5.270
    3OL     C15 3310   6.143   1.204   5.091
    3OL     H5R 3311   6.107   1.105   5.064
    3OL     H5S 3312   6.247   1.211   5.059
    3OL     C16 3313   6.062   1.312   5.016
    3OL     H6R 3314   6.104   1.411   5.037
    3OL     H6S 3315   5.959   1.313   5.051
    3OL     C17 3316   6.065   1.285   4.864
    3OL     H7R 3317   6.016   1.189   4.844
    3OL     H7S 3318   6.168   1.277   4.830
    3OL     C18 3319   5.993   1.395   4.784
    3OL     H8R 3320   5.891   1.407   4.820
    3OL     H8S 3321   5.986   1.363   4.680
    3OL     C19 3322   6.070   1.526   4.787
    3OL     H9R 3323   6.168   1.521   4.740
    3OL    C110 3324   6.030   1.642   4.839
    3OL    H10R 3325   6.098   1.727   4.833
    3OL    C111 3326   5.900   1.670   4.911
    3OL    H11R 3327   5.923   1.707   5.011
    3OL    H11S 3328   5.840   1.580   4.925
    3OL    C112 3329   5.814   1.776   4.839
    3OL    H12R 3330   5.728   1.801   4.902
    3OL    H12S 3331   5.776   1.734   4.746
    3OL    C113 3332   5.895   1.905   4.807
    3OL    H13R 3333   5.972   1.881   4.734
    3OL    H13S 3334   5.946   1.939   4.897
    3OL    C114 3335   5.808   2.021   4.754
    3OL    H14R 3336   5.874   2.105   4.729
    3OL    H14S 3337   5.741   2.055   4.833
    3OL    C115 3338   5.725   1.983   4.629
    3OL    H15R 3339   5.646   1.913   4.657
    3OL    H15S 3340   5.788   1.933   4.556
    3OL    C116 3341   5.660   2.106   4.561
    3OL    H16R 3342   5.605   2.072   4.474
    3OL    H16S 3343   5.739   2.174   4.526
    3OL    C117 3344   5.565   2.183   4.655
    3OL    H17R 3345   5.620   2.226   4.738
    3OL    H17S 3346   5.491   2.115   4.696
    3OL    C118 3347   5.492   2.296   4.579
    3OL    H18R 3348   5.564   2.370   4.544
    3OL    H18S 3349   5.421   2.345   4.645
    3OL    H18T 3350   5.438   2.256   4.493
    1PA    C116 3351   6.055   0.213   4.002
    1PA    H16R 3352   5.990   0.297   3.981
    1PA    H16S 3353   5.994   0.127   4.030
    1PA    H16T 3354   6.110   0.187   3.911
    1PA    C115 3355   6.155   0.248   4.115
    1PA    H15R 3356   6.217   0.162   4.137
    1PA    H15S 3357   6.221   0.328   4.080
    1PA    C114 3358   6.084   0.296   4.244
    1PA    H14R 3359   6.160   0.335   4.312
    1PA    H14S 3360   6.016   0.378   4.220
    1PA    C113 3361   6.007   0.182   4.314
    1PA    H13R 3362   5.928   0.146   4.247
    1PA    H13S 3363   6.073   0.098   4.333
    1PA    C112 3364   5.941   0.228   4.445
    1PA    H12R 3365   5.888   0.322   4.429
    1PA    H12S 3366   5.866   0.154   4.474
    1PA    C111 3367   6.043   0.241   4.560
    1PA    H11R 3368   6.095   0.146   4.572
    1PA    H11S 3369   6.119   0.317   4.536
    1PA    C110 3370   5.975   0.277   4.694
    1PA    H10R 3371   5.886   0.215   4.708
    1PA    H10S 3372   6.044   0.254   4.776
    1PA     C19 3373   5.936   0.426   4.702
    1PA     H9R 3374   6.025   0.488   4.691
    1PA     H9S 3375   5.867   0.451   4.621
    1PA     C18 3376   5.868   0.457   4.837
    1PA     H8R 3377   5.779   0.395   4.847
    1PA     H8S 3378   5.936   0.430   4.918
    1PA     C17 3379   5.830   0.606   4.848
    1PA     H7R 3380   5.919   0.668   4.840
    1PA     H7S 3381   5.765   0.631   4.763
    1PA     C16 3382   5.754   0.635   4.979
    1PA     H6R 3383   5.710   0.735   4.973
    1PA     H6S 3384   5.670   0.566   4.987
    1PA     C15 3385   5.839   0.627   5.107
    1PA     H5R 3386   5.774   0.647   5.192
    1PA     H5S 3387   5.879   0.526   5.118
    1PA     C14 3388   5.957   0.727   5.109
    1PA     H4R 3389   6.032   0.697   5.035
    1PA     H4S 3390   5.921   0.827   5.081
    1PA     C13 3391   6.020   0.732   5.249
    1PA     H3R 3392   5.948   0.775   5.319
    1PA     H3S 3393   6.045   0.632   5.284
    1PA     C12 3394   6.149   0.818   5.247
    1PA     H2R 3395   6.226   0.766   5.192
    1PA     H2S 3396   6.130   0.912   5.196
    2PC     C11 3397   6.201   0.849   5.386
    2PC     O12 3398   6.145   0.820   5.490
    2PC     O11 3399   6.318   0.916   5.381
    2PC      C1 3400   6.383   0.954   5.505
    2PC      HR 3401   0.018   1.022   5.483
    2PC      HS 3402   6.311   1.005   5.570
    2PC      C2 3403   6.438   0.828   5.576
    2PC      HX 3404   6.360   0.753   5.584
    2PC      C3 3405   0.038   0.859   5.718
    2PC      HA 3406   0.121   0.930   5.718
    2PC      HB 3407   6.403   0.900   5.776
    2PC     O31 3408   0.080   0.733   5.776
    2PC     P31 3409   0.102   0.716   5.933
    2PC     O32 3410   6.405   0.667   5.978
    2PC     C31 3411   6.307   0.765   6.019
    2PC     H1A 3412   6.340   0.812   6.112
    2PC     H1B 3413   6.298   0.842   5.942
    2PC     C32 3414   6.169   0.700   6.038
    2PC     H2A 3415   6.099   0.777   6.069
    2PC     H2B 3416   6.134   0.659   5.943
    2PC     N31 3417   6.156   0.588   6.139
    2PC     C33 3418   6.223   0.622   6.268
    2PC     H3A 3419   6.180   0.715   6.305
    2PC     H3B 3420   6.205   0.542   6.339
    2PC     H3C 3421   6.330   0.635   6.250
    2PC     C34 3422   6.009   0.564   6.166
    2PC     H4A 3423   5.966   0.656   6.205
    2PC     H4B 3424   5.961   0.537   6.072
    2PC     H4C 3425   6.000   0.484   6.239
    2PC     C35 3426   6.214   0.460   6.087
    2PC     H5A 3427   6.200   0.382   6.162
    2PC     H5B 3428   6.321   0.475   6.068
    2PC     H5C 3429   6.162   0.433   5.995
    2PC     O33 3430   0.205   0.613   5.956
    2PC     O34 3431   0.153   0.834   6.005
    2PC     O21 3432   0.104   0.778   5.501
    2PC     C21 3433   0.084   0.676   5.415
    2PC     O22 3434   6.430   0.610   5.408
    3OL     C12 3435   0.204   0.652   5.326
    3OL     H2R 3436   0.208   0.547   5.298
    3OL     H2S 3437   0.294   0.675   5.383
    3OL     C13 3438   0.197   0.742   5.201
    3OL     H3R 3439   0.293   0.739   5.150
    3OL     H3S 3440   0.180   0.845   5.232
    3OL     C14 3441   0.086   0.697   5.105
    3OL     H4R 3442   6.437   0.692   5.155
    3OL     H4S 3443   0.109   0.596   5.071
    3OL     C15 3444   0.076   0.789   4.982
    3OL     H5R 3445   0.027   0.734   4.901
    3OL     H5S 3446   0.176   0.815   4.947
    3OL     C16 3447   6.443   0.917   5.011
    3OL     H6R 3448   0.034   0.965   5.101
    3OL     H6S 3449   6.339   0.891   5.032
    3OL     C17 3450   6.448   1.019   4.895
    3OL     H7R 3451   0.104   1.049   4.879
    3OL     H7S 3452   6.394   1.109   4.925
    3OL     C18 3453   6.389   0.968   4.762
    3OL     H8R 3454   0.003   0.887   4.723
    3OL     H8S 3455   6.395   1.049   4.690
    3OL     C19 3456   6.243   0.925   4.776
    3OL     H9R 3457   6.178   1.000   4.820
    3OL    C110 3458   6.191   0.810   4.735
    3OL    H10R 3459   6.085   0.792   4.748
    3OL    C111 3460   6.268   0.694   4.674
    3OL    H11R 3461   6.221   0.600   4.702
    3OL    H11S 3462   6.370   0.691   4.713
    3OL    C112 3463   6.276   0.704   4.520
    3OL    H12R 3464   6.339   0.623   4.483
    3OL    H12S 3465   6.323   0.798   4.492
    3OL    C113 3466   6.137   0.694   4.453
    3OL    H13R 3467   6.071   0.772   4.492
    3OL    H13S 3468   6.092   0.597   4.476
    3OL    C114 3469   6.151   0.710   4.300
    3OL    H14R 3470   6.217   0.632   4.262
    3OL    H14S 3471   6.198   0.807   4.278
    3OL    C115 3472   6.014   0.703   4.230
    3OL    H15R 3473   5.947   0.777   4.274
    3OL    H15S 3474   5.968   0.605   4.247
    3OL    C116 3475   6.025   0.730   4.078
    3OL    H16R 3476   6.079   0.824   4.062
    3OL    H16S 3477   5.925   0.742   4.038
    3OL    C117 3478   6.096   0.616   4.002
    3OL    H17R 3479   6.042   0.523   4.018
    3OL    H17S 3480   6.198   0.603   4.040
    3OL    C118 3481   6.102   0.647   3.852
    3OL    H18R 3482   6.150   0.565   3.798
    3OL    H18S 3483   6.160   0.738   3.833
    3OL    H18T 3484   6.002   0.661   3.812
    1PA    C116 3485   5.620   4.196   3.867
    1PA    H16R 3486   5.695   4.261   3.823
    1PA    H16S 3487   5.658   4.159   3.962
    1PA    H16T 3488   5.605   4.111   3.800
    1PA    C115 3489   5.487   4.272   3.886
    1PA    H15R 3490   5.452   4.305   3.789
    1PA    H15S 3491   5.411   4.205   3.928
    1PA    C114 3492   5.505   4.395   3.977
    1PA    H14R 3493   5.599   4.446   3.952
    1PA    H14S 3494   5.424   4.465   3.957
    1PA    C113 3495   5.502   4.359   4.127
    1PA    H13R 3496   5.402   4.321   4.152
    1PA    H13S 3497   5.573   4.279   4.150
    1PA    C112 3498   5.531   4.482   4.215
    1PA    H12R 3499   5.484   4.571   4.172
    1PA    H12S 3500   5.487   4.467   4.314
    1PA    C111 3501   5.683   4.503   4.232
    1PA    H11R 3502   5.725   4.424   4.294
    1PA    H11S 3503   5.731   4.496   4.134
    1PA    C110 3504   5.719   4.641   4.292
    1PA    H10R 3505   5.828   4.649   4.297
    1PA    H10S 3506   5.685   4.719   4.223
    1PA     C19 3507   5.661   4.670   4.432
    1PA     H9R 3508   5.690   4.771   4.461
    1PA     H9S 3509   5.552   4.667   4.429
    1PA     C18 3510   5.712   4.570   4.538
    1PA     H8R 3511   5.667   4.473   4.522
    1PA     H8S 3512   5.820   4.559   4.528
    1PA     C17 3513   5.680   4.620   4.681
    1PA     H7R 3514   5.725   4.718   4.696
    1PA     H7S 3515   5.572   4.631   4.692
    1PA     C16 3516   5.733   4.521   4.786
    1PA     H6R 3517   5.682   4.425   4.775
    1PA     H6S 3518   5.840   4.504   4.769
    1PA     C15 3519   5.713   4.575   4.930
    1PA     H5R 3520   5.771   4.667   4.942
    1PA     H5S 3521   5.608   4.598   4.946
    1PA     C14 3522   5.759   4.470   5.033
    1PA     H4R 3523   5.695   4.382   5.027
    1PA     H4S 3524   5.861   4.438   5.010
    1PA     C13 3525   5.756   4.527   5.177
    1PA     H3R 3526   5.825   4.611   5.182
    1PA     H3S 3527   5.656   4.563   5.200
    1PA     C12 3528   5.799   4.420   5.279
    1PA     H2R 3529   5.728   4.337   5.278
    1PA     H2S 3530   5.897   4.382   5.253
    2PC     C11 3531   5.806   4.477   5.419
    2PC     O12 3532   5.910   4.507   5.474
    2PC     O11 3533   5.685   4.488   5.476
    2PC      C1 3534   5.677   4.545   5.610
    2PC      HR 3535   5.754   4.501   5.674
    2PC      HS 3536   5.693   4.653   5.607
    2PC      C2 3537   5.538   4.513   5.670
    2PC      HX 3538   5.536   4.542   5.775
    2PC      C3 3539   5.510   4.362   5.661
    2PC      HA 3540   5.493   4.332   5.557
    2PC      HB 3541   5.595   4.306   5.702
    2PC     O31 3542   5.393   4.333   5.740
    2PC     P31 3543   5.346   4.182   5.756
    2PC     O32 3544   5.189   4.206   5.761
    2PC     C31 3545   5.133   4.259   5.882
    2PC     H1A 3546   5.141   4.186   5.963
    2PC     H1B 3547   5.187   4.350   5.910
    2PC     C32 3548   4.985   4.294   5.854
    2PC     H2A 3549   4.946   4.358   5.933
    2PC     H2B 3550   4.981   4.350   5.761
    2PC     N31 3551   4.887   4.180   5.839
    2PC     C33 3552   4.767   4.231   5.765
    2PC     H3A 3553   4.728   4.318   5.819
    2PC     H3B 3554   4.797   4.259   5.664
    2PC     H3C 3555   4.692   4.152   5.761
    2PC     C34 3556   4.943   4.064   5.763
    2PC     H4A 3557   5.021   4.017   5.823
    2PC     H4B 3558   4.863   3.993   5.743
    2PC     H4C 3559   4.986   4.102   5.670
    2PC     C35 3560   4.844   4.130   5.974
    2PC     H5A 3561   4.931   4.089   6.025
    2PC     H5B 3562   4.768   4.053   5.960
    2PC     H5C 3563   4.803   4.214   6.031
    2PC     O33 3564   5.382   4.093   5.643
    2PC     O34 3565   5.399   4.116   5.877
    2PC     O21 3566   5.436   4.585   5.596
    2PC     C21 3567   5.414   4.714   5.626
    2PC     O22 3568   5.471   4.773   5.716
    3OL     C12 3569   5.310   4.780   5.539
    3OL     H2R 3570   5.308   4.887   5.562
    3OL     H2S 3571   5.212   4.739   5.565
    3OL     C13 3572   5.337   4.760   5.389
    3OL     H3R 3573   5.327   4.654   5.364
    3OL     H3S 3574   5.439   4.790   5.367
    3OL     C14 3575   5.238   4.842   5.303
    3OL     H4R 3576   5.253   4.948   5.323
    3OL     H4S 3577   5.136   4.818   5.334
    3OL     C15 3578   5.251   4.816   5.152
    3OL     H5R 3579   5.174   4.873   5.100
    3OL     H5S 3580   5.232   4.710   5.131
    3OL     C16 3581   5.390   4.856   5.096
    3OL     H6R 3582   5.467   4.799   5.147
    3OL     H6S 3583   5.408   4.962   5.117
    3OL     C17 3584   5.404   4.830   4.944
    3OL     H7R 3585   5.381   4.726   4.922
    3OL     H7S 3586   5.508   4.847   4.917
    3OL     C18 3587   5.315   4.923   4.860
    3OL     H8R 3588   5.323   5.024   4.899
    3OL     H8S 3589   5.210   4.893   4.869
    3OL     C19 3590   5.360   4.925   4.715
    3OL     H9R 3591   5.444   4.991   4.696
    3OL    C110 3592   5.307   4.858   4.613
    3OL    H10R 3593   5.350   4.870   4.515
    3OL    C111 3594   5.188   4.765   4.620
    3OL    H11R 3595   5.125   4.787   4.706
    3OL    H11S 3596   5.223   4.662   4.632
    3OL    C112 3597   5.101   4.771   4.492
    3OL    H12R 3598   5.064   4.872   4.478
    3OL    H12S 3599   5.015   4.706   4.506
    3OL    C113 3600   5.179   4.725   4.367
    3OL    H13R 3601   5.224   4.628   4.385
    3OL    H13S 3602   5.260   4.795   4.345
    3OL    C114 3603   5.085   4.717   4.245
    3OL    H14R 3604   5.045   4.816   4.222
    3OL    H14S 3605   5.001   4.651   4.268
    3OL    C115 3606   5.160   4.662   4.121
    3OL    H15R 3607   5.202   4.564   4.145
    3OL    H15S 3608   5.242   4.729   4.096
    3OL    C116 3609   5.065   4.648   4.001
    3OL    H16R 3610   5.021   4.745   3.976
    3OL    H16S 3611   4.982   4.582   4.028
    3OL    C117 3612   5.135   4.589   3.877
    3OL    H17R 3613   5.060   4.562   3.803
    3OL    H17S 3614   5.188   4.498   3.904
    3OL    C118 3615   5.234   4.688   3.812
    3OL    H18R 3616   5.278   4.644   3.723
    3OL    H18S 3617   5.314   4.714   3.881
    3OL    H18T 3618   5.182   4.780   3.783
    1PA    C116 3619   0.608   1.672   3.891
    1PA    H16R 3620   0.504   1.659   3.922
    1PA    H16S 3621   0.649   1.574   3.866
    1PA    H16T 3622   0.609   1.734   3.801
    1PA    C115 3623   0.689   1.738   4.003
    1PA    H15R 3624   0.645   1.836   4.027
    1PA    H15S 3625   0.683   1.676   4.093
    1PA    C114 3626   0.836   1.756   3.961
    1PA    H14R 3627   0.880   1.659   3.939
    1PA    H14S 3628   0.839   1.814   3.869
    1PA    C113 3629   0.919   1.828   4.068
    1PA    H13R 3630   1.017   1.851   4.025
    1PA    H13S 3631   0.872   1.923   4.094
    1PA    C112 3632   0.940   1.743   4.195
    1PA    H12R 3633   0.844   1.723   4.243
    1PA    H12S 3634   0.985   1.648   4.168
    1PA    C111 3635   1.031   1.819   4.294
    1PA    H11R 3636   1.122   1.848   4.242
    1PA    H11S 3637   0.981   1.911   4.326
    1PA    C110 3638   1.071   1.736   4.418
    1PA    H10R 3639   1.123   1.646   4.385
    1PA    H10S 3640   1.142   1.795   4.476
    1PA     C19 3641   0.952   1.697   4.507
    1PA     H9R 3642   0.896   1.787   4.533
    1PA     H9S 3643   0.884   1.631   4.454
    1PA     C18 3644   1.000   1.630   4.638
    1PA     H8R 3645   1.074   1.694   4.686
    1PA     H8S 3646   0.915   1.621   4.706
    1PA     C17 3647   1.059   1.489   4.613
    1PA     H7R 3648   0.981   1.426   4.569
    1PA     H7S 3649   1.141   1.494   4.541
    1PA     C16 3650   1.110   1.423   4.743
    1PA     H6R 3651   1.032   1.428   4.819
    1PA     H6S 3652   1.130   1.318   4.722
    1PA     C15 3653   1.240   1.489   4.794
    1PA     H5R 3654   1.314   1.487   4.714
    1PA     H5S 3655   1.222   1.594   4.818
    1PA     C14 3656   1.298   1.415   4.916
    1PA     H4R 3657   1.315   1.310   4.890
    1PA     H4S 3658   1.396   1.458   4.940
    1PA     C13 3659   1.209   1.422   5.042
    1PA     H3R 3660   1.113   1.374   5.024
    1PA     H3S 3661   1.259   1.366   5.122
    1PA     C12 3662   1.186   1.567   5.091
    1PA     H2R 3663   1.281   1.619   5.096
    1PA     H2S 3664   1.122   1.621   5.021
    2PC     C11 3665   1.121   1.572   5.227
    2PC     O12 3666   1.060   1.479   5.277
    2PC     O11 3667   1.145   1.688   5.291
    2PC      C1 3668   1.101   1.701   5.429
    2PC      HR 3669   0.994   1.680   5.437
    2PC      HS 3670   1.155   1.629   5.491
    2PC      C2 3671   1.133   1.844   5.477
    2PC      HX 3672   1.236   1.868   5.447
    2PC      C3 3673   1.126   1.855   5.631
    2PC      HA 3674   1.025   1.833   5.667
    2PC      HB 3675   1.196   1.784   5.678
    2PC     O31 3676   1.164   1.989   5.668
    2PC     P31 3677   1.137   2.039   5.816
    2PC     O32 3678   0.979   2.029   5.819
    2PC     C31 3679   0.900   2.145   5.790
    2PC     H1A 3680   0.913   2.218   5.870
    2PC     H1B 3681   0.932   2.189   5.695
    2PC     C32 3682   0.754   2.097   5.780
    2PC     H2A 3683   0.745   2.027   5.697
    2PC     H2B 3684   0.728   2.044   5.872
    2PC     N31 3685   0.646   2.202   5.760
    2PC     C33 3686   0.638   2.292   5.880
    2PC     H3A 3687   0.557   2.364   5.863
    2PC     H3B 3688   0.616   2.230   5.967
    2PC     H3C 3689   0.733   2.343   5.893
    2PC     C34 3690   0.671   2.285   5.637
    2PC     H4A 3691   0.587   2.353   5.623
    2PC     H4B 3692   0.764   2.341   5.650
    2PC     H4C 3693   0.680   2.218   5.551
    2PC     C35 3694   0.514   2.133   5.743
    2PC     H5A 3695   0.437   2.208   5.731
    2PC     H5B 3696   0.495   2.072   5.831
    2PC     H5C 3697   0.519   2.069   5.654
    2PC     O33 3698   1.199   1.956   5.922
    2PC     O34 3699   1.191   2.175   5.832
    2PC     O21 3700   1.046   1.941   5.413
    2PC     C21 3701   0.912   1.944   5.434
    2PC     O22 3702   0.850   1.868   5.506
    3OL     C12 3703   0.845   2.051   5.351
    3OL     H2R 3704   0.890   2.147   5.376
    3OL     H2S 3705   0.739   2.056   5.377
    3OL     C13 3706   0.862   2.024   5.200
    3OL     H3R 3707   0.968   2.014   5.176
    3OL     H3S 3708   0.825   2.112   5.146
    3OL     C14 3709   0.785   1.899   5.154
    3OL     H4R 3710   0.678   1.915   5.168
    3OL     H4S 3711   0.813   1.814   5.216
    3OL     C15 3712   0.813   1.862   5.007
    3OL     H5R 3713   0.758   1.771   4.982
    3OL     H5S 3714   0.919   1.841   4.995
    3OL     C16 3715   0.771   1.974   4.908
    3OL     H6R 3716   0.827   2.065   4.932
    3OL     H6S 3717   0.665   1.995   4.919
    3OL     C17 3718   0.801   1.932   4.763
    3OL     H7R 3719   0.742   1.844   4.738
    3OL     H7S 3720   0.906   1.904   4.753
    3OL     C18 3721   0.769   2.044   4.662
    3OL     H8R 3722   0.664   2.071   4.671
    3OL     H8S 3723   0.784   2.006   4.561
    3OL     C19 3724   0.855   2.167   4.687
    3OL     H9R 3725   0.836   2.216   4.782
    3OL    C110 3726   0.949   2.216   4.607
    3OL    H10R 3727   1.004   2.304   4.639
    3OL    C111 3728   0.987   2.162   4.472
    3OL    H11R 3729   0.902   2.116   4.422
    3OL    H11S 3730   1.064   2.086   4.485
    3OL    C112 3731   1.043   2.274   4.381
    3OL    H12R 3732   1.131   2.320   4.427
    3OL    H12S 3733   0.967   2.351   4.371
    3OL    C113 3734   1.079   2.221   4.241
    3OL    H13R 3735   1.093   2.306   4.174
    3OL    H13S 3736   0.996   2.162   4.202
    3OL    C114 3737   1.209   2.137   4.242
    3OL    H14R 3738   1.200   2.057   4.316
    3OL    H14S 3739   1.294   2.198   4.271
    3OL    C115 3740   1.235   2.071   4.105
    3OL    H15R 3741   1.142   2.030   4.065
    3OL    H15S 3742   1.304   1.987   4.119
    3OL    C116 3743   1.297   2.169   4.003
    3OL    H16R 3744   1.393   2.204   4.040
    3OL    H16S 3745   1.231   2.256   3.993
    3OL    C117 3746   1.315   2.105   3.864
    3OL    H17R 3747   1.341   2.183   3.793
    3OL    H17S 3748   1.221   2.061   3.830
    3OL    C118 3749   1.426   1.998   3.863
    3OL    H18R 3750   1.399   1.913   3.926
    3OL    H18S 3751   1.520   2.041   3.899
    3OL    H18T 3752   1.442   1.962   3.761
    1PA    C116 3753   1.831   2.109   3.899
    1PA    H16R 3754   1.734   2.097   3.852
    1PA    H16S 3755   1.840   2.035   3.980
    1PA    H16T 3756   1.908   2.087   3.825
    1PA    C115 3757   1.848   2.251   3.954
    1PA    H15R 3758   1.842   2.323   3.872
    1PA    H15S 3759   1.766   2.273   4.023
    1PA    C114 3760   1.982   2.266   4.028
    1PA    H14R 3761   1.984   2.197   4.113
    1PA    H14S 3762   2.064   2.238   3.961
    1PA    C113 3763   2.003   2.410   4.079
    1PA    H13R 3764   2.006   2.478   3.993
    1PA    H13S 3765   1.920   2.439   4.143
    1PA    C112 3766   2.135   2.420   4.158
    1PA    H12R 3767   2.131   2.351   4.242
    1PA    H12S 3768   2.218   2.389   4.094
    1PA    C111 3769   2.159   2.564   4.208
    1PA    H11R 3770   2.165   2.631   4.121
    1PA    H11S 3771   2.075   2.597   4.269
    1PA    C110 3772   2.290   2.577   4.288
    1PA    H10R 3773   2.373   2.535   4.231
    1PA    H10S 3774   2.311   2.683   4.304
    1PA     C19 3775   2.280   2.507   4.425
    1PA     H9R 3776   2.194   2.545   4.480
    1PA     H9S 3777   2.264   2.399   4.412
    1PA     C18 3778   2.407   2.528   4.509
    1PA     H8R 3779   2.492   2.482   4.459
    1PA     H8S 3780   2.428   2.635   4.518
    1PA     C17 3781   2.390   2.468   4.650
    1PA     H7R 3782   2.307   2.519   4.701
    1PA     H7S 3783   2.364   2.363   4.641
    1PA     C16 3784   2.519   2.484   4.733
    1PA     H6R 3785   2.600   2.427   4.686
    1PA     H6S 3786   2.549   2.589   4.732
    1PA     C15 3787   2.501   2.439   4.880
    1PA     H5R 3788   2.594   2.461   4.934
    1PA     H5S 3789   2.422   2.499   4.926
    1PA     C14 3790   2.468   2.289   4.894
    1PA     H4R 3791   2.372   2.268   4.847
    1PA     H4S 3792   2.545   2.230   4.844
    1PA     C13 3793   2.462   2.250   5.043
    1PA     H3R 3794   2.559   2.268   5.089
    1PA     H3S 3795   2.388   2.313   5.094
    1PA     C12 3796   2.422   2.102   5.060
    1PA     H2R 3797   2.323   2.085   5.019
    1PA     H2S 3798   2.492   2.037   5.006
    2PC     C11 3799   2.422   2.060   5.205
    2PC     O12 3800   2.480   2.121   5.294
    2PC     O11 3801   2.351   1.948   5.226
    2PC      C1 3802   2.344   1.893   5.360
    2PC      HR 3803   2.305   1.791   5.355
    2PC      HS 3804   2.445   1.888   5.402
    2PC      C2 3805   2.253   1.978   5.452
    2PC      HX 3806   2.271   2.085   5.436
    2PC      C3 3807   2.278   1.944   5.600
    2PC      HA 3808   2.379   1.978   5.627
    2PC      HB 3809   2.205   1.995   5.664
    2PC     O31 3810   2.269   1.801   5.620
    2PC     P31 3811   2.320   1.737   5.757
    2PC     O32 3812   2.183   1.722   5.836
    2PC     C31 3813   2.167   1.604   5.917
    2PC     H1A 3814   2.174   1.516   5.852
    2PC     H1B 3815   2.246   1.600   5.992
    2PC     C32 3816   2.029   1.611   5.984
    2PC     H2A 3817   2.028   1.693   6.056
    2PC     H2B 3818   1.952   1.631   5.909
    2PC     N31 3819   1.983   1.488   6.060
    2PC     C33 3820   1.848   1.517   6.120
    2PC     H3A 3821   1.811   1.427   6.170
    2PC     H3B 3822   1.858   1.599   6.192
    2PC     H3C 3823   1.780   1.546   6.040
    2PC     C34 3824   1.969   1.371   5.967
    2PC     H4A 3825   1.930   1.287   6.024
    2PC     H4B 3826   1.900   1.397   5.886
    2PC     H4C 3827   2.068   1.345   5.927
    2PC     C35 3828   2.077   1.452   6.171
    2PC     H5A 3829   2.175   1.427   6.128
    2PC     H5B 3830   2.037   1.366   6.225
    2PC     H5C 3831   2.087   1.538   6.238
    2PC     O33 3832   2.384   1.607   5.725
    2PC     O34 3833   2.418   1.819   5.831
    2PC     O21 3834   2.115   1.945   5.422
    2PC     C21 3835   2.051   2.008   5.321
    2PC     O22 3836   2.094   2.107   5.265
    3OL     C12 3837   1.920   1.941   5.287
    3OL     H2R 3838   1.841   1.990   5.344
    3OL     H2S 3839   1.924   1.837   5.320
    3OL     C13 3840   1.887   1.945   5.136
    3OL     H3R 3841   1.882   2.049   5.104
    3OL     H3S 3842   1.789   1.901   5.120
    3OL     C14 3843   1.990   1.868   5.051
    3OL     H4R 3844   1.997   1.765   5.089
    3OL     H4S 3845   2.089   1.913   5.061
    3OL     C15 3846   1.950   1.862   4.902
    3OL     H5R 3847   1.850   1.819   4.892
    3OL     H5S 3848   2.019   1.795   4.850
    3OL     C16 3849   1.954   2.000   4.835
    3OL     H6R 3850   2.053   2.045   4.850
    3OL     H6S 3851   1.881   2.066   4.881
    3OL     C17 3852   1.924   1.991   4.684
    3OL     H7R 3853   1.825   1.947   4.670
    3OL     H7S 3854   1.996   1.925   4.636
    3OL     C18 3855   1.928   2.130   4.619
    3OL     H8R 3856   2.029   2.171   4.629
    3OL     H8S 3857   1.861   2.196   4.674
    3OL     C19 3858   1.892   2.123   4.472
    3OL     H9R 3859   1.963   2.069   4.410
    3OL    C110 3860   1.783   2.176   4.416
    3OL    H10R 3861   1.769   2.164   4.309
    3OL    C111 3862   1.675   2.256   4.486
    3OL    H11R 3863   1.643   2.337   4.420
    3OL    H11S 3864   1.713   2.303   4.576
    3OL    C112 3865   1.554   2.167   4.519
    3OL    H12R 3866   1.582   2.093   4.595
    3OL    H12S 3867   1.524   2.112   4.430
    3OL    C113 3868   1.432   2.248   4.569
    3OL    H13R 3869   1.348   2.179   4.583
    3OL    H13S 3870   1.402   2.320   4.492
    3OL    C114 3871   1.460   2.322   4.701
    3OL    H14R 3872   1.541   2.394   4.685
    3OL    H14S 3873   1.494   2.252   4.778
    3OL    C115 3874   1.337   2.402   4.750
    3OL    H15R 3875   1.293   2.455   4.666
    3OL    H15S 3876   1.370   2.477   4.822
    3OL    C116 3877   1.229   2.313   4.817
    3OL    H16R 3878   1.206   2.227   4.754
    3OL    H16S 3879   1.137   2.372   4.825
    3OL    C117 3880   1.271   2.267   4.958
    3OL    H17R 3881   1.297   2.354   5.019
    3OL    H17S 3882   1.360   2.204   4.951
    3OL    C118 3883   1.158   2.189   5.026
    3OL    H18R 3884   1.069   2.251   5.036
    3OL    H18S 3885   1.189   2.157   5.126
    3OL    H18T 3886   1.132   2.100   4.968
    1PA    C116 3887   5.996   6.083   3.371
    1PA    H16R 3888   5.911   6.138   3.331
    1PA    H16S 3889   6.021   6.003   3.302
    1PA    H16T 3890   6.081   6.151   3.377
    1PA    C115 3891   5.963   6.027   3.510
    1PA    H15R 3892   5.936   6.110   3.576
    1PA    H15S 3893   5.875   5.962   3.503
    1PA    C114 3894   6.081   5.948   3.569
    1PA    H14R 3895   6.105   5.866   3.501
    1PA    H14S 3896   6.169   6.012   3.576
    1PA    C113 3897   6.050   5.887   3.707
    1PA    H13R 3898   5.959   5.827   3.701
    1PA    H13S 3899   6.131   5.821   3.736
    1PA    C112 3900   6.034   5.995   3.816
    1PA    H12R 3901   6.124   6.056   3.822
    1PA    H12S 3902   5.951   6.062   3.790
    1PA    C111 3903   6.006   5.932   3.954
    1PA    H11R 3904   5.919   5.867   3.946
    1PA    H11S 3905   6.091   5.871   3.984
    1PA    C110 3906   5.979   6.042   4.059
    1PA    H10R 3907   6.067   6.106   4.070
    1PA    H10S 3908   5.898   6.106   4.021
    1PA     C19 3909   5.935   5.985   4.195
    1PA     H9R 3910   5.860   6.052   4.237
    1PA     H9S 3911   5.886   5.888   4.183
    1PA     C18 3912   6.050   5.975   4.298
    1PA     H8R 3913   6.113   6.064   4.293
    1PA     H8S 3914   6.005   5.973   4.397
    1PA     C17 3915   6.136   5.848   4.279
    1PA     H7R 3916   6.072   5.759   4.281
    1PA     H7S 3917   6.184   5.852   4.182
    1PA     C16 3918   6.245   5.835   4.388
    1PA     H6R 3919   6.309   5.751   4.361
    1PA     H6S 3920   6.307   5.925   4.389
    1PA     C15 3921   6.186   5.809   4.528
    1PA     H5R 3922   6.128   5.896   4.561
    1PA     H5S 3923   6.120   5.723   4.525
    1PA     C14 3924   6.298   5.782   4.630
    1PA     H4R 3925   6.356   5.696   4.597
    1PA     H4S 3926   6.367   5.867   4.635
    1PA     C13 3927   6.242   5.752   4.770
    1PA     H3R 3928   6.159   5.681   4.763
    1PA     H3S 3929   6.320   5.704   4.829
    1PA     C12 3930   6.195   5.879   4.844
    1PA     H2R 3931   6.270   5.958   4.834
    1PA     H2S 3932   6.102   5.916   4.800
    2PC     C11 3933   6.174   5.853   4.991
    2PC     O12 3934   6.251   5.787   5.059
    2PC     O11 3935   6.062   5.911   5.038
    2PC      C1 3936   6.037   5.911   5.182
    2PC      HR 3937   5.937   5.949   5.201
    2PC      HS 3938   6.043   5.808   5.220
    2PC      C2 3939   6.142   5.999   5.253
    2PC      HX 3940   6.240   5.950   5.248
    2PC      C3 3941   6.109   6.019   5.403
    2PC      HA 3942   6.013   6.069   5.416
    2PC      HB 3943   6.104   5.921   5.451
    2PC     O31 3944   6.215   6.098   5.463
    2PC     P31 3945   6.250   6.080   5.618
    2PC     O32 3946   6.113   6.112   5.693
    2PC     C31 3947   6.055   6.009   5.775
    2PC     H1A 3948   6.030   5.924   5.711
    2PC     H1B 3949   6.127   5.976   5.850
    2PC     C32 3950   5.926   6.059   5.842
    2PC     H2A 3951   5.858   6.097   5.765
    2PC     H2B 3952   5.877   5.975   5.891
    2PC     N31 3953   5.936   6.167   5.947
    2PC     C33 3954   6.024   6.124   6.061
    2PC     H3A 3955   5.985   6.030   6.101
    2PC     H3B 3956   6.126   6.110   6.024
    2PC     H3C 3957   6.021   6.201   6.138
    2PC     C34 3958   5.988   6.296   5.890
    2PC     H4A 3959   5.987   6.372   5.968
    2PC     H4B 3960   6.090   6.280   5.854
    2PC     H4C 3961   5.924   6.326   5.807
    2PC     C35 3962   5.798   6.193   6.000
    2PC     H5A 3963   5.804   6.269   6.078
    2PC     H5B 3964   5.760   6.100   6.042
    2PC     H5C 3965   5.735   6.227   5.918
    2PC     O33 3966   6.306   5.947   5.649
    2PC     O34 3967   6.357   6.172   5.659
    2PC     O21 3968   6.155   6.127   5.184
    2PC     C21 3969   6.051   6.211   5.168
    2PC     O22 3970   5.938   6.195   5.212
    3OL     C12 3971   6.090   6.334   5.089
    3OL     H2R 3972   6.195   6.355   5.110
    3OL     H2S 3973   6.033   6.418   5.126
    3OL     C13 3974   6.070   6.320   4.937
    3OL     H3R 3975   6.125   6.233   4.901
    3OL     H3S 3976   6.111   6.409   4.889
    3OL     C14 3977   5.921   6.307   4.898
    3OL     H4R 3978   5.862   6.378   4.957
    3OL     H4S 3979   5.884   6.207   4.922
    3OL     C15 3980   5.898   6.338   4.748
    3OL     H5R 3981   5.939   6.437   4.726
    3OL     H5S 3982   5.790   6.343   4.730
    3OL     C16 3983   5.961   6.233   4.654
    3OL     H6R 3984   5.910   6.137   4.664
    3OL     H6S 3985   6.065   6.218   4.682
    3OL     C17 3986   5.958   6.280   4.507
    3OL     H7R 3987   6.023   6.214   4.449
    3OL     H7S 3988   6.000   6.380   4.499
    3OL     C18 3989   5.817   6.277   4.444
    3OL     H8R 3990   5.751   6.344   4.499
    3OL     H8S 3991   5.777   6.176   4.452
    3OL     C19 3992   5.823   6.319   4.298
    3OL     H9R 3993   5.923   6.323   4.256
    3OL    C110 3994   5.719   6.351   4.222
    3OL    H10R 3995   5.736   6.381   4.119
    3OL    C111 3996   5.574   6.349   4.265
    3OL    H11R 3997   5.564   6.306   4.365
    3OL    H11S 3998   5.518   6.284   4.198
    3OL    C112 3999   5.508   0.041   4.263
    3OL    H12R 4000   5.406   0.032   4.302
    3OL    H12S 4001   5.500   0.076   4.160
    3OL    C113 4002   5.588   0.143   4.346
    3OL    H13R 4003   5.681   0.168   4.295
    3OL    H13S 4004   5.616   0.097   4.441
    3OL    C114 4005   5.508   0.271   4.377
    3OL    H14R 4006   5.565   0.333   4.446
    3OL    H14S 4007   5.415   0.244   4.429
    3OL    C115 4008   5.472   0.357   4.253
    3OL    H15R 4009   5.413   0.443   4.287
    3OL    H15S 4010   5.408   0.299   4.186
    3OL    C116 4011   5.596   0.407   4.177
    3OL    H16R 4012   5.642   0.324   4.123
    3OL    H16S 4013   5.670   0.444   4.249
    3OL    C117 4014   5.563   0.521   4.079
    3OL    H17R 4015   5.656   0.553   4.030
    3OL    H17S 4016   5.525   0.607   4.134
    3OL    C118 4017   5.461   0.481   3.971
    3OL    H18R 4018   5.364   0.457   4.016
    3OL    H18S 4019   5.496   0.394   3.915
    3OL    H18T 4020   5.446   0.564   3.901
    1PA    C116 4021   2.485   3.883   3.883
    1PA    H16R 4022   2.429   3.804   3.833
    1PA    H16S 4023   2.569   3.911   3.819
    1PA    H16T 4024   2.419   3.970   3.893
    1PA    C115 4025   2.535   3.837   4.020
    1PA    H15R 4026   2.592   3.917   4.067
    1PA    H15S 4027   2.448   3.817   4.084
    1PA    C114 4028   2.623   3.711   4.007
    1PA    H14R 4029   2.567   3.630   3.960
    1PA    H14S 4030   2.706   3.735   3.941
    1PA    C113 4031   2.681   3.664   4.142
    1PA    H13R 4032   2.779   3.619   4.122
    1PA    H13S 4033   2.699   3.748   4.209
    1PA    C112 4034   2.596   3.555   4.212
    1PA    H12R 4035   2.566   3.479   4.140
    1PA    H12S 4036   2.659   3.506   4.287
    1PA    C111 4037   2.472   3.612   4.284
    1PA    H11R 4038   2.503   3.690   4.354
    1PA    H11S 4039   2.404   3.656   4.211
    1PA    C110 4040   2.397   3.500   4.360
    1PA    H10R 4041   2.364   3.425   4.288
    1PA    H10S 4042   2.465   3.452   4.430
    1PA     C19 4043   2.275   3.558   4.435
    1PA     H9R 4044   2.309   3.635   4.504
    1PA     H9S 4045   2.209   3.606   4.363
    1PA     C18 4046   2.194   3.449   4.509
    1PA     H8R 4047   2.100   3.492   4.543
    1PA     H8S 4048   2.169   3.370   4.438
    1PA     C17 4049   2.268   3.386   4.630
    1PA     H7R 4050   2.212   3.299   4.664
    1PA     H7S 4051   2.365   3.348   4.596
    1PA     C16 4052   2.290   3.483   4.748
    1PA     H6R 4053   2.368   3.442   4.813
    1PA     H6S 4054   2.329   3.578   4.710
    1PA     C15 4055   2.163   3.510   4.831
    1PA     H5R 4056   2.176   3.601   4.890
    1PA     H5S 4057   2.078   3.527   4.765
    1PA     C14 4058   2.130   3.392   4.926
    1PA     H4R 4059   2.026   3.402   4.959
    1PA     H4S 4060   2.139   3.298   4.873
    1PA     C13 4061   2.220   3.390   5.051
    1PA     H3R 4062   2.325   3.389   5.021
    1PA     H3S 4063   2.203   3.481   5.110
    1PA     C12 4064   2.191   3.266   5.138
    1PA     H2R 4065   2.086   3.263   5.165
    1PA     H2S 4066   2.213   3.176   5.081
    2PC     C11 4067   2.272   3.266   5.265
    2PC     O12 4068   2.262   3.353   5.350
    2PC     O11 4069   2.355   3.160   5.274
    2PC      C1 4070   2.428   3.141   5.398
    2PC      HR 4071   2.501   3.221   5.413
    2PC      HS 4072   2.357   3.143   5.482
    2PC      C2 4073   2.497   3.004   5.394
    2PC      HX 4074   2.422   2.928   5.369
    2PC      C3 4075   2.559   2.969   5.531
    2PC      HA 4076   2.481   2.967   5.607
    2PC      HB 4077   2.607   2.871   5.527
    2PC     O31 4078   2.657   3.070   5.565
    2PC     P31 4079   2.723   3.069   5.710
    2PC     O32 4080   2.875   3.077   5.664
    2PC     C31 4081   2.977   3.019   5.747
    2PC     H1A 4082   3.073   3.064   5.720
    2PC     H1B 4083   2.957   3.042   5.852
    2PC     C32 4084   2.985   2.865   5.728
    2PC     H2A 4085   3.061   2.826   5.795
    2PC     H2B 4086   2.890   2.821   5.756
    2PC     N31 4087   3.019   2.812   5.590
    2PC     C33 4088   3.036   2.663   5.601
    2PC     H3A 4089   3.054   2.624   5.501
    2PC     H3B 4090   3.120   2.643   5.666
    2PC     H3C 4091   2.944   2.621   5.642
    2PC     C34 4092   2.909   2.838   5.490
    2PC     H4A 4093   2.818   2.789   5.526
    2PC     H4B 4094   2.894   2.945   5.481
    2PC     H4C 4095   2.940   2.795   5.394
    2PC     C35 4096   3.147   2.871   5.539
    2PC     H5A 4097   3.226   2.850   5.610
    2PC     H5B 4098   3.134   2.979   5.525
    2PC     H5C 4099   3.170   2.824   5.443
    2PC     O33 4100   2.677   3.186   5.789
    2PC     O34 4101   2.688   2.946   5.785
    2PC     O21 4102   2.600   3.007   5.292
    2PC     C21 4103   2.652   2.890   5.249
    2PC     O22 4104   2.616   2.781   5.291
    3OL     C12 4105   2.759   2.906   5.144
    3OL     H2R 4106   2.842   2.840   5.168
    3OL     H2S 4107   2.796   3.009   5.146
    3OL     C13 4108   2.701   2.873   5.005
    3OL     H3R 4109   2.617   2.939   4.984
    3OL     H3S 4110   2.664   2.770   5.005
    3OL     C14 4111   2.807   2.888   4.894
    3OL     H4R 4112   2.890   2.819   4.912
    3OL     H4S 4113   2.848   2.990   4.896
    3OL     C15 4114   2.744   2.861   4.756
    3OL     H5R 4115   2.660   2.928   4.741
    3OL     H5S 4116   2.706   2.759   4.754
    3OL     C16 4117   2.846   2.881   4.642
    3OL     H6R 4118   2.927   2.808   4.650
    3OL     H6S 4119   2.890   2.980   4.651
    3OL     C17 4120   2.778   2.870   4.504
    3OL     H7R 4121   2.842   2.917   4.429
    3OL     H7S 4122   2.684   2.925   4.505
    3OL     C18 4123   2.753   2.724   4.461
    3OL     H8R 4124   2.697   2.672   4.539
    3OL     H8S 4125   2.848   2.672   4.450
    3OL     C19 4126   2.673   2.720   4.332
    3OL     H9R 4127   2.565   2.724   4.345
    3OL    C110 4128   2.723   2.706   4.210
    3OL    H10R 4129   2.656   2.701   4.125
    3OL    C111 4130   2.871   2.703   4.175
    3OL    H11R 4131   2.931   2.745   4.256
    3OL    H11S 4132   2.889   2.765   4.087
    3OL    C112 4133   2.920   2.560   4.146
    3OL    H12R 4134   2.899   2.499   4.233
    3OL    H12S 4135   3.028   2.559   4.132
    3OL    C113 4136   2.851   2.495   4.023
    3OL    H13R 4137   2.744   2.517   4.022
    3OL    H13S 4138   2.862   2.387   4.031
    3OL    C114 4139   2.917   2.541   3.891
    3OL    H14R 4140   3.024   2.520   3.894
    3OL    H14S 4141   2.904   2.649   3.880
    3OL    C115 4142   2.854   2.469   3.770
    3OL    H15R 4143   2.748   2.493   3.765
    3OL    H15S 4144   2.864   2.361   3.783
    3OL    C116 4145   2.924   2.513   3.639
    3OL    H16R 4146   3.029   2.485   3.642
    3OL    H16S 4147   2.918   2.622   3.631
    3OL    C117 4148   2.858   2.451   3.514
    3OL    H17R 4149   2.899   2.499   3.425
    3OL    H17S 4150   2.751   2.473   3.515
    3OL    C118 4151   2.880   2.299   3.503
    3OL    H18R 4152   2.835   2.261   3.411
    3OL    H18S 4153   2.835   2.247   3.588
    3OL    H18T 4154   2.987   2.276   3.501
    1PA    C116 4155   3.498   0.501   3.404
    1PA    H16R 4156   3.565   0.437   3.346
    1PA    H16S 4157   3.495   0.599   3.356
    1PA    H16T 4158   3.398   0.458   3.401
    1PA    C115 4159   3.546   0.514   3.549
    1PA    H15R 4160   3.646   0.559   3.550
    1PA    H15S 4161   3.479   0.581   3.603
    1PA    C114 4162   3.550   0.377   3.619
    1PA    H14R 4163   3.451   0.330   3.612
    1PA    H14S 4164   3.621   0.311   3.567
    1PA    C113 4165   3.589   0.391   3.767
    1PA    H13R 4166   3.685   0.443   3.775
    1PA    H13S 4167   3.514   0.452   3.818
    1PA    C112 4168   3.600   0.254   3.835
    1PA    H12R 4169   3.509   0.197   3.814
    1PA    H12S 4170   3.685   0.199   3.795
    1PA    C111 4171   3.613   0.270   3.988
    1PA    H11R 4172   3.699   0.333   4.011
    1PA    H11S 4173   3.523   0.320   4.024
    1PA    C110 4174   3.628   0.134   4.059
    1PA    H10R 4175   3.548   0.066   4.028
    1PA    H10S 4176   3.724   0.089   4.032
    1PA     C19 4177   3.621   0.154   4.212
    1PA     H9R 4178   3.695   0.228   4.242
    1PA     H9S 4179   3.522   0.193   4.238
    1PA     C18 4180   3.646   0.023   4.289
    1PA     H8R 4181   3.579   6.393   4.253
    1PA     H8S 4182   3.749   6.438   4.272
    1PA     C17 4183   3.623   0.045   4.440
    1PA     H7R 4184   3.679   0.132   4.473
    1PA     H7S 4185   3.517   0.065   4.458
    1PA     C16 4186   3.668   6.371   4.524
    1PA     H6R 4187   3.614   6.282   4.492
    1PA     H6S 4188   3.775   6.353   4.507
    1PA     C15 4189   3.643   6.397   4.674
    1PA     H5R 4190   3.690   0.043   4.702
    1PA     H5S 4191   3.536   6.405   4.692
    1PA     C14 4192   3.702   6.282   4.760
    1PA     H4R 4193   3.655   6.188   4.730
    1PA     H4S 4194   3.809   6.273   4.740
    1PA     C13 4195   3.679   6.303   4.911
    1PA     H3R 4196   3.573   6.318   4.931
    1PA     H3S 4197   3.710   6.212   4.963
    1PA     C12 4198   3.761   6.422   4.967
    1PA     H2R 4199   3.865   6.412   4.939
    1PA     H2S 4200   3.723   0.068   4.926
    2PC     C11 4201   3.751   6.427   5.117
    2PC     O12 4202   3.824   6.362   5.190
    2PC     O11 4203   3.654   0.063   5.160
    2PC      C1 4204   3.615   0.058   5.300
    2PC      HR 4205   3.702   0.043   5.364
    2PC      HS 4206   3.569   0.154   5.326
    2PC      C2 4207   3.512   6.392   5.318
    2PC      HX 4208   3.438   6.400   5.237
    2PC      C3 4209   3.440   6.399   5.454
    2PC      HA 4210   3.385   0.045   5.461
    2PC      HB 4211   3.370   6.315   5.463
    2PC     O31 4212   3.537   6.392   5.562
    2PC     P31 4213   3.483   6.398   5.712
    2PC     O32 4214   3.594   0.044   5.775
    2PC     C31 4215   3.684   6.437   5.874
    2PC     H1A 4216   3.727   0.072   5.931
    2PC     H1B 4217   3.628   6.375   5.944
    2PC     C32 4218   3.797   6.355   5.807
    2PC     H2A 4219   3.857   6.310   5.886
    2PC     H2B 4220   3.754   6.276   5.746
    2PC     N31 4221   3.895   6.430   5.720
    2PC     C33 4222   3.951   0.102   5.790
    2PC     H3A 4223   3.871   0.174   5.805
    2PC     H3B 4224   3.993   0.071   5.885
    2PC     H3C 4225   4.029   0.146   5.727
    2PC     C34 4226   4.009   6.338   5.685
    2PC     H4A 4227   4.057   6.307   5.778
    2PC     H4B 4228   3.970   6.252   5.631
    2PC     H4C 4229   4.081   6.393   5.624
    2PC     C35 4230   3.830   0.025   5.592
    2PC     H5A 4231   3.747   0.092   5.616
    2PC     H5B 4232   3.793   6.384   5.540
    2PC     H5C 4233   3.904   0.077   5.531
    2PC     O33 4234   3.354   0.021   5.724
    2PC     O34 4235   3.471   6.265   5.776
    2PC     O21 4236   3.581   6.265   5.308
    2PC     C21 4237   3.511   6.156   5.270
    2PC     O22 4238   3.395   6.161   5.232
    3OL     C12 4239   3.595   6.031   5.273
    3OL     H2R 4240   3.575   5.977   5.366
    3OL     H2S 4241   3.700   6.060   5.274
    3OL     C13 4242   3.568   5.941   5.152
    3OL     H3R 4243   3.577   6.000   5.061
    3OL     H3S 4244   3.467   5.901   5.157
    3OL     C14 4245   3.670   5.825   5.146
    3OL     H4R 4246   3.663   5.765   5.237
    3OL     H4S 4247   3.771   5.866   5.143
    3OL     C15 4248   3.647   5.736   5.023
    3OL     H5R 4249   3.647   5.797   4.933
    3OL     H5S 4250   3.548   5.688   5.031
    3OL     C16 4251   3.756   5.628   5.012
    3OL     H6R 4252   3.759   5.569   5.104
    3OL     H6S 4253   3.853   5.676   4.999
    3OL     C17 4254   3.728   5.534   4.893
    3OL     H7R 4255   3.722   5.592   4.800
    3OL     H7S 4256   3.632   5.485   4.907
    3OL     C18 4257   3.837   5.426   4.879
    3OL     H8R 4258   3.804   5.353   4.804
    3OL     H8S 4259   3.846   5.372   4.973
    3OL     C19 4260   3.970   5.483   4.834
    3OL     H9R 4261   3.975   5.510   4.729
    3OL    C110 4262   4.078   5.499   4.910
    3OL    H10R 4263   4.169   5.540   4.866
    3OL    C111 4264   4.087   5.468   5.058
    3OL    H11R 4265   4.035   5.375   5.082
    3OL    H11S 4266   4.039   5.548   5.115
    3OL    C112 4267   4.233   5.458   5.105
    3OL    H12R 4268   4.234   5.456   5.214
    3OL    H12S 4269   4.287   5.547   5.074
    3OL    C113 4270   4.303   5.330   5.053
    3OL    H13R 4271   4.294   5.323   4.944
    3OL    H13S 4272   4.253   5.243   5.095
    3OL    C114 4273   4.452   5.326   5.094
    3OL    H14R 4274   4.477   5.224   5.122
    3OL    H14S 4275   4.468   5.388   5.183
    3OL    C115 4276   4.550   5.369   4.982
    3OL    H15R 4277   4.546   5.296   4.901
    3OL    H15S 4278   4.651   5.367   5.022
    3OL    C116 4279   4.521   5.509   4.924
    3OL    H16R 4280   4.518   5.584   5.004
    3OL    H16S 4281   4.422   5.509   4.877
    3OL    C117 4282   4.625   5.550   4.817
    3OL    H17R 4283   4.579   5.620   4.748
    3OL    H17S 4284   4.655   5.462   4.759
    3OL    C118 4285   4.748   5.617   4.880
    3OL    H18R 4286   4.720   5.708   4.933
    3OL    H18S 4287   4.821   5.643   4.802
    3OL    H18T 4288   4.797   5.550   4.951
    1PA    C116 4289   6.401   5.990   3.924
    1PA    H16R 4290   6.332   5.909   3.900
    1PA    H16S 4291   6.422   6.046   3.833
    1PA    H16T 4292   6.352   6.057   3.995
    1PA    C115 4293   0.084   5.934   3.983
    1PA    H15R 4294   0.132   5.869   3.910
    1PA    H15S 4295   0.152   6.017   4.005
    1PA    C114 4296   0.056   5.855   4.113
    1PA    H14R 4297   0.008   5.921   4.185
    1PA    H14S 4298   6.434   5.773   4.091
    1PA    C113 4299   0.186   5.798   4.173
    1PA    H13R 4300   0.235   5.731   4.102
    1PA    H13S 4301   0.255   5.881   4.192
    1PA    C112 4302   0.160   5.725   4.306
    1PA    H12R 4303   0.255   5.715   4.360
    1PA    H12S 4304   0.095   5.786   4.369
    1PA    C111 4305   0.096   5.585   4.287
    1PA    H11R 4306   0.009   5.576   4.353
    1PA    H11S 4307   0.058   5.576   4.185
    1PA    C110 4308   0.192   5.468   4.316
    1PA    H10R 4309   0.146   5.376   4.278
    1PA    H10S 4310   0.286   5.482   4.261
    1PA     C19 4311   0.220   5.453   4.467
    1PA     H9R 4312   0.276   5.539   4.503
    1PA     H9S 4313   0.125   5.451   4.521
    1PA     C18 4314   0.298   5.323   4.498
    1PA     H8R 4315   0.241   5.237   4.463
    1PA     H8S 4316   0.393   5.325   4.444
    1PA     C17 4317   0.324   5.311   4.650
    1PA     H7R 4318   0.379   5.398   4.684
    1PA     H7S 4319   0.228   5.309   4.703
    1PA     C16 4320   0.403   5.183   4.683
    1PA     H6R 4321   0.345   5.095   4.654
    1PA     H6S 4322   0.496   5.182   4.626
    1PA     C15 4323   0.435   5.176   4.834
    1PA     H5R 4324   0.492   5.264   4.862
    1PA     H5S 4325   0.342   5.177   4.891
    1PA     C14 4326   0.515   5.048   4.868
    1PA     H4R 4327   0.455   4.961   4.843
    1PA     H4S 4328   0.606   5.044   4.807
    1PA     C13 4329   0.553   5.041   5.018
    1PA     H3R 4330   0.465   5.060   5.079
    1PA     H3S 4331   0.587   4.939   5.040
    1PA     C12 4332   0.667   5.140   5.054
    1PA     H2R 4333   0.751   5.125   4.986
    1PA     H2S 4334   0.631   5.242   5.041
    2PC     C11 4335   0.716   5.125   5.196
    2PC     O12 4336   0.834   5.128   5.224
    2PC     O11 4337   0.617   5.113   5.286
    2PC      C1 4338   0.647   5.112   5.429
    2PC      HR 4339   0.556   5.086   5.484
    2PC      HS 4340   0.723   5.035   5.451
    2PC      C2 4341   0.697   5.250   5.475
    2PC      HX 4342   0.791   5.274   5.423
    2PC      C3 4343   0.723   5.255   5.628
    2PC      HA 4344   0.801   5.183   5.654
    2PC      HB 4345   0.757   5.354   5.658
    2PC     O31 4346   0.603   5.221   5.700
    2PC     P31 4347   0.602   5.239   5.859
    2PC     O32 4348   0.551   5.389   5.863
    2PC     C31 4349   0.503   5.440   5.990
    2PC     H1A 4350   0.406   5.394   6.012
    2PC     H1B 4351   0.573   5.413   6.069
    2PC     C32 4352   0.490   5.593   5.983
    2PC     H2A 4353   0.413   5.620   5.911
    2PC     H2B 4354   0.458   5.630   6.081
    2PC     N31 4355   0.613   5.674   5.947
    2PC     C33 4356   0.734   5.627   6.022
    2PC     H3A 4357   0.713   5.631   6.129
    2PC     H3B 4358   0.757   5.524   5.993
    2PC     H3C 4359   0.818   5.692   5.997
    2PC     C34 4360   0.641   5.666   5.799
    2PC     H4A 4361   0.665   5.563   5.773
    2PC     H4B 4362   0.552   5.699   5.745
    2PC     H4C 4363   0.726   5.731   5.776
    2PC     C35 4364   0.589   5.818   5.981
    2PC     H5A 4365   0.677   5.876   5.955
    2PC     H5B 4366   0.570   5.825   6.089
    2PC     H5C 4367   0.502   5.853   5.925
    2PC     O33 4368   0.508   5.146   5.925
    2PC     O34 4369   0.734   5.226   5.924
    2PC     O21 4370   0.596   5.348   5.438
    2PC     C21 4371   0.625   5.480   5.445
    2PC     O22 4372   0.726   5.526   5.493
    3OL     C12 4373   0.518   5.565   5.381
    3OL     H2R 4374   0.483   5.639   5.454
    3OL     H2S 4375   0.432   5.503   5.355
    3OL     C13 4376   0.572   5.636   5.255
    3OL     H3R 4377   0.655   5.701   5.283
    3OL     H3S 4378   0.493   5.699   5.214
    3OL     C14 4379   0.619   5.535   5.148
    3OL     H4R 4380   0.535   5.473   5.117
    3OL     H4S 4381   0.695   5.469   5.190
    3OL     C15 4382   0.678   5.608   5.027
    3OL     H5R 4383   0.763   5.670   5.060
    3OL     H5S 4384   0.603   5.675   4.984
    3OL     C16 4385   0.727   5.508   4.920
    3OL     H6R 4386   0.642   5.451   4.881
    3OL     H6S 4387   0.794   5.436   4.968
    3OL     C17 4388   0.803   5.578   4.806
    3OL     H7R 4389   0.853   5.502   4.745
    3OL     H7S 4390   0.882   5.640   4.849
    3OL     C18 4391   0.714   5.663   4.714
    3OL     H8R 4392   0.778   5.718   4.644
    3OL     H8S 4393   0.661   5.738   4.773
    3OL     C19 4394   0.614   5.578   4.638
    3OL     H9R 4395   0.533   5.538   4.699
    3OL    C110 4396   0.618   5.550   4.509
    3OL    H10R 4397   0.540   5.487   4.465
    3OL    C111 4398   0.723   5.599   4.411
    3OL    H11R 4399   0.815   5.541   4.425
    3OL    H11S 4400   0.747   5.704   4.429
    3OL    C112 4401   0.678   5.581   4.264
    3OL    H12R 4402   0.658   5.476   4.248
    3OL    H12S 4403   0.760   5.608   4.197
    3OL    C113 4404   0.551   5.662   4.228
    3OL    H13R 4405   0.476   5.648   4.306
    3OL    H13S 4406   0.508   5.622   4.136
    3OL    C114 4407   0.579   5.813   4.210
    3OL    H14R 4408   0.640   5.851   4.292
    3OL    H14S 4409   0.483   5.866   4.214
    3OL    C115 4410   0.646   5.843   4.074
    3OL    H15R 4411   0.583   5.804   3.994
    3OL    H15S 4412   0.742   5.793   4.069
    3OL    C116 4413   0.666   5.995   4.056
    3OL    H16R 4414   0.729   6.035   4.135
    3OL    H16S 4415   0.569   6.044   4.063
    3OL    C117 4416   0.727   6.029   3.918
    3OL    H17R 4417   0.718   6.136   3.901
    3OL    H17S 4418   0.671   5.979   3.839
    3OL    C118 4419   0.876   5.991   3.909
    3OL    H18R 4420   0.933   6.041   3.988
    3OL    H18S 4421   0.917   6.022   3.813
    3OL    H18T 4422   0.890   5.883   3.919
    1PA    C116 4423   3.320   4.845   3.992
    1PA    H16R 4424   3.313   4.912   3.907
    1PA    H16S 4425   3.425   4.832   4.017
    1PA    H16T 4426   3.269   4.892   4.077
    1PA    C115 4427   3.255   4.709   3.958
    1PA    H15R 4428   3.149   4.724   3.937
    1PA    H15S 4429   3.300   4.670   3.867
    1PA    C114 4430   3.273   4.605   4.071
    1PA    H14R 4431   3.237   4.508   4.035
    1PA    H14S 4432   3.379   4.594   4.095
    1PA    C113 4433   3.194   4.643   4.198
    1PA    H13R 4434   3.236   4.734   4.242
    1PA    H13S 4435   3.090   4.665   4.171
    1PA    C112 4436   3.197   4.529   4.302
    1PA    H12R 4437   3.153   4.440   4.258
    1PA    H12S 4438   3.300   4.506   4.328
    1PA    C111 4439   3.119   4.570   4.429
    1PA    H11R 4440   3.169   4.654   4.475
    1PA    H11S 4441   3.018   4.603   4.402
    1PA    C110 4442   3.110   4.455   4.531
    1PA    H10R 4443   3.208   4.409   4.545
    1PA    H10S 4444   3.080   4.497   4.627
    1PA     C19 4445   3.006   4.348   4.489
    1PA     H9R 4446   2.909   4.395   4.473
    1PA     H9S 4447   3.037   4.304   4.394
    1PA     C18 4448   2.994   4.235   4.593
    1PA     H8R 4449   2.945   4.150   4.545
    1PA     H8S 4450   3.093   4.203   4.624
    1PA     C17 4451   2.911   4.277   4.716
    1PA     H7R 4452   2.961   4.360   4.767
    1PA     H7S 4453   2.813   4.314   4.683
    1PA     C16 4454   2.892   4.160   4.814
    1PA     H6R 4455   2.841   4.077   4.764
    1PA     H6S 4456   2.990   4.124   4.846
    1PA     C15 4457   2.811   4.204   4.937
    1PA     H5R 4458   2.862   4.289   4.983
    1PA     H5S 4459   2.712   4.238   4.906
    1PA     C14 4460   2.797   4.091   5.041
    1PA     H4R 4461   2.733   4.012   5.001
    1PA     H4S 4462   2.895   4.047   5.058
    1PA     C13 4463   2.742   4.142   5.176
    1PA     H3R 4464   2.763   4.068   5.253
    1PA     H3S 4465   2.797   4.233   5.203
    1PA     C12 4466   2.591   4.170   5.173
    1PA     H2R 4467   2.567   4.235   5.088
    1PA     H2S 4468   2.536   4.076   5.160
    2PC     C11 4469   2.541   4.238   5.299
    2PC     O12 4470   2.430   4.218   5.345
    2PC     O11 4471   2.628   4.328   5.349
    2PC      C1 4472   2.581   4.419   5.452
    2PC      HR 4473   2.512   4.491   5.408
    2PC      HS 4474   2.528   4.362   5.530
    2PC      C2 4475   2.701   4.493   5.513
    2PC      HX 4476   2.771   4.418   5.552
    2PC      C3 4477   2.655   4.585   5.629
    2PC      HA 4478   2.600   4.528   5.704
    2PC      HB 4479   2.743   4.630   5.677
    2PC     O31 4480   2.569   4.690   5.577
    2PC     P31 4481   2.547   4.823   5.664
    2PC     O32 4482   2.439   4.779   5.771
    2PC     C31 4483   2.312   4.848   5.770
    2PC     H1A 4484   2.328   4.956   5.773
    2PC     H1B 4485   2.260   4.823   5.677
    2PC     C32 4486   2.226   4.803   5.891
    2PC     H2A 4487   2.125   4.842   5.878
    2PC     H2B 4488   2.220   4.694   5.892
    2PC     N31 4489   2.270   4.845   6.030
    2PC     C33 4490   2.163   4.804   6.128
    2PC     H3A 4491   2.153   4.696   6.124
    2PC     H3B 4492   2.194   4.836   6.228
    2PC     H3C 4493   2.069   4.852   6.099
    2PC     C34 4494   2.398   4.778   6.069
    2PC     H4A 4495   2.382   4.670   6.065
    2PC     H4B 4496   2.476   4.807   5.999
    2PC     H4C 4497   2.424   4.809   6.171
    2PC     C35 4498   2.288   4.995   6.039
    2PC     H5A 4499   2.371   5.023   5.974
    2PC     H5B 4500   2.311   5.020   6.142
    2PC     H5C 4501   2.196   5.043   6.006
    2PC     O33 4502   2.671   4.865   5.733
    2PC     O34 4503   2.503   4.941   5.587
    2PC     O21 4504   2.764   4.571   5.409
    2PC     C21 4505   2.880   4.635   5.431
    2PC     O22 4506   2.944   4.629   5.535
    3OL     C12 4507   2.926   4.715   5.312
    3OL     H2R 4508   2.879   4.676   5.222
    3OL     H2S 4509   3.034   4.703   5.301
    3OL     C13 4510   2.893   4.865   5.327
    3OL     H3R 4511   2.947   4.920   5.250
    3OL     H3S 4512   2.928   4.901   5.423
    3OL     C14 4513   2.741   4.893   5.313
    3OL     H4R 4514   2.685   4.827   5.380
    3OL     H4S 4515   2.709   4.869   5.211
    3OL     C15 4516   2.703   5.039   5.346
    3OL     H5R 4517   2.716   5.055   5.453
    3OL     H5S 4518   2.597   5.054   5.325
    3OL     C16 4519   2.785   5.147   5.270
    3OL     H6R 4520   2.889   5.142   5.302
    3OL     H6S 4521   2.747   5.245   5.299
    3OL     C17 4522   2.777   5.132   5.117
    3OL     H7R 4523   2.673   5.141   5.084
    3OL     H7S 4524   2.813   5.033   5.088
    3OL     C18 4525   2.864   5.238   5.048
    3OL     H8R 4526   2.961   5.243   5.096
    3OL     H8S 4527   2.817   5.336   5.059
    3OL     C19 4528   2.880   5.206   4.901
    3OL     H9R 4529   2.797   5.238   4.837
    3OL    C110 4530   2.987   5.150   4.846
    3OL    H10R 4531   2.990   5.135   4.738
    3OL    C111 4532   3.107   5.097   4.922
    3OL    H11R 4533   3.079   5.067   5.023
    3OL    H11S 4534   3.181   5.177   4.931
    3OL    C112 4535   3.174   4.978   4.849
    3OL    H12R 4536   3.263   4.947   4.904
    3OL    H12S 4537   3.208   5.012   4.751
    3OL    C113 4538   3.080   4.858   4.828
    3OL    H13R 4539   3.125   4.790   4.756
    3OL    H13S 4540   2.985   4.891   4.786
    3OL    C114 4541   3.057   4.781   4.960
    3OL    H14R 4542   3.018   4.848   5.037
    3OL    H14S 4543   3.153   4.743   4.996
    3OL    C115 4544   2.960   4.662   4.941
    3OL    H15R 4545   2.970   4.596   5.028
    3OL    H15S 4546   2.988   4.604   4.853
    3OL    C116 4547   2.814   4.709   4.930
    3OL    H16R 4548   2.802   4.768   4.839
    3OL    H16S 4549   2.789   4.775   5.014
    3OL    C117 4550   2.714   4.592   4.925
    3OL    H17R 4551   2.746   4.519   4.850
    3OL    H17S 4552   2.617   4.631   4.894
    3OL    C118 4553   2.697   4.524   5.062
    3OL    H18R 4554   2.668   4.597   5.138
    3OL    H18S 4555   2.789   4.476   5.094
    3OL    H18T 4556   2.618   4.449   5.056
    1PA    C116 4557   4.397   5.373   4.315
    1PA    H16R 4558   4.392   5.349   4.208
    1PA    H16S 4559   4.487   5.431   4.333
    1PA    H16T 4560   4.310   5.433   4.341
    1PA    C115 4561   4.399   5.243   4.397
    1PA    H15R 4562   4.311   5.182   4.375
    1PA    H15S 4563   4.486   5.184   4.367
    1PA    C114 4564   4.409   5.271   4.549
    1PA    H14R 4565   4.446   5.182   4.599
    1PA    H14S 4566   4.484   5.349   4.566
    1PA    C113 4567   4.275   5.316   4.613
    1PA    H13R 4568   4.294   5.339   4.718
    1PA    H13S 4569   4.242   5.408   4.566
    1PA    C112 4570   4.161   5.211   4.605
    1PA    H12R 4571   4.077   5.246   4.665
    1PA    H12S 4572   4.125   5.206   4.502
    1PA    C111 4573   4.201   5.068   4.650
    1PA    H11R 4574   4.115   5.002   4.636
    1PA    H11S 4575   4.281   5.030   4.586
    1PA    C110 4576   4.244   5.063   4.798
    1PA    H10R 4577   4.326   5.133   4.815
    1PA    H10S 4578   4.161   5.092   4.862
    1PA     C19 4579   4.293   4.921   4.835
    1PA     H9R 4580   4.213   4.849   4.816
    1PA     H9S 4581   4.378   4.895   4.773
    1PA     C18 4582   4.334   4.915   4.984
    1PA     H8R 4583   4.399   4.999   5.006
    1PA     H8S 4584   4.245   4.924   5.047
    1PA     C17 4585   4.409   4.784   5.018
    1PA     H7R 4586   4.496   4.775   4.952
    1PA     H7S 4587   4.447   4.792   5.120
    1PA     C16 4588   4.322   4.658   5.006
    1PA     H6R 4589   4.237   4.665   5.075
    1PA     H6S 4590   4.282   4.649   4.905
    1PA     C15 4591   4.407   4.533   5.039
    1PA     H5R 4592   4.490   4.528   4.968
    1PA     H5S 4593   4.450   4.542   5.139
    1PA     C14 4594   4.326   4.401   5.028
    1PA     H4R 4595   4.262   4.404   4.940
    1PA     H4S 4596   4.397   4.319   5.014
    1PA     C13 4597   4.243   4.374   5.155
    1PA     H3R 4598   4.308   4.378   5.242
    1PA     H3S 4599   4.166   4.450   5.167
    1PA     C12 4600   4.178   4.234   5.147
    1PA     H2R 4601   4.108   4.229   5.063
    1PA     H2S 4602   4.255   4.159   5.130
    2PC     C11 4603   4.105   4.195   5.273
    2PC     O12 4604   4.094   4.268   5.371
    2PC     O11 4605   4.057   4.069   5.267
    2PC      C1 4606   3.976   4.018   5.377
    2PC      HR 4607   3.956   3.911   5.361
    2PC      HS 4608   4.033   4.028   5.470
    2PC      C2 4609   3.842   4.093   5.387
    2PC      HX 4610   3.856   4.200   5.375
    2PC      C3 4611   3.777   4.071   5.525
    2PC      HA 4612   3.838   4.119   5.603
    2PC      HB 4613   3.678   4.116   5.526
    2PC     O31 4614   3.767   3.930   5.557
    2PC     P31 4615   3.699   3.893   5.695
    2PC     O32 4616   3.678   3.736   5.682
    2PC     C31 4617   3.733   3.648   5.783
    2PC     H1A 4618   3.716   3.691   5.883
    2PC     H1B 4619   3.681   3.553   5.777
    2PC     C32 4620   3.884   3.627   5.756
    2PC     H2A 4621   3.895   3.581   5.658
    2PC     H2B 4622   3.935   3.723   5.755
    2PC     N31 4623   3.960   3.538   5.853
    2PC     C33 4624   4.093   3.505   5.792
    2PC     H3A 4625   4.075   3.455   5.697
    2PC     H3B 4626   4.149   3.598   5.777
    2PC     H3C 4627   4.147   3.439   5.860
    2PC     C34 4628   3.983   3.609   5.984
    2PC     H4A 4629   4.045   3.545   6.047
    2PC     H4B 4630   4.034   3.703   5.963
    2PC     H4C 4631   3.886   3.626   6.032
    2PC     C35 4632   3.889   3.408   5.878
    2PC     H5A 4633   3.952   3.345   5.940
    2PC     H5B 4634   3.870   3.360   5.781
    2PC     H5C 4635   3.794   3.428   5.929
    2PC     O33 4636   3.783   3.929   5.811
    2PC     O34 4637   3.569   3.962   5.716
    2PC     O21 4638   3.748   4.047   5.286
    2PC     C21 4639   3.756   4.100   5.162
    2PC     O22 4640   3.840   4.180   5.127
    3OL     C12 4641   3.643   4.055   5.074
    3OL     H2R 4642   3.557   4.032   5.136
    3OL     H2S 4643   3.673   3.963   5.022
    3OL     C13 4644   3.606   4.166   4.972
    3OL     H3R 4645   3.689   4.184   4.905
    3OL     H3S 4646   3.587   4.258   5.028
    3OL     C14 4647   3.479   4.132   4.891
    3OL     H4R 4648   3.445   4.222   4.841
    3OL     H4S 4649   3.400   4.101   4.960
    3OL     C15 4650   3.506   4.023   4.785
    3OL     H5R 4651   3.539   3.930   4.833
    3OL     H5S 4652   3.586   4.056   4.720
    3OL     C16 4653   3.380   3.995   4.700
    3OL     H6R 4654   3.411   3.939   4.612
    3OL     H6S 4655   3.338   4.090   4.665
    3OL     C17 4656   3.275   3.914   4.777
    3OL     H7R 4657   3.249   3.966   4.870
    3OL     H7S 4658   3.317   3.818   4.805
    3OL     C18 4659   3.144   3.893   4.697
    3OL     H8R 4660   3.102   3.991   4.675
    3OL     H8S 4661   3.073   3.841   4.760
    3OL     C19 4662   3.163   3.817   4.568
    3OL     H9R 4663   3.266   3.797   4.539
    3OL    C110 4664   3.064   3.775   4.489
    3OL    H10R 4665   3.087   3.721   4.398
    3OL    C111 4666   2.916   3.795   4.518
    3OL    H11R 4667   2.871   3.853   4.437
    3OL    H11S 4668   2.902   3.851   4.610
    3OL    C112 4669   2.844   3.659   4.527
    3OL    H12R 4670   2.907   3.586   4.579
    3OL    H12S 4671   2.829   3.620   4.426
    3OL    C113 4672   2.708   3.669   4.599
    3OL    H13R 4673   2.652   3.577   4.580
    3OL    H13S 4674   2.650   3.752   4.559
    3OL    C114 4675   2.726   3.684   4.752
    3OL    H14R 4676   2.776   3.779   4.774
    3OL    H14S 4677   2.789   3.604   4.790
    3OL    C115 4678   2.590   3.680   4.825
    3OL    H15R 4679   2.543   3.584   4.805
    3OL    H15S 4680   2.526   3.759   4.785
    3OL    C116 4681   2.608   3.698   4.977
    3OL    H16R 4682   2.654   3.795   4.998
    3OL    H16S 4683   2.676   3.621   5.014
    3OL    C117 4684   2.474   3.686   5.053
    3OL    H17R 4685   2.495   3.682   5.160
    3OL    H17S 4686   2.424   3.593   5.026
    3OL    C118 4687   2.380   3.805   5.026
    3OL    H18R 4688   2.428   3.900   5.052
    3OL    H18S 4689   2.289   3.796   5.087
    3OL    H18T 4690   2.351   3.809   4.921
    1PA    C116 4691   5.655   1.688   3.662
    1PA    H16R 4692   5.699   1.675   3.562
    1PA    H16S 4693   5.614   1.789   3.668
    1PA    H16T 4694   5.574   1.616   3.673
    1PA    C115 4695   5.762   1.667   3.770
    1PA    H15R 4696   5.805   1.567   3.759
    1PA    H15S 4697   5.842   1.740   3.756
    1PA    C114 4698   5.701   1.683   3.911
    1PA    H14R 4699   5.655   1.782   3.918
    1PA    H14S 4700   5.622   1.609   3.926
    1PA    C113 4701   5.806   1.670   4.024
    1PA    H13R 4702   5.887   1.741   4.007
    1PA    H13S 4703   5.757   1.697   4.118
    1PA    C112 4704   5.863   1.527   4.035
    1PA    H12R 4705   5.781   1.455   4.050
    1PA    H12S 4706   5.911   1.499   3.941
    1PA    C111 4707   5.967   1.512   4.148
    1PA    H11R 4708   6.005   1.410   4.148
    1PA    H11S 4709   6.052   1.578   4.127
    1PA    C110 4710   5.913   1.544   4.290
    1PA    H10R 4711   5.993   1.526   4.362
    1PA    H10S 4712   5.889   1.650   4.297
    1PA     C19 4713   5.790   1.460   4.329
    1PA     H9R 4714   5.707   1.482   4.261
    1PA     H9S 4715   5.813   1.354   4.319
    1PA     C18 4716   5.746   1.491   4.473
    1PA     H8R 4717   5.827   1.464   4.542
    1PA     H8S 4718   5.729   1.598   4.484
    1PA     C17 4719   5.618   1.414   4.511
    1PA     H7R 4720   5.538   1.442   4.442
    1PA     H7S 4721   5.635   1.306   4.501
    1PA     C16 4722   5.575   1.446   4.655
    1PA     H6R 4723   5.651   1.411   4.725
    1PA     H6S 4724   5.567   1.555   4.667
    1PA     C15 4725   5.440   1.382   4.688
    1PA     H5R 4726   5.364   1.418   4.618
    1PA     H5S 4727   5.446   1.273   4.677
    1PA     C14 4728   5.396   1.417   4.832
    1PA     H4R 4729   5.464   1.372   4.905
    1PA     H4S 4730   5.403   1.525   4.845
    1PA     C13 4731   5.250   1.374   4.861
    1PA     H3R 4732   5.213   1.428   4.948
    1PA     H3S 4733   5.187   1.404   4.777
    1PA     C12 4734   5.235   1.223   4.885
    1PA     H2R 4735   5.130   1.196   4.874
    1PA     H2S 4736   5.290   1.166   4.810
    2PC     C11 4737   5.280   1.178   5.023
    2PC     O12 4738   5.337   1.249   5.103
    2PC     O11 4739   5.249   1.049   5.045
    2PC      C1 4740   5.266   0.993   5.178
    2PC      HR 4741   5.256   0.884   5.173
    2PC      HS 4742   5.367   1.016   5.215
    2PC      C2 4743   5.159   1.047   5.275
    2PC      HX 4744   5.155   1.157   5.272
    2PC      C3 4745   5.192   1.005   5.419
    2PC      HA 4746   5.189   0.896   5.430
    2PC      HB 4747   5.293   1.039   5.443
    2PC     O31 4748   5.099   1.066   5.511
    2PC     P31 4749   5.136   1.074   5.666
    2PC     O32 4750   5.201   1.219   5.664
    2PC     C31 4751   5.158   1.315   5.762
    2PC     H1A 4752   5.049   1.330   5.755
    2PC     H1B 4753   5.182   1.277   5.862
    2PC     C32 4754   5.232   1.449   5.742
    2PC     H2A 4755   5.209   1.515   5.825
    2PC     H2B 4756   5.339   1.429   5.742
    2PC     N31 4757   5.205   1.529   5.616
    2PC     C33 4758   5.245   1.452   5.493
    2PC     H3A 4759   5.183   1.362   5.486
    2PC     H3B 4760   5.228   1.515   5.405
    2PC     H3C 4761   5.350   1.426   5.501
    2PC     C34 4762   5.060   1.568   5.605
    2PC     H4A 4763   5.031   1.621   5.696
    2PC     H4B 4764   5.048   1.632   5.517
    2PC     H4C 4765   5.000   1.477   5.593
    2PC     C35 4766   5.288   1.654   5.621
    2PC     H5A 4767   5.393   1.625   5.631
    2PC     H5B 4768   5.257   1.712   5.708
    2PC     H5C 4769   5.273   1.710   5.529
    2PC     O33 4770   5.014   1.066   5.750
    2PC     O34 4771   5.230   0.970   5.714
    2PC     O21 4772   5.032   0.989   5.237
    2PC     C21 4773   4.962   1.050   5.138
    2PC     O22 4774   4.984   1.163   5.100
    3OL     C12 4775   4.853   0.964   5.081
    3OL     H2R 4776   4.761   1.023   5.081
    3OL     H2S 4777   4.837   0.877   5.144
    3OL     C13 4778   4.888   0.921   4.937
    3OL     H3R 4779   4.971   0.850   4.939
    3OL     H3S 4780   4.920   1.008   4.879
    3OL     C14 4781   4.766   0.857   4.868
    3OL     H4R 4782   4.684   0.929   4.873
    3OL     H4S 4783   4.734   0.767   4.922
    3OL     C15 4784   4.792   0.823   4.720
    3OL     H5R 4785   4.851   0.902   4.673
    3OL     H5S 4786   4.695   0.821   4.668
    3OL     C16 4787   4.860   0.686   4.701
    3OL     H6R 4788   4.799   0.609   4.747
    3OL     H6S 4789   4.958   0.687   4.751
    3OL     C17 4790   4.878   0.656   4.551
    3OL     H7R 4791   4.944   0.731   4.506
    3OL     H7S 4792   4.781   0.664   4.501
    3OL     C18 4793   4.935   0.515   4.524
    3OL     H8R 4794   4.939   0.501   4.416
    3OL     H8S 4795   4.867   0.441   4.565
    3OL     C19 4796   5.075   0.498   4.581
    3OL     H9R 4797   5.146   0.576   4.554
    3OL    C110 4798   5.115   0.399   4.661
    3OL    H10R 4799   5.218   0.398   4.696
    3OL    C111 4800   5.030   0.281   4.704
    3OL    H11R 4801   5.095   0.195   4.724
    3OL    H11S 4802   4.963   0.250   4.624
    3OL    C112 4803   4.947   0.312   4.830
    3OL    H12R 4804   4.884   0.226   4.856
    3OL    H12S 4805   4.879   0.395   4.807
    3OL    C113 4806   5.033   0.352   4.952
    3OL    H13R 4807   4.972   0.411   5.021
    3OL    H13S 4808   5.116   0.416   4.921
    3OL    C114 4809   5.086   0.229   5.028
    3OL    H14R 4810   5.144   0.166   4.960
    3OL    H14S 4811   5.002   0.170   5.064
    3OL    C115 4812   5.175   0.272   5.146
    3OL    H15R 4813   5.122   0.344   5.209
    3OL    H15S 4814   5.264   0.322   5.107
    3OL    C116 4815   5.220   0.152   5.232
    3OL    H16R 4816   5.307   0.182   5.291
    3OL    H16S 4817   5.252   0.070   5.167
    3OL    C117 4818   5.109   0.105   5.328
    3OL    H17R 4819   5.021   0.075   5.272
    3OL    H17S 4820   5.081   0.188   5.394
    3OL    C118 4821   5.157   6.435   5.413
    3OL    H18R 4822   5.080   6.407   5.486
    3OL    H18S 4823   5.248   0.014   5.468
    3OL    H18T 4824   5.179   6.348   5.351
    1PA    C116 4825   3.075   3.085   3.759
    1PA    H16R 4826   3.154   3.011   3.770
    1PA    H16S 4827   3.010   3.053   3.677
    1PA    H16T 4828   3.015   3.087   3.850
    1PA    C115 4829   3.135   3.224   3.728
    1PA    H15R 4830   3.191   3.218   3.635
    1PA    H15S 4831   3.055   3.296   3.714
    1PA    C114 4832   3.230   3.273   3.840
    1PA    H14R 4833   3.307   3.197   3.858
    1PA    H14S 4834   3.281   3.363   3.806
    1PA    C113 4835   3.155   3.304   3.971
    1PA    H13R 4836   3.077   3.378   3.952
    1PA    H13S 4837   3.107   3.213   4.008
    1PA    C112 4838   3.251   3.356   4.079
    1PA    H12R 4839   3.335   3.288   4.089
    1PA    H12S 4840   3.291   3.454   4.049
    1PA    C111 4841   3.178   3.369   4.214
    1PA    H11R 4842   3.097   3.441   4.205
    1PA    H11S 4843   3.134   3.272   4.239
    1PA    C110 4844   3.274   3.411   4.326
    1PA    H10R 4845   3.360   3.343   4.328
    1PA    H10S 4846   3.312   3.512   4.307
    1PA     C19 4847   3.203   3.407   4.463
    1PA     H9R 4848   3.121   3.479   4.464
    1PA     H9S 4849   3.161   3.307   4.478
    1PA     C18 4850   3.303   3.438   4.576
    1PA     H8R 4851   3.389   3.372   4.565
    1PA     H8S 4852   3.339   3.541   4.567
    1PA     C17 4853   3.241   3.415   4.715
    1PA     H7R 4854   3.173   3.330   4.712
    1PA     H7S 4855   3.322   3.390   4.785
    1PA     C16 4856   3.168   3.539   4.770
    1PA     H6R 4857   3.237   3.623   4.769
    1PA     H6S 4858   3.084   3.563   4.705
    1PA     C15 4859   3.118   3.516   4.914
    1PA     H5R 4860   3.041   3.438   4.915
    1PA     H5S 4861   3.201   3.481   4.976
    1PA     C14 4862   3.061   3.647   4.972
    1PA     H4R 4863   3.134   3.727   4.957
    1PA     H4S 4864   2.970   3.674   4.919
    1PA     C13 4865   3.033   3.636   5.123
    1PA     H3R 4866   2.960   3.557   5.143
    1PA     H3S 4867   3.125   3.610   5.175
    1PA     C12 4868   2.980   3.772   5.176
    1PA     H2R 4869   3.041   3.853   5.137
    1PA     H2S 4870   2.878   3.788   5.139
    2PC     C11 4871   2.980   3.782   5.326
    2PC     O12 4872   3.047   3.711   5.400
    2PC     O11 4873   2.895   3.877   5.370
    2PC      C1 4874   2.889   3.910   5.512
    2PC      HR 4875   2.803   3.976   5.529
    2PC      HS 4876   2.874   3.818   5.569
    2PC      C2 4877   3.018   3.982   5.559
    2PC      HX 4878   3.108   3.925   5.531
    2PC      C3 4879   3.018   4.000   5.712
    2PC      HA 4880   3.026   3.902   5.761
    2PC      HB 4881   3.103   4.062   5.742
    2PC     O31 4882   2.895   4.063   5.754
    2PC     P31 4883   2.873   4.097   5.907
    2PC     O32 4884   2.952   4.234   5.926
    2PC     C31 4885   2.890   4.354   5.877
    2PC     H1A 4886   2.885   4.350   5.767
    2PC     H1B 4887   2.788   4.362   5.916
    2PC     C32 4888   2.972   4.476   5.921
    2PC     H2A 4889   3.072   4.470   5.879
    2PC     H2B 4890   2.925   4.566   5.883
    2PC     N31 4891   2.991   4.499   6.070
    2PC     C33 4892   3.044   4.637   6.091
    2PC     H3A 4893   3.058   4.653   6.198
    2PC     H3B 4894   3.139   4.646   6.038
    2PC     H3C 4895   2.971   4.709   6.051
    2PC     C34 4896   2.861   4.486   6.145
    2PC     H4A 4897   2.824   4.384   6.135
    2PC     H4B 4898   2.880   4.509   6.250
    2PC     H4C 4899   2.789   4.557   6.103
    2PC     C35 4900   3.090   4.401   6.128
    2PC     H5A 4901   3.048   4.300   6.119
    2PC     H5B 4902   3.106   4.426   6.233
    2PC     H5C 4903   3.183   4.409   6.071
    2PC     O33 4904   2.729   4.111   5.942
    2PC     O34 4905   2.923   3.993   6.000
    2PC     O21 4906   3.023   4.114   5.501
    2PC     C21 4907   3.076   4.132   5.379
    2PC     O22 4908   3.128   4.044   5.312
    3OL     C12 4909   3.058   4.275   5.334
    3OL     H2R 4910   3.127   4.339   5.389
    3OL     H2S 4911   2.957   4.306   5.364
    3OL     C13 4912   3.073   4.296   5.182
    3OL     H3R 4913   2.992   4.362   5.149
    3OL     H3S 4914   3.062   4.202   5.128
    3OL     C14 4915   3.206   4.364   5.146
    3OL     H4R 4916   3.290   4.302   5.179
    3OL     H4S 4917   3.212   4.460   5.198
    3OL     C15 4918   3.215   4.388   4.994
    3OL     H5R 4919   3.123   4.436   4.959
    3OL     H5S 4920   3.223   4.293   4.942
    3OL     C16 4921   3.335   4.478   4.959
    3OL     H6R 4922   3.428   4.429   4.989
    3OL     H6S 4923   3.328   4.572   5.015
    3OL     C17 4924   3.338   4.509   4.808
    3OL     H7R 4925   3.246   4.558   4.779
    3OL     H7S 4926   3.345   4.415   4.753
    3OL     C18 4927   3.457   4.599   4.771
    3OL     H8R 4928   3.550   4.555   4.808
    3OL     H8S 4929   3.447   4.695   4.821
    3OL     C19 4930   3.462   4.620   4.621
    3OL     H9R 4931   3.393   4.696   4.584
    3OL    C110 4932   3.540   4.556   4.534
    3OL    H10R 4933   3.533   4.581   4.429
    3OL    C111 4934   3.641   4.448   4.568
    3OL    H11R 4935   3.663   4.446   4.674
    3OL    H11S 4936   3.735   4.469   4.517
    3OL    C112 4937   3.591   4.309   4.526
    3OL    H12R 4938   3.493   4.290   4.572
    3OL    H12S 4939   3.660   4.233   4.564
    3OL    C113 4940   3.580   4.294   4.372
    3OL    H13R 4941   3.680   4.308   4.330
    3OL    H13S 4942   3.515   4.370   4.330
    3OL    C114 4943   3.529   4.154   4.333
    3OL    H14R 4944   3.574   4.078   4.398
    3OL    H14S 4945   3.562   4.132   4.231
    3OL    C115 4946   3.375   4.144   4.339
    3OL    H15R 4947   3.331   4.208   4.262
    3OL    H15S 4948   3.341   4.181   4.436
    3OL    C116 4949   3.326   3.999   4.322
    3OL    H16R 4950   3.220   3.996   4.345
    3OL    H16S 4951   3.377   3.935   4.394
    3OL    C117 4952   3.348   3.943   4.180
    3OL    H17R 4953   3.454   3.950   4.153
    3OL    H17S 4954   3.291   4.002   4.108
    3OL    C118 4955   3.304   3.796   4.173
    3OL    H18R 4956   3.364   3.736   4.242
    3OL    H18S 4957   3.318   3.757   4.072
    3OL    H18T 4958   3.199   3.786   4.200
    1PA    C116 4959   5.635   5.876   3.998
    1PA    H16R 4960   5.698   5.958   4.033
    1PA    H16S 4961   5.668   5.847   3.898
    1PA    H16T 4962   5.649   5.791   4.065
    1PA    C115 4963   5.488   5.920   3.996
    1PA    H15R 4964   5.478   6.006   3.929
    1PA    H15S 4965   5.426   5.840   3.956
    1PA    C114 4966   5.437   5.962   4.136
    1PA    H14R 4967   5.511   6.026   4.184
    1PA    H14S 4968   5.346   6.020   4.123
    1PA    C113 4969   5.406   5.839   4.223
    1PA    H13R 4970   5.335   5.776   4.170
    1PA    H13S 4971   5.497   5.780   4.241
    1PA    C112 4972   5.343   5.879   4.358
    1PA    H12R 4973   5.266   5.955   4.341
    1PA    H12S 4974   5.292   5.792   4.400
    1PA    C111 4975   5.447   5.929   4.460
    1PA    H11R 4976   5.517   5.848   4.481
    1PA    H11S 4977   5.504   6.013   4.420
    1PA    C110 4978   5.378   5.971   4.592
    1PA    H10R 4979   5.296   5.901   4.613
    1PA    H10S 4980   5.449   5.963   4.674
    1PA     C19 4981   5.323   6.114   4.586
    1PA     H9R 4982   5.290   6.138   4.485
    1PA     H9S 4983   5.235   6.121   4.651
    1PA     C18 4984   5.427   6.217   4.634
    1PA     H8R 4985   5.455   6.194   4.738
    1PA     H8S 4986   5.518   6.209   4.574
    1PA     C17 4987   5.371   6.360   4.625
    1PA     H7R 4988   5.349   6.382   4.520
    1PA     H7S 4989   5.276   6.367   4.679
    1PA     C16 4990   5.469   0.017   4.680
    1PA     H6R 4991   5.570   6.446   4.641
    1PA     H6S 4992   5.438   0.115   4.643
    1PA     C15 4993   5.471   0.021   4.834
    1PA     H5R 4994   5.370   0.037   4.871
    1PA     H5S 4995   5.508   6.373   4.873
    1PA     C14 4996   5.563   0.135   4.883
    1PA     H4R 4997   5.665   0.118   4.848
    1PA     H4S 4998   5.528   0.229   4.841
    1PA     C13 4999   5.562   0.145   5.037
    1PA     H3R 5000   5.460   0.158   5.072
    1PA     H3S 5001   5.602   0.053   5.080
    1PA     C12 5002   5.648   0.265   5.081
    1PA     H2R 5003   5.750   0.252   5.046
    1PA     H2S 5004   5.609   0.356   5.036
    2PC     C11 5005   5.652   0.285   5.231
    2PC     O12 5006   5.585   0.224   5.311
    2PC     O11 5007   5.743   0.380   5.263
    2PC      C1 5008   5.772   0.408   5.402
    2PC      HR 5009   5.830   0.501   5.408
    2PC      HS 5010   5.678   0.424   5.456
    2PC      C2 5011   5.853   0.293   5.466
    2PC      HX 5012   5.801   0.197   5.455
    2PC      C3 5013   5.875   0.320   5.616
    2PC      HA 5014   5.779   0.328   5.668
    2PC      HB 5015   5.934   0.240   5.661
    2PC     O31 5016   5.946   0.445   5.628
    2PC     P31 5017   5.988   0.498   5.772
    2PC     O32 5018   6.145   0.473   5.773
    2PC     C31 5019   6.223   0.505   5.657
    2PC     H1A 5020   6.198   0.437   5.575
    2PC     H1B 5021   6.199   0.608   5.628
    2PC     C32 5022   6.371   0.495   5.698
    2PC     H2A 5023   6.431   0.550   5.625
    2PC     H2B 5024   6.384   0.542   5.795
    2PC     N31 5025   6.436   0.359   5.708
    2PC     C33 5026   6.370   0.274   5.812
    2PC     H3A 5027   6.418   0.175   5.811
    2PC     H3B 5028   6.384   0.321   5.910
    2PC     H3C 5029   6.264   0.265   5.789
    2PC     C34 5030   6.431   0.290   5.575
    2PC     H4A 5031   0.028   0.356   5.500
    2PC     H4B 5032   0.041   0.197   5.583
    2PC     H4C 5033   6.327   0.267   5.550
    2PC     C35 5034   0.131   0.377   5.747
    2PC     H5A 5035   0.135   0.420   5.847
    2PC     H5B 5036   0.179   0.443   5.675
    2PC     H5C 5037   0.179   0.279   5.746
    2PC     O33 5038   5.947   0.639   5.792
    2PC     O34 5039   5.931   0.417   5.881
    2PC     O21 5040   5.985   0.287   5.407
    2PC     C21 5041   6.004   0.218   5.293
    2PC     O22 5042   5.920   0.149   5.239
    3OL     C12 5043   6.146   0.232   5.242
    3OL     H2R 5044   6.184   0.132   5.220
    3OL     H2S 5045   6.208   0.274   5.321
    3OL     C13 5046   6.152   0.320   5.116
    3OL     H3R 5047   6.122   0.422   5.142
    3OL     H3S 5048   6.083   0.282   5.041
    3OL     C14 5049   6.295   0.321   5.058
    3OL     H4R 5050   6.323   0.219   5.033
    3OL     H4S 5051   6.365   0.358   5.134
    3OL     C15 5052   6.304   0.411   4.933
    3OL     H5R 5053   6.282   0.514   4.962
    3OL     H5S 5054   6.229   0.381   4.860
    3OL     C16 5055   6.444   0.406   4.868
    3OL     H6R 5056   0.073   0.419   4.943
    3OL     H6S 5057   0.004   0.489   4.797
    3OL     C17 5058   0.020   0.273   4.792
    3OL     H7R 5059   6.388   0.259   4.718
    3OL     H7S 5060   0.015   0.190   4.862
    3OL     C18 5061   0.157   0.269   4.721
    3OL     H8R 5062   0.168   0.171   4.675
    3OL     H8S 5063   0.236   0.277   4.795
    3OL     C19 5064   0.168   0.375   4.613
    3OL     H9R 5065   0.099   0.362   4.530
    3OL    C110 5066   0.253   0.478   4.611
    3OL    H10R 5067   0.249   0.546   4.526
    3OL    C111 5068   0.354   0.514   4.717
    3OL    H11R 5069   0.336   0.458   4.809
    3OL    H11S 5070   0.342   0.619   4.742
    3OL    C112 5071   0.500   0.490   4.672
    3OL    H12R 5072   0.515   0.385   4.644
    3OL    H12S 5073   0.565   0.510   4.758
    3OL    C113 5074   0.545   0.583   4.556
    3OL    H13R 5075   0.652   0.602   4.568
    3OL    H13S 5076   0.494   0.679   4.564
    3OL    C114 5077   0.522   0.520   4.417
    3OL    H14R 5078   0.417   0.495   4.405
    3OL    H14S 5079   0.579   0.427   4.407
    3OL    C115 5080   0.561   0.617   4.303
    3OL    H15R 5081   0.519   0.716   4.323
    3OL    H15S 5082   0.517   0.581   4.210
    3OL    C116 5083   0.714   0.628   4.284
    3OL    H16R 5084   0.754   0.529   4.262
    3OL    H16S 5085   0.760   0.664   4.376
    3OL    C117 5086   0.748   0.723   4.168
    3OL    H17R 5087   0.707   0.822   4.188
    3OL    H17S 5088   0.701   0.686   4.076
    3OL    C118 5089   0.900   0.733   4.147
    3OL    H18R 5090   0.922   0.802   4.066
    3OL    H18S 5091   0.942   0.636   4.122
    3OL    H18T 5092   0.949   0.770   4.238
    1PA    C116 5093   3.896   2.484   3.459
    1PA    H16R 5094   3.880   2.588   3.489
    1PA    H16S 5095   3.824   2.458   3.382
    1PA    H16T 5096   3.996   2.475   3.416
    1PA    C115 5097   3.881   2.391   3.580
    1PA    H15R 5098   3.781   2.401   3.622
    1PA    H15S 5099   3.894   2.287   3.548
    1PA    C114 5100   3.986   2.424   3.688
    1PA    H14R 5101   4.086   2.419   3.644
    1PA    H14S 5102   3.971   2.526   3.724
    1PA    C113 5103   3.978   2.325   3.806
    1PA    H13R 5104   3.882   2.334   3.857
    1PA    H13S 5105   3.985   2.223   3.766
    1PA    C112 5106   4.094   2.343   3.906
    1PA    H12R 5107   4.097   2.255   3.971
    1PA    H12S 5108   4.189   2.347   3.852
    1PA    C111 5109   4.078   2.468   3.995
    1PA    H11R 5110   4.078   2.559   3.933
    1PA    H11S 5111   3.983   2.464   4.048
    1PA    C110 5112   4.195   2.474   4.096
    1PA    H10R 5113   4.199   2.379   4.150
    1PA    H10S 5114   4.289   2.485   4.041
    1PA     C19 5115   4.181   2.589   4.198
    1PA     H9R 5116   4.182   2.685   4.146
    1PA     H9S 5117   4.085   2.580   4.250
    1PA     C18 5118   4.297   2.581   4.299
    1PA     H8R 5119   4.298   2.481   4.343
    1PA     H8S 5120   4.392   2.594   4.246
    1PA     C17 5121   4.285   2.685   4.412
    1PA     H7R 5122   4.289   2.786   4.372
    1PA     H7S 5123   4.188   2.673   4.461
    1PA     C16 5124   4.396   2.664   4.517
    1PA     H6R 5125   4.366   2.710   4.611
    1PA     H6S 5126   4.409   2.557   4.536
    1PA     C15 5127   4.531   2.726   4.472
    1PA     H5R 5128   4.552   2.698   4.369
    1PA     H5S 5129   4.524   2.835   4.476
    1PA     C14 5130   4.649   2.678   4.560
    1PA     H4R 5131   4.656   2.570   4.552
    1PA     H4S 5132   4.741   2.720   4.519
    1PA     C13 5133   4.636   2.718   4.708
    1PA     H3R 5134   4.630   2.827   4.718
    1PA     H3S 5135   4.545   2.676   4.750
    1PA     C12 5136   4.758   2.666   4.787
    1PA     H2R 5137   4.770   2.559   4.769
    1PA     H2S 5138   4.849   2.714   4.750
    2PC     C11 5139   4.749   2.687   4.936
    2PC     O12 5140   4.645   2.706   4.998
    2PC     O11 5141   4.872   2.687   4.991
    2PC      C1 5142   4.888   2.692   5.136
    2PC      HR 5143   4.974   2.755   5.160
    2PC      HS 5144   4.800   2.737   5.183
    2PC      C2 5145   4.909   2.548   5.189
    2PC      HX 5146   4.828   2.485   5.153
    2PC      C3 5147   4.906   2.546   5.343
    2PC      HA 5148   4.977   2.618   5.384
    2PC      HB 5149   4.806   2.574   5.378
    2PC     O31 5150   4.936   2.413   5.391
    2PC     P31 5151   4.955   2.393   5.547
    2PC     O32 5152   5.054   2.269   5.549
    2PC     C31 5153   5.183   2.285   5.487
    2PC     H1A 5154   5.170   2.297   5.379
    2PC     H1B 5155   5.236   2.371   5.528
    2PC     C32 5156   5.262   2.156   5.515
    2PC     H2A 5157   5.193   2.071   5.512
    2PC     H2B 5158   5.337   2.141   5.437
    2PC     N31 5159   5.337   2.148   5.646
    2PC     C33 5160   5.462   2.232   5.641
    2PC     H3A 5161   5.515   2.221   5.736
    2PC     H3B 5162   5.524   2.197   5.559
    2PC     H3C 5163   5.433   2.336   5.626
    2PC     C34 5164   5.252   2.191   5.762
    2PC     H4A 5165   5.159   2.133   5.761
    2PC     H4B 5166   5.307   2.174   5.854
    2PC     H4C 5167   5.229   2.297   5.751
    2PC     C35 5168   5.377   2.005   5.666
    2PC     H5A 5169   5.440   1.974   5.583
    2PC     H5B 5170   5.286   1.944   5.670
    2PC     H5C 5171   5.431   1.998   5.761
    2PC     O33 5172   5.019   2.511   5.611
    2PC     O34 5173   4.830   2.369   5.622
    2PC     O21 5174   5.036   2.494   5.140
    2PC     C21 5175   5.155   2.547   5.173
    2PC     O22 5176   5.172   2.647   5.240
    3OL     C12 5177   5.271   2.465   5.122
    3OL     H2R 5178   5.237   2.364   5.098
    3OL     H2S 5179   5.344   2.456   5.203
    3OL     C13 5180   5.338   2.529   5.000
    3OL     H3R 5181   5.432   2.478   4.980
    3OL     H3S 5182   5.361   2.634   5.021
    3OL     C14 5183   5.249   2.518   4.874
    3OL     H4R 5184   5.152   2.567   4.891
    3OL     H4S 5185   5.230   2.413   4.854
    3OL     C15 5186   5.318   2.580   4.751
    3OL     H5R 5187   5.276   2.533   4.662
    3OL     H5S 5188   5.425   2.556   4.752
    3OL     C16 5189   5.297   2.732   4.743
    3OL     H6R 5190   5.331   2.779   4.836
    3OL     H6S 5191   5.191   2.753   4.733
    3OL     C17 5192   5.373   2.796   4.624
    3OL     H7R 5193   5.481   2.789   4.640
    3OL     H7S 5194   5.347   2.902   4.621
    3OL     C18 5195   5.337   2.731   4.489
    3OL     H8R 5196   5.232   2.701   4.490
    3OL     H8S 5197   5.395   2.639   4.477
    3OL     C19 5198   5.367   2.825   4.375
    3OL     H9R 5199   5.473   2.842   4.355
    3OL    C110 5200   5.277   2.889   4.301
    3OL    H10R 5201   5.310   2.956   4.222
    3OL    C111 5202   5.126   2.876   4.315
    3OL    H11R 5203   5.099   2.781   4.359
    3OL    H11S 5204   5.080   2.880   4.217
    3OL    C112 5205   5.070   2.991   4.402
    3OL    H12R 5206   5.072   3.083   4.344
    3OL    H12S 5207   5.135   3.005   4.489
    3OL    C113 5208   4.927   2.961   4.449
    3OL    H13R 5209   4.928   2.878   4.520
    3OL    H13S 5210   4.867   2.929   4.364
    3OL    C114 5211   4.859   3.084   4.513
    3OL    H14R 5212   4.755   3.061   4.535
    3OL    H14S 5213   4.859   3.165   4.441
    3OL    C115 5214   4.928   3.135   4.642
    3OL    H15R 5215   4.889   3.234   4.663
    3OL    H15S 5216   5.035   3.146   4.626
    3OL    C116 5217   4.900   3.046   4.764
    3OL    H16R 5218   4.943   2.947   4.749
    3OL    H16S 5219   4.792   3.034   4.777
    3OL    C117 5220   4.961   3.110   4.890
    3OL    H17R 5221   4.920   3.211   4.904
    3OL    H17S 5222   5.069   3.120   4.878
    3OL    C118 5223   4.932   3.026   5.015
    3OL    H18R 5224   4.824   3.015   5.030
    3OL    H18S 5225   4.974   3.075   5.103
    3OL    H18T 5226   4.977   2.928   5.005
    1PA    C116 5227   2.540   5.534   3.439
    1PA    H16R 5228   2.615   5.487   3.503
    1PA    H16S 5229   2.589   5.565   3.347
    1PA    H16T 5230   2.464   5.460   3.414
    1PA    C115 5231   2.477   5.655   3.510
    1PA    H15R 5232   2.554   5.727   3.537
    1PA    H15S 5233   2.410   5.705   3.439
    1PA    C114 5234   2.395   5.614   3.635
    1PA    H14R 5235   2.331   5.698   3.663
    1PA    H14S 5236   2.329   5.530   3.610
    1PA    C113 5237   2.485   5.578   3.755
    1PA    H13R 5238   2.547   5.492   3.729
    1PA    H13S 5239   2.551   5.662   3.777
    1PA    C112 5240   2.400   5.544   3.879
    1PA    H12R 5241   2.334   5.628   3.900
    1PA    H12S 5242   2.338   5.457   3.858
    1PA    C111 5243   2.488   5.518   4.003
    1PA    H11R 5244   2.554   5.433   3.984
    1PA    H11S 5245   2.551   5.605   4.021
    1PA    C110 5246   2.402   5.490   4.128
    1PA    H10R 5247   2.326   5.568   4.137
    1PA    H10S 5248   2.350   5.395   4.116
    1PA     C19 5249   2.488   5.488   4.256
    1PA     H9R 5250   2.562   5.407   4.249
    1PA     H9S 5251   2.543   5.582   4.263
    1PA     C18 5252   2.403   5.469   4.383
    1PA     H8R 5253   2.326   5.546   4.387
    1PA     H8S 5254   2.352   5.372   4.379
    1PA     C17 5255   2.491   5.476   4.509
    1PA     H7R 5256   2.566   5.396   4.505
    1PA     H7S 5257   2.545   5.571   4.510
    1PA     C16 5258   2.410   5.461   4.639
    1PA     H6R 5259   2.332   5.538   4.642
    1PA     H6S 5260   2.361   5.364   4.641
    1PA     C15 5261   2.501   5.476   4.763
    1PA     H5R 5262   2.577   5.398   4.761
    1PA     H5S 5263   2.552   5.572   4.759
    1PA     C14 5264   2.421   5.466   4.894
    1PA     H4R 5265   2.342   5.542   4.894
    1PA     H4S 5266   2.372   5.369   4.901
    1PA     C13 5267   2.512   5.487   5.017
    1PA     H3R 5268   2.590   5.410   5.018
    1PA     H3S 5269   2.561   5.584   5.010
    1PA     C12 5270   2.432   5.480   5.150
    1PA     H2R 5271   2.352   5.554   5.147
    1PA     H2S 5272   2.386   5.381   5.159
    2PC     C11 5273   2.515   5.505   5.274
    2PC     O12 5274   2.467   5.510   5.386
    2PC     O11 5275   2.647   5.515   5.250
    2PC      C1 5276   2.737   5.553   5.358
    2PC      HR 5277   2.715   5.656   5.390
    2PC      HS 5278   2.722   5.486   5.442
    2PC      C2 5279   2.881   5.543   5.304
    2PC      HX 5280   2.891   5.447   5.253
    2PC      C3 5281   2.986   5.550   5.417
    2PC      HA 5282   2.982   5.459   5.477
    2PC      HB 5283   3.086   5.555   5.373
    2PC     O31 5284   2.965   5.668   5.500
    2PC     P31 5285   2.922   5.652   5.653
    2PC     O32 5286   3.031   5.741   5.726
    2PC     C31 5287   3.171   5.708   5.712
    2PC     H1A 5288   3.189   5.604   5.740
    2PC     H1B 5289   3.201   5.723   5.608
    2PC     C32 5290   3.253   5.804   5.802
    2PC     H2A 5291   3.357   5.801   5.771
    2PC     H2B 5292   3.216   5.906   5.789
    2PC     N31 5293   3.253   5.776   5.951
    2PC     C33 5294   3.330   5.884   6.021
    2PC     H3A 5295   3.278   5.979   6.005
    2PC     H3B 5296   3.334   5.861   6.127
    2PC     H3C 5297   3.430   5.888   5.979
    2PC     C34 5298   3.114   5.773   6.007
    2PC     H4A 5299   3.120   5.756   6.115
    2PC     H4B 5300   3.067   5.870   5.987
    2PC     H4C 5301   3.058   5.693   5.958
    2PC     C35 5302   3.321   5.645   5.980
    2PC     H5A 5303   3.263   5.564   5.934
    2PC     H5B 5304   3.326   5.631   6.088
    2PC     H5C 5305   3.422   5.648   5.937
    2PC     O33 5306   2.785   5.701   5.682
    2PC     O34 5307   2.925   5.513   5.702
    2PC     O21 5308   2.901   5.650   5.209
    2PC     C21 5309   3.001   5.642   5.119
    2PC     O22 5310   3.079   5.548   5.115
    3OL     C12 5311   3.000   5.757   5.021
    3OL     H2R 5312   3.068   5.834   5.058
    3OL     H2S 5313   2.900   5.801   5.020
    3OL     C13 5314   3.040   5.717   4.877
    3OL     H3R 5315   3.144   5.683   4.876
    3OL     H3S 5316   3.033   5.805   4.813
    3OL     C14 5317   2.949   5.605   4.821
    3OL     H4R 5318   2.844   5.634   4.833
    3OL     H4S 5319   2.965   5.513   4.878
    3OL     C15 5320   2.977   5.578   4.672
    3OL     H5R 5321   3.084   5.562   4.657
    3OL     H5S 5322   2.948   5.664   4.612
    3OL     C16 5323   2.900   5.452   4.626
    3OL     H6R 5324   2.794   5.464   4.649
    3OL     H6S 5325   2.936   5.366   4.682
    3OL     C17 5326   2.917   5.425   4.475
    3OL     H7R 5327   3.023   5.422   4.449
    3OL     H7S 5328   2.870   5.505   4.418
    3OL     C18 5329   2.852   5.290   4.438
    3OL     H8R 5330   2.750   5.287   4.476
    3OL     H8S 5331   2.905   5.210   4.489
    3OL     C19 5332   2.849   5.268   4.288
    3OL     H9R 5333   2.777   5.331   4.235
    3OL    C110 5334   2.921   5.181   4.219
    3OL    H10R 5335   2.908   5.175   4.111
    3OL    C111 5336   3.025   5.087   4.276
    3OL    H11R 5337   3.019   4.990   4.225
    3OL    H11S 5338   3.007   5.068   4.381
    3OL    C112 5339   3.167   5.145   4.255
    3OL    H12R 5340   3.167   5.251   4.281
    3OL    H12S 5341   3.191   5.139   4.149
    3OL    C113 5342   3.275   5.070   4.336
    3OL    H13R 5343   3.374   5.096   4.298
    3OL    H13S 5344   3.262   4.963   4.322
    3OL    C114 5345   3.269   5.102   4.487
    3OL    H14R 5346   3.330   5.028   4.540
    3OL    H14S 5347   3.167   5.092   4.524
    3OL    C115 5348   3.324   5.243   4.521
    3OL    H15R 5349   3.269   5.319   4.464
    3OL    H15S 5350   3.429   5.249   4.492
    3OL    C116 5351   3.309   5.272   4.671
    3OL    H16R 5352   3.362   5.196   4.729
    3OL    H16S 5353   3.203   5.267   4.698
    3OL    C117 5354   3.363   5.411   4.707
    3OL    H17R 5355   3.314   5.487   4.647
    3OL    H17S 5356   3.470   5.415   4.686
    3OL    C118 5357   3.341   5.442   4.856
    3OL    H18R 5358   3.391   5.368   4.919
    3OL    H18S 5359   3.234   5.440   4.880
    3OL    H18T 5360   3.380   5.541   4.881
    1PA    C116 5361   3.173   2.233   4.991
    1PA    H16R 5362   3.156   2.138   5.042
    1PA    H16S 5363   3.144   2.223   4.886
    1PA    H16T 5364   3.110   2.310   5.037
    1PA    C115 5365   3.321   2.273   5.001
    1PA    H15R 5366   3.336   2.369   4.951
    1PA    H15S 5367   3.347   2.287   5.106
    1PA    C114 5368   3.413   2.166   4.938
    1PA    H14R 5369   3.398   2.071   4.989
    1PA    H14S 5370   3.385   2.153   4.833
    1PA    C113 5371   3.562   2.207   4.948
    1PA    H13R 5372   3.578   2.301   4.894
    1PA    H13S 5373   3.587   2.225   5.052
    1PA    C112 5374   3.657   2.100   4.893
    1PA    H12R 5375   3.759   2.126   4.922
    1PA    H12S 5376   3.634   2.004   4.938
    1PA    C111 5377   3.651   2.091   4.739
    1PA    H11R 5378   3.551   2.061   4.708
    1PA    H11S 5379   3.669   2.189   4.696
    1PA    C110 5380   3.754   1.992   4.681
    1PA    H10R 5381   3.744   1.990   4.572
    1PA    H10S 5382   3.855   2.029   4.703
    1PA     C19 5383   3.742   1.847   4.734
    1PA     H9R 5384   3.819   1.787   4.684
    1PA     H9S 5385   3.764   1.845   4.841
    1PA     C18 5386   3.604   1.785   4.708
    1PA     H8R 5387   3.527   1.837   4.766
    1PA     H8S 5388   3.578   1.793   4.602
    1PA     C17 5389   3.607   1.636   4.749
    1PA     H7R 5390   3.684   1.586   4.690
    1PA     H7S 5391   3.636   1.629   4.854
    1PA     C16 5392   3.473   1.564   4.727
    1PA     H6R 5393   3.424   1.603   4.638
    1PA     H6S 5394   3.493   1.458   4.709
    1PA     C15 5395   3.379   1.576   4.848
    1PA     H5R 5396   3.428   1.536   4.937
    1PA     H5S 5397   3.356   1.681   4.867
    1PA     C14 5398   3.249   1.498   4.821
    1PA     H4R 5399   3.201   1.536   4.730
    1PA     H4S 5400   3.273   1.392   4.804
    1PA     C13 5401   3.151   1.510   4.939
    1PA     H3R 5402   3.199   1.473   5.030
    1PA     H3S 5403   3.127   1.615   4.955
    1PA     C12 5404   3.023   1.430   4.911
    1PA     H2R 5405   2.980   1.461   4.816
    1PA     H2S 5406   3.044   1.324   4.905
    2PC     C11 5407   2.921   1.453   5.020
    2PC     O12 5408   2.949   1.464   5.138
    2PC     O11 5409   2.796   1.466   4.971
    2PC      C1 5410   2.689   1.513   5.058
    2PC      HR 5411   2.593   1.493   5.011
    2PC      HS 5412   2.693   1.458   5.153
    2PC      C2 5413   2.706   1.664   5.081
    2PC      HX 5414   2.807   1.683   5.119
    2PC      C3 5415   2.601   1.717   5.180
    2PC      HA 5416   2.506   1.732   5.129
    2PC      HB 5417   2.586   1.645   5.260
    2PC     O31 5418   2.644   1.843   5.238
    2PC     P31 5419   2.740   1.842   5.366
    2PC     O32 5420   2.766   1.997   5.386
    2PC     C31 5421   2.819   2.072   5.275
    2PC     H1A 5422   2.899   2.016   5.227
    2PC     H1B 5423   2.739   2.088   5.202
    2PC     C32 5424   2.874   2.207   5.324
    2PC     H2A 5425   2.914   2.262   5.238
    2PC     H2B 5426   2.793   2.267   5.366
    2PC     N31 5427   2.984   2.205   5.428
    2PC     C33 5428   2.930   2.165   5.563
    2PC     H3A 5429   2.848   2.233   5.588
    2PC     H3B 5430   2.893   2.062   5.557
    2PC     H3C 5431   3.010   2.172   5.636
    2PC     C34 5432   3.095   2.110   5.390
    2PC     H4A 5433   3.135   2.140   5.293
    2PC     H4B 5434   3.172   2.116   5.467
    2PC     H4C 5435   3.054   2.009   5.385
    2PC     C35 5436   3.042   2.342   5.441
    2PC     H5A 5437   3.119   2.340   5.518
    2PC     H5B 5438   2.963   2.411   5.467
    2PC     H5C 5439   3.087   2.370   5.345
    2PC     O33 5440   2.672   1.781   5.483
    2PC     O34 5441   2.866   1.768   5.342
    2PC     O21 5442   2.685   1.730   4.953
    2PC     C21 5443   2.751   1.844   4.925
    2PC     O22 5444   2.834   1.896   4.997
    3OL     C12 5445   2.711   1.899   4.790
    3OL     H2R 5446   2.704   2.008   4.798
    3OL     H2S 5447   2.612   1.862   4.765
    3OL     C13 5448   2.811   1.862   4.679
    3OL     H3R 5449   2.905   1.914   4.699
    3OL     H3S 5450   2.774   1.899   4.583
    3OL     C14 5451   2.840   1.710   4.668
    3OL     H4R 5452   2.877   1.674   4.764
    3OL     H4S 5453   2.920   1.693   4.595
    3OL     C15 5454   2.716   1.627   4.628
    3OL     H5R 5455   2.628   1.663   4.681
    3OL     H5S 5456   2.732   1.524   4.658
    3OL     C16 5457   2.690   1.631   4.476
    3OL     H6R 5458   2.775   1.587   4.423
    3OL     H6S 5459   2.680   1.734   4.443
    3OL     C17 5460   2.561   1.553   4.441
    3OL     H7R 5461   2.476   1.601   4.488
    3OL     H7S 5462   2.568   1.452   4.482
    3OL     C18 5463   2.537   1.544   4.289
    3OL     H8R 5464   2.446   1.487   4.272
    3OL     H8S 5465   2.619   1.488   4.243
    3OL     C19 5466   2.522   1.682   4.227
    3OL     H9R 5467   2.444   1.744   4.271
    3OL    C110 5468   2.595   1.729   4.127
    3OL    H10R 5469   2.576   1.830   4.090
    3OL    C111 5470   2.705   1.654   4.056
    3OL    H11R 5471   2.670   1.555   4.027
    3OL    H11S 5472   2.788   1.640   4.126
    3OL    C112 5473   2.755   1.729   3.932
    3OL    H12R 5474   2.785   1.831   3.959
    3OL    H12S 5475   2.673   1.738   3.861
    3OL    C113 5476   2.873   1.658   3.862
    3OL    H13R 5477   2.891   1.706   3.766
    3OL    H13S 5478   2.847   1.553   3.843
    3OL    C114 5479   3.002   1.665   3.946
    3OL    H14R 5480   2.989   1.612   4.041
    3OL    H14S 5481   3.024   1.769   3.970
    3OL    C115 5482   3.122   1.604   3.872
    3OL    H15R 5483   3.138   1.657   3.778
    3OL    H15S 5484   3.102   1.499   3.848
    3OL    C116 5485   3.249   1.612   3.959
    3OL    H16R 5486   3.236   1.548   4.046
    3OL    H16S 5487   3.263   1.715   3.995
    3OL    C117 5488   3.376   1.567   3.883
    3OL    H17R 5489   3.356   1.474   3.829
    3OL    H17S 5490   3.455   1.547   3.955
    3OL    C118 5491   3.426   1.676   3.785
    3OL    H18R 5492   3.445   1.769   3.839
    3OL    H18S 5493   3.352   1.695   3.707
    3OL    H18T 5494   3.518   1.644   3.737
    1PA    C116 5495   6.391   1.643   4.047
    1PA    H16R 5496   6.408   1.577   4.132
    1PA    H16S 5497   6.305   1.605   3.991
    1PA    H16T 5498   6.366   1.742   4.084
    1PA    C115 5499   0.067   1.648   3.956
    1PA    H15R 5500   0.085   1.547   3.916
    1PA    H15S 5501   0.049   1.714   3.871
    1PA    C114 5502   0.193   1.693   4.033
    1PA    H14R 5503   0.200   1.637   4.126
    1PA    H14S 5504   0.281   1.668   3.973
    1PA    C113 5505   0.193   1.845   4.060
    1PA    H13R 5506   0.189   1.898   3.964
    1PA    H13S 5507   0.105   1.873   4.117
    1PA    C112 5508   0.320   1.890   4.135
    1PA    H12R 5509   0.409   1.848   4.087
    1PA    H12S 5510   0.328   1.999   4.127
    1PA    C111 5511   0.316   1.852   4.284
    1PA    H11R 5512   0.230   1.899   4.332
    1PA    H11S 5513   0.305   1.744   4.294
    1PA    C110 5514   0.445   1.895   4.357
    1PA    H10R 5515   0.531   1.849   4.306
    1PA    H10S 5516   0.458   2.004   4.350
    1PA     C19 5517   0.445   1.850   4.504
    1PA     H9R 5518   0.397   1.753   4.513
    1PA     H9S 5519   0.549   1.838   4.537
    1PA     C18 5520   0.378   1.953   4.598
    1PA     H8R 5521   0.440   2.043   4.603
    1PA     H8S 5522   0.280   1.982   4.560
    1PA     C17 5523   0.361   1.893   4.740
    1PA     H7R 5524   0.279   1.821   4.738
    1PA     H7S 5525   0.452   1.839   4.768
    1PA     C16 5526   0.332   2.001   4.845
    1PA     H6R 5527   0.422   2.061   4.860
    1PA     H6S 5528   0.255   2.068   4.808
    1PA     C15 5529   0.286   1.944   4.981
    1PA     H5R 5530   0.278   2.026   5.053
    1PA     H5S 5531   0.186   1.900   4.970
    1PA     C14 5532   0.381   1.836   5.037
    1PA     H4R 5533   0.381   1.749   4.971
    1PA     H4S 5534   0.483   1.875   5.040
    1PA     C13 5535   0.339   1.791   5.179
    1PA     H3R 5536   0.346   1.876   5.247
    1PA     H3S 5537   0.235   1.757   5.178
    1PA     C12 5538   0.431   1.678   5.228
    1PA     H2R 5539   0.420   1.591   5.163
    1PA     H2S 5540   0.536   1.709   5.221
    2PC     C11 5541   0.405   1.634   5.370
    2PC     O12 5542   0.317   1.680   5.441
    2PC     O11 5543   0.492   1.538   5.407
    2PC      C1 5544   0.485   1.477   5.538
    2PC      HR 5545   0.574   1.414   5.551
    2PC      HS 5546   0.487   1.554   5.616
    2PC      C2 5547   0.359   1.388   5.553
    2PC      HX 5548   0.271   1.452   5.564
    2PC      C3 5549   0.373   1.294   5.675
    2PC      HA 5550   0.275   1.254   5.704
    2PC      HB 5551   0.440   1.212   5.650
    2PC     O31 5552   0.429   1.368   5.786
    2PC     P31 5553   0.461   1.294   5.924
    2PC     O32 5554   0.616   1.323   5.938
    2PC     C31 5555   0.658   1.460   5.951
    2PC     H1A 5556   0.642   1.512   5.856
    2PC     H1B 5557   0.599   1.510   6.028
    2PC     C32 5558   0.808   1.464   5.987
    2PC     H2A 5559   0.867   1.419   5.907
    2PC     H2B 5560   0.839   1.568   5.998
    2PC     N31 5561   0.850   1.394   6.115
    2PC     C33 5562   0.856   1.245   6.095
    2PC     H3A 5563   0.895   1.199   6.186
    2PC     H3B 5564   0.755   1.208   6.075
    2PC     H3C 5565   0.921   1.224   6.011
    2PC     C34 5566   0.988   1.441   6.153
    2PC     H4A 5567   0.985   1.549   6.167
    2PC     H4B 5568   1.017   1.391   6.245
    2PC     H4C 5569   1.056   1.415   6.072
    2PC     C35 5570   0.757   1.426   6.228
    2PC     H5A 5571   0.657   1.388   6.204
    2PC     H5B 5572   0.754   1.535   6.241
    2PC     H5C 5573   0.794   1.379   6.319
    2PC     O33 5574   0.380   1.342   6.038
    2PC     O34 5575   0.435   1.148   5.923
    2PC     O21 5576   0.348   1.307   5.433
    2PC     C21 5577   0.236   1.236   5.411
    2PC     O22 5578   0.140   1.238   5.486
    3OL     C12 5579   0.235   1.158   5.281
    3OL     H2R 5580   0.212   1.226   5.199
    3OL     H2S 5581   0.153   1.087   5.287
    3OL     C13 5582   0.366   1.080   5.251
    3OL     H3R 5583   0.343   1.006   5.174
    3OL     H3S 5584   0.395   1.025   5.340
    3OL     C14 5585   0.485   1.165   5.201
    3OL     H4R 5586   0.566   1.096   5.173
    3OL     H4S 5587   0.524   1.228   5.281
    3OL     C15 5588   0.451   1.253   5.079
    3OL     H5R 5589   0.383   1.333   5.109
    3OL     H5S 5590   0.400   1.192   5.003
    3OL     C16 5591   0.578   1.315   5.018
    3OL     H6R 5592   0.644   1.236   4.983
    3OL     H6S 5593   0.631   1.372   5.095
    3OL     C17 5594   0.543   1.409   4.901
    3OL     H7R 5595   0.481   1.491   4.937
    3OL     H7S 5596   0.485   1.354   4.826
    3OL     C18 5597   0.670   1.466   4.835
    3OL     H8R 5598   0.729   1.385   4.793
    3OL     H8S 5599   0.732   1.513   4.912
    3OL     C19 5600   0.635   1.569   4.731
    3OL     H9R 5601   0.610   1.668   4.771
    3OL    C110 5602   0.638   1.553   4.599
    3OL    H10R 5603   0.615   1.638   4.535
    3OL    C111 5604   0.665   1.424   4.525
    3OL    H11R 5605   0.666   1.339   4.593
    3OL    H11S 5606   0.763   1.428   4.477
    3OL    C112 5607   0.559   1.396   4.416
    3OL    H12R 5608   0.461   1.391   4.463
    3OL    H12S 5609   0.579   1.299   4.371
    3OL    C113 5610   0.557   1.504   4.305
    3OL    H13R 5611   0.655   1.510   4.257
    3OL    H13S 5612   0.537   1.601   4.350
    3OL    C114 5613   0.448   1.475   4.200
    3OL    H14R 5614   0.428   1.567   4.145
    3OL    H14S 5615   0.355   1.447   4.251
    3OL    C115 5616   0.489   1.366   4.100
    3OL    H15R 5617   0.519   1.275   4.153
    3OL    H15S 5618   0.576   1.400   4.043
    3OL    C116 5619   0.373   1.332   4.004
    3OL    H16R 5620   0.342   1.423   3.952
    3OL    H16S 5621   0.288   1.296   4.062
    3OL    C117 5622   0.415   1.225   3.901
    3OL    H17R 5623   0.452   1.137   3.953
    3OL    H17S 5624   0.497   1.264   3.840
    3OL    C118 5625   0.297   1.186   3.811
    3OL    H18R 5626   0.217   1.141   3.870
    3OL    H18S 5627   0.330   1.113   3.736
    3OL    H18T 5628   0.257   1.274   3.760
    1PA    C116 5629   0.375   0.672   3.936
    1PA    H16R 5630   0.380   0.644   3.831
    1PA    H16S 5631   0.378   0.581   3.996
    1PA    H16T 5632   0.462   0.733   3.960
    1PA    C115 5633   0.245   0.750   3.963
    1PA    H15R 5634   0.243   0.842   3.903
    1PA    H15S 5635   0.160   0.689   3.931
    1PA    C114 5636   0.227   0.785   4.113
    1PA    H14R 5637   0.125   0.820   4.129
    1PA    H14S 5638   0.240   0.695   4.173
    1PA    C113 5639   0.325   0.894   4.160
    1PA    H13R 5640   0.428   0.860   4.147
    1PA    H13S 5641   0.313   0.984   4.098
    1PA    C112 5642   0.302   0.930   4.308
    1PA    H12R 5643   0.200   0.968   4.320
    1PA    H12S 5644   0.311   0.839   4.368
    1PA    C111 5645   0.403   1.036   4.356
    1PA    H11R 5646   0.505   0.997   4.346
    1PA    H11S 5647   0.395   1.123   4.291
    1PA    C110 5648   0.378   1.080   4.501
    1PA    H10R 5649   0.439   1.168   4.522
    1PA    H10S 5650   0.273   1.109   4.513
    1PA     C19 5651   0.413   0.971   4.604
    1PA     H9R 5652   0.350   0.883   4.589
    1PA     H9S 5653   0.517   0.941   4.591
    1PA     C18 5654   0.392   1.025   4.747
    1PA     H8R 5655   0.456   1.112   4.765
    1PA     H8S 5656   0.289   1.059   4.756
    1PA     C17 5657   0.417   0.918   4.856
    1PA     H7R 5658   0.371   0.952   4.949
    1PA     H7S 5659   0.369   0.824   4.827
    1PA     C16 5660   0.567   0.894   4.881
    1PA     H6R 5661   0.614   0.856   4.790
    1PA     H6S 5662   0.615   0.989   4.905
    1PA     C15 5663   0.590   0.794   4.996
    1PA     H5R 5664   0.538   0.830   5.085
    1PA     H5S 5665   0.547   0.697   4.969
    1PA     C14 5666   0.740   0.779   5.026
    1PA     H4R 5667   0.793   0.741   4.938
    1PA     H4S 5668   0.781   0.878   5.048
    1PA     C13 5669   0.767   0.687   5.147
    1PA     H3R 5670   0.866   0.709   5.187
    1PA     H3S 5671   0.695   0.709   5.227
    1PA     C12 5672   0.761   0.538   5.110
    1PA     H2R 5673   0.662   0.513   5.071
    1PA     H2S 5674   0.834   0.516   5.031
    2PC     C11 5675   0.791   0.453   5.230
    2PC     O12 5676   0.903   0.415   5.259
    2PC     O11 5677   0.681   0.427   5.303
    2PC      C1 5678   0.697   0.358   5.430
    2PC      HR 5679   0.732   0.256   5.414
    2PC      HS 5680   0.771   0.413   5.491
    2PC      C2 5681   0.561   0.358   5.502
    2PC      HX 5682   0.514   0.456   5.487
    2PC      C3 5683   0.577   0.333   5.654
    2PC      HA 5684   0.614   0.425   5.701
    2PC      HB 5685   0.480   0.307   5.700
    2PC     O31 5686   0.672   0.226   5.679
    2PC     P31 5687   0.753   0.224   5.817
    2PC     O32 5688   0.862   0.334   5.782
    2PC     C31 5689   0.993   0.290   5.741
    2PC     H1A 5690   1.039   0.232   5.822
    2PC     H1B 5691   0.985   0.227   5.652
    2PC     C32 5692   1.081   0.413   5.708
    2PC     H2A 5693   1.184   0.380   5.696
    2PC     H2B 5694   1.048   0.457   5.614
    2PC     N31 5695   1.085   0.526   5.809
    2PC     C33 5696   1.200   0.616   5.774
    2PC     H3A 5697   1.203   0.699   5.845
    2PC     H3B 5698   1.293   0.557   5.780
    2PC     H3C 5699   1.186   0.653   5.672
    2PC     C34 5700   0.959   0.608   5.803
    2PC     H4A 5701   0.944   0.641   5.700
    2PC     H4B 5702   0.875   0.547   5.835
    2PC     H4C 5703   0.970   0.694   5.868
    2PC     C35 5704   1.104   0.475   5.949
    2PC     H5A 5705   1.195   0.415   5.951
    2PC     H5B 5706   1.018   0.415   5.976
    2PC     H5C 5707   1.114   0.561   6.015
    2PC     O33 5708   0.677   0.264   5.937
    2PC     O34 5709   0.810   0.092   5.852
    2PC     O21 5710   0.479   0.255   5.442
    2PC     C21 5711   0.345   0.268   5.445
    2PC     O22 5712   0.287   0.363   5.495
    3OL     C12 5713   0.273   0.155   5.375
    3OL     H2R 5714   0.198   0.114   5.444
    3OL     H2S 5715   0.343   0.075   5.354
    3OL     C13 5716   0.204   0.203   5.245
    3OL     H3R 5717   0.126   0.276   5.271
    3OL     H3S 5718   0.154   0.118   5.198
    3OL     C14 5719   0.301   0.268   5.145
    3OL     H4R 5720   0.350   0.355   5.191
    3OL     H4S 5721   0.244   0.305   5.059
    3OL     C15 5722   0.409   0.170   5.094
    3OL     H5R 5723   0.361   0.087   5.042
    3OL     H5S 5724   0.465   0.129   5.179
    3OL     C16 5725   0.508   0.240   5.000
    3OL     H6R 5726   0.552   0.325   5.052
    3OL     H6S 5727   0.455   0.279   4.913
    3OL     C17 5728   0.619   0.144   4.954
    3OL     H7R 5729   0.576   0.062   4.897
    3OL     H7S 5730   0.669   0.101   5.041
    3OL     C18 5731   0.723   0.218   4.868
    3OL     H8R 5732   0.770   0.295   4.930
    3OL     H8S 5733   0.673   0.268   4.785
    3OL     C19 5734   0.830   0.123   4.818
    3OL     H9R 5735   0.857   0.043   4.886
    3OL    C110 5736   0.889   0.131   4.699
    3OL    H10R 5737   0.965   0.058   4.673
    3OL    C111 5738   0.863   0.239   4.596
    3OL    H11R 5739   0.885   0.337   4.639
    3OL    H11S 5740   0.758   0.238   4.567
    3OL    C112 5741   0.950   0.216   4.471
    3OL    H12R 5742   0.926   0.118   4.430
    3OL    H12S 5743   1.055   0.217   4.500
    3OL    C113 5744   0.924   0.326   4.366
    3OL    H13R 5745   0.943   0.423   4.412
    3OL    H13S 5746   0.819   0.324   4.336
    3OL    C114 5747   1.014   0.313   4.241
    3OL    H14R 5748   1.119   0.302   4.269
    3OL    H14S 5749   1.006   0.407   4.185
    3OL    C115 5750   0.971   0.199   4.146
    3OL    H15R 5751   0.989   0.232   4.043
    3OL    H15S 5752   0.863   0.182   4.155
    3OL    C116 5753   1.050   0.069   4.169
    3OL    H16R 5754   1.044   0.039   4.274
    3OL    H16S 5755   1.155   0.088   4.147
    3OL    C117 5756   1.000   6.402   4.080
    3OL    H17R 5757   1.074   6.321   4.082
    3OL    H17S 5758   0.993   6.435   3.976
    3OL    C118 5759   0.865   6.346   4.127
    3OL    H18R 5760   0.786   6.422   4.119
    3OL    H18S 5761   0.871   6.313   4.231
    3OL    H18T 5762   0.836   6.261   4.065
    1PA    C116 5763   4.523   4.629   3.977
    1PA    H16R 5764   4.481   4.728   3.995
    1PA    H16S 5765   4.443   4.555   3.982
    1PA    H16T 5766   4.566   4.627   3.876
    1PA    C115 5767   4.632   4.598   4.081
    1PA    H15R 5768   4.674   4.499   4.061
    1PA    H15S 5769   4.713   4.671   4.073
    1PA    C114 5770   4.574   4.600   4.224
    1PA    H14R 5771   4.533   4.699   4.245
    1PA    H14S 5772   4.493   4.528   4.232
    1PA    C113 5773   4.684   4.566   4.327
    1PA    H13R 5774   4.724   4.468   4.302
    1PA    H13S 5775   4.766   4.637   4.320
    1PA    C112 5776   4.629   4.560   4.471
    1PA    H12R 5777   4.537   4.502   4.472
    1PA    H12S 5778   4.700   4.506   4.534
    1PA    C111 5779   4.603   4.699   4.535
    1PA    H11R 5780   4.541   4.759   4.469
    1PA    H11S 5781   4.547   4.684   4.628
    1PA    C110 5782   4.734   4.773   4.567
    1PA    H10R 5783   4.800   4.707   4.625
    1PA    H10S 5784   4.786   4.799   4.475
    1PA     C19 5785   4.708   4.901   4.648
    1PA     H9R 5786   4.646   4.970   4.590
    1PA     H9S 5787   4.653   4.876   4.739
    1PA     C18 5788   4.840   4.971   4.686
    1PA     H8R 5789   4.904   4.900   4.739
    1PA     H8S 5790   4.893   5.002   4.596
    1PA     C17 5791   4.814   5.093   4.777
    1PA     H7R 5792   4.753   5.166   4.724
    1PA     H7S 5793   4.758   5.060   4.865
    1PA     C16 5794   4.947   5.157   4.822
    1PA     H6R 5795   5.012   5.080   4.863
    1PA     H6S 5796   4.997   5.202   4.736
    1PA     C15 5797   4.919   5.265   4.929
    1PA     H5R 5798   4.853   5.341   4.887
    1PA     H5S 5799   4.866   5.219   5.012
    1PA     C14 5800   5.045   5.335   4.985
    1PA     H4R 5801   5.083   5.406   4.911
    1PA     H4S 5802   5.017   5.393   5.073
    1PA     C13 5803   5.158   5.237   5.021
    1PA     H3R 5804   5.118   5.151   5.075
    1PA     H3S 5805   5.202   5.199   4.928
    1PA     C12 5806   5.270   5.303   5.104
    1PA     H2R 5807   5.359   5.239   5.103
    1PA     H2S 5808   5.298   5.399   5.062
    2PC     C11 5809   5.228   5.322   5.248
    2PC     O12 5810   5.209   5.431   5.299
    2PC     O11 5811   5.212   5.204   5.311
    2PC      C1 5812   5.146   5.202   5.440
    2PC      HR 5813   5.156   5.102   5.483
    2PC      HS 5814   5.195   5.274   5.507
    2PC      C2 5815   4.997   5.236   5.424
    2PC      HX 5816   4.984   5.334   5.376
    2PC      C3 5817   4.927   5.233   5.561
    2PC      HA 5818   4.915   5.129   5.591
    2PC      HB 5819   4.987   5.286   5.635
    2PC     O31 5820   4.799   5.296   5.552
    2PC     P31 5821   4.700   5.284   5.676
    2PC     O32 5822   4.593   5.182   5.618
    2PC     C31 5823   4.490   5.234   5.533
    2PC     H1A 5824   4.438   5.316   5.583
    2PC     H1B 5825   4.535   5.272   5.441
    2PC     C32 5826   4.391   5.121   5.500
    2PC     H2A 5827   4.313   5.160   5.433
    2PC     H2B 5828   4.443   5.041   5.447
    2PC     N31 5829   4.317   5.055   5.615
    2PC     C33 5830   4.254   5.156   5.707
    2PC     H3A 5831   4.197   5.102   5.784
    2PC     H3B 5832   4.333   5.215   5.753
    2PC     H3C 5833   4.187   5.219   5.649
    2PC     C34 5834   4.208   4.970   5.557
    2PC     H4A 5835   4.142   5.033   5.498
    2PC     H4B 5836   4.253   4.893   5.494
    2PC     H4C 5837   4.152   4.924   5.639
    2PC     C35 5838   4.409   4.966   5.694
    2PC     H5A 5839   4.351   4.913   5.770
    2PC     H5B 5840   4.485   5.028   5.742
    2PC     H5C 5841   4.456   4.895   5.626
    2PC     O33 5842   4.759   5.226   5.798
    2PC     O34 5843   4.638   5.411   5.719
    2PC     O21 5844   4.938   5.130   5.343
    2PC     C21 5845   4.825   5.156   5.273
    2PC     O22 5846   4.776   5.266   5.260
    3OL     C12 5847   4.763   5.032   5.213
    3OL     H2R 5848   4.696   5.062   5.133
    3OL     H2S 5849   4.704   4.982   5.290
    3OL     C13 5850   4.869   4.934   5.158
    3OL     H3R 5851   4.928   4.893   5.241
    3OL     H3S 5852   4.938   4.987   5.092
    3OL     C14 5853   4.803   4.819   5.080
    3OL     H4R 5854   4.745   4.860   4.998
    3OL     H4S 5855   4.734   4.765   5.146
    3OL     C15 5856   4.908   4.721   5.025
    3OL     H5R 5857   4.961   4.674   5.108
    3OL     H5S 5858   4.981   4.775   4.965
    3OL     C16 5859   4.840   4.613   4.938
    3OL     H6R 5860   4.790   4.661   4.854
    3OL     H6S 5861   4.763   4.562   4.997
    3OL     C17 5862   4.942   4.510   4.886
    3OL     H7R 5863   4.988   4.458   4.970
    3OL     H7S 5864   5.021   4.560   4.830
    3OL     C18 5865   4.871   4.408   4.795
    3OL     H8R 5866   4.830   4.460   4.708
    3OL     H8S 5867   4.786   4.365   4.848
    3OL     C19 5868   4.964   4.296   4.752
    3OL     H9R 5869   4.984   4.220   4.828
    3OL    C110 5870   5.013   4.280   4.629
    3OL    H10R 5871   5.075   4.194   4.607
    3OL    C111 5872   4.999   4.380   4.517
    3OL    H11R 5873   5.018   4.481   4.556
    3OL    H11S 5874   4.897   4.379   4.478
    3OL    C112 5875   5.098   4.353   4.402
    3OL    H12R 5876   5.198   4.337   4.444
    3OL    H12S 5877   5.104   4.441   4.337
    3OL    C113 5878   5.059   4.231   4.315
    3OL    H13R 5879   5.032   4.147   4.379
    3OL    H13S 5880   5.147   4.201   4.257
    3OL    C114 5881   4.943   4.265   4.219
    3OL    H14R 5882   4.968   4.354   4.161
    3OL    H14S 5883   4.855   4.289   4.278
    3OL    C115 5884   4.907   4.148   4.126
    3OL    H15R 5885   4.806   4.162   4.087
    3OL    H15S 5886   4.906   4.055   4.183
    3OL    C116 5887   5.004   4.133   4.006
    3OL    H16R 5888   4.991   4.035   3.962
    3OL    H16S 5889   5.108   4.139   4.041
    3OL    C117 5890   4.978   4.239   3.897
    3OL    H17R 5891   4.988   4.340   3.939
    3OL    H17S 5892   4.877   4.229   3.859
    3OL    C118 5893   5.078   4.224   3.781
    3OL    H18R 5894   5.071   4.124   3.737
    3OL    H18S 5895   5.180   4.239   3.816
    3OL    H18T 5896   5.057   4.298   3.703
    1PA    C116 5897   1.146   1.223   3.088
    1PA    H16R 5898   1.103   1.317   3.053
    1PA    H16S 5899   1.079   1.141   3.060
    1PA    H16T 5900   1.241   1.208   3.037
    1PA    C115 5901   1.167   1.226   3.240
    1PA    H15R 5902   1.212   1.131   3.272
    1PA    H15S 5903   1.237   1.306   3.266
    1PA    C114 5904   1.034   1.248   3.314
    1PA    H14R 5905   0.990   1.343   3.282
    1PA    H14S 5906   0.965   1.168   3.287
    1PA    C113 5907   1.054   1.249   3.467
    1PA    H13R 5908   1.096   1.153   3.498
    1PA    H13S 5909   1.124   1.327   3.495
    1PA    C112 5910   0.920   1.272   3.541
    1PA    H12R 5911   0.883   1.372   3.518
    1PA    H12S 5912   0.846   1.199   3.507
    1PA    C111 5913   0.939   1.257   3.693
    1PA    H11R 5914   0.979   1.158   3.715
    1PA    H11S 5915   1.012   1.331   3.728
    1PA    C110 5916   0.806   1.277   3.768
    1PA    H10R 5917   0.771   1.380   3.757
    1PA    H10S 5918   0.731   1.212   3.724
    1PA     C19 5919   0.819   1.241   3.918
    1PA     H9R 5920   0.718   1.233   3.960
    1PA     H9S 5921   0.865   1.143   3.927
    1PA     C18 5922   0.898   1.346   3.999
    1PA     H8R 5923   0.999   1.357   3.959
    1PA     H8S 5924   0.848   1.442   3.990
    1PA     C17 5925   0.906   1.308   4.149
    1PA     H7R 5926   0.940   1.395   4.205
    1PA     H7S 5927   0.806   1.283   4.185
    1PA     C16 5928   1.003   1.191   4.174
    1PA     H6R 5929   0.976   1.105   4.113
    1PA     H6S 5930   1.104   1.222   4.143
    1PA     C15 5931   1.009   1.148   4.322
    1PA     H5R 5932   1.091   1.077   4.334
    1PA     H5S 5933   1.031   1.235   4.384
    1PA     C14 5934   0.877   1.082   4.368
    1PA     H4R 5935   0.796   1.155   4.370
    1PA     H4S 5936   0.849   1.005   4.295
    1PA     C13 5937   0.889   1.015   4.507
    1PA     H3R 5938   0.795   0.963   4.528
    1PA     H3S 5939   0.968   0.941   4.504
    1PA     C12 5940   0.917   1.117   4.619
    1PA     H2R 5941   1.012   1.167   4.600
    1PA     H2S 5942   0.839   1.194   4.622
    2PC     C11 5943   0.924   1.052   4.755
    2PC     O12 5944   0.866   0.949   4.784
    2PC     O11 5945   1.007   1.118   4.838
    2PC      C1 5946   1.033   1.066   4.972
    2PC      HR 5947   1.087   1.141   5.029
    2PC      HS 5948   0.937   1.047   5.022
    2PC      C2 5949   1.117   0.935   4.968
    2PC      HX 5950   1.062   0.857   4.913
    2PC      C3 5951   1.145   0.883   5.110
    2PC      HA 5952   1.051   0.848   5.154
    2PC      HB 5953   1.215   0.799   5.106
    2PC     O31 5954   1.201   0.988   5.193
    2PC     P31 5955   1.209   0.965   5.350
    2PC     O32 5956   1.277   1.100   5.396
    2PC     C31 5957   1.196   1.219   5.399
    2PC     H1A 5958   1.162   1.241   5.298
    2PC     H1B 5959   1.109   1.202   5.463
    2PC     C32 5960   1.280   1.336   5.454
    2PC     H2A 5961   1.361   1.359   5.385
    2PC     H2B 5962   1.215   1.424   5.460
    2PC     N31 5963   1.343   1.320   5.591
    2PC     C33 5964   1.460   1.226   5.588
    2PC     H3A 5965   1.506   1.224   5.687
    2PC     H3B 5966   1.424   1.126   5.562
    2PC     H3C 5967   1.531   1.261   5.512
    2PC     C34 5968   1.393   1.455   5.636
    2PC     H4A 5969   1.469   1.489   5.566
    2PC     H4B 5970   1.309   1.525   5.638
    2PC     H4C 5971   1.435   1.444   5.736
    2PC     C35 5972   1.242   1.271   5.690
    2PC     H5A 5973   1.290   1.267   5.788
    2PC     H5B 5974   1.210   1.171   5.661
    2PC     H5C 5975   1.158   1.340   5.692
    2PC     O33 5976   1.077   0.944   5.413
    2PC     O34 5977   1.292   0.852   5.396
    2PC     O21 5978   1.244   0.962   4.903
    2PC     C21 5979   1.253   0.948   4.769
    2PC     O22 5980   1.165   0.899   4.700
    3OL     C12 5981   1.383   0.998   4.712
    3OL     H2R 5982   1.450   0.913   4.700
    3OL     H2S 5983   1.430   1.067   4.783
    3OL     C13 5984   1.362   1.069   4.576
    3OL     H3R 5985   1.312   1.165   4.592
    3OL     H3S 5986   1.296   1.009   4.513
    3OL     C14 5987   1.494   1.090   4.497
    3OL     H4R 5988   1.471   1.143   4.404
    3OL     H4S 5989   1.534   0.992   4.469
    3OL     C15 5990   1.603   1.168   4.574
    3OL     H5R 5991   1.693   1.170   4.512
    3OL     H5S 5992   1.629   1.114   4.666
    3OL     C16 5993   1.561   1.312   4.608
    3OL     H6R 5994   1.473   1.309   4.673
    3OL     H6S 5995   1.532   1.366   4.517
    3OL     C17 5996   1.672   1.390   4.682
    3OL     H7R 5997   1.710   1.330   4.765
    3OL     H7S 5998   1.630   1.481   4.724
    3OL     C18 5999   1.789   1.428   4.588
    3OL     H8R 6000   1.749   1.485   4.504
    3OL     H8S 6001   1.834   1.337   4.549
    3OL     C19 6002   1.894   1.508   4.662
    3OL     H9R 6003   1.893   1.498   4.770
    3OL    C110 6004   1.984   1.588   4.606
    3OL    H10R 6005   2.054   1.642   4.670
    3OL    C111 6006   2.001   1.613   4.457
    3OL    H11R 6007   1.987   1.720   4.438
    3OL    H11S 6008   1.925   1.561   4.399
    3OL    C112 6009   2.141   1.573   4.408
    3OL    H12R 6010   2.215   1.630   4.466
    3OL    H12S 6011   2.154   1.603   4.303
    3OL    C113 6012   2.172   1.422   4.423
    3OL    H13R 6013   2.115   1.379   4.505
    3OL    H13S 6014   2.278   1.412   4.449
    3OL    C114 6015   2.148   1.341   4.293
    3OL    H14R 6016   2.190   1.241   4.308
    3OL    H14S 6017   2.203   1.386   4.210
    3OL    C115 6018   1.999   1.327   4.256
    3OL    H15R 6019   1.958   1.425   4.231
    3OL    H15S 6020   1.944   1.287   4.342
    3OL    C116 6021   1.981   1.233   4.135
    3OL    H16R 6022   2.022   1.135   4.159
    3OL    H16S 6023   2.036   1.272   4.050
    3OL    C117 6024   1.832   1.219   4.098
    3OL    H17R 6025   1.791   1.317   4.071
    3OL    H17S 6026   1.776   1.182   4.184
    3OL    C118 6027   1.814   1.122   3.979
    3OL    H18R 6028   1.848   1.022   4.006
    3OL    H18S 6029   1.870   1.157   3.893
    3OL    H18T 6030   1.708   1.116   3.952
    1PA    C116 6031   2.346   3.435   3.750
    1PA    H16R 6032   2.400   3.371   3.679
    1PA    H16S 6033   2.412   3.459   3.833
    1PA    H16T 6034   2.320   3.528   3.698
    1PA    C115 6035   2.219   3.363   3.798
    1PA    H15R 6036   2.163   3.429   3.866
    1PA    H15S 6037   2.156   3.344   3.712
    1PA    C114 6038   2.251   3.230   3.868
    1PA    H14R 6039   2.159   3.171   3.873
    1PA    H14S 6040   2.323   3.172   3.809
    1PA    C113 6041   2.304   3.252   4.011
    1PA    H13R 6042   2.399   3.305   4.008
    1PA    H13S 6043   2.233   3.314   4.066
    1PA    C112 6044   2.322   3.118   4.086
    1PA    H12R 6045   2.229   3.062   4.083
    1PA    H12S 6046   2.399   3.058   4.038
    1PA    C111 6047   2.360   3.146   4.233
    1PA    H11R 6048   2.456   3.197   4.238
    1PA    H11S 6049   2.285   3.213   4.276
    1PA    C110 6050   2.365   3.017   4.317
    1PA    H10R 6051   2.276   2.956   4.296
    1PA    H10S 6052   2.453   2.958   4.290
    1PA     C19 6053   2.368   3.053   4.466
    1PA     H9R 6054   2.459   3.108   4.489
    1PA     H9S 6055   2.283   3.119   4.487
    1PA     C18 6056   2.357   2.929   4.556
    1PA     H8R 6057   2.273   2.868   4.524
    1PA     H8S 6058   2.448   2.869   4.548
    1PA     C17 6059   2.336   2.973   4.703
    1PA     H7R 6060   2.425   3.024   4.739
    1PA     H7S 6061   2.253   3.043   4.707
    1PA     C16 6062   2.304   2.852   4.793
    1PA     H6R 6063   2.218   2.798   4.753
    1PA     H6S 6064   2.389   2.784   4.795
    1PA     C15 6065   2.271   2.900   4.936
    1PA     H5R 6066   2.360   2.947   4.980
    1PA     H5S 6067   2.192   2.976   4.932
    1PA     C14 6068   2.225   2.784   5.025
    1PA     H4R 6069   2.134   2.740   4.983
    1PA     H4S 6070   2.301   2.706   5.027
    1PA     C13 6071   2.198   2.833   5.168
    1PA     H3R 6072   2.290   2.875   5.209
    1PA     H3S 6073   2.123   2.913   5.167
    1PA     C12 6074   2.149   2.718   5.258
    1PA     H2R 6075   2.049   2.687   5.227
    1PA     H2S 6076   2.215   2.632   5.247
    2PC     C11 6077   2.147   2.758   5.403
    2PC     O12 6078   2.248   2.760   5.472
    2PC     O11 6079   2.024   2.787   5.450
    2PC      C1 6080   2.007   2.820   5.591
    2PC      HR 6081   1.901   2.832   5.614
    2PC      HS 6082   2.045   2.736   5.651
    2PC      C2 6083   2.083   2.949   5.631
    2PC      HX 6084   2.179   2.957   5.580
    2PC      C3 6085   2.112   2.952   5.782
    2PC      HA 6086   2.185   2.875   5.808
    2PC      HB 6087   2.154   3.050   5.809
    2PC     O31 6088   1.990   2.928   5.857
    2PC     P31 6089   1.996   2.931   6.016
    2PC     O32 6090   1.859   3.004   6.050
    2PC     C31 6091   1.735   2.943   6.010
    2PC     H1A 6092   1.655   3.018   6.017
    2PC     H1B 6093   1.743   2.911   5.906
    2PC     C32 6094   1.699   2.822   6.100
    2PC     H2A 6095   1.605   2.780   6.064
    2PC     H2B 6096   1.776   2.744   6.089
    2PC     N31 6097   1.681   2.845   6.248
    2PC     C33 6098   1.607   2.727   6.305
    2PC     H3A 6099   1.664   2.637   6.284
    2PC     H3B 6100   1.596   2.742   6.413
    2PC     H3C 6101   1.509   2.722   6.257
    2PC     C34 6102   1.815   2.855   6.317
    2PC     H4A 6103   1.873   2.766   6.292
    2PC     H4B 6104   1.865   2.945   6.280
    2PC     H4C 6105   1.798   2.863   6.425
    2PC     C35 6106   1.602   2.970   6.277
    2PC     H5A 6107   1.657   3.056   6.239
    2PC     H5B 6108   1.589   2.978   6.385
    2PC     H5C 6109   1.505   2.961   6.227
    2PC     O33 6110   2.014   2.801   6.083
    2PC     O34 6111   2.108   3.015   6.066
    2PC     O21 6112   2.002   3.065   5.598
    2PC     C21 6113   2.004   3.109   5.471
    2PC     O22 6114   2.080   3.067   5.385
    3OL     C12 6115   1.903   3.218   5.445
    3OL     H2R 6116   1.957   3.313   5.442
    3OL     H2S 6117   1.833   3.221   5.528
    3OL     C13 6118   1.826   3.193   5.314
    3OL     H3R 6119   1.768   3.101   5.324
    3OL     H3S 6120   1.897   3.177   5.232
    3OL     C14 6121   1.732   3.309   5.278
    3OL     H4R 6122   1.660   3.325   5.359
    3OL     H4S 6123   1.675   3.281   5.189
    3OL     C15 6124   1.807   3.440   5.247
    3OL     H5R 6125   1.885   3.421   5.173
    3OL     H5S 6126   1.855   3.477   5.338
    3OL     C16 6127   1.711   3.548   5.195
    3OL     H6R 6128   1.627   3.557   5.264
    3OL     H6S 6129   1.669   3.517   5.098
    3OL     C17 6130   1.779   3.686   5.182
    3OL     H7R 6131   1.822   3.714   5.279
    3OL     H7S 6132   1.704   3.761   5.157
    3OL     C18 6133   1.890   3.691   5.075
    3OL     H8R 6134   1.966   3.615   5.097
    3OL     H8S 6135   1.940   3.787   5.082
    3OL     C19 6136   1.835   3.669   4.935
    3OL     H9R 6137   1.783   3.575   4.920
    3OL    C110 6138   1.842   3.757   4.835
    3OL    H10R 6139   1.796   3.732   4.740
    3OL    C111 6140   1.913   3.891   4.840
    3OL    H11R 6141   2.006   3.883   4.896
    3OL    H11S 6142   1.849   3.963   4.891
    3OL    C112 6143   1.943   3.944   4.698
    3OL    H12R 6144   1.984   4.045   4.704
    3OL    H12S 6145   1.849   3.951   4.643
    3OL    C113 6146   2.040   3.853   4.620
    3OL    H13R 6147   2.029   3.871   4.513
    3OL    H13S 6148   2.014   3.748   4.637
    3OL    C114 6149   2.187   3.876   4.661
    3OL    H14R 6150   2.242   3.783   4.648
    3OL    H14S 6151   2.194   3.902   4.767
    3OL    C115 6152   2.254   3.985   4.575
    3OL    H15R 6153   2.202   4.080   4.589
    3OL    H15S 6154   2.245   3.958   4.469
    3OL    C116 6155   2.402   4.001   4.612
    3OL    H16R 6156   2.452   3.904   4.602
    3OL    H16S 6157   2.411   4.033   4.716
    3OL    C117 6158   2.472   4.103   4.520
    3OL    H17R 6159   2.422   4.200   4.527
    3OL    H17S 6160   2.465   4.070   4.416
    3OL    C118 6161   2.620   4.119   4.558
    3OL    H18R 6162   2.673   4.024   4.548
    3OL    H18S 6163   2.629   4.153   4.661
    3OL    H18T 6164   2.668   4.192   4.493
    1PA    C116 6165   3.403   0.704   3.932
    1PA    H16R 6166   3.386   0.807   3.963
    1PA    H16S 6167   3.382   0.696   3.825
    1PA    H16T 6168   3.509   0.680   3.948
    1PA    C115 6169   3.313   0.608   4.011
    1PA    H15R 6170   3.209   0.632   3.988
    1PA    H15S 6171   3.330   0.505   3.978
    1PA    C114 6172   3.334   0.619   4.163
    1PA    H14R 6173   3.328   0.724   4.193
    1PA    H14S 6174   3.253   0.566   4.214
    1PA    C113 6175   3.468   0.559   4.208
    1PA    H13R 6176   3.473   0.454   4.180
    1PA    H13S 6177   3.551   0.611   4.159
    1PA    C112 6178   3.486   0.570   4.361
    1PA    H12R 6179   3.479   0.675   4.391
    1PA    H12S 6180   3.405   0.516   4.410
    1PA    C111 6181   3.622   0.513   4.404
    1PA    H11R 6182   3.633   0.410   4.368
    1PA    H11S 6183   3.702   0.572   4.358
    1PA    C110 6184   3.640   0.517   4.557
    1PA    H10R 6185   3.746   0.507   4.581
    1PA    H10S 6186   3.606   0.613   4.595
    1PA     C19 6187   3.564   0.401   4.625
    1PA     H9R 6188   3.458   0.402   4.597
    1PA     H9S 6189   3.605   0.306   4.590
    1PA     C18 6190   3.576   0.406   4.779
    1PA     H8R 6191   3.545   0.310   4.820
    1PA     H8S 6192   3.681   0.421   4.806
    1PA     C17 6193   3.489   0.518   4.839
    1PA     H7R 6194   3.525   0.616   4.807
    1PA     H7S 6195   3.387   0.507   4.800
    1PA     C16 6196   3.481   0.513   4.993
    1PA     H6R 6197   3.399   0.577   5.024
    1PA     H6S 6198   3.457   0.412   5.026
    1PA     C15 6199   3.609   0.564   5.063
    1PA     H5R 6200   3.659   0.639   5.002
    1PA     H5S 6201   3.579   0.612   5.156
    1PA     C14 6202   3.706   0.449   5.098
    1PA     H4R 6203   3.652   0.371   5.153
    1PA     H4S 6204   3.746   0.404   5.007
    1PA     C13 6205   3.822   0.501   5.184
    1PA     H3R 6206   3.876   0.580   5.131
    1PA     H3S 6207   3.781   0.544   5.276
    1PA     C12 6208   3.919   0.387   5.220
    1PA     H2R 6209   3.864   0.297   5.245
    1PA     H2S 6210   3.983   0.364   5.134
    2PC     C11 6211   4.005   0.423   5.339
    2PC     O12 6212   3.960   0.465   5.444
    2PC     O11 6213   4.137   0.404   5.318
    2PC      C1 6214   4.226   0.409   5.433
    2PC      HR 6215   4.330   0.409   5.399
    2PC      HS 6216   4.207   0.501   5.490
    2PC      C2 6217   4.203   0.286   5.524
    2PC      HX 6218   4.097   0.279   5.554
    2PC      C3 6219   4.287   0.297   5.653
    2PC      HA 6220   4.393   0.305   5.629
    2PC      HB 6221   4.256   0.384   5.710
    2PC     O31 6222   4.265   0.177   5.731
    2PC     P31 6223   4.314   0.173   5.883
    2PC     O32 6224   4.235   0.043   5.927
    2PC     C31 6225   4.237   0.013   6.067
    2PC     H1A 6226   4.341   0.014   6.100
    2PC     H1B 6227   4.181   0.090   6.121
    2PC     C32 6228   4.179   6.321   6.093
    2PC     H2A 6229   4.073   6.320   6.066
    2PC     H2B 6230   4.231   6.248   6.032
    2PC     N31 6231   4.188   6.272   6.236
    2PC     C33 6232   4.118   6.367   6.330
    2PC     H3A 6233   4.121   6.324   6.431
    2PC     H3B 6234   4.170   0.015   6.329
    2PC     H3C 6235   4.015   6.379   6.297
    2PC     C34 6236   4.121   6.138   6.246
    2PC     H4A 6237   4.017   6.149   6.218
    2PC     H4B 6238   4.172   6.070   6.177
    2PC     H4C 6239   4.130   6.102   6.348
    2PC     C35 6240   4.331   6.258   6.280
    2PC     H5A 6241   4.383   6.195   6.207
    2PC     H5B 6242   4.333   6.211   6.379
    2PC     H5C 6243   4.377   6.357   6.285
    2PC     O33 6244   4.460   0.157   5.902
    2PC     O34 6245   4.266   0.293   5.955
    2PC     O21 6246   4.244   0.168   5.451
    2PC     C21 6247   4.154   0.108   5.371
    2PC     O22 6248   4.035   0.134   5.371
    3OL     C12 6249   4.215   0.003   5.281
    3OL     H2R 6250   4.173   6.354   5.308
    3OL     H2S 6251   4.323   6.447   5.297
    3OL     C13 6252   4.184   0.036   5.134
    3OL     H3R 6253   4.233   0.129   5.106
    3OL     H3S 6254   4.076   0.051   5.122
    3OL     C14 6255   4.229   6.371   5.040
    3OL     H4R 6256   4.181   6.277   5.071
    3OL     H4S 6257   4.337   6.357   5.047
    3OL     C15 6258   4.189   6.403   4.894
    3OL     H5R 6259   4.240   0.046   4.861
    3OL     H5S 6260   4.082   6.421   4.890
    3OL     C16 6261   4.225   6.287   4.800
    3OL     H6R 6262   4.185   6.193   4.840
    3OL     H6S 6263   4.334   6.277   4.793
    3OL     C17 6264   4.166   6.311   4.659
    3OL     H7R 6265   4.206   6.404   4.617
    3OL     H7S 6266   4.058   6.323   4.668
    3OL     C18 6267   4.198   6.194   4.565
    3OL     H8R 6268   4.172   6.101   4.615
    3OL     H8S 6269   4.305   6.192   4.544
    3OL     C19 6270   4.116   6.204   4.438
    3OL     H9R 6271   4.013   6.239   4.452
    3OL    C110 6272   4.156   6.176   4.314
    3OL    H10R 6273   4.086   6.189   4.232
    3OL    C111 6274   4.293   6.126   4.273
    3OL    H11R 6275   4.283   6.026   4.232
    3OL    H11S 6276   4.361   6.120   4.358
    3OL    C112 6277   4.354   6.218   4.165
    3OL    H12R 6278   4.355   6.321   4.200
    3OL    H12S 6279   4.290   6.214   4.077
    3OL    C113 6280   4.496   6.173   4.125
    3OL    H13R 6281   4.518   6.214   4.026
    3OL    H13S 6282   4.501   6.064   4.118
    3OL    C114 6283   4.602   6.227   4.224
    3OL    H14R 6284   4.582   6.187   4.324
    3OL    H14S 6285   4.594   6.335   4.229
    3OL    C115 6286   4.744   6.188   4.180
    3OL    H15R 6287   4.762   6.223   4.078
    3OL    H15S 6288   4.754   6.079   4.180
    3OL    C116 6289   4.849   6.250   4.274
    3OL    H16R 6290   4.834   6.212   4.375
    3OL    H16S 6291   4.834   6.359   4.278
    3OL    C117 6292   4.992   6.220   4.227
    3OL    H17R 6293   5.006   6.259   4.126
    3OL    H17S 6294   5.008   6.112   4.223
    3OL    C118 6295   5.095   6.284   4.321
    3OL    H18R 6296   5.084   6.245   4.422
    3OL    H18S 6297   5.083   6.392   4.324
    3OL    H18T 6298   5.197   6.262   4.286
    1PA    C116 6299   5.929   5.274   3.998
    1PA    H16R 6300   6.004   5.231   4.064
    1PA    H16S 6301   5.969   5.276   3.896
    1PA    H16T 6302   5.840   5.210   3.998
    1PA    C115 6303   5.893   5.417   4.043
    1PA    H15R 6304   5.981   5.480   4.038
    1PA    H15S 6305   5.818   5.458   3.975
    1PA    C114 6306   5.838   5.417   4.187
    1PA    H14R 6307   5.752   5.350   4.194
    1PA    H14S 6308   5.915   5.378   4.254
    1PA    C113 6309   5.796   5.559   4.231
    1PA    H13R 6310   5.878   5.629   4.213
    1PA    H13S 6311   5.712   5.591   4.168
    1PA    C112 6312   5.754   5.565   4.379
    1PA    H12R 6313   5.704   5.661   4.395
    1PA    H12S 6314   5.681   5.487   4.401
    1PA    C111 6315   5.876   5.554   4.473
    1PA    H11R 6316   5.920   5.454   4.463
    1PA    H11S 6317   5.952   5.625   4.441
    1PA    C110 6318   5.842   5.577   4.622
    1PA    H10R 6319   5.764   5.508   4.653
    1PA    H10S 6320   5.931   5.554   4.681
    1PA     C19 6321   5.799   5.722   4.651
    1PA     H9R 6322   5.873   5.792   4.611
    1PA     H9S 6323   5.704   5.742   4.600
    1PA     C18 6324   5.782   5.746   4.802
    1PA     H8R 6325   5.719   5.667   4.844
    1PA     H8S 6326   5.879   5.741   4.851
    1PA     C17 6327   5.716   5.882   4.829
    1PA     H7R 6328   5.778   5.963   4.788
    1PA     H7S 6329   5.619   5.885   4.779
    1PA     C16 6330   5.696   5.905   4.980
    1PA     H6R 6331   5.647   5.818   5.023
    1PA     H6S 6332   5.793   5.916   5.028
    1PA     C15 6333   5.609   6.029   5.008
    1PA     H5R 6334   5.657   6.118   4.966
    1PA     H5S 6335   5.513   6.018   4.958
    1PA     C14 6336   5.588   6.048   5.159
    1PA     H4R 6337   5.554   5.954   5.203
    1PA     H4S 6338   5.684   6.074   5.206
    1PA     C13 6339   5.484   6.158   5.188
    1PA     H3R 6340   5.512   6.249   5.133
    1PA     H3S 6341   5.386   6.126   5.151
    1PA     C12 6342   5.475   6.192   5.338
    1PA     H2R 6343   5.572   6.228   5.372
    1PA     H2S 6344   5.402   6.272   5.353
    2PC     C11 6345   5.436   6.075   5.424
    2PC     O12 6346   5.515   6.017   5.497
    2PC     O11 6347   5.307   6.038   5.410
    2PC      C1 6348   5.257   5.929   5.493
    2PC      HR 6349   5.163   5.892   5.450
    2PC      HS 6350   5.329   5.846   5.489
    2PC      C2 6351   5.235   5.976   5.639
    2PC      HX 6352   5.324   6.030   5.672
    2PC      C3 6353   5.217   5.853   5.731
    2PC      HA 6354   5.128   5.797   5.704
    2PC      HB 6355   5.304   5.787   5.719
    2PC     O31 6356   5.209   5.893   5.871
    2PC     P31 6357   5.208   5.777   5.980
    2PC     O32 6358   5.075   5.799   6.064
    2PC     C31 6359   4.951   5.754   6.008
    2PC     H1A 6360   4.916   5.828   5.935
    2PC     H1B 6361   4.965   5.658   5.959
    2PC     C32 6362   4.849   5.739   6.123
    2PC     H2A 6363   4.885   5.662   6.191
    2PC     H2B 6364   4.841   5.833   6.178
    2PC     N31 6365   4.708   5.699   6.085
    2PC     C33 6366   4.629   5.674   6.210
    2PC     H3A 6367   4.526   5.652   6.182
    2PC     H3B 6368   4.674   5.589   6.262
    2PC     H3C 6369   4.634   5.763   6.272
    2PC     C34 6370   4.642   5.811   6.009
    2PC     H4A 6371   4.644   5.901   6.070
    2PC     H4B 6372   4.696   5.827   5.916
    2PC     H4C 6373   4.539   5.782   5.988
    2PC     C35 6374   4.705   5.574   6.001
    2PC     H5A 6375   4.750   5.493   6.058
    2PC     H5B 6376   4.760   5.591   5.909
    2PC     H5C 6377   4.601   5.550   5.978
    2PC     O33 6378   5.214   5.643   5.917
    2PC     O34 6379   5.326   5.780   6.070
    2PC     O21 6380   5.122   6.067   5.646
    2PC     C21 6381   4.996   6.030   5.612
    2PC     O22 6382   4.961   5.916   5.588
    3OL     C12 6383   4.903   6.147   5.601
    3OL     H2R 6384   4.960   6.240   5.603
    3OL     H2S 6385   4.837   6.147   5.688
    3OL     C13 6386   4.819   6.139   5.471
    3OL     H3R 6387   4.745   6.220   5.471
    3OL     H3S 6388   4.764   6.045   5.470
    3OL     C14 6389   4.906   6.151   5.345
    3OL     H4R 6390   4.985   6.076   5.346
    3OL     H4S 6391   4.953   6.250   5.342
    3OL     C15 6392   4.821   6.131   5.218
    3OL     H5R 6393   4.738   6.203   5.217
    3OL     H5S 6394   4.777   6.031   5.219
    3OL     C16 6395   4.905   6.148   5.091
    3OL     H6R 6396   4.989   6.078   5.093
    3OL     H6S 6397   4.946   6.249   5.087
    3OL     C17 6398   4.819   6.122   4.965
    3OL     H7R 6399   4.733   6.189   4.966
    3OL     H7S 6400   4.782   6.020   4.968
    3OL     C18 6401   4.897   6.143   4.834
    3OL     H8R 6402   4.938   6.244   4.832
    3OL     H8S 6403   4.827   6.135   4.751
    3OL     C19 6404   5.010   6.042   4.822
    3OL     H9R 6405   5.087   6.053   4.897
    3OL    C110 6406   5.020   5.943   4.733
    3OL    H10R 6407   5.106   5.876   4.739
    3OL    C111 6408   4.925   5.913   4.619
    3OL    H11R 6409   4.854   5.994   4.602
    3OL    H11S 6410   4.867   5.823   4.643
    3OL    C112 6411   5.004   5.889   4.489
    3OL    H12R 6412   5.070   5.802   4.502
    3OL    H12S 6413   5.069   5.975   4.471
    3OL    C113 6414   4.914   5.869   4.366
    3OL    H13R 6415   4.977   5.857   4.277
    3OL    H13S 6416   4.854   5.959   4.351
    3OL    C114 6417   4.818   5.748   4.375
    3OL    H14R 6418   4.756   5.747   4.285
    3OL    H14S 6419   4.750   5.760   4.460
    3OL    C115 6420   4.892   5.613   4.386
    3OL    H15R 6421   4.953   5.611   4.476
    3OL    H15S 6422   4.958   5.602   4.300
    3OL    C116 6423   4.793   5.496   4.390
    3OL    H16R 6424   4.732   5.495   4.299
    3OL    H16S 6425   4.725   5.508   4.475
    3OL    C117 6426   4.868   5.362   4.403
    3OL    H17R 6427   4.926   5.361   4.495
    3OL    H17S 6428   4.937   5.350   4.319
    3OL    C118 6429   4.770   5.243   4.405
    3OL    H18R 6430   4.711   5.241   4.313
    3OL    H18S 6431   4.702   5.251   4.490
    3OL    H18T 6432   4.825   5.149   4.413
    1PA    C116 6433   1.993   4.945   3.578
    1PA    H16R 6434   1.951   4.989   3.488
    1PA    H16S 6435   1.912   4.907   3.640
    1PA    H16T 6436   2.055   4.859   3.548
    1PA    C115 6437   2.079   5.047   3.654
    1PA    H15R 6438   2.122   5.001   3.743
    1PA    H15S 6439   2.163   5.077   3.590
    1PA    C114 6440   2.000   5.174   3.693
    1PA    H14R 6441   2.070   5.249   3.733
    1PA    H14S 6442   1.956   5.217   3.602
    1PA    C113 6443   1.888   5.149   3.796
    1PA    H13R 6444   1.823   5.237   3.800
    1PA    H13S 6445   1.825   5.067   3.762
    1PA    C112 6446   1.940   5.118   3.938
    1PA    H12R 6447   1.863   5.061   3.990
    1PA    H12S 6448   2.029   5.055   3.934
    1PA    C111 6449   1.969   5.246   4.020
    1PA    H11R 6450   2.050   5.303   3.973
    1PA    H11S 6451   1.880   5.309   4.021
    1PA    C110 6452   2.007   5.209   4.164
    1PA    H10R 6453   1.934   5.137   4.202
    1PA    H10S 6454   2.105   5.161   4.164
    1PA     C19 6455   2.010   5.331   4.258
    1PA     H9R 6456   2.090   5.399   4.228
    1PA     H9S 6457   1.915   5.384   4.252
    1PA     C18 6458   2.033   5.283   4.403
    1PA     H8R 6459   1.958   5.208   4.428
    1PA     H8S 6460   2.131   5.235   4.410
    1PA     C17 6461   2.026   5.398   4.505
    1PA     H7R 6462   2.105   5.471   4.486
    1PA     H7S 6463   1.929   5.449   4.496
    1PA     C16 6464   2.040   5.340   4.648
    1PA     H6R 6465   1.961   5.267   4.665
    1PA     H6S 6466   2.135   5.287   4.655
    1PA     C15 6467   2.034   5.449   4.756
    1PA     H5R 6468   2.114   5.521   4.742
    1PA     H5S 6469   1.939   5.503   4.750
    1PA     C14 6470   2.047   5.384   4.895
    1PA     H4R 6471   1.964   5.314   4.911
    1PA     H4S 6472   2.139   5.325   4.899
    1PA     C13 6473   2.048   5.488   5.009
    1PA     H3R 6474   2.133   5.555   4.995
    1PA     H3S 6475   1.957   5.548   5.004
    1PA     C12 6476   2.058   5.418   5.146
    1PA     H2R 6477   1.965   5.364   5.166
    1PA     H2S 6478   2.139   5.345   5.145
    2PC     C11 6479   2.083   5.513   5.261
    2PC     O12 6480   2.127   5.477   5.368
    2PC     O11 6481   2.046   5.640   5.234
    2PC      C1 6482   2.066   5.741   5.337
    2PC      HR 6483   2.008   5.830   5.309
    2PC      HS 6484   2.029   5.705   5.433
    2PC      C2 6485   2.214   5.781   5.346
    2PC      HX 6486   2.276   5.691   5.357
    2PC      C3 6487   2.239   5.875   5.466
    2PC      HA 6488   2.237   5.819   5.560
    2PC      HB 6489   2.338   5.922   5.456
    2PC     O31 6490   2.136   5.977   5.469
    2PC     P31 6491   2.156   6.107   5.558
    2PC     O32 6492   2.134   6.054   5.706
    2PC     C31 6493   2.004   6.004   5.743
    2PC     H1A 6494   1.927   6.075   5.710
    2PC     H1B 6495   1.987   5.908   5.694
    2PC     C32 6496   1.995   5.987   5.896
    2PC     H2A 6497   1.898   5.945   5.921
    2PC     H2B 6498   2.072   5.917   5.930
    2PC     N31 6499   2.010   6.111   5.982
    2PC     C33 6500   2.154   6.153   5.989
    2PC     H3A 6501   2.162   6.242   6.052
    2PC     H3B 6502   2.211   6.071   6.032
    2PC     H3C 6503   2.190   6.174   5.888
    2PC     C34 6504   1.926   6.224   5.931
    2PC     H4A 6505   1.822   6.190   5.925
    2PC     H4B 6506   1.933   6.307   6.002
    2PC     H4C 6507   1.963   6.253   5.833
    2PC     C35 6508   1.963   6.079   6.121
    2PC     H5A 6509   2.021   5.995   6.159
    2PC     H5B 6510   1.857   6.053   6.117
    2PC     H5C 6511   1.979   6.167   6.184
    2PC     O33 6512   2.290   6.167   5.536
    2PC     O34 6513   2.058   6.215   5.529
    2PC     O21 6514   2.247   5.849   5.223
    2PC     C21 6515   2.376   5.861   5.184
    2PC     O22 6516   2.470   5.808   5.241
    3OL     C12 6517   2.389   5.946   5.061
    3OL     H2R 6518   2.474   6.013   5.074
    3OL     H2S 6519   2.300   6.008   5.050
    3OL     C13 6520   2.409   5.859   4.936
    3OL     H3R 6521   2.333   5.781   4.933
    3OL     H3S 6522   2.507   5.810   4.940
    3OL     C14 6523   2.398   5.944   4.807
    3OL     H4R 6524   2.469   6.027   4.812
    3OL     H4S 6525   2.298   5.986   4.801
    3OL     C15 6526   2.427   5.859   4.682
    3OL     H5R 6527   2.361   5.772   4.681
    3OL     H5S 6528   2.530   5.823   4.685
    3OL     C16 6529   2.404   5.942   4.554
    3OL     H6R 6530   2.465   6.032   4.557
    3OL     H6S 6531   2.300   5.974   4.550
    3OL     C17 6532   2.436   5.861   4.428
    3OL     H7R 6533   2.375   5.770   4.427
    3OL     H7S 6534   2.541   5.831   4.428
    3OL     C18 6535   2.406   5.943   4.301
    3OL     H8R 6536   2.472   6.031   4.298
    3OL     H8S 6537   2.303   5.980   4.307
    3OL     C19 6538   2.421   5.857   4.178
    3OL     H9R 6539   2.377   5.758   4.187
    3OL    C110 6540   2.479   5.890   4.063
    3OL    H10R 6541   2.482   5.817   3.983
    3OL    C111 6542   2.545   6.022   4.030
    3OL    H11R 6543   2.639   6.002   3.978
    3OL    H11S 6544   2.572   6.077   4.121
    3OL    C112 6545   2.457   6.113   3.942
    3OL    H12R 6546   2.514   6.203   3.918
    3OL    H12S 6547   2.369   6.145   3.998
    3OL    C113 6548   2.414   6.047   3.808
    3OL    H13R 6549   2.491   5.976   3.777
    3OL    H13S 6550   2.409   6.123   3.731
    3OL    C114 6551   2.278   5.975   3.816
    3OL    H14R 6552   2.273   5.910   3.904
    3OL    H14S 6553   2.268   5.910   3.729
    3OL    C115 6554   2.160   6.074   3.817
    3OL    H15R 6555   2.165   6.138   3.729
    3OL    H15S 6556   2.167   6.139   3.905
    3OL    C116 6557   2.025   6.000   3.819
    3OL    H16R 6558   2.018   5.936   3.908
    3OL    H16S 6559   2.019   5.935   3.732
    3OL    C117 6560   1.905   6.097   3.816
    3OL    H17R 6561   1.814   6.041   3.793
    3OL    H17S 6562   1.919   6.171   3.737
    3OL    C118 6563   1.885   6.168   3.951
    3OL    H18R 6564   1.972   6.228   3.977
    3OL    H18S 6565   1.869   6.095   4.030
    3OL    H18T 6566   1.798   6.234   3.946
    1PA    C116 6567   4.619   3.150   3.627
    1PA    H16R 6568   4.573   3.170   3.530
    1PA    H16S 6569   4.543   3.106   3.692
    1PA    H16T 6570   4.699   3.078   3.613
    1PA    C115 6571   4.673   3.281   3.687
    1PA    H15R 6572   4.737   3.330   3.613
    1PA    H15S 6573   4.590   3.349   3.708
    1PA    C114 6574   4.755   3.257   3.816
    1PA    H14R 6575   4.836   3.188   3.795
    1PA    H14S 6576   4.800   3.352   3.846
    1PA    C113 6577   4.669   3.203   3.931
    1PA    H13R 6578   4.585   3.271   3.948
    1PA    H13S 6579   4.628   3.105   3.905
    1PA    C112 6580   4.752   3.190   4.060
    1PA    H12R 6581   4.838   3.126   4.041
    1PA    H12S 6582   4.791   3.288   4.089
    1PA    C111 6583   4.672   3.131   4.178
    1PA    H11R 6584   4.634   3.032   4.151
    1PA    H11S 6585   4.740   3.117   4.262
    1PA    C110 6586   4.555   3.222   4.221
    1PA    H10R 6587   4.592   3.323   4.235
    1PA    H10S 6588   4.480   3.224   4.142
    1PA     C19 6589   4.490   3.173   4.352
    1PA     H9R 6590   4.459   3.069   4.341
    1PA     H9S 6591   4.562   3.178   4.433
    1PA     C18 6592   4.367   3.261   4.386
    1PA     H8R 6593   4.397   3.366   4.383
    1PA     H8S 6594   4.290   3.247   4.309
    1PA     C17 6595   4.307   3.230   4.525
    1PA     H7R 6596   4.383   3.246   4.601
    1PA     H7S 6597   4.227   3.302   4.543
    1PA     C16 6598   4.249   3.088   4.537
    1PA     H6R 6599   4.177   3.071   4.456
    1PA     H6S 6600   4.329   3.014   4.527
    1PA     C15 6601   4.179   3.069   4.673
    1PA     H5R 6602   4.250   3.091   4.754
    1PA     H5S 6603   4.096   3.139   4.682
    1PA     C14 6604   4.127   2.925   4.688
    1PA     H4R 6605   4.059   2.903   4.606
    1PA     H4S 6606   4.211   2.856   4.682
    1PA     C13 6607   4.053   2.904   4.822
    1PA     H3R 6608   4.120   2.927   4.905
    1PA     H3S 6609   3.968   2.971   4.828
    1PA     C12 6610   4.006   2.757   4.832
    1PA     H2R 6611   3.947   2.732   4.744
    1PA     H2S 6612   4.093   2.691   4.832
    2PC     C11 6613   3.924   2.727   4.954
    2PC     O12 6614   3.895   2.807   5.042
    2PC     O11 6615   3.883   2.599   4.955
    2PC      C1 6616   3.789   2.552   5.055
    2PC      HR 6617   3.787   2.442   5.053
    2PC      HS 6618   3.822   2.584   5.155
    2PC      C2 6619   3.647   2.605   5.024
    2PC      HX 6620   3.651   2.714   5.011
    2PC      C3 6621   3.549   2.572   5.139
    2PC      HA 6622   3.568   2.641   5.222
    2PC      HB 6623   3.445   2.585   5.107
    2PC     O31 6624   3.569   2.436   5.185
    2PC     P31 6625   3.522   2.397   5.332
    2PC     O32 6626   3.584   2.252   5.353
    2PC     C31 6627   3.499   2.138   5.327
    2PC     H1A 6628   3.405   2.147   5.382
    2PC     H1B 6629   3.477   2.135   5.220
    2PC     C32 6630   3.574   2.009   5.367
    2PC     H2A 6631   3.525   1.924   5.320
    2PC     H2B 6632   3.677   2.014   5.331
    2PC     N31 6633   3.581   1.975   5.515
    2PC     C33 6634   3.641   2.086   5.596
    2PC     H3A 6635   3.742   2.104   5.561
    2PC     H3B 6636   3.580   2.176   5.584
    2PC     H3C 6637   3.641   2.056   5.701
    2PC     C34 6638   3.443   1.945   5.568
    2PC     H4A 6639   3.400   1.864   5.509
    2PC     H4B 6640   3.453   1.914   5.672
    2PC     H4C 6641   3.382   2.034   5.561
    2PC     C35 6642   3.666   1.854   5.531
    2PC     H5A 6643   3.625   1.773   5.469
    2PC     H5B 6644   3.666   1.824   5.636
    2PC     H5C 6645   3.768   1.877   5.498
    2PC     O33 6646   3.579   2.491   5.432
    2PC     O34 6647   3.378   2.401   5.362
    2PC     O21 6648   3.604   2.543   4.900
    2PC     C21 6649   3.500   2.596   4.832
    2PC     O22 6650   3.444   2.698   4.865
    3OL     C12 6651   3.462   2.515   4.711
    3OL     H2R 6652   3.373   2.560   4.666
    3OL     H2S 6653   3.434   2.415   4.744
    3OL     C13 6654   3.574   2.503   4.605
    3OL     H3R 6655   3.540   2.432   4.528
    3OL     H3S 6656   3.664   2.461   4.650
    3OL     C14 6657   3.606   2.638   4.538
    3OL     H4R 6658   3.661   2.702   4.607
    3OL     H4S 6659   3.512   2.689   4.514
    3OL     C15 6660   3.685   2.619   4.408
    3OL     H5R 6661   3.628   2.555   4.340
    3OL     H5S 6662   3.779   2.567   4.429
    3OL     C16 6663   3.715   2.753   4.338
    3OL     H6R 6664   3.790   2.808   4.395
    3OL     H6S 6665   3.624   2.813   4.336
    3OL     C17 6666   3.764   2.730   4.193
    3OL     H7R 6667   3.684   2.684   4.135
    3OL     H7S 6668   3.848   2.660   4.194
    3OL     C18 6669   3.809   2.861   4.122
    3OL     H8R 6670   3.836   2.837   4.019
    3OL     H8S 6671   3.899   2.897   4.171
    3OL     C19 6672   3.703   2.970   4.128
    3OL     H9R 6673   3.684   3.007   4.229
    3OL    C110 6674   3.636   3.024   4.027
    3OL    H10R 6675   3.564   3.103   4.049
    3OL    C111 6676   3.644   2.986   3.880
    3OL    H11R 6677   3.551   2.936   3.853
    3OL    H11S 6678   3.724   2.915   3.860
    3OL    C112 6679   3.659   3.110   3.790
    3OL    H12R 6680   3.591   3.188   3.824
    3OL    H12S 6681   3.630   3.083   3.688
    3OL    C113 6682   3.804   3.163   3.787
    3OL    H13R 6683   3.870   3.085   3.750
    3OL    H13S 6684   3.835   3.190   3.888
    3OL    C114 6685   3.815   3.287   3.695
    3OL    H14R 6686   3.754   3.368   3.736
    3OL    H14S 6687   3.774   3.262   3.596
    3OL    C115 6688   3.961   3.333   3.680
    3OL    H15R 6689   4.019   3.255   3.631
    3OL    H15S 6690   4.004   3.347   3.780
    3OL    C116 6691   3.975   3.466   3.603
    3OL    H16R 6692   4.080   3.496   3.604
    3OL    H16S 6693   3.919   3.544   3.654
    3OL    C117 6694   3.928   3.456   3.456
    3OL    H17R 6695   3.821   3.433   3.453
    3OL    H17S 6696   3.981   3.376   3.405
    3OL    C118 6697   3.952   3.589   3.382
    3OL    H18R 6698   3.918   3.581   3.279
    3OL    H18S 6699   4.058   3.614   3.381
    3OL    H18T 6700   3.897   3.670   3.430
    1PA    C116 6701   2.207   4.724   3.823
    1PA    H16R 6702   2.227   4.659   3.737
    1PA    H16S 6703   2.262   4.817   3.808
    1PA    H16T 6704   2.100   4.746   3.824
    1PA    C115 6705   2.251   4.655   3.953
    1PA    H15R 6706   2.197   4.561   3.965
    1PA    H15S 6707   2.358   4.631   3.945
    1PA    C114 6708   2.230   4.744   4.077
    1PA    H14R 6709   2.289   4.703   4.159
    1PA    H14S 6710   2.268   4.845   4.056
    1PA    C113 6711   2.082   4.752   4.119
    1PA    H13R 6712   2.022   4.786   4.035
    1PA    H13S 6713   2.045   4.653   4.147
    1PA    C112 6714   2.061   4.851   4.236
    1PA    H12R 6715   2.110   4.945   4.213
    1PA    H12S 6716   1.954   4.871   4.246
    1PA    C111 6717   2.114   4.797   4.370
    1PA    H11R 6718   2.063   4.703   4.394
    1PA    H11S 6719   2.221   4.776   4.362
    1PA    C110 6720   2.091   4.899   4.484
    1PA    H10R 6721   2.139   4.993   4.457
    1PA    H10S 6722   1.984   4.917   4.494
    1PA     C19 6723   2.148   4.848   4.618
    1PA     H9R 6724   2.102   4.753   4.646
    1PA     H9S 6725   2.255   4.829   4.604
    1PA     C18 6726   2.132   4.951   4.731
    1PA     H8R 6727   2.199   4.924   4.814
    1PA     H8S 6728   2.165   5.049   4.695
    1PA     C17 6729   1.987   4.964   4.784
    1PA     H7R 6730   1.980   5.054   4.845
    1PA     H7S 6731   1.919   4.978   4.700
    1PA     C16 6732   1.940   4.843   4.869
    1PA     H6R 6733   1.834   4.856   4.889
    1PA     H6S 6734   1.951   4.751   4.812
    1PA     C15 6735   2.015   4.832   5.004
    1PA     H5R 6736   2.120   4.806   4.988
    1PA     H5S 6737   2.013   4.930   5.053
    1PA     C14 6738   1.949   4.730   5.099
    1PA     H4R 6739   1.985   4.748   5.200
    1PA     H4S 6740   1.841   4.745   5.100
    1PA     C13 6741   1.981   4.583   5.061
    1PA     H3R 6742   1.961   4.567   4.955
    1PA     H3S 6743   2.088   4.564   5.077
    1PA     C12 6744   1.897   4.483   5.143
    1PA     H2R 6745   1.791   4.497   5.119
    1PA     H2S 6746   1.923   4.382   5.114
    2PC     C11 6747   1.915   4.496   5.292
    2PC     O12 6748   1.823   4.521   5.368
    2PC     O11 6749   2.043   4.483   5.332
    2PC      C1 6750   2.074   4.497   5.473
    2PC      HR 6751   2.026   4.587   5.512
    2PC      HS 6752   2.037   4.410   5.527
    2PC      C2 6753   2.227   4.510   5.492
    2PC      HX 6754   2.278   4.426   5.444
    2PC      C3 6755   2.263   4.516   5.641
    2PC      HA 6756   2.365   4.552   5.654
    2PC      HB 6757   2.195   4.583   5.694
    2PC     O31 6758   2.253   4.383   5.698
    2PC     P31 6759   2.275   4.362   5.855
    2PC     O32 6760   2.134   4.302   5.895
    2PC     C31 6761   2.024   4.392   5.914
    2PC     H1A 6762   2.047   4.465   5.993
    2PC     H1B 6763   2.005   4.446   5.821
    2PC     C32 6764   1.899   4.309   5.951
    2PC     H2A 6765   1.812   4.374   5.952
    2PC     H2B 6766   1.884   4.233   5.875
    2PC     N31 6767   1.898   4.236   6.083
    2PC     C33 6768   2.010   4.136   6.095
    2PC     H3A 6769   2.105   4.190   6.093
    2PC     H3B 6770   1.999   4.082   6.189
    2PC     H3C 6771   2.005   4.068   6.010
    2PC     C34 6772   1.907   4.333   6.198
    2PC     H4A 6773   2.003   4.384   6.194
    2PC     H4B 6774   1.825   4.405   6.189
    2PC     H4C 6775   1.898   4.277   6.291
    2PC     C35 6776   1.768   4.161   6.091
    2PC     H5A 6777   1.766   4.087   6.011
    2PC     H5B 6778   1.686   4.232   6.078
    2PC     H5C 6779   1.762   4.113   6.189
    2PC     O33 6780   2.382   4.265   5.887
    2PC     O34 6781   2.308   4.484   5.931
    2PC     O21 6782   2.270   4.636   5.433
    2PC     C21 6783   2.306   4.639   5.303
    2PC     O22 6784   2.322   4.540   5.235
    3OL     C12 6785   2.329   4.780   5.252
    3OL     H2R 6786   2.389   4.834   5.325
    3OL     H2S 6787   2.233   4.831   5.245
    3OL     C13 6788   2.400   4.781   5.115
    3OL     H3R 6789   2.346   4.716   5.046
    3OL     H3S 6790   2.500   4.740   5.127
    3OL     C14 6791   2.410   4.922   5.054
    3OL     H4R 6792   2.459   4.990   5.125
    3OL     H4S 6793   2.310   4.961   5.035
    3OL     C15 6794   2.491   4.917   4.923
    3OL     H5R 6795   2.447   4.842   4.857
    3OL     H5S 6796   2.593   4.886   4.946
    3OL     C16 6797   2.495   5.053   4.850
    3OL     H6R 6798   2.526   5.131   4.920
    3OL     H6S 6799   2.395   5.080   4.816
    3OL     C17 6800   2.593   5.052   4.731
    3OL     H7R 6801   2.692   5.022   4.766
    3OL     H7S 6802   2.602   5.154   4.691
    3OL     C18 6803   2.548   4.958   4.617
    3OL     H8R 6804   2.449   4.989   4.583
    3OL     H8S 6805   2.541   4.857   4.655
    3OL     C19 6806   2.648   4.960   4.503
    3OL     H9R 6807   2.752   4.963   4.534
    3OL    C110 6808   2.620   4.961   4.373
    3OL    H10R 6809   2.702   4.964   4.302
    3OL    C111 6810   2.482   4.954   4.311
    3OL    H11R 6811   2.407   4.928   4.386
    3OL    H11S 6812   2.479   4.875   4.237
    3OL    C112 6813   2.443   5.088   4.245
    3OL    H12R 6814   2.457   5.167   4.318
    3OL    H12S 6815   2.336   5.087   4.220
    3OL    C113 6816   2.526   5.120   4.119
    3OL    H13R 6817   2.631   5.095   4.135
    3OL    H13S 6818   2.521   5.227   4.100
    3OL    C114 6819   2.473   5.046   3.995
    3OL    H14R 6820   2.367   5.071   3.980
    3OL    H14S 6821   2.479   4.938   4.010
    3OL    C115 6822   2.552   5.084   3.869
    3OL    H15R 6823   2.657   5.057   3.882
    3OL    H15S 6824   2.547   5.193   3.855
    3OL    C116 6825   2.495   5.013   3.744
    3OL    H16R 6826   2.390   5.040   3.732
    3OL    H16S 6827   2.499   4.905   3.760
    3OL    C117 6828   2.573   5.047   3.616
    3OL    H17R 6829   2.539   4.981   3.536
    3OL    H17S 6830   2.679   5.028   3.630
    3OL    C118 6831   2.551   5.193   3.571
    3OL    H18R 6832   2.601   5.211   3.475
    3OL    H18S 6833   2.592   5.263   3.644
    3OL    H18T 6834   2.445   5.214   3.559
    1PA    C116 6835   1.672   0.386   4.258
    1PA    H16R 6836   1.747   0.325   4.308
    1PA    H16S 6837   1.587   0.400   4.325
    1PA    H16T 6838   1.715   0.484   4.237
    1PA    C115 6839   1.627   0.319   4.127
    1PA    H15R 6840   1.549   0.378   4.080
    1PA    H15S 6841   1.712   0.318   4.058
    1PA    C114 6842   1.579   0.173   4.147
    1PA    H14R 6843   1.566   0.129   4.048
    1PA    H14S 6844   1.655   0.114   4.198
    1PA    C113 6845   1.444   0.162   4.221
    1PA    H13R 6846   1.385   0.253   4.206
    1PA    H13S 6847   1.387   0.081   4.175
    1PA    C112 6848   1.460   0.132   4.371
    1PA    H12R 6849   1.513   0.037   4.383
    1PA    H12S 6850   1.521   0.209   4.419
    1PA    C111 6851   1.322   0.124   4.441
    1PA    H11R 6852   1.272   0.221   4.436
    1PA    H11S 6853   1.260   0.052   4.388
    1PA    C110 6854   1.335   0.079   4.588
    1PA    H10R 6855   1.238   0.038   4.621
    1PA    H10S 6856   1.407   6.446   4.596
    1PA     C19 6857   1.373   0.195   4.682
    1PA     H9R 6858   1.460   0.246   4.641
    1PA     H9S 6859   1.292   0.268   4.687
    1PA     C18 6860   1.410   0.146   4.824
    1PA     H8R 6861   1.487   0.069   4.815
    1PA     H8S 6862   1.455   0.229   4.879
    1PA     C17 6863   1.293   0.089   4.906
    1PA     H7R 6864   1.241   0.012   4.850
    1PA     H7S 6865   1.334   0.042   4.995
    1PA     C16 6866   1.193   0.199   4.951
    1PA     H6R 6867   1.246   0.282   4.996
    1PA     H6S 6868   1.141   0.237   4.862
    1PA     C15 6869   1.088   0.143   5.050
    1PA     H5R 6870   1.001   0.209   5.049
    1PA     H5S 6871   1.055   0.044   5.017
    1PA     C14 6872   1.144   0.138   5.194
    1PA     H4R 6873   1.236   0.080   5.197
    1PA     H4S 6874   1.169   0.239   5.225
    1PA     C13 6875   1.042   0.079   5.294
    1PA     H3R 6876   1.072   0.107   5.395
    1PA     H3S 6877   0.943   0.122   5.276
    1PA     C12 6878   1.037   6.373   5.285
    1PA     H2R 6879   0.998   6.343   5.187
    1PA     H2S 6880   1.137   6.331   5.296
    2PC     C11 6881   0.949   6.311   5.391
    2PC     O12 6882   0.980   6.210   5.451
    2PC     O11 6883   0.830   6.374   5.406
    2PC      C1 6884   0.740   6.326   5.510
    2PC      HR 6885   0.733   6.217   5.506
    2PC      HS 6886   0.781   6.353   5.608
    2PC      C2 6887   0.602   6.392   5.492
    2PC      HX 6888   0.614   0.052   5.504
    2PC      C3 6889   0.502   6.343   5.599
    2PC      HA 6890   0.452   6.252   5.567
    2PC      HB 6891   0.555   6.324   5.693
    2PC     O31 6892   0.404   6.447   5.623
    2PC     P31 6893   0.291   6.423   5.734
    2PC     O32 6894   0.366   0.019   5.868
    2PC     C31 6895   0.301   0.114   5.955
    2PC     H1A 6896   0.328   0.215   5.922
    2PC     H1B 6897   0.192   0.103   5.951
    2PC     C32 6898   0.350   0.091   6.100
    2PC     H2A 6899   0.458   0.079   6.100
    2PC     H2B 6900   0.325   0.178   6.160
    2PC     N31 6901   0.292   6.419   6.174
    2PC     C33 6902   0.147   6.442   6.205
    2PC     H3A 6903   0.092   0.002   6.112
    2PC     H3B 6904   0.110   6.358   6.264
    2PC     H3C 6905   0.138   0.086   6.263
    2PC     C34 6906   0.308   6.291   6.097
    2PC     H4A 6907   0.250   6.299   6.005
    2PC     H4B 6908   0.413   6.277   6.074
    2PC     H4C 6909   0.270   6.209   6.158
    2PC     C35 6910   0.364   6.403   6.305
    2PC     H5A 6911   0.470   6.387   6.283
    2PC     H5B 6912   0.322   6.317   6.357
    2PC     H5C 6913   0.350   0.046   6.364
    2PC     O33 6914   0.166   0.049   5.709
    2PC     O34 6915   0.252   6.282   5.749
    2PC     O21 6916   0.550   6.369   5.357
    2PC     C21 6917   0.538   6.245   5.304
    2PC     O22 6918   0.562   6.141   5.364
    3OL     C12 6919   0.498   6.247   5.159
    3OL     H2R 6920   0.577   6.197   5.102
    3OL     H2S 6921   0.492   6.350   5.124
    3OL     C13 6922   0.364   6.175   5.134
    3OL     H3R 6923   0.366   6.076   5.181
    3OL     H3S 6924   0.353   6.160   5.026
    3OL     C14 6925   0.243   6.256   5.187
    3OL     H4R 6926   0.240   6.353   5.137
    3OL     H4S 6927   0.257   6.275   5.293
    3OL     C15 6928   0.109   6.182   5.168
    3OL     H5R 6929   0.030   6.238   5.219
    3OL     H5S 6930   0.115   6.084   5.217
    3OL     C16 6931   0.067   6.160   5.020
    3OL     H6R 6932   6.429   6.094   5.019
    3OL     H6S 6933   0.147   6.110   4.965
    3OL     C17 6934   0.030   6.292   4.949
    3OL     H7R 6935   0.116   6.359   4.945
    3OL     H7S 6936   6.399   6.343   5.006
    3OL     C18 6937   6.427   6.265   4.806
    3OL     H8R 6938   6.350   6.189   4.810
    3OL     H8S 6939   0.062   6.226   4.745
    3OL     C19 6940   6.369   6.391   4.744
    3OL     H9R 6941   6.318   0.008   4.815
    3OL    C110 6942   6.378   6.429   4.617
    3OL    H10R 6943   6.334   0.076   4.588
    3OL    C111 6944   6.442   6.352   4.504
    3OL    H11R 6945   0.026   6.252   4.535
    3OL    H11S 6946   0.083   6.406   4.470
    3OL    C112 6947   6.343   6.339   4.387
    3OL    H12R 6948   6.310   6.438   4.355
    3OL    H12S 6949   6.254   6.286   4.422
    3OL    C113 6950   6.401   6.261   4.266
    3OL    H13R 6951   6.321   6.244   4.194
    3OL    H13S 6952   6.434   6.162   4.300
    3OL    C114 6953   0.071   6.331   4.195
    3OL    H14R 6954   0.103   6.267   4.112
    3OL    H14S 6955   0.155   6.342   4.263
    3OL    C115 6956   0.032   0.022   4.138
    3OL    H15R 6957   0.012   0.091   4.220
    3OL    H15S 6958   6.389   0.012   4.079
    3OL    C116 6959   0.145   0.079   4.050
    3OL    H16R 6960   0.165   0.008   3.969
    3OL    H16S 6961   0.237   0.089   4.108
    3OL    C117 6962   0.107   0.214   3.986
    3OL    H17R 6963   0.006   0.209   3.945
    3OL    H17S 6964   0.175   0.235   3.903
    3OL    C118 6965   0.117   0.330   4.087
    3OL    H18R 6966   0.093   0.425   4.038
    3OL    H18S 6967   0.218   0.337   4.128
    3OL    H18T 6968   0.046   0.316   4.170
    1PA    C116 6969   1.388   6.081   4.874
    1PA    H16R 6970   1.329   6.097   4.784
    1PA    H16S 6971   1.328   6.113   4.960
    1PA    H16T 6972   1.409   5.974   4.884
    1PA    C115 6973   1.519   6.162   4.869
    1PA    H15R 6974   1.497   6.268   4.858
    1PA    H15S 6975   1.571   6.149   4.965
    1PA    C114 6976   1.613   6.115   4.755
    1PA    H14R 6977   1.711   6.160   4.771
    1PA    H14S 6978   1.625   6.007   4.760
    1PA    C113 6979   1.560   6.157   4.616
    1PA    H13R 6980   1.461   6.113   4.601
    1PA    H13S 6981   1.549   6.265   4.611
    1PA    C112 6982   1.652   6.108   4.502
    1PA    H12R 6983   1.683   6.005   4.521
    1PA    H12S 6984   1.593   6.108   4.410
    1PA    C111 6985   1.775   6.198   4.481
    1PA    H11R 6986   1.744   6.302   4.470
    1PA    H11S 6987   1.841   6.193   4.569
    1PA    C110 6988   1.852   6.154   4.355
    1PA    H10R 6989   1.885   6.050   4.365
    1PA    H10S 6990   1.782   6.156   4.271
    1PA     C19 6991   1.971   6.244   4.319
    1PA     H9R 6992   1.994   6.229   4.214
    1PA     H9S 6993   1.945   6.350   4.330
    1PA     C18 6994   2.100   6.211   4.399
    1PA     H8R 6995   2.096   6.110   4.438
    1PA     H8S 6996   2.184   6.215   4.329
    1PA     C17 6997   2.127   6.311   4.513
    1PA     H7R 6998   2.129   6.413   4.472
    1PA     H7S 6999   2.046   6.307   4.586
    1PA     C16 7000   2.262   6.281   4.580
    1PA     H6R 7001   2.258   6.184   4.630
    1PA     H6S 7002   2.339   6.276   4.504
    1PA     C15 7003   2.302   6.390   4.682
    1PA     H5R 7004   2.408   6.381   4.702
    1PA     H5S 7005   2.284   0.041   4.639
    1PA     C14 7006   2.226   6.375   4.815
    1PA     H4R 7007   2.119   6.370   4.796
    1PA     H4S 7008   2.256   6.282   4.864
    1PA     C13 7009   2.255   0.047   4.908
    1PA     H3R 7010   2.363   0.055   4.927
    1PA     H3S 7011   2.223   0.139   4.860
    1PA     C12 7012   2.181   0.029   5.042
    1PA     H2R 7013   2.077   0.002   5.022
    1PA     H2S 7014   2.225   6.397   5.100
    2PC     C11 7015   2.182   0.156   5.124
    2PC     O12 7016   2.280   0.200   5.181
    2PC     O11 7017   2.058   0.210   5.133
    2PC      C1 7018   2.036   0.317   5.228
    2PC      HR 7019   1.929   0.326   5.244
    2PC      HS 7020   2.084   0.290   5.322
    2PC      C2 7021   2.091   0.452   5.177
    2PC      HX 7022   2.178   0.438   5.111
    2PC      C3 7023   2.134   0.540   5.296
    2PC      HA 7024   2.051   0.547   5.367
    2PC      HB 7025   2.220   0.495   5.346
    2PC     O31 7026   2.169   0.671   5.247
    2PC     P31 7027   2.195   0.787   5.353
    2PC     O32 7028   2.063   0.872   5.333
    2PC     C31 7029   1.939   0.814   5.375
    2PC     H1A 7030   1.921   0.723   5.317
    2PC     H1B 7031   1.943   0.791   5.481
    2PC     C32 7032   1.827   0.916   5.350
    2PC     H2A 7033   1.840   1.001   5.417
    2PC     H2B 7034   1.832   0.951   5.248
    2PC     N31 7035   1.686   0.866   5.371
    2PC     C33 7036   1.664   0.827   5.515
    2PC     H3A 7037   1.562   0.790   5.525
    2PC     H3B 7038   1.735   0.749   5.541
    2PC     H3C 7039   1.680   0.915   5.577
    2PC     C34 7040   1.590   0.975   5.335
    2PC     H4A 7041   1.608   1.005   5.232
    2PC     H4B 7042   1.488   0.936   5.346
    2PC     H4C 7043   1.605   1.059   5.403
    2PC     C35 7044   1.657   0.748   5.284
    2PC     H5A 7045   1.679   0.775   5.180
    2PC     H5B 7046   1.552   0.722   5.295
    2PC     H5C 7047   1.720   0.664   5.317
    2PC     O33 7048   2.207   0.737   5.492
    2PC     O34 7049   2.316   0.865   5.321
    2PC     O21 7050   1.983   0.521   5.109
    2PC     C21 7051   1.971   0.506   4.975
    2PC     O22 7052   2.051   0.446   4.906
    3OL     C12 7053   1.852   0.581   4.921
    3OL     H2R 7054   1.836   0.670   4.983
    3OL     H2S 7055   1.763   0.519   4.930
    3OL     C13 7056   1.873   0.623   4.774
    3OL     H3R 7057   1.861   0.535   4.710
    3OL     H3S 7058   1.975   0.660   4.763
    3OL     C14 7059   1.774   0.733   4.731
    3OL     H4R 7060   1.797   0.826   4.785
    3OL     H4S 7061   1.673   0.704   4.759
    3OL     C15 7062   1.779   0.760   4.579
    3OL     H5R 7063   1.705   0.836   4.554
    3OL     H5S 7064   1.750   0.668   4.526
    3OL     C16 7065   1.918   0.805   4.531
    3OL     H6R 7066   1.991   0.729   4.558
    3OL     H6S 7067   1.946   0.897   4.583
    3OL     C17 7068   1.922   0.828   4.379
    3OL     H7R 7069   1.851   0.907   4.352
    3OL     H7S 7070   1.890   0.737   4.327
    3OL     C18 7071   2.063   0.867   4.330
    3OL     H8R 7072   2.092   0.959   4.381
    3OL     H8S 7073   2.057   0.891   4.223
    3OL     C19 7074   2.165   0.759   4.358
    3OL     H9R 7075   2.168   0.725   4.462
    3OL    C110 7076   2.249   0.703   4.272
    3OL    H10R 7077   2.316   0.625   4.308
    3OL    C111 7078   2.265   0.737   4.125
    3OL    H11R 7079   2.182   0.796   4.087
    3OL    H11S 7080   2.265   0.644   4.067
    3OL    C112 7081   2.398   0.810   4.100
    3OL    H12R 7082   2.415   0.817   3.992
    3OL    H12S 7083   2.480   0.751   4.142
    3OL    C113 7084   2.398   0.952   4.162
    3OL    H13R 7085   2.365   0.947   4.266
    3OL    H13S 7086   2.326   1.015   4.109
    3OL    C114 7087   2.538   1.018   4.159
    3OL    H14R 7088   2.608   0.956   4.215
    3OL    H14S 7089   2.531   1.114   4.210
    3OL    C115 7090   2.592   1.040   4.016
    3OL    H15R 7091   2.524   1.105   3.960
    3OL    H15S 7092   2.597   0.944   3.965
    3OL    C116 7093   2.733   1.101   4.018
    3OL    H16R 7094   2.778   1.086   3.919
    3OL    H16S 7095   2.795   1.047   4.090
    3OL    C117 7096   2.734   1.251   4.049
    3OL    H17R 7097   2.694   1.269   4.149
    3OL    H17S 7098   2.671   1.305   3.978
    3OL    C118 7099   2.878   1.306   4.042
    3OL    H18R 7100   2.879   1.411   4.071
    3OL    H18S 7101   2.917   1.298   3.940
    3OL    H18T 7102   2.944   1.251   4.109
    1PA    C116 7103   1.516   5.837   3.541
    1PA    H16R 7104   1.464   5.933   3.551
    1PA    H16S 7105   1.441   5.758   3.531
    1PA    H16T 7106   1.575   5.840   3.449
    1PA    C115 7107   1.606   5.811   3.662
    1PA    H15R 7108   1.658   5.715   3.649
    1PA    H15S 7109   1.682   5.889   3.669
    1PA    C114 7110   1.524   5.807   3.792
    1PA    H14R 7111   1.470   5.902   3.804
    1PA    H14S 7112   1.449   5.728   3.786
    1PA    C113 7113   1.614   5.784   3.915
    1PA    H13R 7114   1.668   5.690   3.902
    1PA    H13S 7115   1.688   5.864   3.922
    1PA    C112 7116   1.532   5.778   4.045
    1PA    H12R 7117   1.478   5.872   4.059
    1PA    H12S 7118   1.458   5.698   4.038
    1PA    C111 7119   1.623   5.753   4.167
    1PA    H11R 7120   1.679   5.660   4.151
    1PA    H11S 7121   1.695   5.834   4.175
    1PA    C110 7122   1.541   5.742   4.297
    1PA    H10R 7123   1.485   5.834   4.313
    1PA    H10S 7124   1.469   5.660   4.288
    1PA     C19 7125   1.633   5.716   4.418
    1PA     H9R 7126   1.692   5.625   4.401
    1PA     H9S 7127   1.702   5.799   4.430
    1PA     C18 7128   1.550   5.699   4.546
    1PA     H8R 7129   1.487   5.787   4.561
    1PA     H8S 7130   1.484   5.612   4.533
    1PA     C17 7131   1.636   5.676   4.672
    1PA     H7R 7132   1.704   5.593   4.655
    1PA     H7S 7133   1.696   5.765   4.692
    1PA     C16 7134   1.544   5.645   4.791
    1PA     H6R 7135   1.475   5.728   4.808
    1PA     H6S 7136   1.483   5.558   4.766
    1PA     C15 7137   1.622   5.614   4.921
    1PA     H5R 7138   1.568   5.534   4.973
    1PA     H5S 7139   1.722   5.576   4.898
    1PA     C14 7140   1.630   5.736   5.014
    1PA     H4R 7141   1.680   5.819   4.962
    1PA     H4S 7142   1.529   5.770   5.038
    1PA     C13 7143   1.706   5.707   5.146
    1PA     H3R 7144   1.811   5.690   5.125
    1PA     H3S 7145   1.699   5.795   5.210
    1PA     C12 7146   1.648   5.585   5.221
    1PA     H2R 7147   1.539   5.589   5.219
    1PA     H2S 7148   1.679   5.492   5.172
    2PC     C11 7149   1.693   5.581   5.365
    2PC     O12 7150   1.806   5.551   5.402
    2PC     O11 7151   1.591   5.607   5.449
    2PC      C1 7152   1.618   5.602   5.592
    2PC      HR 7153   1.675   5.511   5.615
    2PC      HS 7154   1.677   5.689   5.621
    2PC      C2 7155   1.484   5.599   5.667
    2PC      HX 7156   1.430   5.693   5.649
    2PC      C3 7157   1.513   5.582   5.817
    2PC      HA 7158   1.554   5.483   5.837
    2PC      HB 7159   1.586   5.658   5.849
    2PC     O31 7160   1.393   5.600   5.893
    2PC     P31 7161   1.403   5.593   6.052
    2PC     O32 7162   1.401   5.436   6.076
    2PC     C31 7163   1.302   5.357   6.010
    2PC     H1A 7164   1.203   5.404   6.015
    2PC     H1B 7165   1.330   5.344   5.905
    2PC     C32 7166   1.300   5.221   6.081
    2PC     H2A 7167   1.259   5.144   6.015
    2PC     H2B 7168   1.403   5.193   6.106
    2PC     N31 7169   1.220   5.213   6.209
    2PC     C33 7170   1.259   5.089   6.282
    2PC     H3A 7171   1.199   5.079   6.372
    2PC     H3B 7172   1.243   5.003   6.215
    2PC     H3C 7173   1.365   5.096   6.308
    2PC     C34 7174   1.245   5.331   6.301
    2PC     H4A 7175   1.208   5.421   6.252
    2PC     H4B 7176   1.192   5.314   6.394
    2PC     H4C 7177   1.353   5.339   6.318
    2PC     C35 7178   1.074   5.205   6.178
    2PC     H5A 7179   1.056   5.119   6.114
    2PC     H5B 7180   1.043   5.297   6.126
    2PC     H5C 7181   1.018   5.195   6.271
    2PC     O33 7182   1.531   5.648   6.102
    2PC     O34 7183   1.292   5.660   6.123
    2PC     O21 7184   1.408   5.485   5.620
    2PC     C21 7185   1.273   5.487   5.626
    2PC     O22 7186   1.206   5.582   5.665
    3OL     C12 7187   1.212   5.359   5.575
    3OL     H2R 7188   1.206   5.289   5.658
    3OL     H2S 7189   1.279   5.315   5.501
    3OL     C13 7190   1.071   5.378   5.514
    3OL     H3R 7191   1.007   5.428   5.587
    3OL     H3S 7192   1.026   5.280   5.496
    3OL     C14 7193   1.069   5.459   5.382
    3OL     H4R 7194   1.116   5.556   5.397
    3OL     H4S 7195   0.965   5.477   5.354
    3OL     C15 7196   1.139   5.384   5.266
    3OL     H5R 7197   1.099   5.283   5.257
    3OL     H5S 7198   1.246   5.376   5.287
    3OL     C16 7199   1.119   5.459   5.132
    3OL     H6R 7200   1.153   5.562   5.143
    3OL     H6S 7201   1.013   5.461   5.107
    3OL     C17 7202   1.197   5.390   5.018
    3OL     H7R 7203   1.167   5.285   5.013
    3OL     H7S 7204   1.304   5.392   5.042
    3OL     C18 7205   1.174   5.456   4.881
    3OL     H8R 7206   1.070   5.443   4.852
    3OL     H8S 7207   1.235   5.403   4.807
    3OL     C19 7208   1.210   5.603   4.879
    3OL     H9R 7209   1.264   5.639   4.967
    3OL    C110 7210   1.178   5.689   4.783
    3OL    H10R 7211   1.208   5.794   4.794
    3OL    C111 7212   1.108   5.655   4.653
    3OL    H11R 7213   1.006   5.693   4.656
    3OL    H11S 7214   1.103   5.547   4.639
    3OL    C112 7215   1.179   5.721   4.534
    3OL    H12R 7216   1.284   5.691   4.533
    3OL    H12S 7217   1.176   5.829   4.546
    3OL    C113 7218   1.115   5.684   4.398
    3OL    H13R 7219   1.149   5.756   4.324
    3OL    H13S 7220   1.006   5.693   4.405
    3OL    C114 7221   1.155   5.541   4.354
    3OL    H14R 7222   1.122   5.470   4.430
    3OL    H14S 7223   1.263   5.534   4.347
    3OL    C115 7224   1.091   5.501   4.219
    3OL    H15R 7225   0.984   5.519   4.222
    3OL    H15S 7226   1.106   5.394   4.205
    3OL    C116 7227   1.154   5.576   4.100
    3OL    H16R 7228   1.262   5.559   4.098
    3OL    H16S 7229   1.136   5.683   4.109
    3OL    C117 7230   1.093   5.526   3.967
    3OL    H17R 7231   0.985   5.541   3.969
    3OL    H17S 7232   1.111   5.419   3.956
    3OL    C118 7233   1.153   5.601   3.847
    3OL    H18R 7234   1.134   5.708   3.854
    3OL    H18S 7235   1.108   5.564   3.754
    3OL    H18T 7236   1.261   5.584   3.842
    1PA    C116 7237   1.415   1.263   3.515
    1PA    H16R 7238   1.352   1.352   3.508
    1PA    H16S 7239   1.364   1.180   3.467
    1PA    H16T 7240   1.508   1.283   3.462
    1PA    C115 7241   1.444   1.230   3.662
    1PA    H15R 7242   1.510   1.143   3.668
    1PA    H15S 7243   1.497   1.314   3.708
    1PA    C114 7244   1.314   1.203   3.739
    1PA    H14R 7245   1.246   1.287   3.725
    1PA    H14S 7246   1.264   1.114   3.700
    1PA    C113 7247   1.340   1.187   3.890
    1PA    H13R 7248   1.411   1.264   3.922
    1PA    H13S 7249   1.246   1.205   3.944
    1PA    C112 7250   1.393   1.048   3.930
    1PA    H12R 7251   1.317   0.973   3.908
    1PA    H12S 7252   1.481   1.024   3.870
    1PA    C111 7253   1.429   1.045   4.080
    1PA    H11R 7254   1.507   1.119   4.098
    1PA    H11S 7255   1.342   1.073   4.141
    1PA    C110 7256   1.482   0.906   4.123
    1PA    H10R 7257   1.542   0.863   4.043
    1PA    H10S 7258   1.547   0.919   4.209
    1PA     C19 7259   1.367   0.811   4.161
    1PA     H9R 7260   1.317   0.849   4.250
    1PA     H9S 7261   1.293   0.808   4.081
    1PA     C18 7262   1.421   0.669   4.187
    1PA     H8R 7263   1.468   0.633   4.095
    1PA     H8S 7264   1.499   0.671   4.263
    1PA     C17 7265   1.309   0.569   4.226
    1PA     H7R 7266   1.228   0.576   4.154
    1PA     H7S 7267   1.349   0.468   4.220
    1PA     C16 7268   1.252   0.590   4.368
    1PA     H6R 7269   1.210   0.691   4.377
    1PA     H6S 7270   1.170   0.520   4.384
    1PA     C15 7271   1.358   0.568   4.478
    1PA     H5R 7272   1.405   0.470   4.465
    1PA     H5S 7273   1.436   0.644   4.470
    1PA     C14 7274   1.295   0.576   4.618
    1PA     H4R 7275   1.238   0.669   4.627
    1PA     H4S 7276   1.224   0.493   4.632
    1PA     C13 7277   1.404   0.571   4.727
    1PA     H3R 7278   1.463   0.480   4.716
    1PA     H3S 7279   1.470   0.656   4.713
    1PA     C12 7280   1.343   0.577   4.868
    1PA     H2R 7281   1.282   0.668   4.879
    1PA     H2S 7282   1.277   0.491   4.884
    2PC     C11 7283   1.451   0.579   4.973
    2PC     O12 7284   1.518   0.677   4.999
    2PC     O11 7285   1.463   0.460   5.036
    2PC      C1 7286   1.552   0.455   5.151
    2PC      HR 7287   1.652   0.489   5.123
    2PC      HS 7288   1.513   0.520   5.229
    2PC      C2 7289   1.561   0.311   5.204
    2PC      HX 7290   1.460   0.267   5.204
    2PC      C3 7291   1.618   0.309   5.348
    2PC      HA 7292   1.537   0.333   5.418
    2PC      HB 7293   1.658   0.211   5.373
    2PC     O31 7294   1.722   0.409   5.362
    2PC     P31 7295   1.792   0.429   5.504
    2PC     O32 7296   1.902   0.316   5.500
    2PC     C31 7297   1.991   0.307   5.613
    2PC     H1A 7298   2.052   0.398   5.620
    2PC     H1B 7299   1.931   0.296   5.704
    2PC     C32 7300   2.079   0.183   5.593
    2PC     H2A 7301   2.016   0.098   5.567
    2PC     H2B 7302   2.150   0.201   5.512
    2PC     N31 7303   2.161   0.139   5.712
    2PC     C33 7304   2.072   0.102   5.828
    2PC     H3A 7305   2.135   0.062   5.908
    2PC     H3B 7306   2.021   0.192   5.863
    2PC     H3C 7307   2.000   0.027   5.795
    2PC     C34 7308   2.239   0.017   5.673
    2PC     H4A 7309   2.170   6.388   5.637
    2PC     H4B 7310   2.308   0.045   5.594
    2PC     H4C 7311   2.294   6.429   5.760
    2PC     C35 7312   2.257   0.246   5.754
    2PC     H5A 7313   2.318   0.208   5.836
    2PC     H5B 7314   2.200   0.334   5.787
    2PC     H5C 7315   2.320   0.272   5.669
    2PC     O33 7316   1.852   0.563   5.517
    2PC     O34 7317   1.699   0.417   5.619
    2PC     O21 7318   1.647   0.236   5.114
    2PC     C21 7319   1.643   0.101   5.117
    2PC     O22 7320   1.579   0.038   5.200
    3OL     C12 7321   1.731   0.033   5.015
    3OL     H2R 7322   1.677   6.393   4.978
    3OL     H2S 7323   1.822   6.446   5.063
    3OL     C13 7324   1.768   0.124   4.895
    3OL     H3R 7325   1.843   0.196   4.928
    3OL     H3S 7326   1.680   0.181   4.863
    3OL     C14 7327   1.820   0.041   4.776
    3OL     H4R 7328   1.747   6.412   4.752
    3OL     H4S 7329   1.913   6.439   4.804
    3OL     C15 7330   1.842   0.127   4.649
    3OL     H5R 7331   1.749   0.177   4.623
    3OL     H5S 7332   1.868   0.061   4.566
    3OL     C16 7333   1.954   0.232   4.669
    3OL     H6R 7334   2.049   0.183   4.692
    3OL     H6S 7335   1.928   0.295   4.754
    3OL     C17 7336   1.970   0.325   4.547
    3OL     H7R 7337   2.026   0.413   4.578
    3OL     H7S 7338   1.872   0.359   4.513
    3OL     C18 7339   2.046   0.258   4.430
    3OL     H8R 7340   1.992   0.169   4.397
    3OL     H8S 7341   2.144   0.227   4.467
    3OL     C19 7342   2.064   0.357   4.317
    3OL     H9R 7343   2.071   0.462   4.348
    3OL    C110 7344   2.064   0.328   4.188
    3OL    H10R 7345   2.074   0.410   4.116
    3OL    C111 7346   2.063   0.190   4.127
    3OL    H11R 7347   1.964   0.168   4.086
    3OL    H11S 7348   2.086   0.114   4.202
    3OL    C112 7349   2.166   0.181   4.013
    3OL    H12R 7350   2.264   0.210   4.053
    3OL    H12S 7351   2.140   0.253   3.935
    3OL    C113 7352   2.174   0.039   3.953
    3OL    H13R 7353   2.074   0.008   3.923
    3OL    H13S 7354   2.208   6.417   4.029
    3OL    C114 7355   2.267   0.033   3.830
    3OL    H14R 7356   2.232   0.103   3.754
    3OL    H14S 7357   2.260   6.381   3.787
    3OL    C115 7358   2.414   0.063   3.864
    3OL    H15R 7359   2.449   6.441   3.940
    3OL    H15S 7360   2.423   0.164   3.906
    3OL    C116 7361   2.504   0.053   3.739
    3OL    H16R 7362   2.466   0.121   3.662
    3OL    H16S 7363   2.499   6.399   3.699
    3OL    C117 7364   2.649   0.090   3.772
    3OL    H17R 7365   2.687   0.024   3.850
    3OL    H17S 7366   2.654   0.192   3.811
    3OL    C118 7367   2.739   0.078   3.648
    3OL    H18R 7368   2.706   0.145   3.570
    3OL    H18S 7369   2.737   6.424   3.609
    3OL    H18T 7370   2.843   0.103   3.674
    1PA    C116 7371   3.994   4.497   3.467
    1PA    H16R 7372   4.096   4.517   3.431
    1PA    H16S 7373   3.960   4.583   3.524
    1PA    H16T 7374   3.930   4.485   3.380
    1PA    C115 7375   3.993   4.369   3.553
    1PA    H15R 7376   3.891   4.348   3.587
    1PA    H15S 7377   4.025   4.285   3.490
    1PA    C114 7378   4.088   4.380   3.674
    1PA    H14R 7379   4.109   4.280   3.711
    1PA    H14S 7380   4.183   4.424   3.642
    1PA    C113 7381   4.027   4.463   3.789
    1PA    H13R 7382   3.998   4.562   3.753
    1PA    H13S 7383   3.937   4.413   3.825
    1PA    C112 7384   4.127   4.478   3.905
    1PA    H12R 7385   4.163   4.380   3.936
    1PA    H12S 7386   4.214   4.535   3.870
    1PA    C111 7387   4.062   4.550   4.024
    1PA    H11R 7388   4.022   4.646   3.992
    1PA    H11S 7389   3.979   4.490   4.061
    1PA    C110 7390   4.163   4.573   4.138
    1PA    H10R 7391   4.207   4.478   4.168
    1PA    H10S 7392   4.243   4.638   4.103
    1PA     C19 7393   4.093   4.639   4.259
    1PA     H9R 7394   4.043   4.730   4.225
    1PA     H9S 7395   4.014   4.573   4.297
    1PA     C18 7396   4.191   4.677   4.372
    1PA     H8R 7397   4.273   4.735   4.329
    1PA     H8S 7398   4.140   4.743   4.443
    1PA     C17 7399   4.250   4.556   4.448
    1PA     H7R 7400   4.300   4.490   4.377
    1PA     H7S 7401   4.327   4.593   4.516
    1PA     C16 7402   4.147   4.474   4.530
    1PA     H6R 7403   4.070   4.434   4.464
    1PA     H6S 7404   4.199   4.389   4.574
    1PA     C15 7405   4.083   4.557   4.643
    1PA     H5R 7406   4.162   4.604   4.703
    1PA     H5S 7407   4.022   4.637   4.600
    1PA     C14 7408   3.995   4.469   4.733
    1PA     H4R 7409   3.918   4.420   4.673
    1PA     H4S 7410   4.057   4.390   4.778
    1PA     C13 7411   3.930   4.552   4.845
    1PA     H3R 7412   4.007   4.601   4.904
    1PA     H3S 7413   3.867   4.630   4.801
    1PA     C12 7414   3.844   4.463   4.937
    1PA     H2R 7415   3.763   4.416   4.880
    1PA     H2S 7416   3.906   4.383   4.978
    2PC     C11 7417   3.785   4.542   5.050
    2PC     O12 7418   3.708   4.636   5.033
    2PC     O11 7419   3.825   4.496   5.170
    2PC      C1 7420   3.793   4.570   5.291
    2PC      HR 7421   3.695   4.618   5.284
    2PC      HS 7422   3.792   4.499   5.374
    2PC      C2 7423   3.903   4.674   5.316
    2PC      HX 7424   4.001   4.628   5.298
    2PC      C3 7425   3.897   4.728   5.460
    2PC      HA 7426   3.907   4.646   5.532
    2PC      HB 7427   3.978   4.799   5.477
    2PC     O31 7428   3.770   4.795   5.481
    2PC     P31 7429   3.752   4.889   5.608
    2PC     O32 7430   3.686   5.018   5.545
    2PC     C31 7431   3.559   5.004   5.480
    2PC     H1A 7432   3.573   4.949   5.386
    2PC     H1B 7433   3.490   4.948   5.544
    2PC     C32 7434   3.502   5.144   5.450
    2PC     H2A 7435   3.572   5.199   5.387
    2PC     H2B 7436   3.408   5.132   5.395
    2PC     N31 7437   3.470   5.234   5.568
    2PC     C33 7438   3.596   5.284   5.635
    2PC     H3A 7439   3.658   5.333   5.560
    2PC     H3B 7440   3.567   5.355   5.713
    2PC     H3C 7441   3.648   5.198   5.679
    2PC     C34 7442   3.395   5.354   5.517
    2PC     H4A 7443   3.376   5.421   5.601
    2PC     H4B 7444   3.455   5.403   5.441
    2PC     H4C 7445   3.301   5.320   5.474
    2PC     C35 7446   3.384   5.165   5.669
    2PC     H5A 7447   3.441   5.082   5.713
    2PC     H5B 7448   3.294   5.128   5.619
    2PC     H5C 7449   3.357   5.237   5.746
    2PC     O33 7450   3.671   4.831   5.718
    2PC     O34 7451   3.881   4.926   5.671
    2PC     O21 7452   3.884   4.785   5.223
    2PC     C21 7453   3.979   4.879   5.212
    2PC     O22 7454   4.088   4.872   5.265
    3OL     C12 7455   3.937   4.995   5.125
    3OL     H2R 7456   4.020   5.066   5.119
    3OL     H2S 7457   3.854   5.045   5.174
    3OL     C13 7458   3.895   4.950   4.984
    3OL     H3R 7459   3.812   4.880   4.991
    3OL     H3S 7460   3.978   4.899   4.934
    3OL     C14 7461   3.852   5.073   4.901
    3OL     H4R 7462   3.936   5.143   4.896
    3OL     H4S 7463   3.770   5.125   4.952
    3OL     C15 7464   3.808   5.039   4.757
    3OL     H5R 7465   3.887   4.983   4.707
    3OL     H5S 7466   3.794   5.133   4.703
    3OL     C16 7467   3.675   4.960   4.754
    3OL     H6R 7468   3.604   5.007   4.822
    3OL     H6S 7469   3.692   4.858   4.789
    3OL     C17 7470   3.613   4.956   4.613
    3OL     H7R 7471   3.593   5.059   4.579
    3OL     H7S 7472   3.516   4.906   4.619
    3OL     C18 7473   3.700   4.884   4.508
    3OL     H8R 7474   3.725   4.785   4.546
    3OL     H8S 7475   3.794   4.937   4.494
    3OL     C19 7476   3.624   4.869   4.378
    3OL     H9R 7477   3.544   4.795   4.381
    3OL    C110 7478   3.649   4.932   4.264
    3OL    H10R 7479   3.587   4.910   4.177
    3OL    C111 7480   3.754   5.039   4.241
    3OL    H11R 7481   3.791   5.079   4.335
    3OL    H11S 7482   3.709   5.122   4.186
    3OL    C112 7483   3.871   4.982   4.159
    3OL    H12R 7484   3.833   4.934   4.069
    3OL    H12S 7485   3.921   4.905   4.219
    3OL    C113 7486   3.974   5.090   4.121
    3OL    H13R 7487   4.009   5.141   4.211
    3OL    H13S 7488   3.925   5.165   4.058
    3OL    C114 7489   4.093   5.028   4.046
    3OL    H14R 7490   4.059   4.974   3.958
    3OL    H14S 7491   4.141   4.954   4.112
    3OL    C115 7492   4.199   5.132   4.006
    3OL    H15R 7493   4.292   5.080   3.980
    3OL    H15S 7494   4.221   5.198   4.090
    3OL    C116 7495   4.155   5.216   3.883
    3OL    H16R 7496   4.065   5.272   3.907
    3OL    H16S 7497   4.131   5.149   3.800
    3OL    C117 7498   4.266   5.313   3.840
    3OL    H17R 7499   4.357   5.258   3.817
    3OL    H17S 7500   4.289   5.382   3.922
    3OL    C118 7501   4.224   5.394   3.717
    3OL    H18R 7502   4.134   5.452   3.738
    3OL    H18S 7503   4.204   5.328   3.632
    3OL    H18T 7504   4.303   5.463   3.688
    1PA    C116 7505   3.584   1.020   4.128
    1PA    H16R 7506   3.478   1.047   4.122
    1PA    H16S 7507   3.595   0.917   4.093
    1PA    H16T 7508   3.640   1.086   4.061
    1PA    C115 7509   3.634   1.036   4.273
    1PA    H15R 7510   3.613   1.138   4.306
    1PA    H15S 7511   3.579   0.968   4.338
    1PA    C114 7512   3.785   1.009   4.286
    1PA    H14R 7513   3.840   1.070   4.214
    1PA    H14S 7514   3.817   1.041   4.386
    1PA    C113 7515   3.820   0.860   4.267
    1PA    H13R 7516   3.763   0.798   4.337
    1PA    H13S 7517   3.792   0.829   4.166
    1PA    C112 7518   3.971   0.833   4.285
    1PA    H12R 7519   3.995   0.736   4.240
    1PA    H12S 7520   4.029   0.909   4.233
    1PA    C111 7521   4.012   0.830   4.434
    1PA    H11R 7522   3.988   0.926   4.480
    1PA    H11S 7523   3.956   0.752   4.486
    1PA    C110 7524   4.163   0.803   4.448
    1PA    H10R 7525   4.188   0.708   4.400
    1PA    H10S 7526   4.220   0.881   4.399
    1PA     C19 7527   4.203   0.796   4.597
    1PA     H9R 7528   4.174   0.889   4.647
    1PA     H9S 7529   4.148   0.714   4.645
    1PA     C18 7530   4.354   0.773   4.614
    1PA     H8R 7531   4.382   0.684   4.557
    1PA     H8S 7532   4.411   0.857   4.573
    1PA     C17 7533   4.391   0.749   4.761
    1PA     H7R 7534   4.319   0.681   4.806
    1PA     H7S 7535   4.489   0.700   4.766
    1PA     C16 7536   4.397   0.878   4.845
    1PA     H6R 7537   4.478   0.942   4.808
    1PA     H6S 7538   4.304   0.934   4.835
    1PA     C15 7539   4.420   0.842   4.993
    1PA     H5R 7540   4.335   0.783   5.028
    1PA     H5S 7541   4.509   0.780   5.002
    1PA     C14 7542   4.436   0.966   5.082
    1PA     H4R 7543   4.528   1.019   5.056
    1PA     H4S 7544   4.353   1.035   5.065
    1PA     C13 7545   4.440   0.925   5.231
    1PA     H3R 7546   4.349   0.869   5.254
    1PA     H3S 7547   4.525   0.859   5.250
    1PA     C12 7548   4.447   1.047   5.325
    1PA     H2R 7549   4.378   1.124   5.291
    1PA     H2S 7550   4.415   1.018   5.425
    2PC     C11 7551   4.586   1.105   5.334
    2PC     O12 7552   4.632   1.182   5.252
    2PC     O11 7553   4.652   1.060   5.443
    2PC      C1 7554   4.781   1.119   5.477
    2PC      HR 7555   4.839   1.045   5.532
    2PC      HS 7556   4.836   1.146   5.387
    2PC      C2 7557   4.760   1.244   5.567
    2PC      HX 7558   4.858   1.286   5.593
    2PC      C3 7559   4.687   1.206   5.697
    2PC      HA 7560   4.585   1.173   5.676
    2PC      HB 7561   4.742   1.126   5.747
    2PC     O31 7562   4.684   1.323   5.783
    2PC     P31 7563   4.648   1.305   5.937
    2PC     O32 7564   4.491   1.281   5.930
    2PC     C31 7565   4.424   1.246   6.053
    2PC     H1A 7566   4.459   1.148   6.085
    2PC     H1B 7567   4.448   1.319   6.131
    2PC     C32 7568   4.271   1.241   6.029
    2PC     H2A 7569   4.251   1.180   5.940
    2PC     H2B 7570   4.223   1.193   6.114
    2PC     N31 7571   4.197   1.372   6.008
    2PC     C33 7572   4.209   1.460   6.129
    2PC     H3A 7573   4.315   1.484   6.144
    2PC     H3B 7574   4.152   1.551   6.111
    2PC     H3C 7575   4.169   1.406   6.215
    2PC     C34 7576   4.249   1.445   5.887
    2PC     H4A 7577   4.353   1.471   5.905
    2PC     H4B 7578   4.238   1.380   5.800
    2PC     H4C 7579   4.189   1.536   5.875
    2PC     C35 7580   4.051   1.342   5.986
    2PC     H5A 7581   4.042   1.273   5.902
    2PC     H5B 7582   4.000   1.437   5.963
    2PC     H5C 7583   4.010   1.298   6.077
    2PC     O33 7584   4.723   1.194   6.000
    2PC     O34 7585   4.684   1.429   6.008
    2PC     O21 7586   4.680   1.343   5.498
    2PC     C21 7587   4.737   1.421   5.404
    2PC     O22 7588   4.857   1.422   5.382
    3OL     C12 7589   4.636   1.507   5.333
    3OL     H2R 7590   4.567   1.547   5.408
    3OL     H2S 7591   4.577   1.442   5.267
    3OL     C13 7592   4.696   1.623   5.251
    3OL     H3R 7593   4.768   1.584   5.179
    3OL     H3S 7594   4.750   1.691   5.318
    3OL     C14 7595   4.583   1.699   5.178
    3OL     H4R 7596   4.509   1.731   5.252
    3OL     H4S 7597   4.532   1.630   5.110
    3OL     C15 7598   4.629   1.823   5.099
    3OL     H5R 7599   4.679   1.893   5.165
    3OL     H5S 7600   4.539   1.873   5.062
    3OL     C16 7601   4.720   1.788   4.979
    3OL     H6R 7602   4.685   1.697   4.930
    3OL     H6S 7603   4.822   1.770   5.015
    3OL     C17 7604   4.720   1.904   4.876
    3OL     H7R 7605   4.746   1.998   4.925
    3OL     H7S 7606   4.619   1.914   4.837
    3OL     C18 7607   4.817   1.877   4.760
    3OL     H8R 7608   4.807   1.773   4.728
    3OL     H8S 7609   4.920   1.890   4.793
    3OL     C19 7610   4.786   1.966   4.641
    3OL     H9R 7611   4.708   1.927   4.575
    3OL    C110 7612   4.847   2.079   4.608
    3OL    H10R 7613   4.816   2.131   4.517
    3OL    C111 7614   4.953   2.150   4.689
    3OL    H11R 7615   5.052   2.133   4.645
    3OL    H11S 7616   4.956   2.109   4.790
    3OL    C112 7617   4.928   2.302   4.700
    3OL    H12R 7618   4.970   2.336   4.795
    3OL    H12S 7619   4.821   2.322   4.703
    3OL    C113 7620   4.995   2.384   4.587
    3OL    H13R 7621   5.101   2.356   4.580
    3OL    H13S 7622   4.993   2.490   4.616
    3OL    C114 7623   4.926   2.368   4.450
    3OL    H14R 7624   4.820   2.394   4.461
    3OL    H14S 7625   4.932   2.265   4.416
    3OL    C115 7626   4.988   2.460   4.342
    3OL    H15R 7627   4.996   2.562   4.381
    3OL    H15S 7628   4.921   2.463   4.256
    3OL    C116 7629   5.126   2.410   4.296
    3OL    H16R 7630   5.117   2.308   4.259
    3OL    H16S 7631   5.196   2.410   4.380
    3OL    C117 7632   5.183   2.500   4.184
    3OL    H17R 7633   5.191   2.603   4.220
    3OL    H17S 7634   5.114   2.500   4.098
    3OL    C118 7635   5.321   2.451   4.138
    3OL    H18R 7636   5.360   2.515   4.059
    3OL    H18S 7637   5.314   2.349   4.099
    3OL    H18T 7638   5.391   2.452   4.221
    1PA    C116 7639   4.621   0.849   4.045
    1PA    H16R 7640   4.727   0.824   4.041
    1PA    H16S 7641   4.612   0.958   4.046
    1PA    H16T 7642   4.573   0.812   3.954
    1PA    C115 7643   4.555   0.790   4.170
    1PA    H15R 7644   4.604   0.830   4.259
    1PA    H15S 7645   4.450   0.819   4.173
    1PA    C114 7646   4.566   0.636   4.170
    1PA    H14R 7647   4.517   0.596   4.081
    1PA    H14S 7648   4.671   0.607   4.166
    1PA    C113 7649   4.500   0.577   4.296
    1PA    H13R 7650   4.549   0.617   4.386
    1PA    H13S 7651   4.396   0.609   4.299
    1PA    C112 7652   4.505   0.423   4.299
    1PA    H12R 7653   4.437   0.388   4.377
    1PA    H12S 7654   4.467   0.384   4.204
    1PA    C111 7655   4.647   0.369   4.325
    1PA    H11R 7656   4.711   0.394   4.241
    1PA    H11S 7657   4.689   0.417   4.414
    1PA    C110 7658   4.648   0.215   4.345
    1PA    H10R 7659   4.587   0.167   4.268
    1PA    H10S 7660   4.750   0.179   4.332
    1PA     C19 7661   4.599   0.176   4.485
    1PA     H9R 7662   4.662   0.226   4.560
    1PA     H9S 7663   4.497   0.209   4.500
    1PA     C18 7664   4.606   0.023   4.506
    1PA     H8R 7665   4.543   6.423   4.430
    1PA     H8S 7666   4.708   6.435   4.492
    1PA     C17 7667   4.553   6.429   4.645
    1PA     H7R 7668   4.456   0.029   4.662
    1PA     H7S 7669   4.537   6.321   4.646
    1PA     C16 7670   4.651   0.018   4.758
    1PA     H6R 7671   4.743   6.408   4.748
    1PA     H6S 7672   4.677   0.123   4.752
    1PA     C15 7673   4.586   6.438   4.895
    1PA     H5R 7674   4.490   0.042   4.900
    1PA     H5S 7675   4.566   6.332   4.907
    1PA     C14 7676   4.676   0.039   5.011
    1PA     H4R 7677   4.767   6.427   5.016
    1PA     H4S 7678   4.705   0.143   4.993
    1PA     C13 7679   4.599   0.031   5.144
    1PA     H3R 7680   4.508   0.091   5.136
    1PA     H3S 7681   4.570   6.376   5.165
    1PA     C12 7682   4.683   0.086   5.261
    1PA     H2R 7683   4.760   0.013   5.290
    1PA     H2S 7684   4.734   0.178   5.232
    2PC     C11 7685   4.594   0.115   5.379
    2PC     O12 7686   4.530   0.218   5.390
    2PC     O11 7687   4.594   0.016   5.470
    2PC      C1 7688   4.504   0.027   5.584
    2PC      HR 7689   4.513   0.127   5.628
    2PC      HS 7690   4.401   0.011   5.553
    2PC      C2 7691   4.546   6.371   5.690
    2PC      HX 7692   4.476   6.374   5.774
    2PC      C3 7693   4.687   6.405   5.739
    2PC      HA 7694   4.762   6.385   5.661
    2PC      HB 7695   4.690   0.063   5.765
    2PC     O31 7696   4.718   6.328   5.857
    2PC     P31 7697   4.835   6.378   5.953
    2PC     O32 7698   4.957   6.283   5.918
    2PC     C31 7699   5.074   6.302   5.999
    2PC     H1A 7700   5.108   6.406   5.989
    2PC     H1B 7701   5.047   6.282   6.103
    2PC     C32 7702   5.185   6.206   5.954
    2PC     H2A 7703   5.150   6.103   5.963
    2PC     H2B 7704   5.211   6.226   5.850
    2PC     N31 7705   5.314   6.215   6.034
    2PC     C33 7706   5.411   6.111   5.984
    2PC     H3A 7707   5.367   6.013   5.998
    2PC     H3B 7708   5.429   6.130   5.878
    2PC     H3C 7709   5.503   6.120   6.040
    2PC     C34 7710   5.378   6.350   6.019
    2PC     H4A 7711   5.394   6.370   5.912
    2PC     H4B 7712   5.311   6.426   6.061
    2PC     H4C 7713   5.473   6.351   6.072
    2PC     C35 7714   5.288   6.187   6.180
    2PC     H5A 7715   5.222   6.265   6.219
    2PC     H5B 7716   5.384   6.189   6.232
    2PC     H5C 7717   5.242   6.089   6.189
    2PC     O33 7718   4.870   0.072   5.933
    2PC     O34 7719   4.793   6.367   6.094
    2PC     O21 7720   4.544   6.240   5.626
    2PC     C21 7721   4.424   6.185   5.596
    2PC     O22 7722   4.318   6.223   5.641
    3OL     C12 7723   4.437   6.073   5.497
    3OL     H2R 7724   4.362   5.996   5.519
    3OL     H2S 7725   4.535   6.027   5.507
    3OL     C13 7726   4.418   6.125   5.353
    3OL     H3R 7727   4.485   6.211   5.337
    3OL     H3S 7728   4.316   6.160   5.339
    3OL     C14 7729   4.451   6.016   5.250
    3OL     H4R 7730   4.382   5.932   5.262
    3OL     H4S 7731   4.552   5.979   5.267
    3OL     C15 7732   4.439   6.069   5.106
    3OL     H5R 7733   4.501   6.159   5.096
    3OL     H5S 7734   4.336   6.097   5.085
    3OL     C16 7735   4.486   5.963   5.004
    3OL     H6R 7736   4.422   5.875   5.011
    3OL     H6S 7737   4.588   5.932   5.029
    3OL     C17 7738   4.482   6.019   4.861
    3OL     H7R 7739   4.535   6.115   4.857
    3OL     H7S 7740   4.379   6.037   4.831
    3OL     C18 7741   4.549   5.922   4.762
    3OL     H8R 7742   4.497   5.827   4.765
    3OL     H8S 7743   4.652   5.905   4.794
    3OL     C19 7744   4.551   5.980   4.622
    3OL     H9R 7745   4.600   6.077   4.612
    3OL    C110 7746   4.501   5.921   4.514
    3OL    H10R 7747   4.509   5.970   4.418
    3OL    C111 7748   4.431   5.787   4.514
    3OL    H11R 7749   4.356   5.784   4.593
    3OL    H11S 7750   4.504   5.708   4.534
    3OL    C112 7751   4.362   5.756   4.380
    3OL    H12R 7752   4.287   5.833   4.359
    3OL    H12S 7753   4.308   5.661   4.390
    3OL    C113 7754   4.462   5.746   4.263
    3OL    H13R 7755   4.538   5.672   4.289
    3OL    H13S 7756   4.512   5.842   4.247
    3OL    C114 7757   4.390   5.703   4.133
    3OL    H14R 7758   4.311   5.775   4.111
    3OL    H14S 7759   4.344   5.606   4.147
    3OL    C115 7760   4.485   5.696   4.011
    3OL    H15R 7761   4.528   5.795   3.992
    3OL    H15S 7762   4.426   5.669   3.923
    3OL    C116 7763   4.599   5.594   4.030
    3OL    H16R 7764   4.557   5.496   4.056
    3OL    H16S 7765   4.664   5.625   4.111
    3OL    C117 7766   4.684   5.581   3.902
    3OL    H17R 7767   4.719   5.679   3.870
    3OL    H17S 7768   4.622   5.540   3.821
    3OL    C118 7769   4.804   5.488   3.925
    3OL    H18R 7770   4.863   5.479   3.834
    3OL    H18S 7771   4.771   5.389   3.955
    3OL    H18T 7772   4.869   5.529   4.004
    1PA    C116 7773   4.063   1.612   3.763
    1PA    H16R 7774   3.967   1.638   3.720
    1PA    H16S 7775   4.105   1.528   3.707
    1PA    H16T 7776   4.130   1.698   3.752
    1PA    C115 7777   4.046   1.574   3.911
    1PA    H15R 7778   4.006   1.659   3.966
    1PA    H15S 7779   3.973   1.493   3.919
    1PA    C114 7780   4.177   1.528   3.978
    1PA    H14R 7781   4.154   1.495   4.079
    1PA    H14S 7782   4.217   1.441   3.924
    1PA    C113 7783   4.286   1.637   3.983
    1PA    H13R 7784   4.326   1.652   3.882
    1PA    H13S 7785   4.243   1.733   4.014
    1PA    C112 7786   4.402   1.598   4.077
    1PA    H12R 7787   4.429   1.493   4.062
    1PA    H12S 7788   4.490   1.659   4.053
    1PA    C111 7789   4.364   1.623   4.224
    1PA    H11R 7790   4.348   1.730   4.239
    1PA    H11S 7791   4.269   1.573   4.247
    1PA    C110 7792   4.471   1.572   4.323
    1PA    H10R 7793   4.483   1.464   4.309
    1PA    H10S 7794   4.568   1.619   4.303
    1PA     C19 7795   4.427   1.600   4.468
    1PA     H9R 7796   4.320   1.582   4.478
    1PA     H9S 7797   4.478   1.529   4.535
    1PA     C18 7798   4.462   1.744   4.513
    1PA     H8R 7799   4.569   1.749   4.536
    1PA     H8S 7800   4.443   1.813   4.430
    1PA     C17 7801   4.379   1.790   4.634
    1PA     H7R 7802   4.410   1.891   4.661
    1PA     H7S 7803   4.274   1.796   4.604
    1PA     C16 7804   4.392   1.698   4.757
    1PA     H6R 7805   4.361   1.596   4.733
    1PA     H6S 7806   4.497   1.693   4.787
    1PA     C15 7807   4.309   1.749   4.877
    1PA     H5R 7808   4.339   1.695   4.967
    1PA     H5S 7809   4.332   1.855   4.894
    1PA     C14 7810   4.158   1.729   4.855
    1PA     H4R 7811   4.125   1.779   4.764
    1PA     H4S 7812   4.138   1.622   4.841
    1PA     C13 7813   4.073   1.780   4.973
    1PA     H3R 7814   3.971   1.743   4.961
    1PA     H3S 7815   4.111   1.739   5.067
    1PA     C12 7816   4.069   1.934   4.979
    1PA     H2R 7817   4.169   1.972   5.002
    1PA     H2S 7818   4.039   1.975   4.883
    2PC     C11 7819   3.974   1.985   5.084
    2PC     O12 7820   3.865   1.936   5.106
    2PC     O11 7821   4.023   2.090   5.151
    2PC      C1 7822   3.940   2.155   5.251
    2PC      HR 7823   3.853   2.202   5.203
    2PC      HS 7824   3.904   2.080   5.323
    2PC      C2 7825   4.026   2.259   5.324
    2PC      HX 7826   4.113   2.211   5.369
    2PC      C3 7827   3.948   2.331   5.436
    2PC      HA 7828   3.880   2.405   5.393
    2PC      HB 7829   3.890   2.259   5.495
    2PC     O31 7830   4.046   2.394   5.520
    2PC     P31 7831   4.000   2.465   5.655
    2PC     O32 7832   3.990   2.340   5.752
    2PC     C31 7833   4.101   2.316   5.840
    2PC     H1A 7834   4.190   2.293   5.780
    2PC     H1B 7835   4.121   2.405   5.901
    2PC     C32 7836   4.068   2.195   5.931
    2PC     H2A 7837   4.048   2.108   5.869
    2PC     H2B 7838   4.155   2.173   5.993
    2PC     N31 7839   3.951   2.209   6.027
    2PC     C33 7840   3.960   2.335   6.108
    2PC     H3A 7841   3.877   2.336   6.178
    2PC     H3B 7842   4.055   2.336   6.161
    2PC     H3C 7843   3.952   2.421   6.040
    2PC     C34 7844   3.820   2.207   5.954
    2PC     H4A 7845   3.739   2.211   6.028
    2PC     H4B 7846   3.815   2.293   5.887
    2PC     H4C 7847   3.813   2.114   5.897
    2PC     C35 7848   3.954   2.092   6.121
    2PC     H5A 7849   4.047   2.096   6.178
    2PC     H5B 7850   3.948   2.000   6.062
    2PC     H5C 7851   3.868   2.100   6.187
    2PC     O33 7852   4.099   2.566   5.699
    2PC     O34 7853   3.872   2.538   5.641
    2PC     O21 7854   4.067   2.361   5.229
    2PC     C21 7855   4.180   2.342   5.159
    2PC     O22 7856   4.260   2.252   5.179
    3OL     C12 7857   4.199   2.450   5.055
    3OL     H2R 7858   4.291   2.504   5.077
    3OL     H2S 7859   4.118   2.522   5.064
    3OL     C13 7860   4.204   2.395   4.911
    3OL     H3R 7861   4.288   2.326   4.901
    3OL     H3S 7862   4.222   2.478   4.843
    3OL     C14 7863   4.074   2.321   4.872
    3OL     H4R 7864   3.986   2.379   4.901
    3OL     H4S 7865   4.069   2.226   4.926
    3OL     C15 7866   4.068   2.293   4.720
    3OL     H5R 7867   3.995   2.214   4.702
    3OL     H5S 7868   4.165   2.256   4.685
    3OL     C16 7869   4.026   2.419   4.642
    3OL     H6R 7870   4.097   2.499   4.662
    3OL     H6S 7871   3.928   2.453   4.676
    3OL     C17 7872   4.022   2.396   4.489
    3OL     H7R 7873   4.119   2.358   4.454
    3OL     H7S 7874   4.007   2.494   4.442
    3OL     C18 7875   3.909   2.302   4.445
    3OL     H8R 7876   3.817   2.332   4.495
    3OL     H8S 7877   3.933   2.200   4.476
    3OL     C19 7878   3.889   2.309   4.295
    3OL     H9R 7879   3.939   2.391   4.245
    3OL    C110 7880   3.816   2.224   4.223
    3OL    H10R 7881   3.808   2.238   4.115
    3OL    C111 7882   3.741   2.104   4.278
    3OL    H11R 7883   3.766   2.089   4.383
    3OL    H11S 7884   3.771   2.014   4.224
    3OL    C112 7885   3.589   2.122   4.264
    3OL    H12R 7886   3.561   2.119   4.159
    3OL    H12S 7887   3.560   2.220   4.304
    3OL    C113 7888   3.514   2.012   4.342
    3OL    H13R 7889   3.540   2.019   4.448
    3OL    H13S 7890   3.547   1.913   4.307
    3OL    C114 7891   3.362   2.025   4.325
    3OL    H14R 7892   3.338   2.010   4.219
    3OL    H14S 7893   3.329   2.126   4.351
    3OL    C115 7894   3.285   1.921   4.408
    3OL    H15R 7895   3.332   1.823   4.399
    3OL    H15S 7896   3.184   1.912   4.369
    3OL    C116 7897   3.276   1.962   4.557
    3OL    H16R 7898   3.227   2.060   4.565
    3OL    H16S 7899   3.376   1.972   4.599
    3OL    C117 7900   3.197   1.858   4.638
    3OL    H17R 7901   3.248   1.762   4.634
    3OL    H17S 7902   3.098   1.845   4.594
    3OL    C118 7903   3.183   1.902   4.785
    3OL    H18R 7904   3.281   1.912   4.832
    3OL    H18S 7905   3.125   1.827   4.841
    3OL    H18T 7906   3.130   1.997   4.792
    1PA    C116 7907   2.850   5.727   4.018
    1PA    H16R 7908   2.801   5.640   4.062
    1PA    H16S 7909   2.907   5.694   3.930
    1PA    H16T 7910   2.773   5.797   3.984
    1PA    C115 7911   2.944   5.794   4.119
    1PA    H15R 7912   3.021   5.723   4.150
    1PA    H15S 7913   2.994   5.879   4.071
    1PA    C114 7914   2.866   5.844   4.243
    1PA    H14R 7915   2.789   5.914   4.210
    1PA    H14S 7916   2.816   5.759   4.291
    1PA    C113 7917   2.961   5.912   4.344
    1PA    H13R 7918   3.036   5.839   4.377
    1PA    H13S 7919   3.014   5.994   4.295
    1PA    C112 7920   2.886   5.965   4.468
    1PA    H12R 7921   2.826   5.885   4.512
    1PA    H12S 7922   2.959   5.996   4.543
    1PA    C111 7923   2.796   6.086   4.433
    1PA    H11R 7924   2.856   6.164   4.385
    1PA    H11S 7925   2.720   6.054   4.361
    1PA    C110 7926   2.723   6.143   4.556
    1PA    H10R 7927   2.636   6.199   4.522
    1PA    H10S 7928   2.687   6.061   4.618
    1PA     C19 7929   2.814   6.238   4.637
    1PA     H9R 7930   2.902   6.185   4.674
    1PA     H9S 7931   2.849   6.318   4.571
    1PA     C18 7932   2.736   6.301   4.754
    1PA     H8R 7933   2.792   6.388   4.790
    1PA     H8S 7934   2.639   6.337   4.720
    1PA     C17 7935   2.718   6.202   4.871
    1PA     H7R 7936   2.674   6.109   4.834
    1PA     H7S 7937   2.816   6.176   4.912
    1PA     C16 7938   2.627   6.258   4.983
    1PA     H6R 7939   2.526   6.272   4.943
    1PA     H6S 7940   2.619   6.183   5.062
    1PA     C15 7941   2.675   6.390   5.045
    1PA     H5R 7942   2.672   0.022   4.971
    1PA     H5S 7943   2.606   6.418   5.124
    1PA     C14 7944   2.818   6.378   5.103
    1PA     H4R 7945   2.824   6.292   5.170
    1PA     H4S 7946   2.889   6.361   5.022
    1PA     C13 7947   2.862   0.057   5.179
    1PA     H3R 7948   2.969   0.051   5.196
    1PA     H3S 7949   2.843   0.145   5.118
    1PA     C12 7950   2.790   0.069   5.315
    1PA     H2R 7951   2.684   0.085   5.299
    1PA     H2S 7952   2.802   6.423   5.371
    2PC     C11 7953   2.843   0.182   5.400
    2PC     O12 7954   2.845   0.177   5.521
    2PC     O11 7955   2.880   0.290   5.328
    2PC      C1 7956   2.927   0.408   5.399
    2PC      HR 7957   2.933   0.491   5.329
    2PC      HS 7958   2.856   0.434   5.478
    2PC      C2 7959   3.067   0.383   5.460
    2PC      HX 7960   3.066   0.294   5.525
    2PC      C3 7961   3.115   0.502   5.545
    2PC      HA 7962   3.064   0.500   5.642
    2PC      HB 7963   3.223   0.494   5.562
    2PC     O31 7964   3.085   0.627   5.479
    2PC     P31 7965   3.132   0.762   5.548
    2PC     O32 7966   3.062   0.868   5.453
    2PC     C31 7967   2.919   0.877   5.457
    2PC     H1A 7968   2.877   0.777   5.447
    2PC     H1B 7969   2.889   0.919   5.552
    2PC     C32 7970   2.868   0.965   5.341
    2PC     H2A 7971   2.897   0.919   5.246
    2PC     H2B 7972   2.760   0.968   5.346
    2PC     N31 7973   2.913   1.109   5.335
    2PC     C33 7974   2.824   1.181   5.238
    2PC     H3A 7975   2.831   1.133   5.141
    2PC     H3B 7976   2.722   1.177   5.276
    2PC     H3C 7977   2.857   1.285   5.233
    2PC     C34 7978   2.901   1.177   5.467
    2PC     H4A 7979   2.932   1.282   5.455
    2PC     H4B 7980   2.797   1.173   5.499
    2PC     H4C 7981   2.966   1.127   5.539
    2PC     C35 7982   3.055   1.119   5.286
    2PC     H5A 7983   3.120   1.070   5.359
    2PC     H5B 7984   3.082   1.225   5.278
    2PC     H5C 7985   3.062   1.070   5.189
    2PC     O33 7986   3.091   0.774   5.690
    2PC     O34 7987   3.279   0.779   5.550
    2PC     O21 7988   3.162   0.365   5.352
    2PC     C21 7989   3.192   0.241   5.310
    2PC     O22 7990   3.157   0.138   5.366
    3OL     C12 7991   3.277   0.242   5.185
    3OL     H2R 7992   3.379   0.217   5.212
    3OL     H2S 7993   3.278   0.344   5.145
    3OL     C13 7994   3.223   0.145   5.078
    3OL     H3R 7995   3.123   0.176   5.048
    3OL     H3S 7996   3.216   0.045   5.120
    3OL     C14 7997   3.316   0.143   4.955
    3OL     H4R 7998   3.415   0.107   4.984
    3OL     H4S 7999   3.328   0.245   4.918
    3OL     C15 8000   3.262   0.056   4.839
    3OL     H5R 8001   3.328   0.069   4.753
    3OL     H5S 8002   3.163   0.091   4.810
    3OL     C16 8003   3.254   6.354   4.875
    3OL     H6R 8004   3.177   6.338   4.950
    3OL     H6S 8005   3.349   6.323   4.918
    3OL     C17 8006   3.223   6.270   4.750
    3OL     H7R 8007   3.304   6.282   4.677
    3OL     H7S 8008   3.131   6.307   4.703
    3OL     C18 8009   3.206   6.120   4.782
    3OL     H8R 8010   3.187   6.066   4.690
    3OL     H8S 8011   3.116   6.108   4.844
    3OL     C19 8012   3.325   6.063   4.857
    3OL     H9R 8013   3.329   6.088   4.963
    3OL    C110 8014   3.417   5.982   4.806
    3OL    H10R 8015   3.495   5.944   4.872
    3OL    C111 8016   3.429   5.939   4.662
    3OL    H11R 8017   3.535   5.934   4.636
    3OL    H11S 8018   3.383   6.012   4.595
    3OL    C112 8019   3.365   5.800   4.641
    3OL    H12R 8020   3.256   5.811   4.649
    3OL    H12S 8021   3.396   5.732   4.720
    3OL    C113 8022   3.399   5.739   4.504
    3OL    H13R 8023   3.391   5.815   4.425
    3OL    H13S 8024   3.326   5.661   4.481
    3OL    C114 8025   3.540   5.676   4.504
    3OL    H14R 8026   3.548   5.606   4.587
    3OL    H14S 8027   3.615   5.754   4.519
    3OL    C115 8028   3.568   5.603   4.371
    3OL    H15R 8029   3.565   5.676   4.289
    3OL    H15S 8030   3.491   5.529   4.351
    3OL    C116 8031   3.707   5.535   4.371
    3OL    H16R 8032   3.782   5.605   4.409
    3OL    H16S 8033   3.734   5.510   4.268
    3OL    C117 8034   3.709   5.406   4.456
    3OL    H17R 8035   3.635   5.336   4.417
    3OL    H17S 8036   3.683   5.428   4.559
    3OL    C118 8037   3.848   5.341   4.452
    3OL    H18R 8038   3.875   5.314   4.350
    3OL    H18S 8039   3.848   5.250   4.512
    3OL    H18T 8040   3.924   5.409   4.492
    1PA    C116 8041   2.019   5.493   3.465
    1PA    H16R 8042   2.081   5.576   3.431
    1PA    H16S 8043   1.952   5.465   3.384
    1PA    H16T 8044   2.083   5.408   3.488
    1PA    C115 8045   1.938   5.534   3.589
    1PA    H15R 8046   1.875   5.620   3.566
    1PA    H15S 8047   1.872   5.452   3.619
    1PA    C114 8048   2.033   5.569   3.705
    1PA    H14R 8049   2.098   5.484   3.726
    1PA    H14S 8050   2.096   5.653   3.677
    1PA    C113 8051   1.954   5.605   3.832
    1PA    H13R 8052   1.890   5.691   3.812
    1PA    H13S 8053   1.888   5.521   3.860
    1PA    C112 8054   2.049   5.637   3.949
    1PA    H12R 8055   2.112   5.550   3.970
    1PA    H12S 8056   2.114   5.720   3.922
    1PA    C111 8057   1.968   5.672   4.075
    1PA    H11R 8058   1.901   5.756   4.053
    1PA    H11S 8059   1.906   5.587   4.103
    1PA    C110 8060   2.060   5.711   4.192
    1PA    H10R 8061   2.130   5.630   4.213
    1PA    H10S 8062   2.118   5.800   4.166
    1PA     C19 8063   1.975   5.739   4.317
    1PA     H9R 8064   1.902   5.816   4.294
    1PA     H9S 8065   1.921   5.648   4.344
    1PA     C18 8066   2.061   5.785   4.436
    1PA     H8R 8067   2.136   5.710   4.460
    1PA     H8S 8068   2.113   5.877   4.410
    1PA     C17 8069   1.970   5.809   4.558
    1PA     H7R 8070   1.889   5.877   4.529
    1PA     H7S 8071   1.924   5.715   4.588
    1PA     C16 8072   2.046   5.870   4.676
    1PA     H6R 8073   2.125   5.802   4.709
    1PA     H6S 8074   2.092   5.964   4.645
    1PA     C15 8075   1.949   5.897   4.792
    1PA     H5R 8076   1.865   5.956   4.756
    1PA     H5S 8077   1.909   5.802   4.829
    1PA     C14 8078   2.018   5.972   4.907
    1PA     H4R 8079   2.100   5.912   4.946
    1PA     H4S 8080   2.060   6.066   4.869
    1PA     C13 8081   1.917   6.002   5.019
    1PA     H3R 8082   1.831   6.056   4.978
    1PA     H3S 8083   1.880   5.907   5.060
    1PA     C12 8084   1.981   6.085   5.131
    1PA     H2R 8085   2.066   6.031   5.173
    1PA     H2S 8086   2.018   6.180   5.091
    2PC     C11 8087   1.882   6.112   5.240
    2PC     O12 8088   1.834   6.222   5.261
    2PC     O11 8089   1.849   6.001   5.309
    2PC      C1 8090   1.783   6.013   5.438
    2PC      HR 8091   1.784   5.915   5.487
    2PC      HS 8092   1.840   6.083   5.500
    2PC      C2 8093   1.637   6.062   5.427
    2PC      HX 8094   1.630   6.144   5.355
    2PC      C3 8095   1.588   6.109   5.565
    2PC      HA 8096   1.635   6.204   5.592
    2PC      HB 8097   1.479   6.123   5.564
    2PC     O31 8098   1.623   6.009   5.664
    2PC     P31 8099   1.565   6.023   5.811
    2PC     O32 8100   1.467   5.898   5.816
    2PC     C31 8101   1.332   5.918   5.862
    2PC     H1A 8102   1.286   5.998   5.803
    2PC     H1B 8103   1.276   5.826   5.846
    2PC     C32 8104   1.333   5.954   6.012
    2PC     H2A 8105   1.368   5.868   6.069
    2PC     H2B 8106   1.403   6.037   6.030
    2PC     N31 8107   1.202   5.997   6.073
    2PC     C33 8108   1.093   5.898   6.044
    2PC     H3A 8109   1.005   5.926   6.101
    2PC     H3B 8110   1.071   5.899   5.937
    2PC     H3C 8111   1.128   5.799   6.075
    2PC     C34 8112   1.221   6.007   6.222
    2PC     H4A 8113   1.303   6.077   6.241
    2PC     H4B 8114   1.128   6.044   6.266
    2PC     H4C 8115   1.246   5.908   6.260
    2PC     C35 8116   1.161   6.132   6.022
    2PC     H5A 8117   1.145   6.125   5.914
    2PC     H5B 8118   1.240   6.204   6.045
    2PC     H5C 8119   1.067   6.161   6.070
    2PC     O33 8120   1.666   6.019   5.919
    2PC     O34 8121   1.490   6.149   5.830
    2PC     O21 8122   1.553   5.951   5.385
    2PC     C21 8123   1.429   5.979   5.339
    2PC     O22 8124   1.394   6.091   5.308
    3OL     C12 8125   1.344   5.855   5.331
    3OL     H2R 8126   1.300   5.836   5.429
    3OL     H2S 8127   1.409   5.771   5.308
    3OL     C13 8128   1.233   5.861   5.223
    3OL     H3R 8129   1.193   5.761   5.210
    3OL     H3S 8130   1.277   5.891   5.128
    3OL     C14 8131   1.117   5.956   5.260
    3OL     H4R 8132   1.150   6.060   5.259
    3OL     H4S 8133   1.083   5.934   5.361
    3OL     C15 8134   0.996   5.941   5.164
    3OL     H5R 8135   0.915   6.004   5.200
    3OL     H5S 8136   0.961   5.837   5.167
    3OL     C16 8137   1.030   5.980   5.019
    3OL     H6R 8138   1.110   5.916   4.981
    3OL     H6S 8139   1.066   6.083   5.017
    3OL     C17 8140   0.906   5.965   4.928
    3OL     H7R 8141   0.827   6.033   4.962
    3OL     H7S 8142   0.868   5.863   4.936
    3OL     C18 8143   0.939   5.995   4.780
    3OL     H8R 8144   0.851   5.971   4.720
    3OL     H8S 8145   1.019   5.928   4.748
    3OL     C19 8146   0.982   6.138   4.758
    3OL     H9R 8147   1.027   6.187   4.843
    3OL    C110 8148   0.970   6.206   4.644
    3OL    H10R 8149   1.005   6.309   4.640
    3OL    C111 8150   0.909   6.154   4.515
    3OL    H11R 8151   0.860   6.237   4.464
    3OL    H11S 8152   0.832   6.080   4.535
    3OL    C112 8153   1.015   6.094   4.420
    3OL    H12R 8154   0.968   6.069   4.325
    3OL    H12S 8155   1.054   6.002   4.463
    3OL    C113 8156   1.133   6.191   4.395
    3OL    H13R 8157   1.186   6.210   4.489
    3OL    H13S 8158   1.093   6.287   4.360
    3OL    C114 8159   1.232   6.136   4.292
    3OL    H14R 8160   1.179   6.117   4.198
    3OL    H14S 8161   1.274   6.041   4.327
    3OL    C115 8162   1.345   6.238   4.269
    3OL    H15R 8163   1.398   6.253   4.363
    3OL    H15S 8164   1.302   6.333   4.240
    3OL    C116 8165   1.447   6.194   4.162
    3OL    H16R 8166   1.482   6.092   4.183
    3OL    H16S 8167   1.534   6.260   4.168
    3OL    C117 8168   1.388   6.201   4.020
    3OL    H17R 8169   1.343   6.299   4.003
    3OL    H17S 8170   1.309   6.126   4.008
    3OL    C118 8171   1.497   6.177   3.913
    3OL    H18R 8172   1.452   6.175   3.814
    3OL    H18S 8173   1.548   6.082   3.931
    3OL    H18T 8174   1.570   6.257   3.916
    1PA    C116 8175   5.138   0.739   4.148
    1PA    H16R 8176   5.214   0.726   4.070
    1PA    H16S 8177   5.057   0.668   4.130
    1PA    H16T 8178   5.184   0.716   4.244
    1PA    C115 8179   5.086   0.884   4.146
    1PA    H15R 8180   5.169   0.953   4.161
    1PA    H15S 8181   5.042   0.905   4.048
    1PA    C114 8182   4.979   0.905   4.256
    1PA    H14R 8183   4.895   0.837   4.239
    1PA    H14S 8184   5.023   0.882   4.353
    1PA    C113 8185   4.929   1.051   4.255
    1PA    H13R 8186   5.014   1.118   4.271
    1PA    H13S 8187   4.885   1.074   4.158
    1PA    C112 8188   4.823   1.074   4.366
    1PA    H12R 8189   4.739   1.007   4.347
    1PA    H12S 8190   4.864   1.047   4.463
    1PA    C111 8191   4.772   1.219   4.367
    1PA    H11R 8192   4.752   1.251   4.264
    1PA    H11S 8193   4.676   1.224   4.418
    1PA    C110 8194   4.871   1.319   4.431
    1PA    H10R 8195   4.970   1.308   4.385
    1PA    H10S 8196   4.838   1.421   4.408
    1PA     C19 8197   4.885   1.306   4.585
    1PA     H9R 8198   4.922   1.207   4.613
    1PA     H9S 8199   4.961   1.378   4.617
    1PA     C18 8200   4.754   1.339   4.660
    1PA     H8R 8201   4.778   1.394   4.752
    1PA     H8S 8202   4.692   1.405   4.599
    1PA     C17 8203   4.676   1.211   4.699
    1PA     H7R 8204   4.673   1.143   4.615
    1PA     H7S 8205   4.727   1.159   4.780
    1PA     C16 8206   4.531   1.244   4.740
    1PA     H6R 8207   4.490   1.319   4.671
    1PA     H6S 8208   4.470   1.154   4.728
    1PA     C15 8209   4.519   1.294   4.885
    1PA     H5R 8210   4.558   1.218   4.953
    1PA     H5S 8211   4.577   1.385   4.899
    1PA     C14 8212   4.370   1.322   4.917
    1PA     H4R 8213   4.335   1.404   4.854
    1PA     H4S 8214   4.311   1.233   4.893
    1PA     C13 8215   4.349   1.357   5.065
    1PA     H3R 8216   4.382   1.274   5.126
    1PA     H3S 8217   4.409   1.444   5.091
    1PA     C12 8218   4.200   1.388   5.091
    1PA     H2R 8219   4.172   1.478   5.037
    1PA     H2S 8220   4.140   1.305   5.053
    2PC     C11 8221   4.166   1.405   5.237
    2PC     O12 8222   4.081   1.483   5.276
    2PC     O11 8223   4.234   1.322   5.318
    2PC      C1 8224   4.193   1.308   5.457
    2PC      HR 8225   4.270   1.254   5.512
    2PC      HS 8226   4.181   1.408   5.501
    2PC      C2 8227   4.061   1.229   5.464
    2PC      HX 8228   3.988   1.273   5.395
    2PC      C3 8229   4.004   1.233   5.608
    2PC      HA 8230   3.981   1.337   5.634
    2PC      HB 8231   3.911   1.175   5.616
    2PC     O31 8232   4.102   1.184   5.703
    2PC     P31 8233   4.103   1.030   5.744
    2PC     O32 8234   4.245   0.985   5.687
    2PC     C31 8235   4.346   0.949   5.782
    2PC     H1A 8236   4.370   1.036   5.843
    2PC     H1B 8237   4.310   0.869   5.846
    2PC     C32 8238   4.472   0.905   5.705
    2PC     H2A 8239   4.492   0.977   5.625
    2PC     H2B 8240   4.557   0.906   5.773
    2PC     N31 8241   4.473   0.768   5.641
    2PC     C33 8242   4.360   0.751   5.544
    2PC     H3A 8243   4.266   0.758   5.599
    2PC     H3B 8244   4.365   0.830   5.469
    2PC     H3C 8245   4.369   0.653   5.498
    2PC     C34 8246   4.602   0.754   5.568
    2PC     H4A 8247   4.683   0.765   5.641
    2PC     H4B 8248   4.606   0.655   5.523
    2PC     H4C 8249   4.610   0.831   5.492
    2PC     C35 8250   4.465   0.660   5.745
    2PC     H5A 8251   4.477   0.564   5.695
    2PC     H5B 8252   4.369   0.666   5.795
    2PC     H5C 8253   4.546   0.675   5.817
    2PC     O33 8254   4.092   1.019   5.891
    2PC     O34 8255   3.995   0.946   5.689
    2PC     O21 8256   4.088   1.092   5.424
    2PC     C21 8257   3.986   1.006   5.403
    2PC     O22 8258   3.867   1.033   5.416
    3OL     C12 8259   4.034   0.870   5.362
    3OL     H2R 8260   3.991   0.795   5.428
    3OL     H2S 8261   4.142   0.866   5.373
    3OL     C13 8262   3.996   0.838   5.215
    3OL     H3R 8263   3.888   0.831   5.207
    3OL     H3S 8264   4.038   0.741   5.189
    3OL     C14 8265   4.049   0.946   5.118
    3OL     H4R 8266   4.155   0.962   5.139
    3OL     H4S 8267   3.998   1.041   5.135
    3OL     C15 8268   4.035   0.904   4.971
    3OL     H5R 8269   4.072   0.802   4.958
    3OL     H5S 8270   4.097   0.969   4.910
    3OL     C16 8271   3.890   0.915   4.919
    3OL     H6R 8272   3.857   1.019   4.925
    3OL     H6S 8273   3.823   0.855   4.981
    3OL     C17 8274   3.883   0.865   4.773
    3OL     H7R 8275   3.908   0.759   4.771
    3OL     H7S 8276   3.958   0.918   4.714
    3OL     C18 8277   3.745   0.886   4.710
    3OL     H8R 8278   3.667   0.846   4.775
    3OL     H8S 8279   3.741   0.829   4.617
    3OL     C19 8280   3.721   1.032   4.676
    3OL     H9R 8281   3.794   1.075   4.608
    3OL    C110 8282   3.620   1.108   4.717
    3OL    H10R 8283   3.614   1.211   4.682
    3OL    C111 8284   3.510   1.068   4.814
    3OL    H11R 8285   3.490   1.152   4.880
    3OL    H11S 8286   3.542   0.985   4.877
    3OL    C112 8287   3.380   1.032   4.739
    3OL    H12R 8288   3.358   1.110   4.666
    3OL    H12S 8289   3.297   1.031   4.811
    3OL    C113 8290   3.389   0.894   4.671
    3OL    H13R 8291   3.398   0.817   4.748
    3OL    H13S 8292   3.479   0.888   4.609
    3OL    C114 8293   3.265   0.863   4.585
    3OL    H14R 8294   3.174   0.891   4.637
    3OL    H14S 8295   3.261   0.755   4.568
    3OL    C115 8296   3.273   0.934   4.448
    3OL    H15R 8297   3.367   0.906   4.399
    3OL    H15S 8298   3.274   1.042   4.462
    3OL    C116 8299   3.155   0.895   4.357
    3OL    H16R 8300   3.061   0.925   4.404
    3OL    H16S 8301   3.154   0.787   4.345
    3OL    C117 8302   3.168   0.963   4.219
    3OL    H17R 8303   3.266   0.941   4.176
    3OL    H17S 8304   3.161   1.071   4.231
    3OL    C118 8305   3.058   0.914   4.124
    3OL    H18R 8306   3.070   0.808   4.104
    3OL    H18S 8307   3.063   0.969   4.030
    3OL    H18T 8308   2.960   0.930   4.169
    1PA    C116 8309   3.374   6.437   3.688
    1PA    H16R 8310   3.409   6.350   3.633
    1PA    H16S 8311   3.427   6.440   3.784
    1PA    H16T 8312   3.400   0.078   3.631
    1PA    C115 8313   3.222   6.429   3.710
    1PA    H15R 8314   3.174   6.411   3.614
    1PA    H15S 8315   3.199   6.344   3.775
    1PA    C114 8316   3.164   0.111   3.770
    1PA    H14R 8317   3.199   0.197   3.714
    1PA    H14S 8318   3.055   0.107   3.759
    1PA    C113 8319   3.199   0.128   3.920
    1PA    H13R 8320   3.169   0.038   3.975
    1PA    H13S 8321   3.307   0.138   3.931
    1PA    C112 8322   3.130   0.251   3.983
    1PA    H12R 8323   3.170   0.265   4.084
    1PA    H12S 8324   3.155   0.341   3.926
    1PA    C111 8325   2.977   0.234   3.992
    1PA    H11R 8326   2.933   0.245   3.892
    1PA    H11S 8327   2.954   0.133   4.027
    1PA    C110 8328   2.910   0.334   4.088
    1PA    H10R 8329   2.804   0.310   4.095
    1PA    H10S 8330   2.953   0.320   4.188
    1PA     C19 8331   2.925   0.481   4.045
    1PA     H9R 8332   3.030   0.511   4.048
    1PA     H9S 8333   2.890   0.492   3.942
    1PA     C18 8334   2.842   0.577   4.135
    1PA     H8R 8335   2.847   0.678   4.093
    1PA     H8S 8336   2.737   0.546   4.133
    1PA     C17 8337   2.892   0.581   4.281
    1PA     H7R 8338   2.888   0.481   4.324
    1PA     H7S 8339   2.996   0.615   4.284
    1PA     C16 8340   2.804   0.675   4.366
    1PA     H6R 8341   2.811   0.777   4.328
    1PA     H6S 8342   2.700   0.643   4.359
    1PA     C15 8343   2.847   0.673   4.514
    1PA     H5R 8344   2.847   0.570   4.551
    1PA     H5S 8345   2.949   0.711   4.524
    1PA     C14 8346   2.751   0.757   4.601
    1PA     H4R 8347   2.753   0.861   4.567
    1PA     H4S 8348   2.649   0.720   4.588
    1PA     C13 8349   2.789   0.750   4.750
    1PA     H3R 8350   2.794   0.646   4.782
    1PA     H3S 8351   2.889   0.794   4.765
    1PA     C12 8352   2.687   0.824   4.838
    1PA     H2R 8353   2.683   0.930   4.811
    1PA     H2S 8354   2.587   0.783   4.821
    2PC     C11 8355   2.720   0.812   4.984
    2PC     O12 8356   2.814   0.870   5.037
    2PC     O11 8357   2.636   0.731   5.050
    2PC      C1 8358   2.651   0.717   5.194
    2PC      HR 8359   2.751   0.677   5.218
    2PC      HS 8360   2.639   0.814   5.241
    2PC      C2 8361   2.544   0.620   5.246
    2PC      HX 8362   2.446   0.649   5.205
    2PC      C3 8363   2.531   0.621   5.400
    2PC      HA 8364   2.466   0.703   5.429
    2PC      HB 8365   2.486   0.527   5.432
    2PC     O31 8366   2.658   0.638   5.467
    2PC     P31 8367   2.654   0.655   5.626
    2PC     O32 8368   2.745   0.532   5.671
    2PC     C31 8369   2.815   0.539   5.797
    2PC     H1A 8370   2.887   0.457   5.802
    2PC     H1B 8371   2.871   0.633   5.802
    2PC     C32 8372   2.716   0.531   5.916
    2PC     H2A 8373   2.769   0.557   6.008
    2PC     H2B 8374   2.636   0.603   5.902
    2PC     N31 8375   2.650   0.397   5.943
    2PC     C33 8376   2.569   0.351   5.826
    2PC     H3A 8377   2.635   0.338   5.740
    2PC     H3B 8378   2.521   0.256   5.851
    2PC     H3C 8379   2.494   0.428   5.804
    2PC     C34 8380   2.753   0.293   5.976
    2PC     H4A 8381   2.702   0.200   6.000
    2PC     H4B 8382   2.818   0.279   5.889
    2PC     H4C 8383   2.811   0.327   6.062
    2PC     C35 8384   2.559   0.412   6.062
    2PC     H5A 8385   2.515   0.314   6.084
    2PC     H5B 8386   2.481   0.484   6.037
    2PC     H5C 8387   2.617   0.448   6.146
    2PC     O33 8388   2.708   0.786   5.668
    2PC     O34 8389   2.517   0.646   5.682
    2PC     O21 8390   2.579   0.486   5.204
    2PC     C21 8391   2.516   0.434   5.096
    2PC     O22 8392   2.417   0.481   5.043
    3OL     C12 8393   2.583   0.308   5.047
    3OL     H2R 8394   2.507   0.238   5.013
    3OL     H2S 8395   2.635   0.262   5.131
    3OL     C13 8396   2.684   0.339   4.934
    3OL     H3R 8397   2.737   0.247   4.907
    3OL     H3S 8398   2.760   0.407   4.974
    3OL     C14 8399   2.622   0.403   4.808
    3OL     H4R 8400   2.701   0.430   4.738
    3OL     H4S 8401   2.571   0.495   4.835
    3OL     C15 8402   2.521   0.311   4.735
    3OL     H5R 8403   2.461   0.371   4.667
    3OL     H5S 8404   2.452   0.267   4.807
    3OL     C16 8405   2.591   0.197   4.656
    3OL     H6R 8406   2.521   0.114   4.644
    3OL     H6S 8407   2.676   0.159   4.713
    3OL     C17 8408   2.639   0.240   4.516
    3OL     H7R 8409   2.702   0.161   4.476
    3OL     H7S 8410   2.700   0.330   4.522
    3OL     C18 8411   2.521   0.263   4.419
    3OL     H8R 8412   2.475   0.360   4.439
    3OL     H8S 8413   2.443   0.188   4.436
    3OL     C19 8414   2.567   0.258   4.275
    3OL     H9R 8415   2.598   0.354   4.233
    3OL    C110 8416   2.570   0.149   4.198
    3OL    H10R 8417   2.604   0.159   4.095
    3OL    C111 8418   2.532   0.008   4.240
    3OL    H11R 8419   2.460   6.416   4.170
    3OL    H11S 8420   2.485   0.007   4.338
    3OL    C112 8421   2.654   6.362   4.245
    3OL    H12R 8422   2.620   6.261   4.271
    3OL    H12S 8423   2.723   6.394   4.323
    3OL    C113 8424   2.729   6.357   4.110
    3OL    H13R 8425   2.770   0.008   4.088
    3OL    H13S 8426   2.659   6.331   4.031
    3OL    C114 8427   2.845   6.254   4.112
    3OL    H14R 8428   2.805   6.154   4.129
    3OL    H14S 8429   2.911   6.277   4.196
    3OL    C115 8430   2.927   6.258   3.982
    3OL    H15R 8431   3.020   6.204   3.997
    3OL    H15S 8432   2.953   6.361   3.958
    3OL    C116 8433   2.852   6.194   3.863
    3OL    H16R 8434   2.754   6.242   3.851
    3OL    H16S 8435   2.835   6.088   3.884
    3OL    C117 8436   2.932   6.210   3.733
    3OL    H17R 8437   3.030   6.163   3.744
    3OL    H17S 8438   2.948   6.316   3.712
    3OL    C118 8439   2.858   6.145   3.615
    3OL    H18R 8440   2.917   6.155   3.523
    3OL    H18S 8441   2.761   6.193   3.599
    3OL    H18T 8442   2.841   6.039   3.634
    1PA    C116 8443   3.351   6.186   4.310
    1PA    H16R 8444   3.417   6.143   4.235
    1PA    H16S 8445   3.282   6.109   4.345
    1PA    H16T 8446   3.411   6.220   4.394
    1PA    C115 8447   3.272   6.304   4.250
    1PA    H15R 8448   3.342   6.378   4.209
    1PA    H15S 8449   3.210   6.268   4.167
    1PA    C114 8450   3.183   6.371   4.357
    1PA    H14R 8451   3.113   6.297   4.396
    1PA    H14S 8452   3.246   6.405   4.439
    1PA    C113 8453   3.106   0.043   4.298
    1PA    H13R 8454   3.176   0.115   4.256
    1PA    H13S 8455   3.043   0.007   4.216
    1PA    C112 8456   3.017   0.110   4.404
    1PA    H12R 8457   2.938   0.167   4.354
    1PA    H12S 8458   2.968   0.035   4.466
    1PA    C111 8459   3.099   0.206   4.493
    1PA    H11R 8460   3.183   0.152   4.537
    1PA    H11S 8461   3.141   0.287   4.431
    1PA    C110 8462   3.013   0.266   4.605
    1PA    H10R 8463   2.929   0.321   4.561
    1PA    H10S 8464   2.971   0.185   4.666
    1PA     C19 8465   3.096   0.361   4.693
    1PA     H9R 8466   3.186   0.309   4.728
    1PA     H9S 8467   3.128   0.447   4.635
    1PA     C18 8468   3.014   0.408   4.814
    1PA     H8R 8469   2.927   0.464   4.780
    1PA     H8S 8470   2.978   0.321   4.871
    1PA     C17 8471   3.099   0.497   4.906
    1PA     H7R 8472   3.185   0.440   4.943
    1PA     H7S 8473   3.137   0.581   4.848
    1PA     C16 8474   3.017   0.549   5.026
    1PA     H6R 8475   2.936   0.613   4.991
    1PA     H6S 8476   2.971   0.464   5.078
    1PA     C15 8477   3.104   0.627   5.127
    1PA     H5R 8478   3.041   0.657   5.212
    1PA     H5S 8479   3.181   0.560   5.166
    1PA     C14 8480   3.169   0.752   5.066
    1PA     H4R 8481   3.229   0.725   4.979
    1PA     H4S 8482   3.092   0.822   5.034
    1PA     C13 8483   3.261   0.820   5.170
    1PA     H3R 8484   3.202   0.856   5.253
    1PA     H3S 8485   3.333   0.747   5.209
    1PA     C12 8486   3.337   0.937   5.106
    1PA     H2R 8487   3.399   0.901   5.024
    1PA     H2S 8488   3.266   1.009   5.064
    2PC     C11 8489   3.425   1.006   5.207
    2PC     O12 8490   3.510   0.948   5.272
    2PC     O11 8491   3.398   1.138   5.216
    2PC      C1 8492   3.466   1.220   5.315
    2PC      HR 8493   3.421   1.320   5.315
    2PC      HS 8494   3.450   1.176   5.414
    2PC      C2 8495   3.617   1.233   5.287
    2PC      HX 8496   3.660   1.136   5.260
    2PC      C3 8497   3.692   1.287   5.411
    2PC      HA 8498   3.713   1.204   5.480
    2PC      HB 8499   3.786   1.333   5.381
    2PC     O31 8500   3.613   1.384   5.483
    2PC     P31 8501   3.681   1.462   5.603
    2PC     O32 8502   3.691   1.350   5.716
    2PC     C31 8503   3.595   1.353   5.823
    2PC     H1A 8504   3.594   1.454   5.866
    2PC     H1B 8505   3.495   1.330   5.784
    2PC     C32 8506   3.636   1.255   5.935
    2PC     H2A 8507   3.738   1.275   5.966
    2PC     H2B 8508   3.571   1.272   6.021
    2PC     N31 8509   3.628   1.106   5.907
    2PC     C33 8510   3.725   1.065   5.801
    2PC     H3A 8511   3.718   0.957   5.787
    2PC     H3B 8512   3.699   1.117   5.708
    2PC     H3C 8513   3.826   1.092   5.833
    2PC     C34 8514   3.662   1.032   6.033
    2PC     H4A 8515   3.764   1.059   6.063
    2PC     H4B 8516   3.591   1.060   6.110
    2PC     H4C 8517   3.655   0.925   6.013
    2PC     C35 8518   3.489   1.067   5.867
    2PC     H5A 8519   3.485   0.959   5.851
    2PC     H5B 8520   3.463   1.118   5.774
    2PC     H5C 8521   3.419   1.096   5.946
    2PC     O33 8522   3.813   1.521   5.571
    2PC     O34 8523   3.598   1.577   5.647
    2PC     O21 8524   3.632   1.324   5.176
    2PC     C21 8525   3.751   1.336   5.114
    2PC     O22 8526   3.851   1.274   5.144
    3OL     C12 8527   3.741   1.436   5.002
    3OL     H2R 8528   3.713   1.531   5.046
    3OL     H2S 8529   3.659   1.406   4.935
    3OL     C13 8530   3.871   1.455   4.920
    3OL     H3R 8531   3.954   1.473   4.988
    3OL     H3S 8532   3.860   1.545   4.859
    3OL     C14 8533   3.901   1.336   4.827
    3OL     H4R 8534   3.814   1.316   4.764
    3OL     H4S 8535   3.921   1.247   4.887
    3OL     C15 8536   4.023   1.368   4.739
    3OL     H5R 8537   4.108   1.393   4.802
    3OL     H5S 8538   4.001   1.455   4.677
    3OL     C16 8539   4.061   1.249   4.647
    3OL     H6R 8540   3.977   1.224   4.582
    3OL     H6S 8541   4.084   1.162   4.709
    3OL     C17 8542   4.184   1.286   4.562
    3OL     H7R 8543   4.264   1.319   4.628
    3OL     H7S 8544   4.159   1.370   4.496
    3OL     C18 8545   4.233   1.167   4.478
    3OL     H8R 8546   4.156   1.140   4.405
    3OL     H8S 8547   4.248   1.082   4.544
    3OL     C19 8548   4.365   1.200   4.411
    3OL     H9R 8549   4.437   1.251   4.475
    3OL    C110 8550   4.399   1.177   4.285
    3OL    H10R 8551   4.497   1.208   4.250
    3OL    C111 8552   4.316   1.105   4.180
    3OL    H11R 8553   4.235   1.046   4.226
    3OL    H11S 8554   4.380   1.035   4.127
    3OL    C112 8555   4.257   1.205   4.080
    3OL    H12R 8556   4.335   1.277   4.053
    3OL    H12S 8557   4.177   1.262   4.127
    3OL    C113 8558   4.205   1.139   3.951
    3OL    H13R 8559   4.284   1.075   3.908
    3OL    H13S 8560   4.184   1.216   3.877
    3OL    C114 8561   4.078   1.056   3.975
    3OL    H14R 8562   4.002   1.119   4.022
    3OL    H14S 8563   4.100   0.973   4.042
    3OL    C115 8564   4.023   1.000   3.843
    3OL    H15R 8565   4.098   0.933   3.798
    3OL    H15S 8566   4.005   1.081   3.773
    3OL    C116 8567   3.893   0.921   3.865
    3OL    H16R 8568   3.819   0.986   3.913
    3OL    H16S 8569   3.912   0.837   3.933
    3OL    C117 8570   3.837   0.868   3.732
    3OL    H17R 8571   3.911   0.803   3.684
    3OL    H17S 8572   3.818   0.952   3.664
    3OL    C118 8573   3.707   0.791   3.754
    3OL    H18R 8574   3.633   0.854   3.804
    3OL    H18S 8575   3.724   0.702   3.816
    3OL    H18T 8576   3.665   0.759   3.659
    1PA    C116 8577   0.088   2.644   3.502
    1PA    H16R 8578   0.160   2.562   3.505
    1PA    H16S 8579   0.091   2.696   3.598
    1PA    H16T 8580   0.119   2.714   3.424
    1PA    C115 8581   6.394   2.591   3.475
    1PA    H15R 8582   6.367   2.520   3.554
    1PA    H15S 8583   6.324   2.674   3.480
    1PA    C114 8584   6.387   2.522   3.337
    1PA    H14R 8585   6.411   2.595   3.259
    1PA    H14S 8586   0.014   2.443   3.333
    1PA    C113 8587   6.248   2.460   3.309
    1PA    H13R 8588   6.253   2.406   3.214
    1PA    H13S 8589   6.224   2.387   3.387
    1PA    C112 8590   6.137   2.566   3.302
    1PA    H12R 8591   6.127   2.617   3.398
    1PA    H12S 8592   6.163   2.641   3.227
    1PA    C111 8593   6.002   2.502   3.265
    1PA    H11R 8594   6.008   2.453   3.168
    1PA    H11S 8595   5.978   2.425   3.339
    1PA    C110 8596   5.888   2.607   3.264
    1PA    H10R 8597   5.792   2.554   3.266
    1PA    H10S 8598   5.895   2.667   3.355
    1PA     C19 8599   5.893   2.698   3.140
    1PA     H9R 8600   5.984   2.758   3.142
    1PA     H9S 8601   5.896   2.636   3.051
    1PA     C18 8602   5.770   2.791   3.135
    1PA     H8R 8603   5.678   2.731   3.136
    1PA     H8S 8604   5.768   2.853   3.225
    1PA     C17 8605   5.769   2.883   3.011
    1PA     H7R 8606   5.686   2.952   3.019
    1PA     H7S 8607   5.861   2.942   3.009
    1PA     C16 8608   5.757   2.803   2.880
    1PA     H6R 8609   5.844   2.739   2.867
    1PA     H6S 8610   5.669   2.738   2.885
    1PA     C15 8611   5.745   2.896   2.758
    1PA     H5R 8612   5.653   2.954   2.765
    1PA     H5S 8613   5.829   2.966   2.756
    1PA     C14 8614   5.746   2.812   2.628
    1PA     H4R 8615   5.840   2.757   2.623
    1PA     H4S 8616   5.666   2.737   2.631
    1PA     C13 8617   5.732   2.899   2.502
    1PA     H3R 8618   5.799   2.984   2.507
    1PA     H3S 8619   5.762   2.839   2.416
    1PA     C12 8620   5.587   2.946   2.481
    1PA     H2R 8621   5.518   2.862   2.492
    1PA     H2S 8622   5.559   3.022   2.554
    2PC     C11 8623   5.571   3.002   2.342
    2PC     O12 8624   5.540   2.932   2.247
    2PC     O11 8625   5.599   3.134   2.337
    2PC      C1 8626   5.590   3.207   2.211
    2PC      HR 8627   5.629   3.308   2.226
    2PC      HS 8628   5.651   3.158   2.135
    2PC      C2 8629   5.444   3.217   2.160
    2PC      HX 8630   5.401   3.117   2.146
    2PC      C3 8631   5.439   3.291   2.025
    2PC      HA 8632   5.336   3.293   1.989
    2PC      HB 8633   5.502   3.241   1.952
    2PC     O31 8634   5.487   3.427   2.045
    2PC     P31 8635   5.477   3.531   1.925
    2PC     O32 8636   5.488   3.664   2.011
    2PC     C31 8637   5.376   3.698   2.093
    2PC     H1A 8638   5.297   3.738   2.029
    2PC     H1B 8639   5.338   3.609   2.145
    2PC     C32 8640   5.420   3.803   2.197
    2PC     H2A 8641   5.450   3.894   2.146
    2PC     H2B 8642   5.335   3.826   2.261
    2PC     N31 8643   5.534   3.766   2.290
    2PC     C33 8644   5.666   3.769   2.219
    2PC     H3A 8645   5.678   3.867   2.172
    2PC     H3B 8646   5.745   3.752   2.292
    2PC     H3C 8647   5.668   3.691   2.143
    2PC     C34 8648   5.535   3.866   2.401
    2PC     H4A 8649   5.439   3.861   2.452
    2PC     H4B 8650   5.616   3.841   2.469
    2PC     H4C 8651   5.550   3.965   2.357
    2PC     C35 8652   5.515   3.629   2.349
    2PC     H5A 8653   5.518   3.555   2.268
    2PC     H5B 8654   5.419   3.626   2.400
    2PC     H5C 8655   5.597   3.611   2.419
    2PC     O33 8656   5.590   3.520   1.831
    2PC     O34 8657   5.351   3.524   1.847
    2PC     O21 8658   5.362   3.295   2.252
    2PC     C21 8659   5.302   3.237   2.357
    2PC     O22 8660   5.311   3.119   2.387
    3OL     C12 8661   5.223   3.338   2.436
    3OL     H2R 8662   5.122   3.343   2.395
    3OL     H2S 8663   5.268   3.436   2.423
    3OL     C13 8664   5.217   3.305   2.586
    3OL     H3R 8665   5.318   3.293   2.625
    3OL     H3S 8666   5.164   3.211   2.602
    3OL     C14 8667   5.146   3.418   2.664
    3OL     H4R 8668   5.042   3.427   2.630
    3OL     H4S 8669   5.195   3.513   2.644
    3OL     C15 8670   5.150   3.389   2.815
    3OL     H5R 8671   5.254   3.378   2.846
    3OL     H5S 8672   5.099   3.295   2.835
    3OL     C16 8673   5.083   3.501   2.897
    3OL     H6R 8674   4.976   3.503   2.877
    3OL     H6S 8675   5.125   3.598   2.868
    3OL     C17 8676   5.108   3.478   3.047
    3OL     H7R 8677   5.216   3.470   3.064
    3OL     H7S 8678   5.063   3.384   3.079
    3OL     C18 8679   5.053   3.593   3.133
    3OL     H8R 8680   4.944   3.592   3.129
    3OL     H8S 8681   5.085   3.689   3.093
    3OL     C19 8682   5.098   3.577   3.277
    3OL     H9R 8683   5.033   3.516   3.339
    3OL    C110 8684   5.208   3.629   3.330
    3OL    H10R 8685   5.230   3.610   3.435
    3OL    C111 8686   5.310   3.717   3.259
    3OL    H11R 8687   5.335   3.800   3.325
    3OL    H11S 8688   5.268   3.759   3.168
    3OL    C112 8689   5.438   3.639   3.226
    3OL    H12R 8690   5.414   3.553   3.163
    3OL    H12S 8691   5.483   3.601   3.318
    3OL    C113 8692   5.538   3.730   3.152
    3OL    H13R 8693   5.567   3.813   3.218
    3OL    H13S 8694   5.490   3.773   3.064
    3OL    C114 8695   5.664   3.653   3.109
    3OL    H14R 8696   5.635   3.567   3.049
    3OL    H14S 8697   5.717   3.616   3.198
    3OL    C115 8698   5.757   3.744   3.028
    3OL    H15R 8699   5.791   3.827   3.090
    3OL    H15S 8700   5.702   3.787   2.944
    3OL    C116 8701   5.880   3.668   2.974
    3OL    H16R 8702   5.848   3.581   2.918
    3OL    H16S 8703   5.941   3.633   3.058
    3OL    C117 8704   5.963   3.760   2.883
    3OL    H17R 8705   5.997   3.846   2.941
    3OL    H17S 8706   5.902   3.797   2.801
    3OL    C118 8707   6.085   3.686   2.825
    3OL    H18R 8708   6.053   3.601   2.765
    3OL    H18S 8709   6.150   3.650   2.906
    3OL    H18T 8710   6.143   3.753   2.762
    1PA    C116 8711   1.158   3.332   3.614
    1PA    H16R 8712   1.196   3.337   3.512
    1PA    H16S 8713   1.233   3.374   3.681
    1PA    H16T 8714   1.068   3.392   3.621
    1PA    C115 8715   1.130   3.186   3.654
    1PA    H15R 8716   1.225   3.132   3.653
    1PA    H15S 8717   1.092   3.182   3.756
    1PA    C114 8718   1.032   3.115   3.558
    1PA    H14R 8719   1.069   3.123   3.456
    1PA    H14S 8720   1.029   3.009   3.583
    1PA    C113 8721   0.889   3.172   3.566
    1PA    H13R 8722   0.852   3.165   3.669
    1PA    H13S 8723   0.891   3.278   3.539
    1PA    C112 8724   0.794   3.098   3.471
    1PA    H12R 8725   0.839   3.095   3.371
    1PA    H12S 8726   0.783   2.994   3.504
    1PA    C111 8727   0.656   3.166   3.464
    1PA    H11R 8728   0.605   3.158   3.560
    1PA    H11S 8729   0.671   3.272   3.444
    1PA    C110 8730   0.570   3.107   3.351
    1PA    H10R 8731   0.493   3.180   3.324
    1PA    H10S 8732   0.631   3.091   3.262
    1PA     C19 8733   0.501   2.975   3.393
    1PA     H9R 8734   0.573   2.910   3.441
    1PA     H9S 8735   0.423   2.997   3.466
    1PA     C18 8736   0.439   2.900   3.273
    1PA     H8R 8737   0.520   2.872   3.205
    1PA     H8S 8738   0.394   2.808   3.309
    1PA     C17 8739   0.333   2.982   3.196
    1PA     H7R 8740   0.254   3.012   3.266
    1PA     H7S 8741   0.377   3.073   3.155
    1PA     C16 8742   0.270   2.900   3.081
    1PA     H6R 8743   0.234   2.804   3.119
    1PA     H6S 8744   0.183   2.955   3.043
    1PA     C15 8745   0.368   2.877   2.964
    1PA     H5R 8746   0.400   2.974   2.924
    1PA     H5S 8747   0.456   2.825   2.999
    1PA     C14 8748   0.302   2.794   2.852
    1PA     H4R 8749   0.270   2.698   2.892
    1PA     H4S 8750   0.213   2.846   2.815
    1PA     C13 8751   0.401   2.771   2.736
    1PA     H3R 8752   0.429   2.868   2.693
    1PA     H3S 8753   0.492   2.724   2.774
    1PA     C12 8754   0.340   2.682   2.626
    1PA     H2R 8755   0.319   2.582   2.664
    1PA     H2S 8756   0.245   2.725   2.591
    2PC     C11 8757   0.434   2.672   2.508
    2PC     O12 8758   0.514   2.582   2.494
    2PC     O11 8759   0.419   2.776   2.424
    2PC      C1 8760   0.501   2.783   2.304
    2PC      HR 8761   0.606   2.798   2.330
    2PC      HS 8762   0.491   2.690   2.247
    2PC      C2 8763   0.449   2.901   2.222
    2PC      HX 8764   0.340   2.896   2.221
    2PC      C3 8765   0.500   2.900   2.076
    2PC      HA 8766   0.471   2.807   2.028
    2PC      HB 8767   0.455   2.983   2.021
    2PC     O31 8768   0.645   2.912   2.073
    2PC     P31 8769   0.714   2.954   1.936
    2PC     O32 8770   0.732   3.110   1.959
    2PC     C31 8771   0.760   3.195   1.846
    2PC     H1A 8772   0.806   3.288   1.881
    2PC     H1B 8773   0.830   3.144   1.780
    2PC     C32 8774   0.630   3.226   1.769
    2PC     H2A 8775   0.654   3.248   1.665
    2PC     H2B 8776   0.565   3.138   1.771
    2PC     N31 8777   0.547   3.342   1.818
    2PC     C33 8778   0.528   3.339   1.966
    2PC     H3A 8779   0.462   3.421   1.995
    2PC     H3B 8780   0.483   3.243   1.992
    2PC     H3C 8781   0.626   3.350   2.014
    2PC     C34 8782   0.613   3.472   1.779
    2PC     H4A 8783   0.714   3.474   1.820
    2PC     H4B 8784   0.617   3.477   1.670
    2PC     H4C 8785   0.554   3.554   1.819
    2PC     C35 8786   0.413   3.336   1.752
    2PC     H5A 8787   0.368   3.239   1.774
    2PC     H5B 8788   0.425   3.349   1.644
    2PC     H5C 8789   0.351   3.416   1.794
    2PC     O33 8790   0.840   2.882   1.907
    2PC     O34 8791   0.629   2.923   1.819
    2PC     O21 8792   0.491   3.022   2.290
    2PC     C21 8793   0.435   3.140   2.258
    2PC     O22 8794   0.360   3.159   2.164
    3OL     C12 8795   0.479   3.253   2.349
    3OL     H2R 8796   0.391   3.315   2.370
    3OL     H2S 8797   0.552   3.314   2.297
    3OL     C13 8798   0.539   3.203   2.482
    3OL     H3R 8799   0.639   3.162   2.465
    3OL     H3S 8800   0.478   3.122   2.522
    3OL     C14 8801   0.546   3.315   2.587
    3OL     H4R 8802   0.446   3.358   2.601
    3OL     H4S 8803   0.612   3.395   2.551
    3OL     C15 8804   0.598   3.262   2.722
    3OL     H5R 8805   0.701   3.227   2.710
    3OL     H5S 8806   0.537   3.177   2.753
    3OL     C16 8807   0.591   3.372   2.829
    3OL     H6R 8808   0.487   3.404   2.839
    3OL     H6S 8809   0.649   3.459   2.797
    3OL     C17 8810   0.640   3.323   2.967
    3OL     H7R 8811   0.600   3.223   2.988
    3OL     H7S 8812   0.602   3.390   3.045
    3OL     C18 8813   0.794   3.322   2.976
    3OL     H8R 8814   0.832   3.423   2.962
    3OL     H8S 8815   0.833   3.261   2.894
    3OL     C19 8816   0.840   3.262   3.107
    3OL     H9R 8817   0.817   3.156   3.119
    3OL    C110 8818   0.905   3.324   3.206
    3OL    H10R 8819   0.933   3.267   3.294
    3OL    C111 8820   0.944   3.470   3.211
    3OL    H11R 8821   0.921   3.522   3.119
    3OL    H11S 8822   1.052   3.477   3.226
    3OL    C112 8823   0.876   3.542   3.329
    3OL    H12R 8824   0.916   3.644   3.334
    3OL    H12S 8825   0.902   3.492   3.422
    3OL    C113 8826   0.722   3.547   3.313
    3OL    H13R 8827   0.683   3.446   3.305
    3OL    H13S 8828   0.695   3.599   3.221
    3OL    C114 8829   0.653   3.616   3.433
    3OL    H14R 8830   0.676   3.561   3.525
    3OL    H14S 8831   0.545   3.609   3.419
    3OL    C115 8832   0.692   3.764   3.449
    3OL    H15R 8833   0.670   3.818   3.356
    3OL    H15S 8834   0.799   3.773   3.467
    3OL    C116 8835   0.615   3.829   3.565
    3OL    H16R 8836   0.637   3.775   3.658
    3OL    H16S 8837   0.508   3.822   3.547
    3OL    C117 8838   0.655   3.977   3.581
    3OL    H17R 8839   0.634   4.031   3.489
    3OL    H17S 8840   0.762   3.985   3.600
    3OL    C118 8841   0.578   4.043   3.697
    3OL    H18R 8842   0.601   3.993   3.791
    3OL    H18S 8843   0.470   4.036   3.680
    3OL    H18T 8844   0.605   4.148   3.706
    1PA    C116 8845   0.292   4.382   4.412
    1PA    H16R 8846   0.222   4.305   4.445
    1PA    H16S 8847   0.241   4.479   4.414
    1PA    H16T 8848   0.375   4.385   4.483
    1PA    C115 8849   0.343   4.351   4.270
    1PA    H15R 8850   0.393   4.254   4.271
    1PA    H15S 8851   0.258   4.345   4.202
    1PA    C114 8852   0.441   4.459   4.222
    1PA    H14R 8853   0.392   4.557   4.221
    1PA    H14S 8854   0.523   4.466   4.294
    1PA    C113 8855   0.500   4.429   4.083
    1PA    H13R 8856   0.587   4.493   4.068
    1PA    H13S 8857   0.535   4.325   4.079
    1PA    C112 8858   0.399   4.455   3.970
    1PA    H12R 8859   0.314   4.387   3.980
    1PA    H12S 8860   0.361   4.557   3.979
    1PA    C111 8861   0.464   4.437   3.831
    1PA    H11R 8862   0.554   4.497   3.825
    1PA    H11S 8863   0.493   4.332   3.818
    1PA    C110 8864   0.367   4.478   3.719
    1PA    H10R 8865   0.276   4.417   3.725
    1PA    H10S 8866   0.338   4.583   3.733
    1PA     C19 8867   0.431   4.461   3.579
    1PA     H9R 8868   0.523   4.519   3.572
    1PA     H9S 8869   0.458   4.356   3.566
    1PA     C18 8870   0.334   4.501   3.466
    1PA     H8R 8871   0.365   4.452   3.373
    1PA     H8S 8872   0.235   4.464   3.490
    1PA     C17 8873   0.327   4.654   3.444
    1PA     H7R 8874   0.234   4.678   3.390
    1PA     H7S 8875   0.320   4.705   3.540
    1PA     C16 8876   0.446   4.711   3.364
    1PA     H6R 8877   0.449   4.819   3.379
    1PA     H6S 8878   0.540   4.671   3.402
    1PA     C15 8879   0.434   4.684   3.212
    1PA     H5R 8880   0.436   4.576   3.194
    1PA     H5S 8881   0.339   4.722   3.176
    1PA     C14 8882   0.549   4.751   3.135
    1PA     H4R 8883   0.548   4.858   3.155
    1PA     H4S 8884   0.645   4.712   3.169
    1PA     C13 8885   0.536   4.728   2.983
    1PA     H3R 8886   0.538   4.620   2.962
    1PA     H3S 8887   0.439   4.766   2.948
    1PA     C12 8888   0.649   4.798   2.905
    1PA     H2R 8889   0.650   4.905   2.928
    1PA     H2S 8890   0.745   4.757   2.936
    2PC     C11 8891   0.636   4.780   2.756
    2PC     O12 8892   0.627   4.873   2.677
    2PC     O11 8893   0.635   4.651   2.721
    2PC      C1 8894   0.619   4.618   2.580
    2PC      HR 8895   0.521   4.652   2.545
    2PC      HS 8896   0.697   4.667   2.522
    2PC      C2 8897   0.631   4.465   2.567
    2PC      HX 8898   0.714   4.433   2.632
    2PC      C3 8899   0.658   4.420   2.422
    2PC      HA 8900   0.759   4.447   2.391
    2PC      HB 8901   0.646   4.312   2.415
    2PC     O31 8902   0.564   4.486   2.334
    2PC     P31 8903   0.545   4.429   2.187
    2PC     O32 8904   0.506   4.560   2.105
    2PC     C31 8905   0.393   4.637   2.150
    2PC     H1A 8906   0.308   4.571   2.167
    2PC     H1B 8907   0.419   4.687   2.244
    2PC     C32 8908   0.356   4.743   2.044
    2PC     H2A 8909   0.273   4.803   2.082
    2PC     H2B 8910   0.441   4.809   2.027
    2PC     N31 8911   0.313   4.693   1.908
    2PC     C33 8912   0.253   4.807   1.832
    2PC     H3A 8913   0.165   4.842   1.887
    2PC     H3B 8914   0.327   4.886   1.825
    2PC     H3C 8915   0.224   4.771   1.733
    2PC     C34 8916   0.431   4.642   1.830
    2PC     H4A 8917   0.505   4.722   1.825
    2PC     H4B 8918   0.472   4.555   1.881
    2PC     H4C 8919   0.397   4.615   1.730
    2PC     C35 8920   0.210   4.584   1.919
    2PC     H5A 8921   0.126   4.621   1.978
    2PC     H5B 8922   0.255   4.497   1.968
    2PC     H5C 8923   0.176   4.557   1.819
    2PC     O33 8924   0.664   4.364   2.129
    2PC     O34 8925   0.440   4.325   2.185
    2PC     O21 8926   0.506   4.406   2.611
    2PC     C21 8927   0.510   4.284   2.670
    2PC     O22 8928   0.613   4.229   2.703
    3OL     C12 8929   0.373   4.225   2.693
    3OL     H2R 8930   0.383   4.122   2.728
    3OL     H2S 8931   0.322   4.222   2.596
    3OL     C13 8932   0.286   4.307   2.790
    3OL     H3R 8933   0.183   4.274   2.778
    3OL     H3S 8934   0.289   4.413   2.764
    3OL     C14 8935   0.327   4.288   2.938
    3OL     H4R 8936   0.431   4.319   2.950
    3OL     H4S 8937   0.321   4.182   2.965
    3OL     C15 8938   0.238   4.370   3.034
    3OL     H5R 8939   0.237   4.475   3.002
    3OL     H5S 8940   0.284   4.368   3.134
    3OL     C16 8941   0.093   4.317   3.044
    3OL     H6R 8942   0.093   4.215   3.082
    3OL     H6S 8943   0.049   4.316   2.945
    3OL     C17 8944   0.005   4.408   3.133
    3OL     H7R 8945   6.348   4.392   3.107
    3OL     H7S 8946   0.028   4.512   3.112
    3OL     C18 8947   0.022   4.382   3.284
    3OL     H8R 8948   6.424   4.465   3.338
    3OL     H8S 8949   0.128   4.383   3.310
    3OL     C19 8950   6.401   4.254   3.329
    3OL     H9R 8951   6.296   4.248   3.303
    3OL    C110 8952   0.008   4.154   3.398
    3OL    H10R 8953   6.393   4.069   3.424
    3OL    C111 8954   0.152   4.142   3.442
    3OL    H11R 8955   0.216   4.213   3.388
    3OL    H11S 8956   0.190   4.043   3.417
    3OL    C112 8957   0.169   4.166   3.594
    3OL    H12R 8958   0.136   4.268   3.617
    3OL    H12S 8959   0.275   4.161   3.619
    3OL    C113 8960   0.091   4.068   3.684
    3OL    H13R 8961   6.432   4.077   3.663
    3OL    H13S 8962   0.106   4.097   3.788
    3OL    C114 8963   0.137   3.921   3.666
    3OL    H14R 8964   0.245   3.916   3.676
    3OL    H14S 8965   0.112   3.888   3.565
    3OL    C115 8966   0.073   3.824   3.768
    3OL    H15R 8967   0.107   3.850   3.868
    3OL    H15S 8968   0.108   3.723   3.746
    3OL    C116 8969   6.366   3.826   3.765
    3OL    H16R 8970   6.332   3.817   3.661
    3OL    H16S 8971   6.329   3.922   3.802
    3OL    C117 8972   6.304   3.712   3.848
    3OL    H17R 8973   6.339   3.616   3.809
    3OL    H17S 8974   6.196   3.714   3.835
    3OL    C118 8975   6.337   3.722   3.998
    3OL    H18R 8976   6.444   3.708   4.015
    3OL    H18S 8977   6.283   3.644   4.053
    3OL    H18T 8978   6.307   3.819   4.038
    1PA    C116 8979   0.021   3.255   4.100
    1PA    H16R 8980   0.128   3.247   4.081
    1PA    H16S 8981   6.445   3.193   4.186
    1PA    H16T 8982   6.447   3.359   4.126
    1PA    C115 8983   6.388   3.211   3.977
    1PA    H15R 8984   6.406   3.105   3.957
    1PA    H15S 8985   6.281   3.222   4.000
    1PA    C114 8986   6.421   3.295   3.853
    1PA    H14R 8987   6.345   3.278   3.777
    1PA    H14S 8988   6.419   3.401   3.878
    1PA    C113 8989   0.111   3.258   3.793
    1PA    H13R 8990   0.188   3.268   3.870
    1PA    H13S 8991   0.110   3.154   3.760
    1PA    C112 8992   0.146   3.349   3.674
    1PA    H12R 8993   0.070   3.339   3.597
    1PA    H12S 8994   0.147   3.453   3.708
    1PA    C111 8995   0.285   3.312   3.617
    1PA    H11R 8996   0.358   3.312   3.699
    1PA    H11S 8997   0.282   3.211   3.575
    1PA    C110 8998   0.332   3.412   3.510
    1PA    H10R 8999   0.328   3.514   3.550
    1PA    H10S 9000   0.437   3.391   3.487
    1PA     C19 9001   0.250   3.404   3.380
    1PA     H9R 9002   0.256   3.302   3.341
    1PA     H9S 9003   0.146   3.427   3.400
    1PA     C18 9004   0.305   3.504   3.276
    1PA     H8R 9005   0.300   3.605   3.318
    1PA     H8S 9006   0.411   3.482   3.256
    1PA     C17 9007   0.227   3.501   3.143
    1PA     H7R 9008   0.121   3.519   3.162
    1PA     H7S 9009   0.263   3.583   3.081
    1PA     C16 9010   0.246   3.369   3.067
    1PA     H6R 9011   0.352   3.345   3.060
    1PA     H6S 9012   0.197   3.287   3.121
    1PA     C15 9013   0.186   3.378   2.925
    1PA     H5R 9014   0.080   3.402   2.931
    1PA     H5S 9015   0.235   3.459   2.871
    1PA     C14 9016   0.206   3.246   2.848
    1PA     H4R 9017   0.312   3.217   2.852
    1PA     H4S 9018   0.148   3.167   2.896
    1PA     C13 9019   0.162   3.263   2.702
    1PA     H3R 9020   0.057   3.292   2.698
    1PA     H3S 9021   0.221   3.343   2.656
    1PA     C12 9022   0.182   3.132   2.623
    1PA     H2R 9023   0.286   3.099   2.632
    1PA     H2S 9024   0.119   3.054   2.665
    2PC     C11 9025   0.149   3.145   2.476
    2PC     O12 9026   0.153   3.050   2.399
    2PC     O11 9027   0.118   3.271   2.437
    2PC      C1 9028   0.076   3.297   2.301
    2PC      HR 9029   0.068   3.405   2.286
    2PC      HS 9030   0.150   3.258   2.231
    2PC      C2 9031   6.387   3.231   2.274
    2PC      HX 9032   6.389   3.126   2.305
    2PC      C3 9033   6.352   3.237   2.125
    2PC      HA 9034   6.338   3.341   2.093
    2PC      HB 9035   6.433   3.193   2.066
    2PC     O31 9036   6.233   3.159   2.100
    2PC     P31 9037   6.106   3.231   2.038
    2PC     O32 9038   6.010   3.106   2.022
    2PC     C31 9039   5.966   3.038   2.140
    2PC     H1A 9040   6.052   3.011   2.202
    2PC     H1B 9041   5.900   3.104   2.198
    2PC     C32 9042   5.890   2.909   2.100
    2PC     H2A 9043   5.871   2.850   2.190
    2PC     H2B 9044   5.795   2.936   2.054
    2PC     N31 9045   5.959   2.816   2.002
    2PC     C33 9046   6.106   2.801   2.033
    2PC     H3A 9047   6.154   2.898   2.020
    2PC     H3B 9048   6.117   2.765   2.135
    2PC     H3C 9049   6.149   2.729   1.963
    2PC     C34 9050   5.895   2.680   2.010
    2PC     H4A 9051   5.940   2.616   1.935
    2PC     H4B 9052   5.911   2.639   2.110
    2PC     H4C 9053   5.788   2.692   1.991
    2PC     C35 9054   5.943   2.866   1.861
    2PC     H5A 9055   5.836   2.877   1.841
    2PC     H5B 9056   5.988   2.794   1.793
    2PC     H5C 9057   5.992   2.963   1.853
    2PC     O33 9058   6.052   3.336   2.126
    2PC     O34 9059   6.142   3.288   1.906
    2PC     O21 9060   6.288   3.306   2.350
    2PC     C21 9061   6.181   3.241   2.401
    2PC     O22 9062   6.171   3.119   2.404
    3OL     C12 9063   6.078   3.336   2.458
    3OL     H2R 9064   6.036   3.393   2.375
    3OL     H2S 9065   6.128   3.407   2.524
    3OL     C13 9066   5.965   3.263   2.534
    3OL     H3R 9067   6.004   3.223   2.628
    3OL     H3S 9068   5.929   3.179   2.474
    3OL     C14 9069   5.847   3.358   2.561
    3OL     H4R 9070   5.805   3.391   2.466
    3OL     H4S 9071   5.884   3.447   2.614
    3OL     C15 9072   5.738   3.289   2.646
    3OL     H5R 9073   5.775   3.273   2.747
    3OL     H5S 9074   5.716   3.191   2.603
    3OL     C16 9075   5.606   3.370   2.651
    3OL     H6R 9076   5.533   3.316   2.711
    3OL     H6S 9077   5.565   3.378   2.550
    3OL     C17 9078   5.625   3.511   2.709
    3OL     H7R 9079   5.700   3.565   2.650
    3OL     H7S 9080   5.663   3.505   2.812
    3OL     C18 9081   5.495   3.593   2.708
    3OL     H8R 9082   5.427   3.558   2.786
    3OL     H8S 9083   5.445   3.578   2.612
    3OL     C19 9084   5.527   3.740   2.724
    3OL     H9R 9085   5.627   3.769   2.690
    3OL    C110 9086   5.448   3.831   2.779
    3OL    H10R 9087   5.484   3.933   2.788
    3OL    C111 9088   5.307   3.808   2.829
    3OL    H11R 9089   5.310   3.738   2.913
    3OL    H11S 9090   5.247   3.763   2.750
    3OL    C112 9091   5.242   3.939   2.875
    3OL    H12R 9092   5.304   3.984   2.953
    3OL    H12S 9093   5.145   3.917   2.921
    3OL    C113 9094   5.222   4.039   2.759
    3OL    H13R 9095   5.153   3.994   2.687
    3OL    H13S 9096   5.316   4.057   2.706
    3OL    C114 9097   5.163   4.174   2.805
    3OL    H14R 9098   5.080   4.157   2.874
    3OL    H14S 9099   5.124   4.227   2.718
    3OL    C115 9100   5.270   4.263   2.873
    3OL    H15R 9101   5.352   4.279   2.803
    3OL    H15S 9102   5.310   4.212   2.961
    3OL    C116 9103   5.210   4.398   2.915
    3OL    H16R 9104   5.127   4.382   2.984
    3OL    H16S 9105   5.171   4.450   2.827
    3OL    C117 9106   5.317   4.486   2.983
    3OL    H17R 9107   5.401   4.502   2.915
    3OL    H17S 9108   5.356   4.435   3.072
    3OL    C118 9109   5.258   4.622   3.025
    3OL    H18R 9110   5.174   4.608   3.094
    3OL    H18S 9111   5.222   4.677   2.937
    3OL    H18T 9112   5.334   4.683   3.075
    1PA    C116 9113   0.147   2.840   3.885
    1PA    H16R 9114   0.047   2.840   3.841
    1PA    H16S 9115   0.220   2.854   3.805
    1PA    H16T 9116   0.155   2.924   3.954
    1PA    C115 9117   0.173   2.708   3.959
    1PA    H15R 9118   0.272   2.711   4.004
    1PA    H15S 9119   0.100   2.697   4.040
    1PA    C114 9120   0.163   2.587   3.864
    1PA    H14R 9121   0.064   2.586   3.818
    1PA    H14S 9122   0.236   2.598   3.784
    1PA    C113 9123   0.187   2.455   3.939
    1PA    H13R 9124   0.283   2.460   3.990
    1PA    H13S 9125   0.110   2.441   4.015
    1PA    C112 9126   0.189   2.332   3.844
    1PA    H12R 9127   0.266   2.346   3.768
    1PA    H12S 9128   0.218   2.244   3.902
    1PA    C111 9129   0.052   2.306   3.778
    1PA    H11R 9130   6.424   2.295   3.855
    1PA    H11S 9131   0.024   2.392   3.716
    1PA    C110 9132   0.055   2.179   3.690
    1PA    H10R 9133   0.127   2.192   3.609
    1PA    H10S 9134   0.088   2.095   3.751
    1PA     C19 9135   6.363   2.150   3.633
    1PA     H9R 9136   6.293   2.138   3.715
    1PA     H9S 9137   6.329   2.234   3.573
    1PA     C18 9138   6.361   2.020   3.549
    1PA     H8R 9139   0.004   1.962   3.565
    1PA     H8S 9140   6.278   1.958   3.584
    1PA     C17 9141   6.340   2.046   3.398
    1PA     H7R 9142   6.321   1.950   3.349
    1PA     H7S 9143   6.252   2.108   3.384
    1PA     C16 9144   0.013   2.113   3.330
    1PA     H6R 9145   0.034   2.209   3.378
    1PA     H6S 9146   0.102   2.051   3.342
    1PA     C15 9147   6.432   2.136   3.181
    1PA     H5R 9148   6.417   2.040   3.132
    1PA     H5S 9149   6.340   2.194   3.169
    1PA     C14 9150   0.100   2.212   3.112
    1PA     H4R 9151   0.116   2.305   3.165
    1PA     H4S 9152   0.192   2.154   3.119
    1PA     C13 9153   0.069   2.244   2.964
    1PA     H3R 9154   6.418   2.290   2.957
    1PA     H3S 9155   0.141   2.318   2.930
    1PA     C12 9156   0.077   2.119   2.874
    1PA     H2R 9157   0.173   2.070   2.887
    1PA     H2S 9158   6.446   2.048   2.901
    2PC     C11 9159   0.062   2.156   2.728
    2PC     O12 9160   6.419   2.114   2.658
    2PC     O11 9161   0.159   2.239   2.686
    2PC      C1 9162   0.157   2.291   2.550
    2PC      HR 9163   0.249   2.349   2.533
    2PC      HS 9164   0.156   2.207   2.479
    2PC      C2 9165   0.035   2.383   2.527
    2PC      HX 9166   6.391   2.326   2.547
    2PC      C3 9167   0.029   2.437   2.382
    2PC      HA 9168   0.000   2.357   2.313
    2PC      HB 9169   6.403   2.517   2.375
    2PC     O31 9170   0.159   2.487   2.343
    2PC     P31 9171   0.171   2.568   2.206
    2PC     O32 9172   0.324   2.539   2.172
    2PC     C31 9173   0.357   2.478   2.046
    2PC     H1A 9174   0.308   2.381   2.037
    2PC     H1B 9175   0.323   2.544   1.965
    2PC     C32 9176   0.511   2.463   2.038
    2PC     H2A 9177   0.538   2.437   1.935
    2PC     H2B 9178   0.558   2.559   2.062
    2PC     N31 9179   0.576   2.358   2.126
    2PC     C33 9180   0.725   2.366   2.106
    2PC     H3A 9181   0.747   2.348   2.001
    2PC     H3B 9182   0.760   2.465   2.136
    2PC     H3C 9183   0.772   2.289   2.168
    2PC     C34 9184   0.546   2.380   2.271
    2PC     H4A 9185   0.597   2.303   2.329
    2PC     H4B 9186   0.581   2.479   2.300
    2PC     H4C 9187   0.438   2.372   2.286
    2PC     C35 9188   0.530   2.221   2.087
    2PC     H5A 9189   0.548   2.207   1.980
    2PC     H5B 9190   0.423   2.213   2.109
    2PC     H5C 9191   0.586   2.147   2.145
    2PC     O33 9192   0.079   2.516   2.102
    2PC     O34 9193   0.140   2.711   2.221
    2PC     O21 9194   0.043   2.494   2.620
    2PC     C21 9195   6.379   2.563   2.647
    2PC     O22 9196   6.269   2.534   2.604
    3OL     C12 9197   6.404   2.678   2.743
    3OL     H2R 9198   0.021   2.751   2.693
    3OL     H2S 9199   0.009   2.640   2.830
    3OL     C13 9200   6.272   2.745   2.785
    3OL     H3R 9201   6.219   2.779   2.696
    3OL     H3S 9202   6.207   2.672   2.835
    3OL     C14 9203   6.293   2.867   2.878
    3OL     H4R 9204   6.198   2.921   2.883
    3OL     H4S 9205   6.367   2.934   2.835
    3OL     C15 9206   6.332   2.826   3.021
    3OL     H5R 9207   6.431   2.778   3.020
    3OL     H5S 9208   6.260   2.753   3.059
    3OL     C16 9209   6.334   2.949   3.113
    3OL     H6R 9210   6.237   2.998   3.109
    3OL     H6S 9211   6.409   3.021   3.078
    3OL     C17 9212   6.365   2.910   3.259
    3OL     H7R 9213   0.016   2.863   3.265
    3OL     H7S 9214   6.291   2.837   3.293
    3OL     C18 9215   6.360   3.033   3.351
    3OL     H8R 9216   6.266   3.086   3.335
    3OL     H8S 9217   6.441   3.101   3.324
    3OL     C19 9218   6.374   2.992   3.496
    3OL     H9R 9219   0.027   2.966   3.528
    3OL    C110 9220   6.276   2.990   3.585
    3OL    H10R 9221   6.297   2.960   3.688
    3OL    C111 9222   6.130   3.022   3.555
    3OL    H11R 9223   6.095   2.961   3.471
    3OL    H11S 9224   6.121   3.127   3.527
    3OL    C112 9225   6.042   2.995   3.679
    3OL    H12R 9226   6.083   3.052   3.762
    3OL    H12S 9227   6.048   2.890   3.706
    3OL    C113 9228   5.895   3.038   3.657
    3OL    H13R 9229   5.893   3.138   3.613
    3OL    H13S 9230   5.847   3.045   3.755
    3OL    C114 9231   5.813   2.942   3.569
    3OL    H14R 9232   5.856   2.935   3.469
    3OL    H14S 9233   5.713   2.984   3.557
    3OL    C115 9234   5.800   2.800   3.630
    3OL    H15R 9235   5.774   2.809   3.735
    3OL    H15S 9236   5.895   2.748   3.622
    3OL    C116 9237   5.690   2.719   3.557
    3OL    H16R 9238   5.709   2.720   3.450
    3OL    H16S 9239   5.593   2.767   3.572
    3OL    C117 9240   5.682   2.573   3.606
    3OL    H17R 9241   5.781   2.526   3.599
    3OL    H17S 9242   5.615   2.517   3.541
    3OL    C118 9243   5.631   2.563   3.751
    3OL    H18R 9244   5.619   2.458   3.780
    3OL    H18S 9245   5.534   2.612   3.761
    3OL    H18T 9246   5.701   2.610   3.821
    1PA    C116 9247   4.826   2.754   4.105
    1PA    H16R 9248   4.768   2.736   4.195
    1PA    H16S 9249   4.878   2.849   4.115
    1PA    H16T 9250   4.900   2.674   4.094
    1PA    C115 9251   4.733   2.757   3.982
    1PA    H15R 9252   4.678   2.663   3.976
    1PA    H15S 9253   4.660   2.837   3.995
    1PA    C114 9254   4.812   2.779   3.852
    1PA    H14R 9255   4.867   2.874   3.859
    1PA    H14S 9256   4.885   2.699   3.840
    1PA    C113 9257   4.717   2.784   3.731
    1PA    H13R 9258   4.660   2.691   3.725
    1PA    H13S 9259   4.646   2.865   3.745
    1PA    C112 9260   4.791   2.807   3.597
    1PA    H12R 9261   4.717   2.834   3.522
    1PA    H12S 9262   4.860   2.891   3.607
    1PA    C111 9263   4.867   2.682   3.549
    1PA    H11R 9264   4.952   2.662   3.615
    1PA    H11S 9265   4.801   2.595   3.553
    1PA    C110 9266   4.917   2.701   3.404
    1PA    H10R 9267   4.831   2.724   3.341
    1PA    H10S 9268   4.986   2.785   3.399
    1PA     C19 9269   4.986   2.573   3.352
    1PA     H9R 9270   5.083   2.561   3.399
    1PA     H9S 9271   4.925   2.486   3.380
    1PA     C18 9272   4.999   2.573   3.198
    1PA     H8R 9273   5.014   2.470   3.164
    1PA     H8S 9274   4.904   2.605   3.155
    1PA     C17 9275   5.111   2.664   3.143
    1PA     H7R 9276   5.095   2.677   3.036
    1PA     H7S 9277   5.103   2.763   3.188
    1PA     C16 9278   5.255   2.609   3.164
    1PA     H6R 9279   5.325   2.679   3.118
    1PA     H6S 9280   5.277   2.605   3.270
    1PA     C15 9281   5.275   2.469   3.102
    1PA     H5R 9282   5.216   2.397   3.159
    1PA     H5S 9283   5.239   2.467   2.999
    1PA     C14 9284   5.422   2.423   3.108
    1PA     H4R 9285   5.471   2.462   3.198
    1PA     H4S 9286   5.424   2.314   3.116
    1PA     C13 9287   5.501   2.464   2.982
    1PA     H3R 9288   5.449   2.428   2.893
    1PA     H3S 9289   5.507   2.573   2.975
    1PA     C12 9290   5.643   2.404   2.986
    1PA     H2R 9291   5.694   2.438   3.077
    1PA     H2S 9292   5.638   2.295   2.991
    2PC     C11 9293   5.728   2.442   2.867
    2PC     O12 9294   5.683   2.479   2.760
    2PC     O11 9295   5.859   2.435   2.898
    2PC      C1 9296   5.961   2.468   2.800
    2PC      HR 9297   5.931   2.555   2.741
    2PC      HS 9298   6.053   2.493   2.854
    2PC      C2 9299   5.993   2.348   2.707
    2PC      HX 9300   6.092   2.363   2.662
    2PC      C3 9301   5.891   2.334   2.592
    2PC      HA 9302   5.795   2.300   2.630
    2PC      HB 9303   5.880   2.430   2.542
    2PC     O31 9304   5.943   2.236   2.498
    2PC     P31 9305   5.885   2.231   2.350
    2PC     O32 9306   5.731   2.199   2.373
    2PC     C31 9307   5.638   2.309   2.366
    2PC     H1A 9308   5.663   2.381   2.444
    2PC     H1B 9309   5.645   2.356   2.268
    2PC     C32 9310   5.497   2.253   2.388
    2PC     H2A 9311   5.460   2.209   2.295
    2PC     H2B 9312   5.501   2.174   2.463
    2PC     N31 9313   5.392   2.350   2.437
    2PC     C33 9314   5.260   2.279   2.440
    2PC     H3A 9315   5.184   2.347   2.478
    2PC     H3B 9316   5.235   2.248   2.338
    2PC     H3C 9317   5.268   2.191   2.504
    2PC     C34 9318   5.424   2.396   2.577
    2PC     H4A 9319   5.342   2.459   2.613
    2PC     H4B 9320   5.435   2.307   2.641
    2PC     H4C 9321   5.517   2.452   2.576
    2PC     C35 9322   5.382   2.469   2.346
    2PC     H5A 9323   5.480   2.517   2.339
    2PC     H5B 9324   5.310   2.540   2.388
    2PC     H5C 9325   5.349   2.436   2.248
    2PC     O33 9326   5.906   2.360   2.281
    2PC     O34 9327   5.951   2.127   2.270
    2PC     O21 9328   5.993   2.223   2.781
    2PC     C21 9329   6.089   2.201   2.872
    2PC     O22 9330   6.173   2.281   2.906
    3OL     C12 9331   6.082   2.060   2.925
    3OL     H2R 9332   6.182   2.031   2.959
    3OL     H2S 9333   6.055   1.994   2.843
    3OL     C13 9334   5.980   2.043   3.040
    3OL     H3R 9335   5.964   1.936   3.055
    3OL     H3S 9336   5.884   2.087   3.012
    3OL     C14 9337   6.032   2.105   3.171
    3OL     H4R 9338   6.026   2.214   3.167
    3OL     H4S 9339   6.137   2.078   3.183
    3OL     C15 9340   5.956   2.052   3.294
    3OL     H5R 9341   6.014   2.075   3.383
    3OL     H5S 9342   5.948   1.943   3.288
    3OL     C16 9343   5.816   2.114   3.312
    3OL     H6R 9344   5.755   2.096   3.223
    3OL     H6S 9345   5.825   2.222   3.325
    3OL     C17 9346   5.746   2.051   3.435
    3OL     H7R 9347   5.813   2.057   3.521
    3OL     H7S 9348   5.727   1.945   3.416
    3OL     C18 9349   5.614   2.123   3.469
    3OL     H8R 9350   5.548   2.119   3.382
    3OL     H8S 9351   5.634   2.228   3.489
    3OL     C19 9352   5.546   2.059   3.587
    3OL     H9R 9353   5.461   1.995   3.563
    3OL    C110 9354   5.577   2.077   3.715
    3OL    H10R 9355   5.519   2.027   3.792
    3OL    C111 9356   5.693   2.160   3.767
    3OL    H11R 9357   5.656   2.238   3.833
    3OL    H11S 9358   5.746   2.209   3.685
    3OL    C112 9359   5.792   2.071   3.845
    3OL    H12R 9360   5.816   1.983   3.787
    3OL    H12S 9361   5.744   2.038   3.938
    3OL    C113 9362   5.921   2.148   3.878
    3OL    H13R 9363   5.897   2.242   3.927
    3OL    H13S 9364   5.973   2.172   3.785
    3OL    C114 9365   6.014   2.065   3.968
    3OL    H14R 9366   6.037   1.970   3.919
    3OL    H14S 9367   5.962   2.041   4.062
    3OL    C115 9368   6.144   2.140   3.998
    3OL    H15R 9369   6.121   2.235   4.048
    3OL    H15S 9370   6.196   2.163   3.905
    3OL    C116 9371   6.236   2.056   4.089
    3OL    H16R 9372   6.250   1.957   4.044
    3OL    H16S 9373   6.187   2.041   4.185
    3OL    C117 9374   6.375   2.119   4.111
    3OL    H17R 9375   6.429   2.124   4.016
    3OL    H17S 9376   6.433   2.054   4.177
    3OL    C118 9377   6.369   2.260   4.174
    3OL    H18R 9378   6.315   2.257   4.269
    3OL    H18S 9379   6.320   2.330   4.107
    3OL    H18T 9380   0.022   2.296   4.194
    1PA    C116 9381   1.306   3.639   3.915
    1PA    H16R 9382   1.360   3.557   3.962
    1PA    H16S 9383   1.200   3.614   3.915
    1PA    H16T 9384   1.321   3.728   3.975
    1PA    C115 9385   1.357   3.660   3.772
    1PA    H15R 9386   1.465   3.679   3.774
    1PA    H15S 9387   1.341   3.570   3.713
    1PA    C114 9388   1.285   3.779   3.705
    1PA    H14R 9389   1.177   3.763   3.710
    1PA    H14S 9390   1.308   3.871   3.760
    1PA    C113 9391   1.329   3.795   3.558
    1PA    H13R 9392   1.438   3.800   3.553
    1PA    H13S 9393   1.298   3.706   3.501
    1PA    C112 9394   1.271   3.922   3.492
    1PA    H12R 9395   1.303   4.009   3.549
    1PA    H12S 9396   1.313   3.931   3.392
    1PA    C111 9397   1.116   3.920   3.483
    1PA    H11R 9398   1.082   3.832   3.428
    1PA    H11S 9399   1.075   3.913   3.584
    1PA    C110 9400   1.062   4.049   3.418
    1PA    H10R 9401   0.958   4.064   3.448
    1PA    H10S 9402   1.118   4.134   3.457
    1PA     C19 9403   1.072   4.047   3.264
    1PA     H9R 9404   1.076   4.150   3.228
    1PA     H9S 9405   1.164   3.998   3.232
    1PA     C18 9406   0.950   3.978   3.201
    1PA     H8R 9407   0.941   3.877   3.239
    1PA     H8S 9408   0.859   4.032   3.229
    1PA     C17 9409   0.962   3.975   3.047
    1PA     H7R 9410   0.986   4.075   3.010
    1PA     H7S 9411   1.045   3.909   3.019
    1PA     C16 9412   0.833   3.927   2.977
    1PA     H6R 9413   0.751   3.996   3.001
    1PA     H6S 9414   0.848   3.931   2.869
    1PA     C15 9415   0.794   3.784   3.018
    1PA     H5R 9416   0.881   3.720   3.007
    1PA     H5S 9417   0.764   3.782   3.123
    1PA     C14 9418   0.680   3.726   2.931
    1PA     H4R 9419   0.707   3.738   2.826
    1PA     H4S 9420   0.673   3.620   2.952
    1PA     C13 9421   0.542   3.791   2.959
    1PA     H3R 9422   0.513   3.769   3.062
    1PA     H3S 9423   0.549   3.899   2.950
    1PA     C12 9424   0.434   3.737   2.863
    1PA     H2R 9425   0.431   3.628   2.867
    1PA     H2S 9426   0.336   3.773   2.895
    2PC     C11 9427   0.456   3.781   2.720
    2PC     O12 9428   0.521   3.879   2.690
    2PC     O11 9429   0.399   3.700   2.630
    2PC      C1 9430   0.413   3.736   2.489
    2PC      HR 9431   0.369   3.835   2.473
    2PC      HS 9432   0.519   3.740   2.464
    2PC      C2 9433   0.344   3.630   2.401
    2PC      HX 9434   0.399   3.536   2.411
    2PC      C3 9435   0.344   3.671   2.252
    2PC      HA 9436   0.298   3.769   2.239
    2PC      HB 9437   0.447   3.675   2.215
    2PC     O31 9438   0.270   3.571   2.177
    2PC     P31 9439   0.236   3.599   2.024
    2PC     O32 9440   0.142   3.727   2.035
    2PC     C31 9441   0.159   3.832   1.938
    2PC     H1A 9442   0.263   3.866   1.942
    2PC     H1B 9443   0.138   3.793   1.838
    2PC     C32 9444   0.066   3.951   1.972
    2PC     H2A 9445   0.084   3.983   2.074
    2PC     H2B 9446   0.092   4.034   1.906
    2PC     N31 9447   6.364   3.933   1.958
    2PC     C33 9448   6.326   3.879   1.823
    2PC     H3A 9449   6.217   3.874   1.818
    2PC     H3B 9450   6.364   3.946   1.746
    2PC     H3C 9451   6.369   3.780   1.812
    2PC     C34 9452   6.312   3.842   2.066
    2PC     H4A 9453   6.335   3.885   2.163
    2PC     H4B 9454   6.203   3.833   2.053
    2PC     H4C 9455   6.359   3.744   2.055
    2PC     C35 9456   6.299   4.067   1.974
    2PC     H5A 9457   6.326   4.108   2.072
    2PC     H5B 9458   6.191   4.055   1.966
    2PC     H5C 9459   6.335   4.133   1.895
    2PC     O33 9460   0.356   3.623   1.941
    2PC     O34 9461   0.167   3.485   1.960
    2PC     O21 9462   0.207   3.606   2.446
    2PC     C21 9463   0.112   3.702   2.446
    2PC     O22 9464   0.128   3.818   2.413
    3OL     C12 9465   6.430   3.650   2.500
    3OL     H2R 9466   6.407   3.555   2.451
    3OL     H2S 9467   6.349   3.719   2.475
    3OL     C13 9468   6.437   3.628   2.653
    3OL     H3R 9469   0.075   3.565   2.677
    3OL     H3S 9470   6.348   3.576   2.686
    3OL     C14 9471   0.001   3.763   2.728
    3OL     H4R 9472   6.360   3.822   2.708
    3OL     H4S 9473   0.087   3.818   2.691
    3OL     C15 9474   0.016   3.742   2.879
    3OL     H5R 9475   0.108   3.686   2.899
    3OL     H5S 9476   6.381   3.682   2.917
    3OL     C16 9477   0.021   3.878   2.952
    3OL     H6R 9478   6.373   3.930   2.940
    3OL     H6S 9479   0.098   3.940   2.906
    3OL     C17 9480   0.053   3.862   3.102
    3OL     H7R 9481   0.077   3.961   3.143
    3OL     H7S 9482   0.143   3.800   3.114
    3OL     C18 9483   6.385   3.803   3.184
    3OL     H8R 9484   6.355   3.706   3.142
    3OL     H8S 9485   6.300   3.870   3.178
    3OL     C19 9486   6.428   3.787   3.328
    3OL     H9R 9487   0.052   3.862   3.362
    3OL    C110 9488   6.394   3.689   3.410
    3OL    H10R 9489   6.438   3.687   3.510
    3OL    C111 9490   6.291   3.581   3.384
    3OL    H11R 9491   6.341   3.485   3.368
    3OL    H11S 9492   6.231   3.603   3.296
    3OL    C112 9493   6.198   3.568   3.507
    3OL    H12R 9494   6.147   3.663   3.523
    3OL    H12S 9495   6.260   3.549   3.595
    3OL    C113 9496   6.095   3.455   3.490
    3OL    H13R 9497   6.146   3.360   3.478
    3OL    H13S 9498   6.037   3.474   3.400
    3OL    C114 9499   5.998   3.448   3.611
    3OL    H14R 9500   5.917   3.380   3.586
    3OL    H14S 9501   5.954   3.547   3.627
    3OL    C115 9502   6.067   3.398   3.740
    3OL    H15R 9503   6.149   3.465   3.768
    3OL    H15S 9504   6.111   3.300   3.720
    3OL    C116 9505   5.969   3.386   3.858
    3OL    H16R 9506   6.018   3.330   3.938
    3OL    H16S 9507   5.881   3.329   3.827
    3OL    C117 9508   5.927   3.524   3.914
    3OL    H17R 9509   5.881   3.584   3.835
    3OL    H17S 9510   6.016   3.578   3.949
    3OL    C118 9511   5.828   3.509   4.030
    3OL    H18R 9512   5.804   3.606   4.072
    3OL    H18S 9513   5.870   3.446   4.109
    3OL    H18T 9514   5.735   3.462   3.995
    1PA    C116 9515   2.679   2.981   3.432
    1PA    H16R 9516   2.702   3.054   3.510
    1PA    H16S 9517   2.736   3.007   3.342
    1PA    H16T 9518   2.711   2.883   3.466
    1PA    C115 9519   2.529   2.982   3.401
    1PA    H15R 9520   2.472   2.959   3.491
    1PA    H15S 9521   2.499   3.082   3.368
    1PA    C114 9522   2.495   2.879   3.291
    1PA    H14R 9523   2.555   2.900   3.202
    1PA    H14S 9524   2.521   2.779   3.326
    1PA    C113 9525   2.346   2.885   3.256
    1PA    H13R 9526   2.287   2.860   3.344
    1PA    H13S 9527   2.320   2.987   3.226
    1PA    C112 9528   2.311   2.787   3.142
    1PA    H12R 9529   2.373   2.806   3.055
    1PA    H12S 9530   2.332   2.686   3.177
    1PA    C111 9531   2.162   2.796   3.103
    1PA    H11R 9532   2.135   2.706   3.048
    1PA    H11S 9533   2.101   2.799   3.193
    1PA    C110 9534   2.132   2.919   3.015
    1PA    H10R 9535   2.159   3.010   3.068
    1PA    H10S 9536   2.191   2.914   2.923
    1PA     C19 9537   1.982   2.923   2.980
    1PA     H9R 9538   1.954   2.831   2.927
    1PA     H9S 9539   1.923   2.928   3.072
    1PA     C18 9540   1.948   3.045   2.892
    1PA     H8R 9541   1.977   3.137   2.943
    1PA     H8S 9542   2.005   3.040   2.798
    1PA     C17 9543   1.798   3.047   2.860
    1PA     H7R 9544   1.769   2.954   2.810
    1PA     H7S 9545   1.741   3.054   2.953
    1PA     C16 9546   1.761   3.167   2.770
    1PA     H6R 9547   1.791   3.259   2.820
    1PA     H6S 9548   1.816   3.160   2.676
    1PA     C15 9549   1.610   3.168   2.742
    1PA     H5R 9550   1.582   3.070   2.704
    1PA     H5S 9551   1.554   3.183   2.835
    1PA     C14 9552   1.567   3.273   2.636
    1PA     H4R 9553   1.635   3.272   2.551
    1PA     H4S 9554   1.470   3.242   2.598
    1PA     C13 9555   1.550   3.416   2.693
    1PA     H3R 9556   1.475   3.467   2.633
    1PA     H3S 9557   1.510   3.410   2.795
    1PA     C12 9558   1.679   3.500   2.692
    1PA     H2R 9559   1.657   3.598   2.735
    1PA     H2S 9560   1.756   3.454   2.753
    2PC     C11 9561   1.732   3.521   2.553
    2PC     O12 9562   1.835   3.471   2.512
    2PC     O11 9563   1.651   3.599   2.479
    2PC      C1 9564   1.684   3.619   2.339
    2PC      HR 9565   1.789   3.650   2.329
    2PC      HS 9566   1.669   3.526   2.284
    2PC      C2 9567   1.593   3.729   2.283
    2PC      HX 9568   1.488   3.701   2.302
    2PC      C3 9569   1.616   3.749   2.132
    2PC      HA 9570   1.582   3.659   2.078
    2PC      HB 9571   1.561   3.835   2.094
    2PC     O31 9572   1.758   3.766   2.107
    2PC     P31 9573   1.812   3.772   1.957
    2PC     O32 9574   1.884   3.914   1.950
    2PC     C31 9575   1.843   4.019   2.038
    2PC     H1A 9576   1.734   4.032   2.034
    2PC     H1B 9577   1.872   3.994   2.141
    2PC     C32 9578   1.915   4.149   1.994
    2PC     H2A 9579   1.894   4.227   2.067
    2PC     H2B 9580   2.022   4.131   1.992
    2PC     N31 9581   1.879   4.206   1.859
    2PC     C33 9582   1.937   4.123   1.748
    2PC     H3A 9583   2.044   4.115   1.763
    2PC     H3B 9584   1.891   4.023   1.751
    2PC     H3C 9585   1.915   4.172   1.653
    2PC     C34 9586   1.730   4.219   1.842
    2PC     H4A 9587   1.711   4.269   1.746
    2PC     H4B 9588   1.687   4.118   1.841
    2PC     H4C 9589   1.691   4.278   1.924
    2PC     C35 9590   1.937   4.344   1.850
    2PC     H5A 9591   1.898   4.404   1.933
    2PC     H5B 9592   1.908   4.387   1.755
    2PC     H5C 9593   2.046   4.336   1.858
    2PC     O33 9594   1.907   3.662   1.930
    2PC     O34 9595   1.705   3.763   1.855
    2PC     O21 9596   1.625   3.851   2.356
    2PC     C21 9597   1.541   3.956   2.352
    2PC     O22 9598   1.441   3.963   2.282
    3OL     C12 9599   1.583   4.062   2.452
    3OL     H2R 9600   1.676   4.107   2.418
    3OL     H2S 9601   1.603   4.012   2.547
    3OL     C13 9602   1.476   4.172   2.472
    3OL     H3R 9603   1.380   4.127   2.500
    3OL     H3S 9604   1.461   4.223   2.376
    3OL     C14 9605   1.519   4.276   2.577
    3OL     H4R 9606   1.457   4.366   2.566
    3OL     H4S 9607   1.621   4.306   2.557
    3OL     C15 9608   1.508   4.225   2.723
    3OL     H5R 9609   1.571   4.287   2.786
    3OL     H5S 9610   1.545   4.122   2.730
    3OL     C16 9611   1.362   4.232   2.775
    3OL     H6R 9612   1.297   4.183   2.703
    3OL     H6S 9613   1.330   4.336   2.780
    3OL     C17 9614   1.345   4.163   2.912
    3OL     H7R 9615   1.387   4.062   2.907
    3OL     H7S 9616   1.238   4.152   2.933
    3OL     C18 9617   1.410   4.239   3.030
    3OL     H8R 9618   1.516   4.253   3.009
    3OL     H8S 9619   1.403   4.176   3.119
    3OL     C19 9620   1.344   4.373   3.056
    3OL     H9R 9621   1.293   4.417   2.970
    3OL    C110 9622   1.341   4.437   3.172
    3OL    H10R 9623   1.290   4.533   3.178
    3OL    C111 9624   1.408   4.393   3.301
    3OL    H11R 9625   1.488   4.463   3.325
    3OL    H11S 9626   1.454   4.294   3.290
    3OL    C112 9627   1.310   4.393   3.419
    3OL    H12R 9628   1.230   4.321   3.400
    3OL    H12S 9629   1.265   4.492   3.430
    3OL    C113 9630   1.385   4.356   3.549
    3OL    H13R 9631   1.466   4.427   3.564
    3OL    H13S 9632   1.430   4.257   3.538
    3OL    C114 9633   1.292   4.357   3.671
    3OL    H14R 9634   1.213   4.283   3.658
    3OL    H14S 9635   1.245   4.456   3.680
    3OL    C115 9636   1.373   4.326   3.799
    3OL    H15R 9637   1.450   4.402   3.814
    3OL    H15S 9638   1.424   4.230   3.785
    3OL    C116 9639   1.284   4.316   3.924
    3OL    H16R 9640   1.344   4.276   4.006
    3OL    H16S 9641   1.204   4.244   3.905
    3OL    C117 9642   1.225   4.451   3.966
    3OL    H17R 9643   1.160   4.490   3.887
    3OL    H17S 9644   1.305   4.524   3.982
    3OL    C118 9645   1.143   4.437   4.096
    3OL    H18R 9646   1.207   4.405   4.178
    3OL    H18S 9647   1.064   4.363   4.082
    3OL    H18T 9648   1.097   4.532   4.122
    1PA    C116 9649   5.954   4.720   3.981
    1PA    H16R 9650   5.934   4.721   4.089
    1PA    H16S 9651   5.869   4.765   3.930
    1PA    H16T 9652   6.043   4.780   3.962
    1PA    C115 9653   5.974   4.575   3.933
    1PA    H15R 9654   6.056   4.530   3.990
    1PA    H15S 9655   5.884   4.517   3.952
    1PA    C114 9656   6.008   4.572   3.783
    1PA    H14R 9657   5.927   4.620   3.728
    1PA    H14S 9658   6.099   4.628   3.764
    1PA    C113 9659   6.025   4.427   3.732
    1PA    H13R 9660   6.105   4.378   3.789
    1PA    H13S 9661   5.933   4.370   3.750
    1PA    C112 9662   6.061   4.421   3.582
    1PA    H12R 9663   6.150   4.483   3.564
    1PA    H12S 9664   6.088   4.319   3.556
    1PA    C111 9665   5.945   4.467   3.492
    1PA    H11R 9666   5.855   4.410   3.517
    1PA    H11S 9667   5.923   4.573   3.510
    1PA    C110 9668   5.978   4.447   3.344
    1PA    H10R 9669   6.071   4.498   3.320
    1PA    H10S 9670   5.993   4.340   3.325
    1PA     C19 9671   5.865   4.499   3.253
    1PA     H9R 9672   5.773   4.446   3.276
    1PA     H9S 9673   5.849   4.605   3.272
    1PA     C18 9674   5.901   4.478   3.104
    1PA     H8R 9675   5.994   4.531   3.081
    1PA     H8S 9676   5.918   4.372   3.086
    1PA     C17 9677   5.789   4.529   3.012
    1PA     H7R 9678   5.696   4.476   3.035
    1PA     H7S 9679   5.771   4.635   3.030
    1PA     C16 9680   5.826   4.507   2.864
    1PA     H6R 9681   5.916   4.565   2.840
    1PA     H6S 9682   5.848   4.402   2.847
    1PA     C15 9683   5.710   4.551   2.772
    1PA     H5R 9684   5.620   4.495   2.799
    1PA     H5S 9685   5.688   4.657   2.786
    1PA     C14 9686   5.741   4.522   2.623
    1PA     H4R 9687   5.778   4.420   2.613
    1PA     H4S 9688   5.648   4.529   2.567
    1PA     C13 9689   5.842   4.622   2.563
    1PA     H3R 9690   5.805   4.724   2.580
    1PA     H3S 9691   5.939   4.614   2.614
    1PA     C12 9692   5.861   4.601   2.412
    1PA     H2R 9693   5.764   4.598   2.362
    1PA     H2S 9694   5.917   4.683   2.369
    2PC     C11 9695   5.935   4.473   2.382
    2PC     O12 9696   6.056   4.464   2.370
    2PC     O11 9697   5.853   4.367   2.370
    2PC      C1 9698   5.910   4.236   2.346
    2PC      HR 9699   5.975   4.240   2.258
    2PC      HS 9700   5.969   4.204   2.432
    2PC      C2 9701   5.792   4.139   2.319
    2PC      HX 9702   5.830   4.038   2.301
    2PC      C3 9703   5.714   4.190   2.197
    2PC      HA 9704   5.643   4.267   2.229
    2PC      HB 9705   5.782   4.235   2.124
    2PC     O31 9706   5.643   4.082   2.133
    2PC     P31 9707   5.542   4.119   2.016
    2PC     O32 9708   5.517   3.978   1.947
    2PC     C31 9709   5.597   3.937   1.834
    2PC     H1A 9710   5.703   3.950   1.857
    2PC     H1B 9711   5.578   3.831   1.816
    2PC     C32 9712   5.556   4.018   1.709
    2PC     H2A 9713   5.450   4.002   1.690
    2PC     H2B 9714   5.572   4.124   1.729
    2PC     N31 9715   5.627   3.991   1.579
    2PC     C33 9716   5.579   4.092   1.479
    2PC     H3A 9717   5.629   4.073   1.384
    2PC     H3B 9718   5.471   4.082   1.467
    2PC     H3C 9719   5.605   4.192   1.516
    2PC     C34 9720   5.776   4.004   1.593
    2PC     H4A 9721   5.811   3.927   1.661
    2PC     H4B 9722   5.821   3.990   1.495
    2PC     H4C 9723   5.798   4.103   1.631
    2PC     C35 9724   5.593   3.854   1.526
    2PC     H5A 9725   5.485   3.847   1.513
    2PC     H5B 9726   5.627   3.780   1.598
    2PC     H5C 9727   5.644   3.841   1.431
    2PC     O33 9728   5.416   4.172   2.072
    2PC     O34 9729   5.592   4.223   1.923
    2PC     O21 9730   5.702   4.141   2.433
    2PC     C21 9731   5.745   4.099   2.554
    2PC     O22 9732   5.849   4.039   2.572
    3OL     C12 9733   5.648   4.137   2.663
    3OL     H2R 9734   5.558   4.077   2.652
    3OL     H2S 9735   5.619   4.241   2.649
    3OL     C13 9736   5.708   4.120   2.805
    3OL     H3R 9737   5.797   4.183   2.815
    3OL     H3S 9738   5.739   4.016   2.818
    3OL     C14 9739   5.605   4.157   2.913
    3OL     H4R 9740   5.516   4.095   2.901
    3OL     H4S 9741   5.575   4.261   2.902
    3OL     C15 9742   5.662   4.135   3.055
    3OL     H5R 9743   5.736   4.212   3.078
    3OL     H5S 9744   5.712   4.038   3.060
    3OL     C16 9745   5.548   4.138   3.160
    3OL     H6R 9746   5.477   4.059   3.136
    3OL     H6S 9747   5.495   4.234   3.154
    3OL     C17 9748   5.602   4.117   3.303
    3OL     H7R 9749   5.659   4.205   3.334
    3OL     H7S 9750   5.671   4.032   3.303
    3OL     C18 9751   5.489   4.089   3.404
    3OL     H8R 9752   5.533   4.074   3.503
    3OL     H8S 9753   5.440   3.995   3.377
    3OL     C19 9754   5.387   4.201   3.412
    3OL     H9R 9755   5.423   4.291   3.462
    3OL    C110 9756   5.262   4.197   3.368
    3OL    H10R 9757   5.198   4.284   3.381
    3OL    C111 9758   5.198   4.080   3.297
    3OL    H11R 9759   5.218   3.987   3.351
    3OL    H11S 9760   5.241   4.070   3.197
    3OL    C112 9761   5.045   4.096   3.281
    3OL    H12R 9762   5.007   4.016   3.218
    3OL    H12S 9763   5.026   4.189   3.227
    3OL    C113 9764   4.968   4.099   3.415
    3OL    H13R 9765   4.863   4.122   3.394
    3OL    H13S 9766   5.005   4.182   3.476
    3OL    C114 9767   4.976   3.968   3.497
    3OL    H14R 9768   4.925   3.983   3.592
    3OL    H14S 9769   5.081   3.948   3.522
    3OL    C115 9770   4.917   3.844   3.426
    3OL    H15R 9771   4.946   3.756   3.483
    3OL    H15S 9772   4.959   3.833   3.327
    3OL    C116 9773   4.763   3.849   3.419
    3OL    H16R 9774   4.732   3.939   3.365
    3OL    H16S 9775   4.721   3.856   3.519
    3OL    C117 9776   4.704   3.727   3.346
    3OL    H17R 9777   4.752   3.715   3.248
    3OL    H17S 9778   4.597   3.745   3.327
    3OL    C118 9779   4.718   3.597   3.427
    3OL    H18R 9780   4.823   3.570   3.441
    3OL    H18S 9781   4.669   3.514   3.375
    3OL    H18T 9782   4.671   3.608   3.525
    1PA    C116 9783   4.916   5.905   3.951
    1PA    H16R 9784   4.863   5.908   4.047
    1PA    H16S 9785   4.850   5.859   3.878
    1PA    H16T 9786   4.936   6.007   3.920
    1PA    C115 9787   5.047   5.826   3.966
    1PA    H15R 9788   5.111   5.879   4.037
    1PA    H15S 9789   5.027   5.727   4.008
    1PA    C114 9790   5.121   5.813   3.832
    1PA    H14R 9791   5.115   5.907   3.776
    1PA    H14S 9792   5.227   5.795   3.853
    1PA    C113 9793   5.067   5.696   3.746
    1PA    H13R 9794   5.083   5.602   3.800
    1PA    H13S 9795   4.960   5.707   3.732
    1PA    C112 9796   5.134   5.686   3.607
    1PA    H12R 9797   5.093   5.601   3.553
    1PA    H12S 9798   5.110   5.776   3.549
    1PA    C111 9799   5.288   5.671   3.616
    1PA    H11R 9800   5.329   5.761   3.664
    1PA    H11S 9801   5.314   5.586   3.679
    1PA    C110 9802   5.355   5.657   3.478
    1PA    H10R 9803   5.309   5.725   3.406
    1PA    H10S 9804   5.459   5.687   3.489
    1PA     C19 9805   5.351   5.513   3.426
    1PA     H9R 9806   5.390   5.445   3.503
    1PA     H9S 9807   5.248   5.483   3.404
    1PA     C18 9808   5.438   5.501   3.299
    1PA     H8R 9809   5.391   5.556   3.217
    1PA     H8S 9810   5.535   5.548   3.318
    1PA     C17 9811   5.460   5.354   3.259
    1PA     H7R 9812   5.490   5.297   3.348
    1PA     H7S 9813   5.366   5.311   3.222
    1PA     C16 9814   5.571   5.340   3.153
    1PA     H6R 9815   5.660   5.395   3.186
    1PA     H6S 9816   5.599   5.235   3.145
    1PA     C15 9817   5.526   5.390   3.015
    1PA     H5R 9818   5.445   5.328   2.978
    1PA     H5S 9819   5.489   5.493   3.022
    1PA     C14 9820   5.644   5.388   2.915
    1PA     H4R 9821   5.725   5.451   2.952
    1PA     H4S 9822   5.683   5.286   2.907
    1PA     C13 9823   5.598   5.437   2.777
    1PA     H3R 9824   5.522   5.369   2.738
    1PA     H3S 9825   5.553   5.536   2.788
    1PA     C12 9826   5.716   5.444   2.678
    1PA     H2R 9827   5.792   5.512   2.717
    1PA     H2S 9828   5.762   5.345   2.669
    2PC     C11 9829   5.675   5.492   2.541
    2PC     O12 9830   5.737   5.461   2.441
    2PC     O11 9831   5.573   5.580   2.543
    2PC      C1 9832   5.524   5.639   2.419
    2PC      HR 9833   5.450   5.716   2.444
    2PC      HS 9834   5.607   5.687   2.367
    2PC      C2 9835   5.457   5.534   2.327
    2PC      HX 9836   5.528   5.453   2.305
    2PC      C3 9837   5.413   5.602   2.195
    2PC      HA 9838   5.331   5.671   2.216
    2PC      HB 9839   5.496   5.659   2.152
    2PC     O31 9840   5.368   5.502   2.100
    2PC     P31 9841   5.473   5.407   2.028
    2PC     O32 9842   5.463   5.452   1.876
    2PC     C31 9843   5.554   5.553   1.829
    2PC     H1A 9844   5.523   5.650   1.870
    2PC     H1B 9845   5.656   5.530   1.862
    2PC     C32 9846   5.549   5.552   1.676
    2PC     H2A 9847   5.588   5.456   1.639
    2PC     H2B 9848   5.445   5.561   1.643
    2PC     N31 9849   5.625   5.660   1.603
    2PC     C33 9850   5.771   5.658   1.640
    2PC     H3A 9851   5.782   5.679   1.747
    2PC     H3B 9852   5.812   5.560   1.616
    2PC     H3C 9853   5.823   5.735   1.582
    2PC     C34 9854   5.612   5.636   1.455
    2PC     H4A 9855   5.506   5.637   1.430
    2PC     H4B 9856   5.665   5.715   1.402
    2PC     H4C 9857   5.655   5.539   1.432
    2PC     C35 9858   5.568   5.796   1.635
    2PC     H5A 9859   5.580   5.815   1.742
    2PC     H5B 9860   5.462   5.796   1.609
    2PC     H5C 9861   5.622   5.871   1.577
    2PC     O33 9862   5.611   5.421   2.080
    2PC     O34 9863   5.442   5.263   2.043
    2PC     O21 9864   5.338   5.481   2.392
    2PC     C21 9865   5.350   5.374   2.473
    2PC     O22 9866   5.453   5.311   2.490
    3OL     C12 9867   5.221   5.340   2.543
    3OL     H2R 9868   5.180   5.248   2.501
    3OL     H2S 9869   5.149   5.420   2.526
    3OL     C13 9870   5.246   5.323   2.694
    3OL     H3R 9871   5.292   5.415   2.732
    3OL     H3S 9872   5.317   5.242   2.711
    3OL     C14 9873   5.117   5.296   2.773
    3OL     H4R 9874   5.072   5.203   2.738
    3OL     H4S 9875   5.045   5.376   2.756
    3OL     C15 9876   5.150   5.285   2.923
    3OL     H5R 9877   5.202   5.376   2.954
    3OL     H5S 9878   5.218   5.201   2.940
    3OL     C16 9879   5.024   5.268   3.010
    3OL     H6R 9880   4.975   5.173   2.986
    3OL     H6S 9881   4.953   5.348   2.988
    3OL     C17 9882   5.063   5.272   3.159
    3OL     H7R 9883   5.120   5.363   3.178
    3OL     H7S 9884   5.128   5.188   3.182
    3OL     C18 9885   4.941   5.269   3.251
    3OL     H8R 9886   4.894   5.171   3.244
    3OL     H8S 9887   4.868   5.344   3.219
    3OL     C19 9888   4.985   5.294   3.394
    3OL     H9R 9889   5.086   5.261   3.417
    3OL    C110 9890   4.914   5.353   3.490
    3OL    H10R 9891   4.958   5.366   3.588
    3OL    C111 9892   4.772   5.405   3.477
    3OL    H11R 9893   4.752   5.440   3.375
    3OL    H11S 9894   4.759   5.491   3.542
    3OL    C112 9895   4.666   5.298   3.514
    3OL    H12R 9896   4.670   5.217   3.441
    3OL    H12S 9897   4.567   5.344   3.506
    3OL    C113 9898   4.682   5.240   3.657
    3OL    H13R 9899   4.584   5.214   3.696
    3OL    H13S 9900   4.724   5.316   3.722
    3OL    C114 9901   4.772   5.114   3.662
    3OL    H14R 9902   4.802   5.097   3.765
    3OL    H14S 9903   4.863   5.128   3.603
    3OL    C115 9904   4.699   4.987   3.613
    3OL    H15R 9905   4.659   5.003   3.512
    3OL    H15S 9906   4.614   4.966   3.679
    3OL    C116 9907   4.794   4.866   3.611
    3OL    H16R 9908   4.835   4.851   3.711
    3OL    H16S 9909   4.878   4.887   3.544
    3OL    C117 9910   4.721   4.738   3.566
    3OL    H17R 9911   4.677   4.754   3.467
    3OL    H17S 9912   4.640   4.716   3.635
    3OL    C118 9913   4.817   4.618   3.560
    3OL    H18R 9914   4.898   4.637   3.489
    3OL    H18S 9915   4.764   4.529   3.528
    3OL    H18T 9916   4.861   4.599   3.658
    1PA    C116 9917   0.294   5.322   3.977
    1PA    H16R 9918   0.370   5.379   4.031
    1PA    H16S 9919   0.312   5.216   3.994
    1PA    H16T 9920   0.196   5.348   4.018
    1PA    C115 9921   0.301   5.355   3.827
    1PA    H15R 9922   0.285   5.462   3.812
    1PA    H15S 9923   0.400   5.330   3.789
    1PA    C114 9924   0.194   5.276   3.748
    1PA    H14R 9925   0.211   5.169   3.761
    1PA    H14S 9926   0.096   5.298   3.790
    1PA    C113 9927   0.193   5.310   3.598
    1PA    H13R 9928   0.105   5.263   3.554
    1PA    H13S 9929   0.180   5.418   3.584
    1PA    C112 9930   0.317   5.259   3.522
    1PA    H12R 9931   0.360   5.174   3.577
    1PA    H12S 9932   0.287   5.220   3.425
    1PA    C111 9933   0.427   5.366   3.502
    1PA    H11R 9934   0.425   5.439   3.583
    1PA    H11S 9935   0.524   5.316   3.507
    1PA    C110 9936   0.418   5.437   3.365
    1PA    H10R 9937   0.509   5.495   3.350
    1PA    H10S 9938   0.414   5.362   3.285
    1PA     C19 9939   0.296   5.532   3.355
    1PA     H9R 9940   0.203   5.475   3.360
    1PA     H9S 9941   0.298   5.599   3.440
    1PA     C18 9942   0.298   5.617   3.226
    1PA     H8R 9943   0.221   5.694   3.235
    1PA     H8S 9944   0.394   5.668   3.217
    1PA     C17 9945   0.271   5.533   3.099
    1PA     H7R 9946   0.351   5.459   3.088
    1PA     H7S 9947   0.177   5.479   3.107
    1PA     C16 9948   0.270   5.622   2.972
    1PA     H6R 9949   0.349   5.697   2.979
    1PA     H6S 9950   0.292   5.559   2.886
    1PA     C15 9951   0.133   5.689   2.950
    1PA     H5R 9952   0.059   5.613   2.923
    1PA     H5S 9953   0.100   5.734   3.044
    1PA     C14 9954   0.137   5.800   2.843
    1PA     H4R 9955   0.039   5.848   2.835
    1PA     H4S 9956   0.206   5.878   2.878
    1PA     C13 9957   0.182   5.753   2.703
    1PA     H3R 9958   0.208   5.841   2.643
    1PA     H3S 9959   0.272   5.692   2.709
    1PA     C12 9960   0.071   5.676   2.630
    1PA     H2R 9961   0.038   5.592   2.691
    1PA     H2S 9962   6.433   5.741   2.614
    2PC     C11 9963   0.117   5.624   2.496
    2PC     O12 9964   0.182   5.689   2.417
    2PC     O11 9965   0.081   5.495   2.476
    2PC      C1 9966   0.134   5.419   2.364
    2PC      HR 9967   0.093   5.318   2.369
    2PC      HS 9968   0.102   5.466   2.270
    2PC      C2 9969   0.288   5.410   2.369
    2PC      HX 9970   0.332   5.507   2.342
    2PC      C3 9971   0.339   5.302   2.271
    2PC      HA 9972   0.292   5.315   2.173
    2PC      HB 9973   0.448   5.307   2.259
    2PC     O31 9974   0.303   5.172   2.325
    2PC     P31 9975   0.312   5.042   2.235
    2PC     O32 9976   0.468   5.011   2.232
    2PC     C31 9977   0.536   4.981   2.355
    2PC     H1A 9978   0.527   5.066   2.423
    2PC     H1B 9979   0.489   4.893   2.401
    2PC     C32 9980   0.684   4.950   2.325
    2PC     H2A 9981   0.733   4.921   2.418
    2PC     H2B 9982   0.691   4.867   2.255
    2PC     N31 9983   0.770   5.061   2.266
    2PC     C33 9984   0.767   5.184   2.353
    2PC     H3A 9985   0.833   5.259   2.309
    2PC     H3B 9986   0.665   5.222   2.357
    2PC     H3C 9987   0.801   5.157   2.453
    2PC     C34 9988   0.911   5.013   2.256
    2PC     H4A 9989   0.974   5.092   2.215
    2PC     H4B 9990   0.945   4.985   2.356
    2PC     H4C 9991   0.913   4.925   2.191
    2PC     C35 9992   0.725   5.098   2.127
    2PC     H5A 9993   0.624   5.139   2.132
    2PC     H5B 9994   0.725   5.007   2.066
    2PC     H5C 9995   0.794   5.171   2.086
    2PC     O33 9996   0.231   4.931   2.290
    2PC     O34 9997   0.263   5.065   2.098
    2PC     O21 9998   0.325   5.376   2.505
    2PC     C21 9999   0.453   5.370   2.543
    2PC     O2210000   0.547   5.399   2.471
    3OL     C1210001   0.468   5.321   2.685
    3OL     H2R10002   0.395   5.372   2.747
    3OL     H2S10003   0.568   5.346   2.721
    3OL     C1310004   0.446   5.169   2.690
    3OL     H3R10005   0.522   5.121   2.627
    3OL     H3S10006   0.349   5.144   2.648
    3OL     C1410007   0.458   5.110   2.831
    3OL     H4R10008   0.555   5.136   2.875
    3OL     H4S10009   0.454   5.001   2.823
    3OL     C1510010   0.344   5.155   2.925
    3OL     H5R10011   0.248   5.136   2.877
    3OL     H5S10012   0.352   5.262   2.945
    3OL     C1610013   0.352   5.077   3.058
    3OL     H6R10014   0.451   5.091   3.101
    3OL     H6S10015   0.341   4.970   3.038
    3OL     C1710016   0.247   5.121   3.162
    3OL     H7R10017   0.253   5.228   3.179
    3OL     H7S10018   0.272   5.071   3.256
    3OL     C1810019   0.102   5.081   3.126
    3OL     H8R10020   0.044   5.073   3.219
    3OL     H8S10021   0.101   4.981   3.081
    3OL     C1910022   0.035   5.180   3.033
    3OL     H9R10023   0.043   5.157   2.927
    3OL    C11010024   6.411   5.285   3.072
    3OL    H10R10025   6.364   5.348   2.996
    3OL    C11110026   6.394   5.333   3.215
    3OL    H11R10027   6.408   5.441   3.218
    3OL    H11S10028   0.021   5.288   3.280
    3OL    C11210029   6.253   5.298   3.267
    3OL    H12R10030   6.236   5.191   3.254
    3OL    H12S10031   6.178   5.350   3.207
    3OL    C11310032   6.235   5.333   3.416
    3OL    H13R10033   6.313   5.284   3.475
    3OL    H13S10034   6.139   5.292   3.450
    3OL    C11410035   6.236   5.485   3.442
    3OL    H14R10036   6.167   5.534   3.372
    3OL    H14S10037   6.335   5.526   3.423
    3OL    C11510038   6.192   5.520   3.586
    3OL    H15R10039   6.096   5.473   3.608
    3OL    H15S10040   6.177   5.628   3.593
    3OL    C11610041   6.296   5.478   3.692
    3OL    H16R10042   6.392   5.525   3.670
    3OL    H16S10043   6.310   5.370   3.689
    3OL    C11710044   6.249   5.519   3.833
    3OL    H17R10045   6.153   5.472   3.855
    3OL    H17S10046   6.235   5.627   3.837
    3OL    C11810047   6.351   5.477   3.940
    3OL    H18R10048   6.316   5.508   4.039
    3OL    H18S10049   6.365   5.369   3.941
    3OL    H18T10050   0.000   5.525   3.922
    1PA    C11610051   1.709   2.840   3.614
    1PA    H16R10052   1.687   2.771   3.696
    1PA    H16S10053   1.815   2.866   3.617
    1PA    H16T10054   1.650   2.931   3.630
    1PA    C11510055   1.673   2.774   3.480
    1PA    H15R10056   1.731   2.682   3.470
    1PA    H15S10057   1.568   2.746   3.480
    1PA    C11410058   1.703   2.864   3.357
    1PA    H14R10059   1.810   2.882   3.351
    1PA    H14S10060   1.675   2.810   3.267
    1PA    C11310061   1.629   3.000   3.359
    1PA    H13R10062   1.664   3.061   3.442
    1PA    H13S10063   1.654   3.054   3.267
    1PA    C11210064   1.475   2.983   3.367
    1PA    H12R10065   1.441   2.918   3.287
    1PA    H12S10066   1.450   2.934   3.462
    1PA    C11110067   1.400   3.117   3.362
    1PA    H11R10068   1.298   3.101   3.398
    1PA    H11S10069   1.447   3.189   3.430
    1PA    C11010070   1.393   3.175   3.219
    1PA    H10R10071   1.493   3.200   3.184
    1PA    H10S10072   1.352   3.099   3.152
    1PA     C1910073   1.304   3.300   3.217
    1PA     H9R10074   1.205   3.275   3.255
    1PA     H9S10075   1.346   3.376   3.283
    1PA     C1810076   1.289   3.361   3.075
    1PA     H8R10077   1.234   3.455   3.084
    1PA     H8S10078   1.387   3.384   3.034
    1PA     C1710079   1.213   3.267   2.979
    1PA     H7R10080   1.277   3.182   2.953
    1PA     H7S10081   1.124   3.228   3.029
    1PA     C1610082   1.171   3.342   2.851
    1PA     H6R10083   1.103   3.423   2.879
    1PA     H6S10084   1.258   3.386   2.804
    1PA     C1510085   1.101   3.246   2.752
    1PA     H5R10086   1.175   3.179   2.708
    1PA     H5S10087   1.029   3.185   2.806
    1PA     C1410088   1.025   3.323   2.641
    1PA     H4R10089   0.967   3.253   2.582
    1PA     H4S10090   0.954   3.391   2.689
    1PA     C1310091   1.117   3.405   2.548
    1PA     H3R10092   1.054   3.474   2.492
    1PA     H3S10093   1.187   3.466   2.606
    1PA     C1210094   1.193   3.316   2.448
    1PA     H2R10095   1.265   3.252   2.500
    1PA     H2S10096   1.123   3.251   2.395
    2PC     C1110097   1.267   3.400   2.346
    2PC     O1210098   1.341   3.492   2.375
    2PC     O1110099   1.240   3.360   2.220
    2PC      C110100   1.301   3.430   2.108
    2PC      HR10101   1.400   3.467   2.135
    2PC      HS10102   1.312   3.358   2.026
    2PC      C210103   1.212   3.547   2.059
    2PC      HX10104   1.107   3.514   2.053
    2PC      C310105   1.255   3.594   1.920
    2PC      HA10106   1.355   3.637   1.923
    2PC      HB10107   1.254   3.510   1.850
    2PC     O3110108   1.159   3.694   1.876
    2PC     P3110109   1.171   3.747   1.727
    2PC     O3210110   1.043   3.841   1.724
    2PC     C3110111   0.915   3.782   1.695
    2PC     H1A10112   0.918   3.732   1.597
    2PC     H1B10113   0.892   3.708   1.772
    2PC     C3210114   0.808   3.892   1.695
    2PC     H2A10115   0.709   3.847   1.690
    2PC     H2B10116   0.814   3.948   1.789
    2PC     N3110117   0.811   3.995   1.584
    2PC     C3310118   0.704   4.097   1.610
    2PC     H3A10119   0.608   4.046   1.603
    2PC     H3B10120   0.718   4.138   1.709
    2PC     H3C10121   0.711   4.175   1.534
    2PC     C3410122   0.943   4.068   1.579
    2PC     H4A10123   0.962   4.111   1.677
    2PC     H4B10124   1.021   3.996   1.554
    2PC     H4C10125   0.937   4.146   1.503
    2PC     C3510126   0.785   3.931   1.450
    2PC     H5A10127   0.689   3.879   1.456
    2PC     H5B10128   0.865   3.861   1.428
    2PC     H5C10129   0.780   4.010   1.374
    2PC     O3310130   1.296   3.823   1.702
    2PC     O3410131   1.159   3.635   1.631
    2PC     O2110132   1.225   3.661   2.147
    2PC     C2110133   1.139   3.675   2.250
    2PC     O2210134   1.050   3.595   2.274
    3OL     C1210135   1.163   3.802   2.327
    3OL     H2R10136   1.175   3.884   2.256
    3OL     H2S10137   1.256   3.792   2.382
    3OL     C1310138   1.047   3.834   2.424
    3OL     H3R10139   1.034   3.751   2.493
    3OL     H3S10140   0.954   3.844   2.367
    3OL     C1410141   1.074   3.966   2.500
    3OL     H4R10142   1.003   4.041   2.464
    3OL     H4S10143   1.174   4.004   2.478
    3OL     C1510144   1.057   3.950   2.653
    3OL     H5R10145   0.973   3.885   2.676
    3OL     H5S10146   1.032   4.049   2.693
    3OL     C1610147   1.185   3.903   2.725
    3OL     H6R10148   1.174   3.926   2.831
    3OL     H6S10149   1.271   3.958   2.689
    3OL     C1710150   1.210   3.751   2.710
    3OL     H7R10151   1.236   3.728   2.607
    3OL     H7S10152   1.120   3.695   2.735
    3OL     C1810153   1.326   3.704   2.801
    3OL     H8R10154   1.416   3.760   2.777
    3OL     H8S10155   1.345   3.599   2.779
    3OL     C1910156   1.290   3.718   2.948
    3OL     H9R10157   1.183   3.720   2.969
    3OL    C11010158   1.375   3.731   3.049
    3OL    H10R10159   1.336   3.744   3.149
    3OL    C11110160   1.527   3.727   3.039
    3OL    H11R10161   1.567   3.821   3.078
    3OL    H11S10162   1.560   3.718   2.936
    3OL    C11210163   1.587   3.611   3.122
    3OL    H12R10164   1.696   3.618   3.117
    3OL    H12S10165   1.559   3.516   3.076
    3OL    C11310166   1.542   3.614   3.269
    3OL    H13R10167   1.434   3.598   3.275
    3OL    H13S10168   1.563   3.712   3.312
    3OL    C11410169   1.613   3.505   3.352
    3OL    H14R10170   1.721   3.523   3.351
    3OL    H14S10171   1.594   3.407   3.309
    3OL    C11510172   1.560   3.509   3.497
    3OL    H15R10173   1.453   3.489   3.496
    3OL    H15S10174   1.574   3.609   3.540
    3OL    C11610175   1.628   3.405   3.588
    3OL    H16R10176   1.632   3.307   3.539
    3OL    H16S10177   1.567   3.393   3.678
    3OL    C11710178   1.770   3.448   3.631
    3OL    H17R10179   1.766   3.547   3.677
    3OL    H17S10180   1.835   3.455   3.543
    3OL    C11810181   1.830   3.348   3.731
    3OL    H18R10182   1.767   3.341   3.820
    3OL    H18S10183   1.929   3.382   3.763
    3OL    H18T10184   1.839   3.249   3.686
    1PA    C11610185   6.237   3.222   2.853
    1PA    H16R10186   6.285   3.245   2.757
    1PA    H16S10187   6.168   3.139   2.836
    1PA    H16T10188   6.314   3.190   2.923
    1PA    C11510189   6.162   3.345   2.906
    1PA    H15R10190   6.232   3.428   2.912
    1PA    H15S10191   6.084   3.373   2.834
    1PA    C11410192   6.098   3.322   3.044
    1PA    H14R10193   6.176   3.296   3.117
    1PA    H14S10194   6.054   3.416   3.077
    1PA    C11310195   5.990   3.212   3.043
    1PA    H13R10196   5.920   3.229   2.962
    1PA    H13S10197   6.038   3.116   3.026
    1PA    C11210198   5.914   3.205   3.178
    1PA    H12R10199   5.871   3.105   3.188
    1PA    H12S10200   5.983   3.219   3.261
    1PA    C11110201   5.801   3.310   3.183
    1PA    H11R10202   5.844   3.409   3.165
    1PA    H11S10203   5.729   3.292   3.103
    1PA    C11010204   5.729   3.314   3.320
    1PA    H10R10205   5.806   3.326   3.397
    1PA    H10S10206   5.666   3.402   3.326
    1PA     C1910207   5.646   3.188   3.354
    1PA     H9R10208   5.693   3.097   3.318
    1PA     H9S10209   5.644   3.180   3.463
    1PA     C1810210   5.499   3.196   3.308
    1PA     H8R10211   5.439   3.132   3.373
    1PA     H8S10212   5.461   3.298   3.320
    1PA     C1710213   5.478   3.149   3.163
    1PA     H7R10214   5.532   3.215   3.094
    1PA     H7S10215   5.519   3.048   3.151
    1PA     C1610216   5.329   3.149   3.126
    1PA     H6R10217   5.274   3.080   3.191
    1PA     H6S10218   5.289   3.249   3.144
    1PA     C1510219   5.304   3.112   2.979
    1PA     H5R10220   5.202   3.140   2.954
    1PA     H5S10221   5.370   3.170   2.914
    1PA     C1410222   5.321   2.962   2.950
    1PA     H4R10223   5.425   2.932   2.965
    1PA     H4S10224   5.259   2.904   3.019
    1PA     C1310225   5.279   2.931   2.805
    1PA     H3R10226   5.175   2.964   2.790
    1PA     H3S10227   5.341   2.988   2.735
    1PA     C1210228   5.289   2.781   2.773
    1PA     H2R10229   5.393   2.748   2.776
    1PA     H2S10230   5.233   2.723   2.846
    2PC     C1110231   5.232   2.751   2.636
    2PC     O1210232   5.301   2.724   2.539
    2PC     O1110233   5.097   2.764   2.632
    2PC      C110234   5.027   2.738   2.508
    2PC      HR10235   4.922   2.768   2.519
    2PC      HS10236   5.072   2.797   2.427
    2PC      C210237   5.032   2.587   2.473
    2PC      HX10238   5.135   2.552   2.476
    2PC      C310239   4.979   2.559   2.331
    2PC      HA10240   4.872   2.578   2.324
    2PC      HB10241   5.032   2.623   2.259
    2PC     O3110242   5.007   2.420   2.303
    2PC     P3110243   5.024   2.371   2.152
    2PC     O3210244   4.876   2.367   2.094
    2PC     C3110245   4.804   2.243   2.096
    2PC     H1A10246   4.872   2.158   2.086
    2PC     H1B10247   4.751   2.235   2.191
    2PC     C3210248   4.703   2.243   1.979
    2PC     H2A10249   4.635   2.159   1.990
    2PC     H2B10250   4.645   2.335   1.981
    2PC     N3110251   4.759   2.231   1.838
    2PC     C3310252   4.833   2.101   1.822
    2PC     H3A10253   4.920   2.101   1.888
    2PC     H3B10254   4.766   2.019   1.847
    2PC     H3C10255   4.866   2.092   1.718
    2PC     C3410256   4.645   2.233   1.741
    2PC     H4A10257   4.578   2.150   1.763
    2PC     H4B10258   4.591   2.328   1.752
    2PC     H4C10259   4.685   2.224   1.640
    2PC     C3510260   4.851   2.345   1.804
    2PC     H5A10261   4.797   2.439   1.818
    2PC     H5B10262   4.883   2.335   1.700
    2PC     H5C10263   4.938   2.341   1.870
    2PC     O3310264   5.104   2.465   2.072
    2PC     O3410265   5.098   2.244   2.141
    2PC     O2110266   4.950   2.514   2.567
    2PC     C2110267   5.010   2.461   2.676
    2PC     O2210268   5.129   2.468   2.699
    3OL     C1210269   4.911   2.387   2.762
    3OL     H2R10270   4.855   2.318   2.699
    3OL     H2S10271   4.840   2.460   2.802
    3OL     C1310272   4.978   2.309   2.877
    3OL     H3R10273   5.022   2.378   2.949
    3OL     H3S10274   5.060   2.249   2.836
    3OL     C1410275   4.880   2.215   2.948
    3OL     H4R10276   4.935   2.151   3.017
    3OL     H4S10277   4.834   2.149   2.874
    3OL     C1510278   4.770   2.291   3.026
    3OL     H5R10279   4.717   2.360   2.961
    3OL     H5S10280   4.818   2.350   3.105
    3OL     C1610281   4.670   2.194   3.092
    3OL     H6R10282   4.610   2.250   3.165
    3OL     H6S10283   4.723   2.116   3.146
    3OL     C1710284   4.575   2.131   2.989
    3OL     H7R10285   4.632   2.073   2.916
    3OL     H7S10286   4.521   2.209   2.935
    3OL     C1810287   4.474   2.037   3.058
    3OL     H8R10288   4.411   2.097   3.124
    3OL     H8S10289   4.528   1.966   3.119
    3OL     C1910290   4.387   1.969   2.954
    3OL     H9R10291   4.339   2.036   2.883
    3OL    C11010292   4.368   1.838   2.942
    3OL    H10R10293   4.304   1.801   2.862
    3OL    C11110294   4.423   1.730   3.033
    3OL    H11R10295   4.457   1.771   3.128
    3OL    H11S10296   4.508   1.682   2.985
    3OL    C11210297   4.315   1.622   3.060
    3OL    H12R10298   4.277   1.587   2.964
    3OL    H12S10299   4.231   1.665   3.115
    3OL    C11310300   4.372   1.501   3.137
    3OL    H13R10301   4.464   1.468   3.088
    3OL    H13S10302   4.301   1.419   3.131
    3OL    C11410303   4.401   1.532   3.285
    3OL    H14R10304   4.309   1.563   3.334
    3OL    H14S10305   4.473   1.613   3.293
    3OL    C11510306   4.457   1.407   3.356
    3OL    H15R10307   4.549   1.375   3.306
    3OL    H15S10308   4.385   1.325   3.347
    3OL    C11610309   4.486   1.435   3.504
    3OL    H16R10310   4.394   1.465   3.556
    3OL    H16S10311   4.556   1.519   3.511
    3OL    C11710312   4.549   1.314   3.576
    3OL    H17R10313   4.584   1.345   3.675
    3OL    H17S10314   4.636   1.279   3.520
    3OL    C11810315   4.450   1.198   3.594
    3OL    H18R10316   4.496   1.117   3.651
    3OL    H18S10317   4.418   1.157   3.498
    3OL    H18T10318   4.361   1.231   3.649
    1PA    C11610319   5.361   1.445   4.158
    1PA    H16R10320   5.420   1.377   4.220
    1PA    H16S10321   5.295   1.503   4.223
    1PA    H16T10322   5.430   1.514   4.109
    1PA    C11510323   5.279   1.367   4.054
    1PA    H15R10324   5.216   1.295   4.107
    1PA    H15S10325   5.212   1.435   4.000
    1PA    C11410326   5.369   1.292   3.955
    1PA    H14R10327   5.459   1.257   4.007
    1PA    H14S10328   5.315   1.204   3.919
    1PA    C11310329   5.409   1.379   3.833
    1PA    H13R10330   5.320   1.398   3.772
    1PA    H13S10331   5.444   1.476   3.869
    1PA    C11210332   5.521   1.315   3.748
    1PA    H12R10333   5.551   1.385   3.669
    1PA    H12S10334   5.608   1.300   3.811
    1PA    C11110335   5.483   1.180   3.683
    1PA    H11R10336   5.574   1.127   3.656
    1PA    H11S10337   5.432   1.117   3.757
    1PA    C11010338   5.393   1.195   3.558
    1PA    H10R10339   5.332   1.105   3.546
    1PA    H10S10340   5.323   1.278   3.574
    1PA     C1910341   5.473   1.219   3.428
    1PA     H9R10342   5.404   1.256   3.353
    1PA     H9S10343   5.548   1.297   3.444
    1PA     C1810344   5.540   1.089   3.377
    1PA     H8R10345   5.612   1.054   3.451
    1PA     H8S10346   5.465   1.011   3.365
    1PA     C1710347   5.614   1.110   3.243
    1PA     H7R10348   5.680   1.198   3.250
    1PA     H7S10349   5.678   1.023   3.224
    1PA     C1610350   5.516   1.126   3.125
    1PA     H6R10351   5.451   1.039   3.118
    1PA     H6S10352   5.453   1.213   3.143
    1PA     C1510353   5.588   1.147   2.990
    1PA     H5R10354   5.516   1.192   2.921
    1PA     H5S10355   5.671   1.217   3.001
    1PA     C1410356   5.637   1.015   2.927
    1PA     H4R10357   5.718   0.973   2.987
    1PA     H4S10358   5.555   0.943   2.926
    1PA     C1310359   5.686   1.040   2.783
    1PA     H3R10360   5.606   1.091   2.728
    1PA     H3S10361   5.773   1.106   2.784
    1PA     C1210362   5.721   0.908   2.712
    1PA     H2R10363   5.811   0.865   2.756
    1PA     H2S10364   5.640   0.836   2.726
    2PC     C1110365   5.742   0.925   2.563
    2PC     O1210366   5.713   1.026   2.500
    2PC     O1110367   5.799   0.814   2.511
    2PC      C110368   5.811   0.792   2.368
    2PC      HR10369   5.852   0.692   2.353
    2PC      HS10370   5.712   0.795   2.322
    2PC      C210371   5.904   0.894   2.299
    2PC      HX10372   5.857   0.992   2.301
    2PC      C310373   5.928   0.854   2.151
    2PC      HA10374   5.833   0.862   2.098
    2PC      HB10375   5.999   0.921   2.103
    2PC     O3110376   5.976   0.717   2.138
    2PC     P3110377   5.952   0.637   2.001
    2PC     O3210378   6.097   0.596   1.951
    2PC     C3110379   6.128   0.616   1.811
    2PC     H1A10380   6.057   0.560   1.749
    2PC     H1B10381   6.118   0.723   1.788
    2PC     C3210382   6.273   0.573   1.783
    2PC     H2A10383   6.318   0.643   1.712
    2PC     H2B10384   6.331   0.578   1.876
    2PC     N3110385   6.296   0.436   1.723
    2PC     C3310386   6.443   0.412   1.712
    2PC     H3A10387   0.038   0.486   1.645
    2PC     H3B10388   0.039   0.421   1.812
    2PC     H3C10389   0.012   0.311   1.674
    2PC     C3410390   6.239   0.329   1.812
    2PC     H4A10391   6.285   0.339   1.910
    2PC     H4B10392   6.131   0.343   1.818
    2PC     H4C10393   6.263   0.232   1.768
    2PC     C3510394   6.235   0.426   1.586
    2PC     H5A10395   6.275   0.507   1.525
    2PC     H5B10396   6.127   0.435   1.594
    2PC     H5C10397   6.262   0.329   1.543
    2PC     O3310398   5.871   0.514   2.018
    2PC     O3410399   5.882   0.720   1.900
    2PC     O2110400   6.029   0.900   2.374
    2PC     C2110401   6.114   1.002   2.356
    2PC     O2210402   6.106   1.086   2.268
    3OL     C1210403   6.217   1.007   2.467
    3OL     H2R10404   6.306   0.952   2.438
    3OL     H2S10405   6.174   0.958   2.555
    3OL     C1310406   6.252   1.153   2.504
    3OL     H3R10407   6.161   1.212   2.505
    3OL     H3S10408   6.318   1.194   2.428
    3OL     C1410409   6.318   1.162   2.642
    3OL     H4R10410   6.409   1.101   2.644
    3OL     H4S10411   6.250   1.123   2.718
    3OL     C1510412   6.352   1.309   2.675
    3OL     H5R10413   6.265   1.371   2.655
    3OL     H5S10414   6.432   1.344   2.609
    3OL     C1610415   6.393   1.329   2.822
    3OL     H6R10416   6.311   1.298   2.886
    3OL     H6S10417   6.409   1.436   2.839
    3OL     C1710418   0.073   1.253   2.861
    3OL     H7R10419   0.156   1.281   2.796
    3OL     H7S10420   0.056   1.145   2.849
    3OL     C1810421   0.109   1.283   3.008
    3OL     H8R10422   0.018   1.280   3.068
    3OL     H8S10423   0.149   1.384   3.013
    3OL     C1910424   0.212   1.185   3.061
    3OL     H9R10425   0.300   1.172   2.999
    3OL    C11010426   0.202   1.118   3.175
    3OL    H10R10427   0.281   1.049   3.205
    3OL    C11110428   0.085   1.126   3.272
    3OL    H11R10429   0.090   1.043   3.342
    3OL    H11S10430   6.439   1.117   3.218
    3OL    C11210431   0.087   1.259   3.351
    3OL    H12R10432   0.091   1.343   3.281
    3OL    H12S10433   0.177   1.263   3.412
    3OL    C11310434   6.411   1.272   3.440
    3OL    H13R10435   6.413   1.196   3.519
    3OL    H13S10436   6.321   1.256   3.380
    3OL    C11410437   6.405   1.412   3.503
    3OL    H14R10438   6.404   1.488   3.424
    3OL    H14S10439   0.047   1.429   3.564
    3OL    C11510440   6.280   1.429   3.592
    3OL    H15R10441   6.285   1.360   3.676
    3OL    H15S10442   6.191   1.404   3.534
    3OL    C11610443   6.269   1.574   3.643
    3OL    H16R10444   6.262   1.642   3.558
    3OL    H16S10445   6.360   1.600   3.698
    3OL    C11710446   6.146   1.592   3.734
    3OL    H17R10447   6.155   1.526   3.820
    3OL    H17S10448   6.056   1.564   3.680
    3OL    C11810449   6.135   1.738   3.780
    3OL    H18R10450   6.115   1.804   3.696
    3OL    H18S10451   6.227   1.771   3.829
    3OL    H18T10452   6.053   1.748   3.852
    1PA    C11610453   5.622   3.377   3.691
    1PA    H16R10454   5.680   3.293   3.728
    1PA    H16S10455   5.641   3.464   3.754
    1PA    H16T10456   5.654   3.400   3.589
    1PA    C11510457   5.472   3.341   3.693
    1PA    H15R10458   5.457   3.249   3.637
    1PA    H15S10459   5.441   3.324   3.796
    1PA    C11410460   5.387   3.455   3.632
    1PA    H14R10461   5.410   3.548   3.684
    1PA    H14S10462   5.415   3.469   3.527
    1PA    C11310463   5.236   3.427   3.643
    1PA    H13R10464   5.211   3.403   3.747
    1PA    H13S10465   5.181   3.518   3.617
    1PA    C11210466   5.191   3.313   3.550
    1PA    H12R10467   5.215   3.338   3.447
    1PA    H12S10468   5.245   3.221   3.575
    1PA    C11110469   5.039   3.288   3.564
    1PA    H11R10470   5.017   3.271   3.670
    1PA    H11S10471   4.983   3.376   3.533
    1PA    C11010472   4.995   3.164   3.483
    1PA    H10R10473   5.065   3.082   3.499
    1PA    H10S10474   4.898   3.131   3.520
    1PA     C1910475   4.982   3.195   3.333
    1PA     H9R10476   4.908   3.273   3.318
    1PA     H9S10477   5.078   3.232   3.295
    1PA     C1810478   4.943   3.068   3.255
    1PA     H8R10479   5.019   2.992   3.271
    1PA     H8S10480   4.848   3.027   3.293
    1PA     C1710481   4.932   3.096   3.104
    1PA     H7R10482   5.014   3.161   3.073
    1PA     H7S10483   4.943   3.001   3.051
    1PA     C1610484   4.797   3.160   3.065
    1PA     H6R10485   4.717   3.086   3.079
    1PA     H6S10486   4.775   3.243   3.132
    1PA     C1510487   4.795   3.212   2.920
    1PA     H5R10488   4.697   3.255   2.899
    1PA     H5S10489   4.868   3.293   2.911
    1PA     C1410490   4.827   3.103   2.816
    1PA     H4R10491   4.925   3.059   2.837
    1PA     H4S10492   4.753   3.023   2.822
    1PA     C1310493   4.831   3.161   2.673
    1PA     H3R10494   4.733   3.200   2.646
    1PA     H3S10495   4.902   3.243   2.670
    1PA     C1210496   4.873   3.052   2.573
    1PA     H2R10497   4.962   3.001   2.611
    1PA     H2S10498   4.795   2.977   2.563
    2PC     C1110499   4.907   3.106   2.437
    2PC     O1210500   4.871   3.215   2.395
    2PC     O1110501   4.987   3.021   2.370
    2PC      C110502   5.019   3.047   2.231
    2PC      HR10503   5.023   3.155   2.211
    2PC      HS10504   5.118   3.004   2.210
    2PC      C210505   4.915   2.979   2.140
    2PC      HX10506   4.912   2.871   2.162
    2PC      C310507   4.950   3.001   1.992
    2PC      HA10508   5.048   2.957   1.970
    2PC      HB10509   4.875   2.955   1.927
    2PC     O3110510   4.956   3.144   1.968
    2PC     P3110511   5.005   3.199   1.827
    2PC     O3210512   4.890   3.137   1.737
    2PC     C3110513   4.880   3.179   1.600
    2PC     H1A10514   4.866   3.288   1.598
    2PC     H1B10515   4.972   3.155   1.546
    2PC     C3210516   4.758   3.111   1.536
    2PC     H2A10517   4.672   3.123   1.601
    2PC     H2B10518   4.736   3.159   1.441
    2PC     N3110519   4.767   2.963   1.505
    2PC     C3310520   4.634   2.917   1.453
    2PC     H3A10521   4.611   2.973   1.363
    2PC     H3B10522   4.641   2.810   1.431
    2PC     H3C10523   4.559   2.934   1.530
    2PC     C3410524   4.872   2.936   1.400
    2PC     H4A10525   4.870   2.830   1.376
    2PC     H4B10526   4.848   2.996   1.312
    2PC     H4C10527   4.969   2.965   1.440
    2PC     C3510528   4.799   2.882   1.628
    2PC     H5A10529   4.896   2.913   1.666
    2PC     H5B10530   4.801   2.776   1.600
    2PC     H5C10531   4.720   2.899   1.702
    2PC     O3310532   4.999   3.347   1.827
    2PC     O3410533   5.141   3.155   1.791
    2PC     O2110534   4.785   3.037   2.169
    2PC     C2110535   4.673   2.976   2.126
    2PC     O2210536   4.672   2.874   2.060
    3OL     C1210537   4.547   3.046   2.172
    3OL     H2R10538   4.461   2.984   2.145
    3OL     H2S10539   4.538   3.141   2.119
    3OL     C1310540   4.548   3.072   2.324
    3OL     H3R10541   4.621   3.149   2.347
    3OL     H3S10542   4.577   2.980   2.375
    3OL     C1410543   4.409   3.116   2.374
    3OL     H4R10544   4.336   3.037   2.356
    3OL     H4S10545   4.377   3.204   2.317
    3OL     C1510546   4.409   3.153   2.524
    3OL     H5R10547   4.311   3.195   2.549
    3OL     H5S10548   4.483   3.231   2.542
    3OL     C1610549   4.436   3.032   2.616
    3OL     H6R10550   4.537   2.993   2.598
    3OL     H6S10551   4.365   2.952   2.594
    3OL     C1710552   4.423   3.074   2.764
    3OL     H7R10553   4.323   3.113   2.781
    3OL     H7S10554   4.494   3.154   2.785
    3OL     C1810555   4.448   2.956   2.860
    3OL     H8R10556   4.549   2.916   2.844
    3OL     H8S10557   4.377   2.877   2.839
    3OL     C1910558   4.430   3.002   3.003
    3OL     H9R10559   4.379   3.097   3.015
    3OL    C11010560   4.476   2.940   3.111
    3OL    H10R10561   4.459   2.985   3.209
    3OL    C11110562   4.546   2.806   3.115
    3OL    H11R10563   4.646   2.819   3.158
    3OL    H11S10564   4.558   2.764   3.015
    3OL    C11210565   4.466   2.708   3.203
    3OL    H12R10566   4.372   2.684   3.153
    3OL    H12S10567   4.442   2.759   3.297
    3OL    C11310568   4.543   2.579   3.234
    3OL    H13R10569   4.637   2.602   3.285
    3OL    H13S10570   4.569   2.529   3.140
    3OL    C11410571   4.460   2.481   3.321
    3OL    H14R10572   4.515   2.387   3.329
    3OL    H14S10573   4.365   2.460   3.271
    3OL    C11510574   4.434   2.537   3.463
    3OL    H15R10575   4.379   2.630   3.455
    3OL    H15S10576   4.529   2.559   3.512
    3OL    C11610577   4.350   2.440   3.549
    3OL    H16R10578   4.259   2.414   3.494
    3OL    H16S10579   4.319   2.493   3.640
    3OL    C11710580   4.423   2.310   3.590
    3OL    H17R10581   4.453   2.255   3.501
    3OL    H17S10582   4.353   2.247   3.645
    3OL    C11810583   4.545   2.337   3.680
    3OL    H18R10584   4.623   2.391   3.625
    3OL    H18S10585   4.587   2.242   3.714
    3OL    H18T10586   4.517   2.395   3.767
    1PA    C11610587   1.473   2.514   3.309
    1PA    H16R10588   1.430   2.570   3.393
    1PA    H16S10589   1.559   2.569   3.270
    1PA    H16T10590   1.508   2.419   3.348
    1PA    C11510591   1.369   2.491   3.198
    1PA    H15R10592   1.415   2.432   3.119
    1PA    H15S10593   1.286   2.432   3.238
    1PA    C11410594   1.316   2.623   3.139
    1PA    H14R10595   1.401   2.685   3.108
    1PA    H14S10596   1.258   2.600   3.050
    1PA    C11310597   1.228   2.700   3.239
    1PA    H13R10598   1.144   2.638   3.272
    1PA    H13S10599   1.288   2.724   3.328
    1PA    C11210600   1.176   2.833   3.181
    1PA    H12R10601   1.141   2.896   3.262
    1PA    H12S10602   1.257   2.886   3.131
    1PA    C11110603   1.059   2.810   3.082
    1PA    H11R10604   1.092   2.744   3.002
    1PA    H11S10605   0.976   2.762   3.134
    1PA    C11010606   1.014   2.945   3.022
    1PA    H10R10607   0.986   3.012   3.103
    1PA    H10S10608   1.097   2.991   2.968
    1PA     C1910609   0.894   2.930   2.926
    1PA     H9R10610   0.809   2.887   2.980
    1PA     H9S10611   0.863   3.029   2.892
    1PA     C1810612   0.927   2.842   2.803
    1PA     H8R10613   1.018   2.880   2.757
    1PA     H8S10614   0.945   2.740   2.835
    1PA     C1710615   0.812   2.844   2.701
    1PA     H7R10616   0.718   2.819   2.752
    1PA     H7S10617   0.800   2.945   2.660
    1PA     C1610618   0.833   2.743   2.586
    1PA     H6R10619   0.833   2.642   2.628
    1PA     H6S10620   0.749   2.748   2.518
    1PA     C1510621   0.965   2.762   2.507
    1PA     H5R10622   1.050   2.744   2.573
    1PA     H5S10623   0.970   2.686   2.429
    1PA     C1410624   0.981   2.901   2.442
    1PA     H4R10625   0.981   2.979   2.518
    1PA     H4S10626   1.079   2.905   2.393
    1PA     C1310627   0.872   2.930   2.337
    1PA     H3R10628   0.865   2.848   2.265
    1PA     H3S10629   0.775   2.936   2.388
    1PA     C1210630   0.896   3.063   2.263
    1PA     H2R10631   0.804   3.090   2.211
    1PA     H2S10632   0.915   3.142   2.336
    2PC     C1110633   1.008   3.062   2.161
    2PC     O1210634   1.038   3.162   2.098
    2PC     O1110635   1.069   2.942   2.147
    2PC      C110636   1.178   2.923   2.052
    2PC      HR10637   1.198   2.816   2.045
    2PC      HS10638   1.146   2.959   1.954
    2PC      C210639   1.306   2.997   2.096
    2PC      HX10640   1.287   3.105   2.100
    2PC      C310641   1.424   2.966   2.000
    2PC      HA10642   1.509   3.031   2.022
    2PC      HB10643   1.454   2.862   2.015
    2PC     O3110644   1.383   2.984   1.862
    2PC     P3110645   1.472   2.921   1.745
    2PC     O3210646   1.471   3.040   1.640
    2PC     C3110647   1.360   3.055   1.550
    2PC     H1A10648   1.349   2.963   1.492
    2PC     H1B10649   1.269   3.074   1.607
    2PC     C3210650   1.392   3.173   1.455
    2PC     H2A10651   1.487   3.153   1.405
    2PC     H2B10652   1.314   3.179   1.379
    2PC     N3110653   1.403   3.312   1.515
    2PC     C3310654   1.276   3.350   1.585
    2PC     H3A10655   1.285   3.453   1.618
    2PC     H3B10656   1.193   3.340   1.514
    2PC     H3C10657   1.262   3.283   1.670
    2PC     C3410658   1.517   3.324   1.612
    2PC     H4A10659   1.524   3.427   1.645
    2PC     H4B10660   1.497   3.259   1.698
    2PC     H4C10661   1.608   3.293   1.562
    2PC     C3510662   1.427   3.410   1.403
    2PC     H5A10663   1.521   3.385   1.354
    2PC     H5B10664   1.433   3.510   1.446
    2PC     H5C10665   1.344   3.404   1.333
    2PC     O3310666   1.614   2.891   1.774
    2PC     O3410667   1.417   2.793   1.696
    2PC     O2110668   1.342   2.945   2.227
    2PC     C2110669   1.419   3.020   2.307
    2PC     O2210670   1.448   3.136   2.284
    3OL     C1210671   1.464   2.947   2.431
    3OL     H2R10672   1.522   3.016   2.493
    3OL     H2S10673   1.530   2.866   2.401
    3OL     C1310674   1.344   2.891   2.511
    3OL     H3R10675   1.293   2.815   2.451
    3OL     H3S10676   1.273   2.971   2.530
    3OL     C1410677   1.386   2.828   2.646
    3OL     H4R10678   1.296   2.793   2.697
    3OL     H4S10679   1.430   2.905   2.710
    3OL     C1510680   1.484   2.711   2.630
    3OL     H5R10681   1.578   2.747   2.588
    3OL     H5S10682   1.442   2.638   2.560
    3OL     C1610683   1.512   2.642   2.765
    3OL     H6R10684   1.418   2.610   2.810
    3OL     H6S10685   1.558   2.714   2.834
    3OL     C1710686   1.605   2.521   2.746
    3OL     H7R10687   1.704   2.556   2.714
    3OL     H7S10688   1.566   2.456   2.668
    3OL     C1810689   1.619   2.441   2.877
    3OL     H8R10690   1.522   2.397   2.900
    3OL     H8S10691   1.645   2.509   2.958
    3OL     C1910692   1.722   2.331   2.861
    3OL     H9R10693   1.721   2.281   2.765
    3OL    C11010694   1.814   2.298   2.951
    3OL    H10R10695   1.885   2.219   2.928
    3OL    C11110696   1.824   2.355   3.091
    3OL    H11R10697   1.872   2.281   3.156
    3OL    H11S10698   1.725   2.374   3.132
    3OL    C11210699   1.907   2.485   3.093
    3OL    H12R10700   1.849   2.564   3.044
    3OL    H12S10701   1.999   2.472   3.035
    3OL    C11310702   1.941   2.530   3.236
    3OL    H13R10703   1.857   2.512   3.303
    3OL    H13S10704   1.959   2.638   3.236
    3OL    C11410705   2.067   2.458   3.288
    3OL    H14R10706   2.148   2.472   3.216
    3OL    H14S10707   2.048   2.351   3.296
    3OL    C11510708   2.111   2.513   3.426
    3OL    H15R10709   2.028   2.504   3.496
    3OL    H15S10710   2.135   2.619   3.418
    3OL    C11610711   2.233   2.436   3.482
    3OL    H16R10712   2.211   2.329   3.482
    3OL    H16S10713   2.248   2.467   3.586
    3OL    C11710714   2.362   2.463   3.402
    3OL    H17R10715   2.387   2.570   3.406
    3OL    H17S10716   2.348   2.436   3.298
    3OL    C11810717   2.479   2.382   3.459
    3OL    H18R10718   2.501   2.412   3.562
    3OL    H18S10719   2.569   2.397   3.399
    3OL    H18T10720   2.456   2.275   3.459
    1PA    C11610721   5.220   5.510   4.223
    1PA    H16R10722   5.295   5.539   4.297
    1PA    H16S10723   5.146   5.446   4.272
    1PA    H16T10724   5.169   5.600   4.188
    1PA    C11510725   5.285   5.435   4.106
    1PA    H15R10726   5.330   5.342   4.142
    1PA    H15S10727   5.208   5.410   4.033
    1PA    C11410728   5.392   5.522   4.039
    1PA    H14R10729   5.346   5.614   4.002
    1PA    H14S10730   5.468   5.551   4.113
    1PA    C11310731   5.460   5.449   3.922
    1PA    H13R10732   5.511   5.359   3.959
    1PA    H13S10733   5.385   5.417   3.850
    1PA    C11210734   5.562   5.543   3.854
    1PA    H12R10735   5.510   5.633   3.821
    1PA    H12S10736   5.638   5.573   3.926
    1PA    C11110737   5.629   5.476   3.732
    1PA    H11R10738   5.685   5.388   3.764
    1PA    H11S10739   5.552   5.444   3.662
    1PA    C11010740   5.723   5.577   3.664
    1PA    H10R10741   5.668   5.671   3.648
    1PA    H10S10742   5.807   5.600   3.729
    1PA     C1910743   5.773   5.526   3.528
    1PA     H9R10744   5.838   5.439   3.541
    1PA     H9S10745   5.688   5.495   3.467
    1PA     C1810746   5.850   5.638   3.455
    1PA     H8R10747   5.794   5.731   3.464
    1PA     H8S10748   5.947   5.654   3.505
    1PA     C1710749   5.872   5.608   3.306
    1PA     H7R10750   5.935   5.520   3.294
    1PA     H7S10751   5.775   5.586   3.260
    1PA     C1610752   5.935   5.730   3.237
    1PA     H6R10753   5.877   5.819   3.264
    1PA     H6S10754   6.037   5.747   3.275
    1PA     C1510755   5.936   5.719   3.084
    1PA     H5R10756   5.840   5.679   3.050
    1PA     H5S10757   5.946   5.819   3.042
    1PA     C1410758   6.051   5.631   3.030
    1PA     H4R10759   6.147   5.671   3.064
    1PA     H4S10760   6.041   5.529   3.068
    1PA     C1310761   6.046   5.630   2.876
    1PA     H3R10762   5.950   5.592   2.843
    1PA     H3S10763   6.055   5.733   2.839
    1PA     C1210764   6.158   5.544   2.815
    1PA     H2R10765   6.256   5.582   2.846
    1PA     H2S10766   6.149   5.441   2.850
    2PC     C1110767   6.150   5.546   2.665
    2PC     O1210768   6.214   5.623   2.596
    2PC     O1110769   6.063   5.456   2.615
    2PC      C110770   6.068   5.429   2.472
    2PC      HR10771   5.979   5.372   2.442
    2PC      HS10772   6.068   5.522   2.415
    2PC      C210773   6.194   5.345   2.440
    2PC      HX10774   6.282   5.387   2.491
    2PC      C310775   6.229   5.340   2.290
    2PC      HA10776   6.285   5.431   2.264
    2PC      HB10777   6.292   5.253   2.269
    2PC     O3110778   6.109   5.335   2.208
    2PC     P3110779   6.126   5.336   2.049
    2PC     O3210780   6.115   5.180   2.018
    2PC     C3110781   6.231   5.110   1.972
    2PC     H1A10782   6.269   5.157   1.881
    2PC     H1B10783   6.308   5.113   2.049
    2PC     C3210784   6.194   4.962   1.942
    2PC     H2A10785   6.285   4.909   1.913
    2PC     H2B10786   6.155   4.916   2.032
    2PC     N3110787   6.094   4.934   1.832
    2PC     C3310788   6.089   4.786   1.808
    2PC     H3A10789   6.015   4.766   1.730
    2PC     H3B10790   6.188   4.753   1.777
    2PC     H3C10791   6.060   4.737   1.901
    2PC     C3410792   5.955   4.980   1.869
    2PC     H4A10793   5.926   4.929   1.961
    2PC     H4B10794   5.956   5.088   1.884
    2PC     H4C10795   5.887   4.954   1.788
    2PC     C3510796   6.135   5.000   1.703
    2PC     H5A10797   6.064   4.970   1.625
    2PC     H5B10798   6.235   4.966   1.677
    2PC     H5C10799   6.132   5.109   1.716
    2PC     O3310800   6.018   5.409   1.979
    2PC     O3410801   6.251   5.401   2.004
    2PC     O2110802   6.170   5.210   2.488
    2PC     C2110803   6.206   5.181   2.615
    2PC     O2210804   6.274   5.253   2.684
    3OL     C1210805   6.149   5.049   2.662
    3OL     H2R10806   6.201   4.969   2.610
    3OL     H2S10807   6.043   5.043   2.633
    3OL     C1310808   6.163   5.030   2.815
    3OL     H3R10809   6.268   5.045   2.843
    3OL     H3S10810   6.138   4.927   2.841
    3OL     C1410811   6.074   5.127   2.897
    3OL     H4R10812   6.057   5.218   2.840
    3OL     H4S10813   6.126   5.156   2.988
    3OL     C1510814   5.937   5.064   2.933
    3OL     H5R10815   5.908   4.992   2.856
    3OL     H5S10816   5.861   5.142   2.933
    3OL     C1610817   5.939   4.995   3.071
    3OL     H6R10818   6.033   4.941   3.085
    3OL     H6S10819   5.858   4.921   3.075
    3OL     C1710820   5.918   5.097   3.186
    3OL     H7R10821   5.823   5.148   3.172
    3OL     H7S10822   5.997   5.173   3.181
    3OL     C1810823   5.921   5.030   3.324
    3OL     H8R10824   6.016   4.979   3.337
    3OL     H8S10825   5.841   4.956   3.331
    3OL     C1910826   5.906   5.135   3.433
    3OL     H9R10827   5.933   5.236   3.403
    3OL    C11010828   5.861   5.115   3.557
    3OL    H10R10829   5.854   5.200   3.624
    3OL    C11110830   5.818   4.983   3.618
    3OL    H11R10831   5.880   4.964   3.706
    3OL    H11S10832   5.834   4.900   3.549
    3OL    C11210833   5.670   4.989   3.661
    3OL    H12R10834   5.607   4.993   3.572
    3OL    H12S10835   5.654   5.082   3.716
    3OL    C11310836   5.627   4.871   3.751
    3OL    H13R10837   5.523   4.885   3.780
    3OL    H13S10838   5.686   4.873   3.843
    3OL    C11410839   5.642   4.731   3.686
    3OL    H14R10840   5.614   4.656   3.759
    3OL    H14S10841   5.746   4.714   3.659
    3OL    C11510842   5.553   4.716   3.561
    3OL    H15R10843   5.587   4.785   3.484
    3OL    H15S10844   5.450   4.740   3.587
    3OL    C11610845   5.560   4.572   3.504
    3OL    H16R10846   5.527   4.501   3.580
    3OL    H16S10847   5.664   4.549   3.481
    3OL    C11710848   5.475   4.557   3.376
    3OL    H17R10849   5.498   4.460   3.331
    3OL    H17S10850   5.503   4.634   3.304
    3OL    C11810851   5.324   4.563   3.405
    3OL    H18R10852   5.296   4.490   3.482
    3OL    H18S10853   5.268   4.541   3.315
    3OL    H18T10854   5.295   4.663   3.440
    1PA    C11610855   4.322   2.016   3.892
    1PA    H16R10856   4.352   1.954   3.977
    1PA    H16S10857   4.215   2.035   3.899
    1PA    H16T10858   4.375   2.111   3.899
    1PA    C11510859   4.355   1.945   3.759
    1PA    H15R10860   4.296   1.853   3.752
    1PA    H15S10861   4.325   2.010   3.677
    1PA    C11410862   4.505   1.911   3.750
    1PA    H14R10863   4.565   2.003   3.759
    1PA    H14S10864   4.532   1.848   3.835
    1PA    C11310865   4.541   1.836   3.619
    1PA    H13R10866   4.643   1.797   3.627
    1PA    H13S10867   4.475   1.750   3.610
    1PA    C11210868   4.530   1.923   3.492
    1PA    H12R10869   4.530   1.858   3.404
    1PA    H12S10870   4.434   1.975   3.492
    1PA    C11110871   4.644   2.027   3.478
    1PA    H11R10872   4.607   2.109   3.416
    1PA    H11S10873   4.670   2.068   3.575
    1PA    C11010874   4.769   1.968   3.410
    1PA    H10R10875   4.808   1.885   3.469
    1PA    H10S10876   4.743   1.931   3.311
    1PA     C1910877   4.877   2.078   3.396
    1PA     H9R10878   4.835   2.164   3.344
    1PA     H9S10879   4.907   2.111   3.496
    1PA     C1810880   5.001   2.027   3.320
    1PA     H8R10881   5.044   1.942   3.373
    1PA     H8S10882   4.972   1.994   3.220
    1PA     C1710883   5.106   2.140   3.309
    1PA     H7R10884   5.066   2.223   3.250
    1PA     H7S10885   5.126   2.177   3.409
    1PA     C1610886   5.239   2.091   3.248
    1PA     H6R10887   5.318   2.161   3.277
    1PA     H6S10888   5.265   1.995   3.291
    1PA     C1510889   5.238   2.080   3.095
    1PA     H5R10890   5.160   2.010   3.064
    1PA     H5S10891   5.215   2.177   3.050
    1PA     C1410892   5.376   2.030   3.046
    1PA     H4R10893   5.453   2.097   3.084
    1PA     H4S10894   5.396   1.931   3.088
    1PA     C1310895   5.387   2.024   2.893
    1PA     H3R10896   5.360   2.120   2.849
    1PA     H3S10897   5.492   2.006   2.868
    1PA     C1210898   5.301   1.911   2.833
    1PA     H2R10899   5.323   1.817   2.884
    1PA     H2S10900   5.196   1.933   2.849
    2PC     C1110901   5.325   1.893   2.686
    2PC     O1210902   5.259   1.950   2.600
    2PC     O1110903   5.425   1.807   2.659
    2PC      C110904   5.454   1.768   2.522
    2PC      HR10905   5.526   1.686   2.523
    2PC      HS10906   5.361   1.732   2.476
    2PC      C210907   5.511   1.887   2.441
    2PC      HX10908   5.449   1.976   2.453
    2PC      C310909   5.516   1.851   2.291
    2PC      HA10910   5.609   1.800   2.267
    2PC      HB10911   5.433   1.785   2.267
    2PC     O3110912   5.503   1.972   2.212
    2PC     P3110913   5.507   1.956   2.054
    2PC     O3210914   5.662   1.961   2.026
    2PC     C3110915   5.725   2.090   2.009
    2PC     H1A10916   5.669   2.149   1.936
    2PC     H1B10917   5.726   2.143   2.105
    2PC     C3210918   5.869   2.068   1.958
    2PC     H2A10919   5.909   2.164   1.924
    2PC     H2B10920   5.932   2.032   2.040
    2PC     N3110921   5.889   1.970   1.844
    2PC     C3310922   6.024   1.991   1.784
    2PC     H3A10923   6.028   2.092   1.741
    2PC     H3B10924   6.099   1.982   1.863
    2PC     H3C10925   6.041   1.916   1.706
    2PC     C3410926   5.882   1.829   1.895
    2PC     H4A10927   5.905   1.761   1.813
    2PC     H4B10928   5.954   1.818   1.976
    2PC     H4C10929   5.781   1.809   1.932
    2PC     C3510930   5.786   1.988   1.735
    2PC     H5A10931   5.688   1.968   1.777
    2PC     H5B10932   5.808   1.917   1.655
    2PC     H5C10933   5.793   2.091   1.698
    2PC     O3310934   5.444   1.830   2.009
    2PC     O3410935   5.431   2.058   1.978
    2PC     O2110936   5.647   1.912   2.485
    2PC     C2110937   5.667   1.990   2.593
    2PC     O2210938   5.584   2.065   2.640
    3OL     C1210939   5.805   1.971   2.652
    3OL     H2R10940   5.820   2.045   2.731
    3OL     H2S10941   5.878   1.990   2.574
    3OL     C1310942   5.826   1.829   2.709
    3OL     H3R10943   5.930   1.817   2.739
    3OL     H3S10944   5.806   1.755   2.631
    3OL     C1410945   5.735   1.803   2.831
    3OL     H4R10946   5.631   1.818   2.801
    3OL     H4S10947   5.756   1.876   2.910
    3OL     C1510948   5.748   1.660   2.886
    3OL     H5R10949   5.749   1.588   2.804
    3OL     H5S10950   5.658   1.639   2.945
    3OL     C1610951   5.871   1.641   2.977
    3OL     H6R10952   5.873   1.720   3.052
    3OL     H6S10953   5.962   1.647   2.918
    3OL     C1710954   5.863   1.504   3.048
    3OL     H7R10955   5.862   1.423   2.975
    3OL     H7S10956   5.769   1.498   3.104
    3OL     C1810957   5.979   1.483   3.148
    3OL     H8R10958   5.951   1.400   3.213
    3OL     H8S10959   5.991   1.571   3.210
    3OL     C1910960   6.108   1.445   3.078
    3OL     H9R10961   6.102   1.356   3.016
    3OL    C11010962   6.224   1.510   3.084
    3OL    H10R10963   6.308   1.471   3.028
    3OL    C11110964   6.254   1.637   3.161
    3OL    H11R10965   6.356   1.632   3.199
    3OL    H11S10966   6.189   1.646   3.249
    3OL    C11210967   6.238   1.763   3.073
    3OL    H12R10968   6.278   1.849   3.127
    3OL    H12S10969   6.132   1.781   3.057
    3OL    C11310970   6.307   1.753   2.935
    3OL    H13R10971   6.289   1.845   2.879
    3OL    H13S10972   6.260   1.672   2.877
    3OL    C11410973   0.011   1.729   2.943
    3OL    H14R10974   0.031   1.636   2.998
    3OL    H14S10975   0.059   1.811   2.997
    3OL    C11510976   0.071   1.718   2.802
    3OL    H15R10977   0.057   1.812   2.749
    3OL    H15S10978   0.017   1.641   2.745
    3OL    C11610979   0.220   1.682   2.806
    3OL    H16R10980   0.234   1.590   2.864
    3OL    H16S10981   0.275   1.761   2.857
    3OL    C11710982   0.275   1.662   2.664
    3OL    H17R10983   0.261   1.754   2.607
    3OL    H17S10984   0.220   1.583   2.613
    3OL    C11810985   0.425   1.626   2.667
    3OL    H18R10986   0.439   1.531   2.720
    3OL    H18S10987   0.483   1.703   2.718
    3OL    H18T10988   0.463   1.615   2.565
    1PA    C11610989   5.931   4.038   4.117
    1PA    H16R10990   5.953   4.137   4.077
    1PA    H16S10991   5.964   4.035   4.221
    1PA    H16T10992   5.822   4.023   4.115
    1PA    C11510993   6.001   3.928   4.035
    1PA    H15R10994   6.109   3.944   4.038
    1PA    H15S10995   5.981   3.832   4.082
    1PA    C11410996   5.953   3.924   3.889
    1PA    H14R10997   5.986   3.829   3.845
    1PA    H14S10998   5.844   3.924   3.886
    1PA    C11310999   6.008   4.041   3.805
    1PA    H13R11000   5.975   4.135   3.849
    1PA    H13S11001   6.117   4.041   3.808
    1PA    C11211002   5.961   4.037   3.658
    1PA    H12R11003   5.852   4.032   3.655
    1PA    H12S11004   5.991   4.130   3.610
    1PA    C11111005   6.021   3.918   3.580
    1PA    H11R11006   6.130   3.917   3.592
    1PA    H11S11007   5.983   3.825   3.623
    1PA    C11011008   5.985   3.921   3.430
    1PA    H10R11009   6.004   3.823   3.388
    1PA    H10S11010   5.878   3.942   3.418
    1PA     C1911011   6.068   4.026   3.353
    1PA     H9R11012   6.049   4.125   3.393
    1PA     H9S11013   6.175   4.005   3.367
    1PA     C1811014   6.035   4.023   3.203
    1PA     H8R11015   6.057   3.924   3.163
    1PA     H8S11016   5.928   4.041   3.189
    1PA     C1711017   6.116   4.129   3.126
    1PA     H7R11018   6.091   4.229   3.164
    1PA     H7S11019   6.222   4.113   3.142
    1PA     C1611020   6.085   4.122   2.975
    1PA     H6R11021   6.122   4.027   2.937
    1PA     H6S11022   5.977   4.126   2.959
    1PA     C1511023   6.152   4.238   2.899
    1PA     H5R11024   6.108   4.332   2.932
    1PA     H5S11025   6.259   4.242   2.923
    1PA     C1411026   6.131   4.225   2.746
    1PA     H4R11027   6.025   4.210   2.726
    1PA     H4S11028   6.158   4.320   2.699
    1PA     C1311029   6.213   4.110   2.682
    1PA     H3R11030   6.189   4.016   2.732
    1PA     H3S11031   6.182   4.099   2.578
    1PA     C1211032   6.366   4.133   2.687
    1PA     H2R11033   6.400   4.151   2.789
    1PA     H2S11034   6.416   4.044   2.651
    2PC     C1111035   6.407   4.248   2.599
    2PC     O1211036   6.430   4.233   2.480
    2PC     O1111037   6.417   4.365   2.667
    2PC      C111038   6.436   4.489   2.594
    2PC      HR11039   0.055   4.555   2.651
    2PC      HS11040   0.035   4.469   2.497
    2PC      C211041   6.299   4.557   2.572
    2PC      HX11042   6.235   4.486   2.519
    2PC      C311043   6.310   4.685   2.485
    2PC      HA11044   6.365   4.765   2.535
    2PC      HB11045   6.365   4.659   2.393
    2PC     O3111046   6.178   4.731   2.448
    2PC     P3111047   6.163   4.824   2.319
    2PC     O3211048   6.043   4.920   2.359
    2PC     C3111049   6.019   5.028   2.268
    2PC     H1A11050   6.109   5.089   2.263
    2PC     H1B11051   6.000   4.988   2.168
    2PC     C3211052   5.901   5.116   2.313
    2PC     H2A11053   5.920   5.154   2.414
    2PC     H2B11054   5.894   5.201   2.246
    2PC     N3111055   5.762   5.054   2.315
    2PC     C3311056   5.746   4.962   2.433
    2PC     H3A11057   5.822   4.884   2.425
    2PC     H3B11058   5.760   5.020   2.524
    2PC     H3C11059   5.646   4.919   2.428
    2PC     C3411060   5.661   5.165   2.326
    2PC     H4A11061   5.668   5.227   2.236
    2PC     H4B11062   5.562   5.121   2.333
    2PC     H4C11063   5.683   5.225   2.415
    2PC     C3511064   5.734   4.977   2.189
    2PC     H5A11065   5.800   4.890   2.185
    2PC     H5B11066   5.751   5.043   2.104
    2PC     H5C11067   5.629   4.944   2.191
    2PC     O3311068   6.288   4.898   2.289
    2PC     O3411069   6.131   4.750   2.195
    2PC     O2111070   6.237   4.586   2.701
    2PC     C2111071   6.293   4.667   2.792
    2PC     O2211072   6.393   4.735   2.774
    3OL     C1211073   6.218   4.662   2.923
    3OL     H2R11074   6.211   4.557   2.952
    3OL     H2S11075   6.117   4.698   2.907
    3OL     C1311076   6.287   4.742   3.035
    3OL     H3R11077   6.283   4.849   3.013
    3OL     H3S11078   6.393   4.714   3.041
    3OL     C1411079   6.219   4.713   3.170
    3OL     H4R11080   6.225   4.605   3.189
    3OL     H4S11081   6.113   4.740   3.164
    3OL     C1511082   6.286   4.789   3.286
    3OL     H5R11083   6.278   4.896   3.269
    3OL     H5S11084   6.392   4.763   3.290
    3OL     C1611085   6.217   4.751   3.418
    3OL     H6R11086   6.220   4.642   3.431
    3OL     H6S11087   6.112   4.779   3.413
    3OL     C1711088   6.281   4.817   3.541
    3OL     H7R11089   6.215   4.802   3.626
    3OL     H7S11090   6.291   4.925   3.526
    3OL     C1811091   6.419   4.756   3.575
    3OL     H8R11092   0.045   4.791   3.502
    3OL     H8S11093   6.414   4.648   3.565
    3OL     C1911094   0.015   4.797   3.714
    3OL     H9R11095   0.062   4.895   3.720
    3OL    C11011096   0.002   4.724   3.825
    3OL    H10R11097   0.039   4.766   3.918
    3OL    C11111098   6.388   4.587   3.836
    3OL    H11R11099   6.369   4.543   3.738
    3OL    H11S11100   6.292   4.596   3.887
    3OL    C11211101   0.030   4.492   3.918
    3OL    H12R11102   0.034   4.525   4.022
    3OL    H12S11103   0.131   4.499   3.879
    3OL    C11311104   6.432   4.345   3.910
    3OL    H13R11105   0.064   4.280   3.947
    3OL    H13S11106   6.416   4.319   3.805
    3OL    C11411107   6.302   4.317   3.988
    3OL    H14R11108   6.253   4.228   3.947
    3OL    H14S11109   6.233   4.400   3.974
    3OL    C11511110   6.325   4.296   4.139
    3OL    H15R11111   6.231   4.314   4.191
    3OL    H15S11112   6.397   4.369   4.177
    3OL    C11611113   6.372   4.152   4.169
    3OL    H16R11114   0.017   4.134   4.116
    3OL    H16S11115   6.299   4.080   4.132
    3OL    C11711116   6.396   4.128   4.320
    3OL    H17R11117   0.016   4.204   4.360
    3OL    H17S11118   6.445   4.031   4.333
    3OL    C11811119   6.265   4.127   4.400
    3OL    H18R11120   6.285   4.105   4.505
    3OL    H18S11121   6.196   4.052   4.361
    3OL    H18T11122   6.216   4.225   4.396
    1PA    C11611123   1.489   2.444   4.212
    1PA    H16R11124   1.589   2.480   4.238
    1PA    H16S11125   1.491   2.335   4.209
    1PA    H16T11126   1.420   2.475   4.291
    1PA    C11511127   1.444   2.502   4.077
    1PA    H15R11128   1.342   2.468   4.055
    1PA    H15S11129   1.441   2.611   4.084
    1PA    C11411130   1.539   2.460   3.964
    1PA    H14R11131   1.639   2.498   3.986
    1PA    H14S11132   1.546   2.351   3.961
    1PA    C11311133   1.492   2.514   3.828
    1PA    H13R11134   1.392   2.476   3.804
    1PA    H13S11135   1.484   2.623   3.833
    1PA    C11211136   1.590   2.478   3.714
    1PA    H12R11137   1.567   2.539   3.627
    1PA    H12S11138   1.692   2.502   3.745
    1PA    C11111139   1.579   2.329   3.675
    1PA    H11R11140   1.594   2.266   3.762
    1PA    H11S11141   1.479   2.309   3.637
    1PA    C11011142   1.685   2.292   3.568
    1PA    H10R11143   1.672   2.353   3.478
    1PA    H10S11144   1.784   2.314   3.608
    1PA     C1911145   1.679   2.142   3.532
    1PA     H9R11146   1.772   2.114   3.480
    1PA     H9S11147   1.676   2.083   3.624
    1PA     C1811148   1.558   2.103   3.444
    1PA     H8R11149   1.539   1.996   3.458
    1PA     H8S11150   1.469   2.156   3.476
    1PA     C1711151   1.585   2.129   3.294
    1PA     H7R11152   1.601   2.235   3.278
    1PA     H7S11153   1.676   2.077   3.264
    1PA     C1611154   1.468   2.079   3.208
    1PA     H6R11155   1.457   1.971   3.219
    1PA     H6S11156   1.375   2.125   3.242
    1PA     C1511157   1.490   2.114   3.059
    1PA     H5R11158   1.493   2.223   3.048
    1PA     H5S11159   1.586   2.075   3.027
    1PA     C1411160   1.377   2.056   2.971
    1PA     H4R11161   1.380   1.947   2.976
    1PA     H4S11162   1.281   2.088   3.011
    1PA     C1311163   1.387   2.103   2.824
    1PA     H3R11164   1.297   2.070   2.772
    1PA     H3S11165   1.389   2.212   2.820
    1PA     C1211166   1.511   2.046   2.751
    1PA     H2R11167   1.602   2.083   2.797
    1PA     H2S11168   1.512   1.937   2.757
    2PC     C1111169   1.509   2.086   2.605
    2PC     O1211170   1.430   2.042   2.525
    2PC     O1111171   1.607   2.174   2.574
    2PC      C111172   1.627   2.208   2.434
    2PC      HR11173   1.651   2.118   2.378
    2PC      HS11174   1.536   2.252   2.394
    2PC      C211175   1.744   2.308   2.425
    2PC      HX11176   1.720   2.396   2.486
    2PC      C311177   1.772   2.352   2.279
    2PC      HA11178   1.684   2.405   2.241
    2PC      HB11179   1.857   2.421   2.276
    2PC     O3111180   1.799   2.237   2.195
    2PC     P3111181   1.824   2.262   2.039
    2PC     O3211182   1.845   2.113   1.988
    2PC     C3111183   1.767   2.070   1.875
    2PC     H1A11184   1.663   2.064   1.906
    2PC     H1B11185   1.776   2.142   1.793
    2PC     C3211186   1.816   1.930   1.830
    2PC     H2A11187   1.808   1.860   1.913
    2PC     H2B11188   1.751   1.895   1.749
    2PC     N3111189   1.958   1.918   1.777
    2PC     C3311190   2.059   1.939   1.886
    2PC     H3A11191   2.039   1.866   1.965
    2PC     H3B11192   2.159   1.924   1.845
    2PC     H3C11193   2.048   2.040   1.925
    2PC     C3411194   1.977   1.780   1.722
    2PC     H4A11195   1.959   1.707   1.801
    2PC     H4B11196   1.906   1.764   1.640
    2PC     H4C11197   2.080   1.771   1.685
    2PC     C3511198   1.983   2.017   1.667
    2PC     H5A11199   1.974   2.118   1.708
    2PC     H5B11200   1.910   2.002   1.588
    2PC     H5C11201   2.084   2.001   1.629
    2PC     O3311202   1.710   2.331   1.975
    2PC     O3411203   1.946   2.343   2.014
    2PC     O2111204   1.862   2.243   2.479
    2PC     C2111205   1.967   2.317   2.519
    2PC     O2211206   1.973   2.439   2.512
    3OL     C1211207   2.078   2.230   2.574
    3OL     H2R11208   2.160   2.226   2.502
    3OL     H2S11209   2.039   2.128   2.582
    3OL     C1311210   2.128   2.274   2.713
    3OL     H3R11211   2.169   2.187   2.763
    3OL     H3S11212   2.044   2.309   2.774
    3OL     C1411213   2.236   2.384   2.705
    3OL     H4R11214   2.191   2.479   2.673
    3OL     H4S11215   2.311   2.356   2.631
    3OL     C1511216   2.304   2.401   2.842
    3OL     H5R11217   2.345   2.305   2.873
    3OL     H5S11218   2.229   2.430   2.916
    3OL     C1611219   2.417   2.506   2.839
    3OL     H6R11220   2.375   2.605   2.820
    3OL     H6S11221   2.487   2.483   2.758
    3OL     C1711222   2.492   2.504   2.974
    3OL     H7R11223   2.536   2.406   2.989
    3OL     H7S11224   2.421   2.521   3.055
    3OL     C1811225   2.604   2.610   2.980
    3OL     H8R11226   2.561   2.708   2.959
    3OL     H8S11227   2.679   2.588   2.904
    3OL     C1911228   2.665   2.610   3.119
    3OL     H9R11229   2.607   2.560   3.196
    3OL    C11011230   2.782   2.665   3.152
    3OL    H10R11231   2.815   2.659   3.256
    3OL    C11111232   2.876   2.738   3.059
    3OL    H11R11233   2.868   2.845   3.079
    3OL    H11S11234   2.849   2.722   2.954
    3OL    C11211235   3.023   2.697   3.082
    3OL    H12R11236   3.049   2.714   3.186
    3OL    H12S11237   3.087   2.762   3.021
    3OL    C11311238   3.050   2.550   3.044
    3OL    H13R11239   3.031   2.538   2.937
    3OL    H13S11240   2.982   2.483   3.097
    3OL    C11411241   3.196   2.511   3.074
    3OL    H14R11242   3.263   2.592   3.044
    3OL    H14S11243   3.223   2.424   3.013
    3OL    C11511244   3.217   2.476   3.222
    3OL    H15R11245   3.151   2.394   3.250
    3OL    H15S11246   3.192   2.562   3.285
    3OL    C11611247   3.363   2.435   3.249
    3OL    H16R11248   3.430   2.517   3.224
    3OL    H16S11249   3.390   2.350   3.185
    3OL    C11711250   3.384   2.395   3.396
    3OL    H17R11251   3.320   2.310   3.421
    3OL    H17S11252   3.355   2.478   3.462
    3OL    C11811253   3.530   2.358   3.423
    3OL    H18R11254   3.544   2.328   3.527
    3OL    H18S11255   3.595   2.443   3.403
    3OL    H18T11256   3.562   2.275   3.359
    1PA    C11611257   1.961   1.284   3.625
    1PA    H16R11258   2.053   1.328   3.665
    1PA    H16S11259   1.980   1.178   3.607
    1PA    H16T11260   1.883   1.293   3.701
    1PA    C11511261   1.919   1.355   3.496
    1PA    H15R11262   1.822   1.316   3.463
    1PA    H15S11263   1.907   1.461   3.515
    1PA    C11411264   2.024   1.333   3.386
    1PA    H14R11265   2.121   1.368   3.421
    1PA    H14S11266   2.033   1.226   3.366
    1PA    C11311267   1.987   1.406   3.255
    1PA    H13R11268   1.887   1.376   3.222
    1PA    H13S11269   1.987   1.513   3.272
    1PA    C11211270   2.090   1.370   3.146
    1PA    H12R11271   2.191   1.388   3.184
    1PA    H12S11272   2.082   1.264   3.122
    1PA    C11111273   2.069   1.453   3.018
    1PA    H11R11274   1.967   1.441   2.981
    1PA    H11S11275   2.084   1.559   3.041
    1PA    C11011276   2.170   1.407   2.910
    1PA    H10R11277   2.270   1.403   2.954
    1PA    H10S11278   2.145   1.306   2.879
    1PA     C1911279   2.173   1.499   2.787
    1PA     H9R11280   2.229   1.448   2.707
    1PA     H9S11281   2.072   1.517   2.749
    1PA     C1811282   2.243   1.632   2.819
    1PA     H8R11283   2.181   1.690   2.888
    1PA     H8S11284   2.338   1.612   2.870
    1PA     C1711285   2.271   1.715   2.693
    1PA     H7R11286   2.336   1.659   2.626
    1PA     H7S11287   2.177   1.734   2.640
    1PA     C1611288   2.337   1.849   2.730
    1PA     H6R11289   2.269   1.906   2.794
    1PA     H6S11290   2.427   1.828   2.788
    1PA     C1511291   2.373   1.930   2.605
    1PA     H5R11292   2.442   1.873   2.542
    1PA     H5S11293   2.282   1.948   2.546
    1PA     C1411294   2.437   2.066   2.640
    1PA     H4R11295   2.449   2.123   2.548
    1PA     H4S11296   2.370   2.123   2.705
    1PA     C1311297   2.574   2.050   2.710
    1PA     H3R11298   2.559   2.002   2.807
    1PA     H3S11299   2.638   1.985   2.651
    1PA     C1211300   2.643   2.186   2.733
    1PA     H2R11301   2.577   2.254   2.785
    1PA     H2S11302   2.731   2.172   2.796
    2PC     C1111303   2.688   2.251   2.604
    2PC     O1211304   2.693   2.193   2.497
    2PC     O1111305   2.720   2.380   2.619
    2PC      C111306   2.752   2.459   2.501
    2PC      HR11307   2.808   2.547   2.532
    2PC      HS11308   2.815   2.399   2.433
    2PC      C211309   2.623   2.505   2.430
    2PC      HX11310   2.550   2.424   2.427
    2PC      C311311   2.654   2.556   2.288
    2PC      HA11312   2.715   2.647   2.292
    2PC      HB11313   2.707   2.479   2.231
    2PC     O3111314   2.529   2.584   2.221
    2PC     P3111315   2.529   2.643   2.073
    2PC     O3211316   2.527   2.800   2.098
    2PC     C3111317   2.406   2.861   2.145
    2PC     H1A11318   2.325   2.842   2.073
    2PC     H1B11319   2.378   2.816   2.240
    2PC     C3211320   2.428   3.013   2.164
    2PC     H2A11321   2.339   3.056   2.209
    2PC     H2B11322   2.512   3.028   2.233
    2PC     N3111323   2.457   3.097   2.041
    2PC     C3311324   2.458   3.242   2.079
    2PC     H3A11325   2.542   3.260   2.146
    2PC     H3B11326   2.470   3.302   1.989
    2PC     H3C11327   2.364   3.267   2.129
    2PC     C3411328   2.591   3.066   1.983
    2PC     H4A11329   2.592   2.962   1.953
    2PC     H4B11330   2.608   3.132   1.898
    2PC     H4C11331   2.667   3.084   2.060
    2PC     C3511332   2.351   3.076   1.937
    2PC     H5A11333   2.355   2.972   1.905
    2PC     H5B11334   2.372   3.143   1.853
    2PC     H5C11335   2.254   3.100   1.981
    2PC     O3311336   2.646   2.606   1.989
    2PC     O3411337   2.417   2.591   1.993
    2PC     O2111338   2.575   2.617   2.509
    2PC     C2111339   2.446   2.654   2.503
    2PC     O2211340   2.356   2.589   2.452
    3OL     C1211341   2.428   2.788   2.568
    3OL     H2R11342   2.501   2.856   2.524
    3OL     H2S11343   2.452   2.780   2.674
    3OL     C1311344   2.285   2.845   2.551
    3OL     H3R11345   2.214   2.778   2.601
    3OL     H3S11346   2.258   2.847   2.446
    3OL     C1411347   2.272   2.986   2.611
    3OL     H4R11348   2.309   2.987   2.714
    3OL     H4S11349   2.166   3.012   2.615
    3OL     C1511350   2.347   3.092   2.527
    3OL     H5R11351   2.308   3.094   2.425
    3OL     H5S11352   2.453   3.066   2.521
    3OL     C1611353   2.336   3.234   2.588
    3OL     H6R11354   2.406   3.299   2.534
    3OL     H6S11355   2.368   3.232   2.692
    3OL     C1711356   2.194   3.292   2.577
    3OL     H7R11357   2.125   3.229   2.633
    3OL     H7S11358   2.161   3.292   2.473
    3OL     C1811359   2.186   3.435   2.633
    3OL     H8R11360   2.229   3.438   2.734
    3OL     H8S11361   2.081   3.461   2.643
    3OL     C1911362   2.252   3.537   2.542
    3OL     H9R11363   2.192   3.565   2.456
    3OL    C11011364   2.368   3.599   2.563
    3OL    H10R11365   2.401   3.675   2.491
    3OL    C11111366   2.468   3.570   2.673
    3OL    H11R11367   2.439   3.482   2.731
    3OL    H11S11368   2.470   3.655   2.742
    3OL    C11211369   2.608   3.549   2.614
    3OL    H12R11370   2.639   3.637   2.558
    3OL    H12S11371   2.604   3.466   2.544
    3OL    C11311372   2.713   3.516   2.722
    3OL    H13R11373   2.800   3.471   2.674
    3OL    H13S11374   2.673   3.442   2.791
    3OL    C11411375   2.759   3.642   2.799
    3OL    H14R11376   2.673   3.691   2.844
    3OL    H14S11377   2.804   3.713   2.728
    3OL    C11511378   2.862   3.606   2.908
    3OL    H15R11379   2.941   3.545   2.864
    3OL    H15S11380   2.813   3.545   2.985
    3OL    C11611381   2.927   3.730   2.972
    3OL    H16R11382   2.984   3.782   2.895
    3OL    H16S11383   2.998   3.698   3.048
    3OL    C11711384   2.828   3.831   3.035
    3OL    H17R11385   2.761   3.871   2.958
    3OL    H17S11386   2.885   3.916   3.075
    3OL    C11811387   2.745   3.769   3.149
    3OL    H18R11388   2.681   3.845   3.194
    3OL    H18S11389   2.811   3.729   3.226
    3OL    H18T11390   2.682   3.689   3.111
    1PA    C11611391   3.426   4.045   3.840
    1PA    H16R11392   3.479   4.031   3.745
    1PA    H16S11393   3.319   4.040   3.820
    1PA    H16T11394   3.453   3.963   3.907
    1PA    C11511395   3.462   4.181   3.902
    1PA    H15R11396   3.430   4.259   3.833
    1PA    H15S11397   3.407   4.194   3.995
    1PA    C11411398   3.613   4.192   3.929
    1PA    H14R11399   3.643   4.114   3.999
    1PA    H14S11400   3.669   4.176   3.836
    1PA    C11311401   3.653   4.330   3.988
    1PA    H13R11402   3.597   4.347   4.081
    1PA    H13S11403   3.759   4.328   4.013
    1PA    C11211404   3.626   4.445   3.889
    1PA    H12R11405   3.675   4.422   3.794
    1PA    H12S11406   3.519   4.452   3.870
    1PA    C11111407   3.676   4.580   3.942
    1PA    H11R11408   3.633   4.598   4.041
    1PA    H11S11409   3.784   4.579   3.953
    1PA    C11011410   3.633   4.695   3.849
    1PA    H10R11411   3.526   4.687   3.828
    1PA    H10S11412   3.649   4.791   3.899
    1PA     C1911413   3.711   4.696   3.716
    1PA     H9R11414   3.814   4.730   3.733
    1PA     H9S11415   3.716   4.596   3.674
    1PA     C1811416   3.642   4.789   3.614
    1PA     H8R11417   3.540   4.754   3.598
    1PA     H8S11418   3.637   4.890   3.653
    1PA     C1711419   3.716   4.788   3.479
    1PA     H7R11420   3.814   4.835   3.490
    1PA     H7S11421   3.733   4.685   3.447
    1PA     C1611422   3.634   4.861   3.371
    1PA     H6R11423   3.537   4.811   3.360
    1PA     H6S11424   3.614   4.964   3.403
    1PA     C1511425   3.708   4.863   3.237
    1PA     H5R11426   3.802   4.916   3.247
    1PA     H5S11427   3.731   4.761   3.206
    1PA     C1411428   3.623   4.930   3.128
    1PA     H4R11429   3.526   4.879   3.120
    1PA     H4S11430   3.604   5.034   3.155
    1PA     C1311431   3.695   4.924   2.992
    1PA     H3R11432   3.794   4.968   3.003
    1PA     H3S11433   3.708   4.819   2.963
    1PA     C1211434   3.616   4.998   2.883
    1PA     H2R11435   3.517   4.952   2.871
    1PA     H2S11436   3.602   5.102   2.912
    2PC     C1111437   3.686   4.995   2.749
    2PC     O1211438   3.629   5.025   2.645
    2PC     O1111439   3.818   4.968   2.758
    2PC      C111440   3.900   4.961   2.639
    2PC      HR11441   3.870   5.037   2.567
    2PC      HS11442   4.003   4.979   2.670
    2PC      C211443   3.895   4.820   2.577
    2PC      HX11444   3.923   4.747   2.654
    2PC      C311445   3.994   4.810   2.459
    2PC      HA11446   3.975   4.890   2.388
    2PC      HB11447   4.097   4.819   2.496
    2PC     O3111448   3.977   4.681   2.395
    2PC     P3111449   4.055   4.651   2.260
    2PC     O3211450   4.005   4.502   2.239
    2PC     C3111451   3.866   4.481   2.205
    2PC     H1A11452   3.803   4.542   2.272
    2PC     H1B11453   3.848   4.511   2.102
    2PC     C3211454   3.830   4.332   2.228
    2PC     H2A11455   3.868   4.301   2.326
    2PC     H2B11456   3.721   4.322   2.228
    2PC     N3111457   3.881   4.230   2.128
    2PC     C3311458   3.823   4.255   1.992
    2PC     H3A11459   3.860   4.178   1.924
    2PC     H3B11460   3.714   4.251   1.998
    2PC     H3C11461   3.855   4.354   1.957
    2PC     C3411462   4.031   4.232   2.120
    2PC     H4A11463   4.063   4.153   2.052
    2PC     H4B11464   4.063   4.329   2.083
    2PC     H4C11465   4.071   4.215   2.220
    2PC     C3511466   3.839   4.093   2.173
    2PC     H5A11467   3.877   4.021   2.101
    2PC     H5B11468   3.730   4.090   2.177
    2PC     H5C11469   3.882   4.075   2.271
    2PC     O3311470   4.020   4.742   2.148
    2PC     O3411471   4.201   4.665   2.279
    2PC     O2111472   3.760   4.796   2.526
    2PC     C2111473   3.695   4.685   2.566
    2PC     O2211474   3.743   4.602   2.642
    3OL     C1211475   3.556   4.674   2.509
    3OL     H2R11476   3.562   4.628   2.411
    3OL     H2S11477   3.515   4.775   2.495
    3OL     C1311478   3.462   4.592   2.601
    3OL     H3R11479   3.508   4.496   2.623
    3OL     H3S11480   3.368   4.573   2.548
    3OL     C1411481   3.432   4.666   2.733
    3OL     H4R11482   3.376   4.757   2.711
    3OL     H4S11483   3.525   4.696   2.781
    3OL     C1511484   3.351   4.578   2.830
    3OL     H5R11485   3.410   4.490   2.857
    3OL     H5S11486   3.260   4.542   2.781
    3OL     C1611487   3.315   4.657   2.956
    3OL     H6R11488   3.253   4.742   2.927
    3OL     H6S11489   3.406   4.696   3.002
    3OL     C1711490   3.238   4.572   3.059
    3OL     H7R11491   3.299   4.486   3.088
    3OL     H7S11492   3.146   4.534   3.014
    3OL     C1811493   3.205   4.656   3.183
    3OL     H8R11494   3.142   4.740   3.152
    3OL     H8S11495   3.297   4.697   3.224
    3OL     C1911496   3.130   4.576   3.287
    3OL     H9R11497   3.076   4.489   3.250
    3OL    C11011498   3.132   4.600   3.418
    3OL    H10R11499   3.077   4.535   3.485
    3OL    C11111500   3.200   4.718   3.485
    3OL    H11R11501   3.244   4.785   3.410
    3OL    H11S11502   3.282   4.682   3.548
    3OL    C11211503   3.102   4.797   3.572
    3OL    H12R11504   3.076   4.740   3.661
    3OL    H12S11505   3.009   4.815   3.516
    3OL    C11311506   3.162   4.933   3.612
    3OL    H13R11507   3.183   4.991   3.521
    3OL    H13S11508   3.257   4.917   3.663
    3OL    C11411509   3.067   5.013   3.702
    3OL    H14R11510   3.053   4.960   3.796
    3OL    H14S11511   2.970   5.022   3.653
    3OL    C11511512   3.125   5.153   3.729
    3OL    H15R11513   3.135   5.208   3.635
    3OL    H15S11514   3.225   5.143   3.771
    3OL    C11611515   3.039   5.235   3.828
    3OL    H16R11516   3.095   5.324   3.858
    3OL    H16S11517   3.020   5.176   3.917
    3OL    C11711518   2.906   5.281   3.764
    3OL    H17R11519   2.846   5.194   3.735
    3OL    H17S11520   2.926   5.339   3.674
    3OL    C11811521   2.825   5.367   3.863
    3OL    H18R11522   2.882   5.455   3.892
    3OL    H18S11523   2.801   5.310   3.952
    3OL    H18T11524   2.732   5.399   3.816
    1PA    C11611525   2.093   2.957   3.634
    1PA    H16R11526   2.201   2.962   3.652
    1PA    H16S11527   2.062   2.853   3.639
    1PA    H16T11528   2.042   3.012   3.714
    1PA    C11511529   2.058   3.017   3.496
    1PA    H15R11530   2.107   2.958   3.418
    1PA    H15S11531   1.951   3.010   3.480
    1PA    C11411532   2.103   3.164   3.487
    1PA    H14R11533   2.045   3.223   3.558
    1PA    H14S11534   2.208   3.172   3.513
    1PA    C11311535   2.081   3.219   3.345
    1PA    H13R11536   2.143   3.163   3.274
    1PA    H13S11537   1.977   3.205   3.316
    1PA    C11211538   2.118   3.369   3.338
    1PA    H12R11539   2.048   3.427   3.399
    1PA    H12S11540   2.217   3.383   3.381
    1PA    C11111541   2.119   3.424   3.194
    1PA    H11R11542   2.157   3.526   3.195
    1PA    H11S11543   2.188   3.364   3.134
    1PA    C11011544   1.980   3.422   3.126
    1PA    H10R11545   1.943   3.319   3.124
    1PA    H10S11546   1.909   3.482   3.184
    1PA     C1911547   1.989   3.473   2.981
    1PA     H9R11548   2.081   3.438   2.935
    1PA     H9S11549   1.906   3.431   2.925
    1PA     C1811550   1.980   3.627   2.972
    1PA     H8R11551   1.881   3.660   3.005
    1PA     H8S11552   2.054   3.673   3.039
    1PA     C1711553   2.005   3.674   2.828
    1PA     H7R11554   2.109   3.656   2.802
    1PA     H7S11555   1.942   3.617   2.759
    1PA     C1611556   1.974   3.824   2.812
    1PA     H6R11557   1.866   3.841   2.824
    1PA     H6S11558   2.025   3.880   2.890
    1PA     C1511559   2.019   3.879   2.675
    1PA     H5R11560   2.003   3.987   2.674
    1PA     H5S11561   2.127   3.863   2.664
    1PA     C1411562   1.946   3.816   2.555
    1PA     H4R11563   1.967   3.709   2.549
    1PA     H4S11564   1.838   3.828   2.569
    1PA     C1311565   1.987   3.884   2.422
    1PA     H3R11566   1.915   3.857   2.344
    1PA     H3S11567   1.982   3.992   2.435
    1PA     C1211568   2.128   3.843   2.376
    1PA     H2R11569   2.198   3.844   2.459
    1PA     H2S11570   2.126   3.742   2.335
    2PC     C1111571   2.177   3.938   2.270
    2PC     O1211572   2.134   3.942   2.157
    2PC     O1111573   2.273   4.021   2.317
    2PC      C111574   2.318   4.133   2.236
    2PC      HR11575   2.401   4.183   2.286
    2PC      HS11576   2.353   4.097   2.138
    2PC      C211577   2.201   4.233   2.218
    2PC      HX11578   2.117   4.184   2.170
    2PC      C311579   2.243   4.356   2.136
    2PC      HA11580   2.302   4.422   2.200
    2PC      HB11581   2.303   4.327   2.049
    2PC     O3111582   2.125   4.425   2.090
    2PC     P3111583   2.132   4.580   2.053
    2PC     O3211584   2.272   4.592   1.978
    2PC     C3111585   2.301   4.718   1.914
    2PC     H1A11586   2.220   4.744   1.846
    2PC     H1B11587   2.309   4.796   1.990
    2PC     C3211588   2.433   4.707   1.835
    2PC     H2A11589   2.445   4.797   1.775
    2PC     H2B11590   2.517   4.701   1.905
    2PC     N3111591   2.448   4.589   1.740
    2PC     C3311592   2.321   4.561   1.666
    2PC     H3A11593   2.291   4.650   1.611
    2PC     H3B11594   2.338   4.478   1.597
    2PC     H3C11595   2.244   4.533   1.739
    2PC     C3411596   2.552   4.622   1.637
    2PC     H4A11597   2.519   4.710   1.581
    2PC     H4B11598   2.647   4.643   1.687
    2PC     H4C11599   2.563   4.537   1.570
    2PC     C3511600   2.493   4.467   1.815
    2PC     H5A11601   2.418   4.443   1.891
    2PC     H5B11602   2.589   4.488   1.861
    2PC     H5C11603   2.502   4.384   1.744
    2PC     O3311604   2.025   4.616   1.958
    2PC     O3411605   2.120   4.673   2.168
    2PC     O2111606   2.166   4.280   2.350
    2PC     C2111607   2.036   4.298   2.384
    2PC     O2211608   1.941   4.265   2.316
    3OL     C1211609   2.027   4.357   2.522
    3OL     H2R11610   2.001   4.463   2.514
    3OL     H2S11611   2.127   4.353   2.566
    3OL     C1311612   1.927   4.285   2.615
    3OL     H3R11613   1.905   4.185   2.576
    3OL     H3S11614   1.834   4.341   2.618
    3OL     C1411615   1.987   4.273   2.756
    3OL     H4R11616   2.022   4.371   2.789
    3OL     H4S11617   2.074   4.206   2.753
    3OL     C1511618   1.886   4.219   2.859
    3OL     H5R11619   1.843   4.125   2.825
    3OL     H5S11620   1.804   4.291   2.870
    3OL     C1611621   1.957   4.200   2.994
    3OL     H6R11622   2.015   4.289   3.017
    3OL     H6S11623   2.028   4.116   2.987
    3OL     C1711624   1.860   4.175   3.112
    3OL     H7R11625   1.790   4.258   3.118
    3OL     H7S11626   1.919   4.174   3.204
    3OL     C1811627   1.782   4.043   3.101
    3OL     H8R11628   1.851   3.962   3.078
    3OL     H8S11629   1.710   4.050   3.019
    3OL     C1911630   1.709   4.018   3.231
    3OL     H9R11631   1.623   4.082   3.250
    3OL    C11011632   1.741   3.925   3.321
    3OL    H10R11633   1.682   3.914   3.411
    3OL    C11111634   1.859   3.830   3.308
    3OL    H11R11635   1.947   3.884   3.271
    3OL    H11S11636   1.835   3.753   3.235
    3OL    C11211637   1.893   3.760   3.440
    3OL    H12R11638   1.967   3.682   3.420
    3OL    H12S11639   1.804   3.711   3.480
    3OL    C11311640   1.950   3.857   3.546
    3OL    H13R11641   1.875   3.931   3.573
    3OL    H13S11642   2.036   3.911   3.504
    3OL    C11411643   1.995   3.779   3.671
    3OL    H14R11644   2.065   3.701   3.642
    3OL    H14S11645   1.908   3.730   3.715
    3OL    C11511646   2.062   3.871   3.775
    3OL    H15R11647   1.990   3.946   3.811
    3OL    H15S11648   2.144   3.925   3.726
    3OL    C11611649   2.120   3.792   3.894
    3OL    H16R11650   2.182   3.859   3.954
    3OL    H16S11651   2.184   3.712   3.857
    3OL    C11711652   2.010   3.733   3.985
    3OL    H17R11653   1.946   3.665   3.928
    3OL    H17S11654   1.947   3.814   4.022
    3OL    C11811655   2.071   3.657   4.104
    3OL    H18R11656   2.133   3.724   4.164
    3OL    H18S11657   2.132   3.574   4.069
    3OL    H18T11658   1.992   3.618   4.168
    1PA    C11611659   4.932   5.090   4.031
    1PA    H16R11660   4.864   5.158   3.980
    1PA    H16S11661   4.978   5.144   4.115
    1PA    H16T11662   4.874   5.007   4.072
    1PA    C11511663   5.039   5.037   3.935
    1PA    H15R11664   5.105   4.968   3.988
    1PA    H15S11665   4.992   4.982   3.853
    1PA    C11411666   5.123   5.154   3.878
    1PA    H14R11667   5.059   5.224   3.823
    1PA    H14S11668   5.167   5.207   3.962
    1PA    C11311669   5.237   5.104   3.787
    1PA    H13R11670   5.318   5.177   3.791
    1PA    H13S11671   5.277   5.010   3.826
    1PA    C11211672   5.194   5.087   3.640
    1PA    H12R11673   5.111   5.016   3.632
    1PA    H12S11674   5.161   5.183   3.601
    1PA    C11111675   5.314   5.036   3.557
    1PA    H11R11676   5.400   5.101   3.577
    1PA    H11S11677   5.340   4.936   3.592
    1PA    C11011678   5.289   5.034   3.405
    1PA    H10R11679   5.203   4.971   3.382
    1PA    H10S11680   5.268   5.135   3.370
    1PA     C1911681   5.415   4.979   3.334
    1PA     H9R11682   5.502   5.034   3.371
    1PA     H9S11683   5.428   4.874   3.361
    1PA     C1811684   5.410   4.992   3.181
    1PA     H8R11685   5.327   4.933   3.142
    1PA     H8S11686   5.393   5.096   3.153
    1PA     C1711687   5.544   4.942   3.121
    1PA     H7R11688   5.626   4.989   3.176
    1PA     H7S11689   5.553   4.834   3.136
    1PA     C1611690   5.560   4.976   2.972
    1PA     H6R11691   5.551   5.084   2.958
    1PA     H6S11692   5.661   4.947   2.940
    1PA     C1511693   5.457   4.904   2.883
    1PA     H5R11694   5.465   4.796   2.901
    1PA     H5S11695   5.357   4.935   2.911
    1PA     C1411696   5.482   4.935   2.734
    1PA     H4R11697   5.484   5.043   2.720
    1PA     H4S11698   5.579   4.896   2.703
    1PA     C1311699   5.370   4.876   2.646
    1PA     H3R11700   5.273   4.904   2.689
    1PA     H3S11701   5.376   4.920   2.546
    1PA     C1211702   5.379   4.722   2.634
    1PA     H2R11703   5.465   4.696   2.571
    1PA     H2S11704   5.395   4.676   2.732
    2PC     C1111705   5.255   4.660   2.574
    2PC     O1211706   5.236   4.539   2.573
    2PC     O1111707   5.170   4.750   2.521
    2PC      C111708   5.049   4.702   2.459
    2PC      HR11709   5.076   4.636   2.376
    2PC      HS11710   4.990   4.645   2.530
    2PC      C211711   4.968   4.823   2.406
    2PC      HX11712   4.876   4.787   2.359
    2PC      C311713   5.049   4.905   2.305
    2PC      HA11714   5.126   4.963   2.356
    2PC      HB11715   5.097   4.838   2.233
    2PC     O3111716   4.958   4.993   2.234
    2PC     P3111717   5.014   5.076   2.110
    2PC     O3211718   4.997   5.224   2.163
    2PC     C3111719   5.113   5.309   2.164
    2PC     H1A11720   5.190   5.265   2.228
    2PC     H1B11721   5.153   5.319   2.063
    2PC     C3211722   5.075   5.448   2.220
    2PC     H2A11723   5.023   5.435   2.315
    2PC     H2B11724   5.166   5.505   2.237
    2PC     N3111725   4.987   5.537   2.135
    2PC     C3311726   4.849   5.480   2.119
    2PC     H3A11727   4.808   5.462   2.218
    2PC     H3B11728   4.788   5.552   2.064
    2PC     H3C11729   4.857   5.386   2.063
    2PC     C3411730   4.976   5.670   2.203
    2PC     H4A11731   4.917   5.737   2.140
    2PC     H4B11732   4.927   5.656   2.300
    2PC     H4C11733   5.077   5.710   2.217
    2PC     C3511734   5.048   5.560   1.999
    2PC     H5A11735   5.046   5.465   1.944
    2PC     H5B11736   5.150   5.595   2.012
    2PC     H5C11737   4.988   5.635   1.947
    2PC     O3311738   5.154   5.042   2.076
    2PC     O3411739   4.941   5.045   1.986
    2PC     O2111740   4.936   4.911   2.517
    2PC     C2111741   4.842   4.878   2.605
    2PC     O2211742   4.769   4.780   2.596
    3OL     C1211743   4.837   4.975   2.720
    3OL     H2R11744   4.924   5.039   2.715
    3OL     H2S11745   4.841   4.919   2.814
    3OL     C1311746   4.709   5.060   2.714
    3OL     H3R11747   4.622   4.998   2.737
    3OL     H3S11748   4.696   5.099   2.613
    3OL     C1411749   4.717   5.178   2.813
    3OL     H4R11750   4.798   5.245   2.783
    3OL     H4S11751   4.739   5.141   2.913
    3OL     C1511752   4.584   5.255   2.814
    3OL     H5R11753   4.506   5.185   2.844
    3OL     H5S11754   4.560   5.290   2.713
    3OL     C1611755   4.583   5.373   2.913
    3OL     H6R11756   4.633   5.345   3.005
    3OL     H6S11757   4.479   5.395   2.937
    3OL     C1711758   4.648   5.499   2.852
    3OL     H7R11759   4.593   5.530   2.763
    3OL     H7S11760   4.750   5.477   2.822
    3OL     C1811761   4.650   5.615   2.953
    3OL     H8R11762   4.710   5.697   2.912
    3OL     H8S11763   4.701   5.579   3.043
    3OL     C1911764   4.511   5.663   2.993
    3OL     H9R11765   4.436   5.585   2.998
    3OL    C11011766   4.476   5.789   3.019
    3OL    H10R11767   4.372   5.809   3.045
    3OL    C11111768   4.566   5.910   3.019
    3OL    H11R11769   4.670   5.884   2.998
    3OL    H11S11770   4.565   5.955   3.119
    3OL    C11211771   4.518   6.018   2.919
    3OL    H12R11772   4.583   6.106   2.927
    3OL    H12S11773   4.418   6.049   2.948
    3OL    C11311774   4.515   5.968   2.773
    3OL    H13R11775   4.460   6.042   2.714
    3OL    H13S11776   4.462   5.874   2.766
    3OL    C11411777   4.657   5.954   2.714
    3OL    H14R11778   4.716   5.887   2.776
    3OL    H14S11779   4.706   6.052   2.717
    3OL    C11511780   4.659   5.901   2.569
    3OL    H15R11781   4.612   5.802   2.565
    3OL    H15S11782   4.763   5.887   2.540
    3OL    C11611783   4.591   5.997   2.469
    3OL    H16R11784   4.650   5.998   2.377
    3OL    H16S11785   4.592   6.099   2.508
    3OL    C11711786   4.447   5.953   2.435
    3OL    H17R11787   4.387   5.945   2.526
    3OL    H17S11788   4.448   5.855   2.387
    3OL    C11811789   4.381   6.055   2.340
    3OL    H18R11790   4.379   6.153   2.387
    3OL    H18S11791   4.279   6.025   2.318
    3OL    H18T11792   4.437   6.062   2.247
    1PA    C11611793   3.415   5.236   3.998
    1PA    H16R11794   3.410   5.239   4.107
    1PA    H16S11795   3.344   5.161   3.962
    1PA    H16T11796   3.386   5.334   3.959
    1PA    C11511797   3.558   5.200   3.953
    1PA    H15R11798   3.628   5.270   3.999
    1PA    H15S11799   3.582   5.099   3.988
    1PA    C11411800   3.571   5.206   3.800
    1PA    H14R11801   3.503   5.133   3.754
    1PA    H14S11802   3.542   5.305   3.765
    1PA    C11311803   3.716   5.177   3.756
    1PA    H13R11804   3.783   5.247   3.806
    1PA    H13S11805   3.744   5.076   3.788
    1PA    C11211806   3.731   5.190   3.604
    1PA    H12R11807   3.667   5.118   3.554
    1PA    H12S11808   3.697   5.290   3.574
    1PA    C11111809   3.878   5.169   3.561
    1PA    H11R11810   3.941   5.241   3.613
    1PA    H11S11811   3.910   5.069   3.592
    1PA    C11011812   3.899   5.184   3.409
    1PA    H10R11813   4.003   5.162   3.386
    1PA    H10S11814   3.838   5.110   3.357
    1PA     C1911815   3.864   5.325   3.358
    1PA     H9R11816   3.756   5.342   3.363
    1PA     H9S11817   3.911   5.399   3.423
    1PA     C1811818   3.912   5.349   3.213
    1PA     H8R11819   3.904   5.456   3.191
    1PA     H8S11820   4.018   5.322   3.207
    1PA     C1711821   3.832   5.270   3.108
    1PA     H7R11822   3.834   5.163   3.131
    1PA     H7S11823   3.728   5.302   3.112
    1PA     C1611824   3.887   5.294   2.966
    1PA     H6R11825   3.811   5.267   2.893
    1PA     H6S11826   3.909   5.401   2.953
    1PA     C1511827   4.014   5.210   2.940
    1PA     H5R11828   4.085   5.224   3.022
    1PA     H5S11829   3.987   5.104   2.939
    1PA     C1411830   4.082   5.247   2.807
    1PA     H4R11831   4.012   5.233   2.725
    1PA     H4S11832   4.111   5.353   2.810
    1PA     C1311833   4.208   5.160   2.787
    1PA     H3R11834   4.272   5.170   2.874
    1PA     H3S11835   4.179   5.054   2.780
    1PA     C1211836   4.291   5.199   2.663
    1PA     H2R11837   4.321   5.304   2.672
    1PA     H2S11838   4.381   5.139   2.660
    2PC     C1111839   4.220   5.181   2.532
    2PC     O1211840   4.116   5.121   2.516
    2PC     O1111841   4.285   5.245   2.433
    2PC      C111842   4.219   5.255   2.304
    2PC      HR11843   4.288   5.296   2.231
    2PC      HS11844   4.189   5.155   2.271
    2PC      C211845   4.095   5.346   2.318
    2PC      HX11846   4.023   5.301   2.387
    2PC      C311847   4.028   5.367   2.182
    2PC      HA11848   3.991   5.272   2.142
    2PC      HB11849   3.944   5.436   2.191
    2PC     O3111850   4.126   5.422   2.092
    2PC     P3111851   4.080   5.470   1.949
    2PC     O3211852   4.057   5.331   1.875
    2PC     C3111853   4.171   5.244   1.859
    2PC     H1A11854   4.243   5.292   1.792
    2PC     H1B11855   4.218   5.228   1.956
    2PC     C3211856   4.124   5.108   1.803
    2PC     H2A11857   4.208   5.039   1.809
    2PC     H2B11858   4.043   5.070   1.865
    2PC     N3111859   4.076   5.102   1.660
    2PC     C3311860   3.950   5.182   1.640
    2PC     H3A11861   3.919   5.172   1.535
    2PC     H3B11862   3.873   5.142   1.706
    2PC     H3C11863   3.971   5.286   1.663
    2PC     C3411864   4.182   5.154   1.566
    2PC     H4A11865   4.147   5.140   1.463
    2PC     H4B11866   4.199   5.260   1.586
    2PC     H4C11867   4.274   5.097   1.582
    2PC     C3511868   4.049   4.958   1.625
    2PC     H5A11869   4.141   4.901   1.640
    2PC     H5B11870   4.018   4.953   1.520
    2PC     H5C11871   3.970   4.921   1.690
    2PC     O3311872   3.957   5.552   1.958
    2PC     O3411873   4.186   5.556   1.890
    2PC     O2111874   4.140   5.474   2.371
    2PC     C2111875   4.047   5.561   2.415
    2PC     O2211876   3.928   5.536   2.418
    3OL     C1211877   4.106   5.692   2.462
    3OL     H2R11878   4.042   5.773   2.428
    3OL     H2S11879   4.203   5.706   2.415
    3OL     C1311880   4.122   5.697   2.615
    3OL     H3R11881   4.170   5.791   2.642
    3OL     H3S11882   4.189   5.616   2.648
    3OL     C1411883   3.986   5.684   2.688
    3OL     H4R11884   3.944   5.585   2.668
    3OL     H4S11885   3.916   5.758   2.649
    3OL     C1511886   3.998   5.699   2.841
    3OL     H5R11887   4.078   5.635   2.879
    3OL     H5S11888   3.905   5.665   2.886
    3OL     C1611889   4.022   5.846   2.883
    3OL     H6R11890   3.949   5.910   2.834
    3OL     H6S11891   4.121   5.878   2.850
    3OL     C1711892   4.010   5.862   3.035
    3OL     H7R11893   4.085   5.800   3.085
    3OL     H7S11894   3.912   5.827   3.067
    3OL     C1811895   4.028   6.009   3.077
    3OL     H8R11896   3.971   6.073   3.010
    3OL     H8S11897   4.134   6.036   3.066
    3OL     C1911898   3.986   6.028   3.221
    3OL     H9R11899   4.044   5.971   3.294
    3OL    C11011900   3.885   6.103   3.265
    3OL    H10R11901   3.864   6.105   3.372
    3OL    C11111902   3.794   6.192   3.182
    3OL    H11R11903   3.831   6.204   3.081
    3OL    H11S11904   3.793   6.291   3.227
    3OL    C11211905   3.649   6.140   3.179
    3OL    H12R11906   3.585   6.213   3.127
    3OL    H12S11907   3.612   6.134   3.282
    3OL    C11311908   3.634   6.002   3.112
    3OL    H13R11909   3.535   5.962   3.135
    3OL    H13S11910   3.707   5.932   3.154
    3OL    C11411911   3.649   6.008   2.959
    3OL    H14R11912   3.748   6.046   2.932
    3OL    H14S11913   3.575   6.077   2.918
    3OL    C11511914   3.629   5.868   2.898
    3OL    H15R11915   3.531   5.830   2.924
    3OL    H15S11916   3.703   5.800   2.942
    3OL    C11611917   3.646   5.866   2.745
    3OL    H16R11918   3.659   5.763   2.712
    3OL    H16S11919   3.737   5.920   2.717
    3OL    C11711920   3.524   5.926   2.673
    3OL    H17R11921   3.513   6.031   2.702
    3OL    H17S11922   3.434   5.873   2.702
    3OL    C11811923   3.541   5.918   2.520
    3OL    H18R11924   3.454   5.963   2.471
    3OL    H18S11925   3.549   5.814   2.488
    3OL    H18T11926   3.630   5.972   2.488
    1PA    C11611927   1.332   5.175   3.451
    1PA    H16R11928   1.385   5.160   3.356
    1PA    H16S11929   1.236   5.222   3.431
    1PA    H16T11930   1.313   5.076   3.495
    1PA    C11511931   1.416   5.260   3.548
    1PA    H15R11932   1.360   5.270   3.642
    1PA    H15S11933   1.510   5.209   3.571
    1PA    C11411934   1.445   5.402   3.493
    1PA    H14R11935   1.352   5.450   3.463
    1PA    H14S11936   1.488   5.462   3.574
    1PA    C11311937   1.546   5.399   3.376
    1PA    H13R11938   1.638   5.350   3.409
    1PA    H13S11939   1.505   5.341   3.293
    1PA    C11211940   1.578   5.542   3.327
    1PA    H12R11941   1.487   5.590   3.290
    1PA    H12S11942   1.617   5.600   3.410
    1PA    C11111943   1.683   5.536   3.214
    1PA    H11R11944   1.773   5.487   3.253
    1PA    H11S11945   1.646   5.477   3.131
    1PA    C11011946   1.723   5.677   3.164
    1PA    H10R11947   1.638   5.723   3.113
    1PA    H10S11948   1.749   5.740   3.249
    1PA     C1911949   1.843   5.667   3.068
    1PA     H9R11950   1.926   5.620   3.122
    1PA     H9S11951   1.820   5.603   2.983
    1PA     C1811952   1.890   5.806   3.020
    1PA     H8R11953   1.870   5.881   3.097
    1PA     H8S11954   1.998   5.803   3.006
    1PA     C1711955   1.826   5.847   2.886
    1PA     H7R11956   1.864   5.782   2.807
    1PA     H7S11957   1.717   5.834   2.891
    1PA     C1611958   1.859   5.995   2.855
    1PA     H6R11959   1.796   6.058   2.918
    1PA     H6S11960   1.962   6.017   2.881
    1PA     C1511961   1.834   6.030   2.707
    1PA     H5R11962   1.744   5.979   2.671
    1PA     H5S11963   1.816   6.138   2.700
    1PA     C1411964   1.957   5.996   2.620
    1PA     H4R11965   2.044   6.048   2.661
    1PA     H4S11966   1.978   5.889   2.626
    1PA     C1311967   1.939   6.038   2.473
    1PA     H3R11968   1.901   6.140   2.467
    1PA     H3S11969   2.037   6.037   2.424
    1PA     C1211970   1.846   5.942   2.396
    1PA     H2R11971   1.884   5.840   2.404
    1PA     H2S11972   1.746   5.943   2.440
    2PC     C1111973   1.833   5.977   2.250
    2PC     O1211974   1.876   6.079   2.199
    2PC     O1111975   1.765   5.882   2.183
    2PC      C111976   1.739   5.900   2.041
    2PC      HR11977   1.706   6.003   2.022
    2PC      HS11978   1.830   5.880   1.984
    2PC      C211979   1.627   5.802   2.002
    2PC      HX11980   1.658   5.701   2.030
    2PC      C311981   1.595   5.808   1.851
    2PC      HA11982   1.680   5.768   1.795
    2PC      HB11983   1.506   5.748   1.828
    2PC     O3111984   1.573   5.945   1.810
    2PC     P3111985   1.568   5.984   1.655
    2PC     O3211986   1.412   5.989   1.626
    2PC     C3111987   1.373   6.002   1.488
    2PC     H1A11988   1.450   6.057   1.433
    2PC     H1B11989   1.361   5.903   1.444
    2PC     C3211990   1.241   6.081   1.483
    2PC     H2A11991   1.164   6.026   1.538
    2PC     H2B11992   1.256   6.178   1.530
    2PC     N3111993   1.183   6.109   1.346
    2PC     C3311994   1.140   5.980   1.281
    2PC     H3A11995   1.065   5.932   1.345
    2PC     H3B11996   1.096   6.004   1.184
    2PC     H3C11997   1.227   5.916   1.269
    2PC     C3411998   1.063   6.197   1.360
    2PC     H4A11999   1.022   6.217   1.261
    2PC     H4B12000   0.988   6.145   1.421
    2PC     H4C12001   1.093   6.290   1.408
    2PC     C3512002   1.282   6.179   1.257
    2PC     H5A12003   1.367   6.113   1.239
    2PC     H5B12004   1.315   6.271   1.307
    2PC     H5C12005   1.233   6.205   1.163
    2PC     O3312006   1.623   6.120   1.637
    2PC     O3412007   1.639   5.890   1.565
    2PC     O2112008   1.510   5.841   2.078
    2PC     C2112009   1.418   5.747   2.110
    2PC     O2212010   1.424   5.630   2.077
    3OL     C1212011   1.312   5.806   2.200
    3OL     H2R12012   1.256   5.881   2.142
    3OL     H2S12013   1.360   5.858   2.282
    3OL     C1312014   1.215   5.699   2.254
    3OL     H3R12015   1.271   5.626   2.312
    3OL     H3S12016   1.169   5.647   2.171
    3OL     C1412017   1.105   5.763   2.341
    3OL     H4R12018   1.052   5.838   2.282
    3OL     H4S12019   1.149   5.814   2.427
    3OL     C1512020   1.003   5.657   2.388
    3OL     H5R12021   0.976   5.592   2.304
    3OL     H5S12022   0.913   5.708   2.420
    3OL     C1612023   1.055   5.572   2.506
    3OL     H6R12024   1.077   5.638   2.591
    3OL     H6S12025   1.147   5.520   2.479
    3OL     C1712026   0.947   5.469   2.546
    3OL     H7R12027   0.931   5.399   2.464
    3OL     H7S12028   0.853   5.521   2.564
    3OL     C1812029   0.987   5.392   2.673
    3OL     H8R12030   1.011   5.463   2.752
    3OL     H8S12031   1.077   5.333   2.654
    3OL     C1912032   0.872   5.304   2.718
    3OL     H9R12033   0.781   5.358   2.743
    3OL    C11012034   0.875   5.172   2.732
    3OL    H10R12035   0.785   5.120   2.766
    3OL    C11112036   0.994   5.083   2.703
    3OL    H11R12037   1.066   5.094   2.784
    3OL    H11S12038   1.042   5.112   2.609
    3OL    C11212039   0.949   4.936   2.695
    3OL    H12R12040   0.881   4.925   2.611
    3OL    H12S12041   0.892   4.911   2.785
    3OL    C11312042   1.066   4.836   2.678
    3OL    H13R12043   1.118   4.858   2.585
    3OL    H13S12044   1.024   4.736   2.668
    3OL    C11412045   1.169   4.835   2.794
    3OL    H14R12046   1.231   4.925   2.788
    3OL    H14S12047   1.235   4.750   2.780
    3OL    C11512048   1.104   4.828   2.934
    3OL    H15R12049   1.036   4.743   2.939
    3OL    H15S12050   1.046   4.918   2.953
    3OL    C11612051   1.212   4.813   3.044
    3OL    H16R12052   1.289   4.890   3.029
    3OL    H16S12053   1.261   4.716   3.034
    3OL    C11712054   1.155   4.829   3.186
    3OL    H17R12055   1.107   4.927   3.195
    3OL    H17S12056   1.237   4.827   3.258
    3OL    C11812057   1.053   4.719   3.223
    3OL    H18R12058   0.966   4.723   3.158
    3OL    H18S12059   1.020   4.733   3.326
    3OL    H18T12060   1.099   4.621   3.215
    1PA    C11612061   2.690   4.731   4.057
    1PA    H16R12062   2.725   4.828   4.092
    1PA    H16S12063   2.729   4.654   4.124
    1PA    H16T12064   2.581   4.729   4.061
    1PA    C11512065   2.738   4.706   3.913
    1PA    H15R12066   2.705   4.788   3.849
    1PA    H15S12067   2.848   4.705   3.911
    1PA    C11412068   2.684   4.571   3.859
    1PA    H14R12069   2.714   4.492   3.928
    1PA    H14S12070   2.575   4.573   3.858
    1PA    C11312071   2.737   4.538   3.718
    1PA    H13R12072   2.846   4.547   3.717
    1PA    H13S12073   2.713   4.434   3.696
    1PA    C11212074   2.675   4.629   3.610
    1PA    H12R12075   2.566   4.620   3.612
    1PA    H12S12076   2.699   4.734   3.632
    1PA    C11112077   2.727   4.598   3.468
    1PA    H11R12078   2.689   4.674   3.400
    1PA    H11S12079   2.836   4.603   3.466
    1PA    C11012080   2.681   4.459   3.418
    1PA    H10R12081   2.727   4.381   3.479
    1PA    H10S12082   2.573   4.450   3.427
    1PA     C1912083   2.722   4.437   3.271
    1PA     H9R12084   2.675   4.514   3.209
    1PA     H9S12085   2.830   4.450   3.261
    1PA     C1812086   2.681   4.297   3.221
    1PA     H8R12087   2.736   4.220   3.276
    1PA     H8S12088   2.575   4.282   3.242
    1PA     C1712089   2.703   4.280   3.069
    1PA     H7R12090   2.658   4.186   3.037
    1PA     H7S12091   2.652   4.361   3.016
    1PA     C1612092   2.853   4.278   3.030
    1PA     H6R12093   2.903   4.367   3.070
    1PA     H6S12094   2.901   4.191   3.074
    1PA     C1512095   2.870   4.276   2.877
    1PA     H5R12096   2.826   4.185   2.836
    1PA     H5S12097   2.816   4.361   2.834
    1PA     C1412098   3.019   4.284   2.838
    1PA     H4R12099   3.066   4.370   2.887
    1PA     H4S12100   3.070   4.195   2.876
    1PA     C1312101   3.041   4.293   2.686
    1PA     H3R12102   3.147   4.274   2.665
    1PA     H3S12103   2.983   4.216   2.635
    1PA     C1212104   3.005   4.433   2.631
    1PA     H2R12105   2.898   4.451   2.642
    1PA     H2S12106   3.058   4.510   2.686
    2PC     C1112107   3.040   4.446   2.485
    2PC     O1212108   3.135   4.509   2.444
    2PC     O1112109   2.953   4.380   2.406
    2PC      C112110   2.966   4.396   2.262
    2PC      HR12111   2.993   4.499   2.238
    2PC      HS12112   3.042   4.328   2.223
    2PC      C212113   2.829   4.366   2.198
    2PC      HX12114   2.799   4.263   2.220
    2PC      C312115   2.835   4.388   2.045
    2PC      HA12116   2.914   4.327   2.002
    2PC      HB12117   2.739   4.361   1.999
    2PC     O3112118   2.864   4.527   2.020
    2PC     P3112119   2.868   4.580   1.871
    2PC     O3212120   2.750   4.686   1.880
    2PC     C3112121   2.781   4.826   1.894
    2PC     H1A12122   2.847   4.857   1.813
    2PC     H1B12123   2.687   4.882   1.885
    2PC     C3212124   2.845   4.853   2.032
    2PC     H2A12125   2.775   4.821   2.110
    2PC     H2B12126   2.936   4.794   2.041
    2PC     N3112127   2.883   4.996   2.063
    2PC     C3312128   2.763   5.086   2.060
    2PC     H3A12129   2.721   5.085   1.959
    2PC     H3B12130   2.690   5.049   2.131
    2PC     H3C12131   2.794   5.187   2.086
    2PC     C3412132   2.942   5.000   2.200
    2PC     H4A12133   2.867   4.966   2.272
    2PC     H4B12134   3.029   4.933   2.202
    2PC     H4C12135   2.973   5.102   2.222
    2PC     C3512136   2.984   5.046   1.964
    2PC     H5A12137   3.070   4.979   1.965
    2PC     H5B12138   3.015   5.146   1.993
    2PC     H5C12139   2.938   5.048   1.864
    2PC     O3312140   3.002   4.636   1.842
    2PC     O3412141   2.836   4.477   1.770
    2PC     O2112142   2.735   4.459   2.257
    2PC     C2112143   2.604   4.451   2.230
    2PC     O2212144   2.553   4.368   2.157
    3OL     C1212145   2.526   4.554   2.306
    3OL     H2R12146   2.437   4.581   2.250
    3OL     H2S12147   2.587   4.644   2.318
    3OL     C1312148   2.488   4.497   2.444
    3OL     H3R12149   2.579   4.473   2.500
    3OL     H3S12150   2.431   4.405   2.432
    3OL     C1412151   2.405   4.598   2.524
    3OL     H4R12152   2.313   4.619   2.469
    3OL     H4S12153   2.460   4.692   2.534
    3OL     C1512154   2.371   4.542   2.664
    3OL     H5R12155   2.464   4.519   2.716
    3OL     H5S12156   2.315   4.449   2.655
    3OL     C1612157   2.291   4.643   2.749
    3OL     H6R12158   2.345   4.738   2.752
    3OL     H6S12159   2.285   4.606   2.851
    3OL     C1712160   2.149   4.665   2.694
    3OL     H7R12161   2.093   4.572   2.698
    3OL     H7S12162   2.153   4.697   2.590
    3OL     C1812163   2.074   4.773   2.775
    3OL     H8R12164   2.141   4.856   2.794
    3OL     H8S12165   2.044   4.730   2.871
    3OL     C1912166   1.951   4.818   2.699
    3OL     H9R12167   1.909   4.745   2.630
    3OL    C11012168   1.894   4.938   2.708
    3OL    H10R12169   1.807   4.960   2.647
    3OL    C11112170   1.939   5.052   2.797
    3OL    H11R12171   1.939   5.145   2.739
    3OL    H11S12172   2.041   5.037   2.832
    3OL    C11212173   1.846   5.068   2.918
    3OL    H12R12174   1.844   4.975   2.975
    3OL    H12S12175   1.744   5.089   2.884
    3OL    C11312176   1.895   5.183   3.009
    3OL    H13R12177   1.901   5.274   2.949
    3OL    H13S12178   1.996   5.161   3.043
    3OL    C11412179   1.804   5.210   3.130
    3OL    H14R12180   1.704   5.238   3.097
    3OL    H14S12181   1.846   5.296   3.183
    3OL    C11512182   1.797   5.094   3.232
    3OL    H15R12183   1.804   5.135   3.333
    3OL    H15S12184   1.882   5.027   3.219
    3OL    C11612185   1.665   5.015   3.221
    3OL    H16R12186   1.656   4.970   3.121
    3OL    H16S12187   1.581   5.084   3.234
    3OL    C11712188   1.658   4.905   3.328
    3OL    H17R12189   1.674   4.948   3.427
    3OL    H17S12190   1.737   4.832   3.311
    3OL    C11812191   1.521   4.834   3.326
    3OL    H18R12192   1.441   4.904   3.350
    3OL    H18S12193   1.519   4.753   3.400
    3OL    H18T12194   1.501   4.791   3.227
    1PA    C11612195   4.021   1.628   3.407
    1PA    H16R12196   3.955   1.605   3.491
    1PA    H16S12197   4.116   1.663   3.446
    1PA    H16T12198   4.038   1.537   3.351
    1PA    C11512199   3.955   1.735   3.317
    1PA    H15R12200   4.018   1.752   3.229
    1PA    H15S12201   3.860   1.695   3.281
    1PA    C11412202   3.928   1.868   3.391
    1PA    H14R12203   3.871   1.933   3.325
    1PA    H14S12204   3.866   1.848   3.478
    1PA    C11312205   4.055   1.943   3.437
    1PA    H13R12206   4.025   2.039   3.480
    1PA    H13S12207   4.103   1.887   3.518
    1PA    C11212208   4.160   1.968   3.326
    1PA    H12R12209   4.245   2.022   3.369
    1PA    H12S12210   4.199   1.872   3.292
    1PA    C11112211   4.107   2.046   3.204
    1PA    H11R12212   4.182   2.040   3.125
    1PA    H11S12213   4.017   2.000   3.165
    1PA    C11012214   4.081   2.195   3.236
    1PA    H10R12215   3.997   2.202   3.305
    1PA    H10S12216   4.168   2.239   3.287
    1PA     C1912217   4.049   2.278   3.109
    1PA     H9R12218   3.973   2.226   3.050
    1PA     H9S12219   4.007   2.374   3.140
    1PA     C1812220   4.175   2.303   3.024
    1PA     H8R12221   4.251   2.352   3.086
    1PA     H8S12222   4.217   2.208   2.991
    1PA     C1712223   4.145   2.390   2.900
    1PA     H7R12224   4.069   2.340   2.840
    1PA     H7S12225   4.104   2.486   2.931
    1PA     C1612226   4.271   2.412   2.813
    1PA     H6R12227   4.322   2.316   2.799
    1PA     H6S12228   4.239   2.447   2.715
    1PA     C1512229   4.368   2.515   2.876
    1PA     H5R12230   4.321   2.614   2.878
    1PA     H5S12231   4.389   2.486   2.979
    1PA     C1412232   4.502   2.522   2.800
    1PA     H4R12233   4.573   2.578   2.862
    1PA     H4S12234   4.542   2.422   2.788
    1PA     C1312235   4.491   2.592   2.663
    1PA     H3R12236   4.420   2.537   2.600
    1PA     H3S12237   4.453   2.693   2.676
    1PA     C1212238   4.629   2.596   2.594
    1PA     H2R12239   4.700   2.651   2.656
    1PA     H2S12240   4.667   2.495   2.581
    2PC     C1112241   4.623   2.662   2.458
    2PC     O1212242   4.693   2.757   2.427
    2PC     O1112243   4.534   2.604   2.375
    2PC      C112244   4.519   2.657   2.241
    2PC      HR12245   4.489   2.762   2.246
    2PC      HS12246   4.615   2.650   2.189
    2PC      C212247   4.412   2.576   2.165
    2PC      HX12248   4.433   2.469   2.172
    2PC      C312249   4.407   2.617   2.016
    2PC      HA12250   4.330   2.695   2.003
    2PC      HB12251   4.502   2.657   1.982
    2PC     O3112252   4.373   2.501   1.937
    2PC     P3112253   4.303   2.523   1.795
    2PC     O3212254   4.154   2.489   1.841
    2PC     C3112255   4.056   2.594   1.855
    2PC     H1A12256   3.984   2.562   1.930
    2PC     H1B12257   4.103   2.686   1.889
    2PC     C3212258   3.982   2.617   1.721
    2PC     H2A12259   3.897   2.683   1.740
    2PC     H2B12260   4.049   2.667   1.651
    2PC     N3112261   3.927   2.496   1.647
    2PC     C3312262   3.838   2.545   1.537
    2PC     H3A12263   3.756   2.602   1.581
    2PC     H3B12264   3.897   2.609   1.470
    2PC     H3C12265   3.799   2.459   1.482
    2PC     C3412266   4.036   2.414   1.585
    2PC     H4A12267   3.991   2.336   1.523
    2PC     H4B12268   4.098   2.480   1.523
    2PC     H4C12269   4.096   2.369   1.664
    2PC     C3512270   3.846   2.407   1.737
    2PC     H5A12271   3.909   2.376   1.820
    2PC     H5B12272   3.812   2.321   1.680
    2PC     H5C12273   3.760   2.464   1.773
    2PC     O3312274   4.327   2.655   1.734
    2PC     O3412275   4.350   2.428   1.693
    2PC     O2112276   4.282   2.608   2.220
    2PC     C2112277   4.240   2.545   2.331
    2PC     O2212278   4.294   2.448   2.382
    3OL     C1212279   4.118   2.609   2.392
    3OL     H2R12280   4.064   2.533   2.449
    3OL     H2S12281   4.051   2.645   2.313
    3OL     C1312282   4.159   2.726   2.483
    3OL     H3R12283   4.179   2.815   2.424
    3OL     H3S12284   4.251   2.699   2.536
    3OL     C1412285   4.050   2.754   2.588
    3OL     H4R12286   4.030   2.663   2.645
    3OL     H4S12287   3.957   2.783   2.537
    3OL     C1512288   4.093   2.867   2.683
    3OL     H5R12289   4.100   2.960   2.627
    3OL     H5S12290   4.193   2.846   2.723
    3OL     C1612291   3.994   2.885   2.800
    3OL     H6R12292   3.892   2.876   2.763
    3OL     H6S12293   4.006   2.985   2.842
    3OL     C1712294   4.018   2.781   2.912
    3OL     H7R12295   4.121   2.791   2.948
    3OL     H7S12296   4.007   2.680   2.872
    3OL     C1812297   3.920   2.801   3.028
    3OL     H8R12298   3.818   2.781   2.993
    3OL     H8S12299   3.922   2.905   3.061
    3OL     C1912300   3.953   2.708   3.143
    3OL     H9R12301   3.901   2.612   3.141
    3OL    C11012302   4.037   2.735   3.242
    3OL    H10R12303   4.053   2.660   3.319
    3OL    C11112304   4.119   2.861   3.259
    3OL    H11R12305   4.088   2.939   3.189
    3OL    H11S12306   4.223   2.838   3.236
    3OL    C11212307   4.111   2.914   3.404
    3OL    H12R12308   4.123   2.829   3.472
    3OL    H12S12309   4.013   2.958   3.422
    3OL    C11312310   4.223   3.016   3.434
    3OL    H13R12311   4.320   2.971   3.414
    3OL    H13S12312   4.220   3.040   3.541
    3OL    C11412313   4.208   3.146   3.353
    3OL    H14R12314   4.111   3.192   3.375
    3OL    H14S12315   4.212   3.124   3.247
    3OL    C11512316   4.321   3.245   3.389
    3OL    H15R12317   4.418   3.200   3.366
    3OL    H15S12318   4.318   3.264   3.496
    3OL    C11612319   4.307   3.381   3.315
    3OL    H16R12320   4.378   3.452   3.359
    3OL    H16S12321   4.207   3.421   3.333
    3OL    C11712322   4.332   3.372   3.163
    3OL    H17R12323   4.305   3.468   3.118
    3OL    H17S12324   4.268   3.296   3.118
    3OL    C11812325   4.479   3.343   3.129
    3OL    H18R12326   4.493   3.343   3.020
    3OL    H18S12327   4.510   3.245   3.167
    3OL    H18T12328   4.545   3.419   3.172
    1PA    C11612329   4.645   1.249   3.975
    1PA    H16R12330   4.539   1.274   3.962
    1PA    H16S12331   4.656   1.190   4.066
    1PA    H16T12332   4.676   1.189   3.889
    1PA    C11512333   4.728   1.379   3.984
    1PA    H15R12334   4.713   1.437   3.892
    1PA    H15S12335   4.689   1.440   4.066
    1PA    C11412336   4.879   1.354   4.007
    1PA    H14R12337   4.930   1.450   4.008
    1PA    H14S12338   4.893   1.309   4.105
    1PA    C11312339   4.945   1.263   3.901
    1PA    H13R12340   5.051   1.253   3.925
    1PA    H13S12341   4.902   1.162   3.906
    1PA    C11212342   4.931   1.318   3.758
    1PA    H12R12343   4.825   1.323   3.731
    1PA    H12S12344   4.970   1.420   3.755
    1PA    C11112345   5.005   1.229   3.657
    1PA    H11R12346   5.113   1.233   3.676
    1PA    H11S12347   4.973   1.126   3.671
    1PA    C11012348   4.974   1.270   3.512
    1PA    H10R12349   5.014   1.194   3.444
    1PA    H10S12350   4.866   1.273   3.497
    1PA     C1912351   5.037   1.406   3.475
    1PA     H9R12352   5.006   1.484   3.545
    1PA     H9S12353   5.146   1.397   3.481
    1PA     C1812354   5.000   1.450   3.332
    1PA     H8R12355   5.071   1.525   3.299
    1PA     H8S12356   5.009   1.365   3.264
    1PA     C1712357   4.857   1.508   3.325
    1PA     H7R12358   4.786   1.435   3.363
    1PA     H7S12359   4.849   1.597   3.389
    1PA     C1612360   4.817   1.544   3.180
    1PA     H6R12361   4.841   1.461   3.114
    1PA     H6S12362   4.709   1.560   3.176
    1PA     C1512363   4.887   1.673   3.131
    1PA     H5R12364   4.851   1.758   3.188
    1PA     H5S12365   4.995   1.665   3.147
    1PA     C1412366   4.861   1.695   2.981
    1PA     H4R12367   4.898   1.609   2.925
    1PA     H4S12368   4.753   1.703   2.963
    1PA     C1312369   4.931   1.823   2.932
    1PA     H3R12370   4.883   1.910   2.977
    1PA     H3S12371   5.035   1.823   2.964
    1PA     C1212372   4.924   1.836   2.778
    1PA     H2R12373   4.820   1.828   2.745
    1PA     H2S12374   4.960   1.934   2.747
    2PC     C1112375   5.007   1.731   2.707
    2PC     O1212376   5.109   1.684   2.752
    2PC     O1112377   4.951   1.693   2.591
    2PC      C112378   5.016   1.589   2.513
    2PC      HR12379   5.116   1.622   2.484
    2PC      HS12380   5.026   1.497   2.572
    2PC      C212381   4.930   1.563   2.387
    2PC      HX12382   4.977   1.487   2.324
    2PC      C312383   4.909   1.693   2.308
    2PC      HA12384   4.853   1.764   2.369
    2PC      HB12385   5.006   1.736   2.280
    2PC     O3112386   4.833   1.663   2.188
    2PC     P3112387   4.794   1.781   2.089
    2PC     O3212388   4.848   1.724   1.951
    2PC     C3112389   4.988   1.696   1.940
    2PC     H1A12390   5.043   1.791   1.939
    2PC     H1B12391   5.020   1.635   2.025
    2PC     C3212392   5.012   1.618   1.810
    2PC     H2A12393   4.955   1.525   1.814
    2PC     H2B12394   4.977   1.677   1.725
    2PC     N3112395   5.156   1.579   1.779
    2PC     C3312396   5.157   1.499   1.652
    2PC     H3A12397   5.260   1.469   1.632
    2PC     H3B12398   5.093   1.411   1.666
    2PC     H3C12399   5.119   1.562   1.571
    2PC     C3412400   5.241   1.702   1.760
    2PC     H4A12401   5.194   1.766   1.686
    2PC     H4B12402   5.249   1.755   1.856
    2PC     H4C12403   5.340   1.671   1.727
    2PC     C3512404   5.215   1.495   1.888
    2PC     H5A12405   5.317   1.467   1.859
    2PC     H5B12406   5.154   1.405   1.901
    2PC     H5C12407   5.218   1.553   1.981
    2PC     O3312408   4.648   1.800   2.087
    2PC     O3412409   4.853   1.912   2.126
    2PC     O2112410   4.799   1.518   2.430
    2PC     C2112411   4.784   1.393   2.478
    2PC     O2212412   4.871   1.308   2.477
    3OL     C1212413   4.648   1.372   2.539
    3OL     H2R12414   4.635   1.267   2.563
    3OL     H2S12415   4.572   1.400   2.466
    3OL     C1312416   4.634   1.459   2.666
    3OL     H3R12417   4.660   1.562   2.642
    3OL     H3S12418   4.704   1.425   2.743
    3OL     C1412419   4.490   1.459   2.722
    3OL     H4R12420   4.423   1.501   2.647
    3OL     H4S12421   4.486   1.526   2.808
    3OL     C1512422   4.438   1.320   2.764
    3OL     H5R12423   4.431   1.254   2.677
    3OL     H5S12424   4.336   1.332   2.802
    3OL     C1612425   4.524   1.252   2.872
    3OL     H6R12426   4.544   1.323   2.953
    3OL     H6S12427   4.621   1.222   2.830
    3OL     C1712428   4.452   1.129   2.928
    3OL     H7R12429   4.437   1.055   2.849
    3OL     H7S12430   4.353   1.158   2.965
    3OL     C1812431   4.531   1.064   3.044
    3OL     H8R12432   4.552   1.141   3.118
    3OL     H8S12433   4.626   1.027   3.006
    3OL     C1912434   4.448   0.955   3.108
    3OL     H9R12435   4.344   0.982   3.125
    3OL    C11012436   4.488   0.833   3.141
    3OL    H10R12437   4.416   0.764   3.184
    3OL    C11112438   4.629   0.777   3.128
    3OL    H11R12439   4.699   0.850   3.088
    3OL    H11S12440   4.627   0.693   3.059
    3OL    C11212441   4.680   0.727   3.265
    3OL    H12R12442   4.771   0.669   3.249
    3OL    H12S12443   4.605   0.660   3.308
    3OL    C11312444   4.707   0.842   3.364
    3OL    H13R12445   4.616   0.900   3.379
    3OL    H13S12446   4.783   0.909   3.322
    3OL    C11412447   4.757   0.786   3.499
    3OL    H14R12448   4.845   0.724   3.482
    3OL    H14S12449   4.679   0.723   3.542
    3OL    C11512450   4.792   0.900   3.596
    3OL    H15R12451   4.705   0.966   3.606
    3OL    H15S12452   4.873   0.960   3.555
    3OL    C11612453   4.829   0.849   3.737
    3OL    H16R12454   4.749   0.783   3.773
    3OL    H16S12455   4.834   0.933   3.806
    3OL    C11712456   4.963   0.772   3.743
    3OL    H17R12457   4.965   0.693   3.666
    3OL    H17S12458   4.970   0.722   3.840
    3OL    C11812459   5.085   0.864   3.727
    3OL    H18R12460   5.084   0.913   3.630
    3OL    H18S12461   5.177   0.806   3.736
    3OL    H18T12462   5.085   0.941   3.805
    1PA    C11612463   6.398   0.824   3.531
    1PA    H16R12464   6.349   0.851   3.437
    1PA    H16S12465   6.444   0.914   3.573
    1PA    H16T12466   6.323   0.789   3.601
    1PA    C11512467   0.057   0.716   3.507
    1PA    H15R12468   0.099   0.685   3.602
    1PA    H15S12469   0.009   0.628   3.461
    1PA    C11412470   0.168   0.768   3.414
    1PA    H14R12471   0.125   0.798   3.319
    1PA    H14S12472   0.214   0.856   3.460
    1PA    C11312473   0.277   0.662   3.389
    1PA    H13R12474   0.321   0.631   3.484
    1PA    H13S12475   0.232   0.573   3.343
    1PA    C11212476   0.386   0.719   3.297
    1PA    H12R12477   0.339   0.752   3.204
    1PA    H12S12478   0.430   0.807   3.344
    1PA    C11112479   0.496   0.617   3.265
    1PA    H11R12480   0.548   0.587   3.356
    1PA    H11S12481   0.452   0.527   3.220
    1PA    C11012482   0.596   0.679   3.165
    1PA    H10R12483   0.540   0.712   3.078
    1PA    H10S12484   0.641   0.768   3.210
    1PA     C1912485   0.707   0.581   3.123
    1PA     H9R12486   0.765   0.552   3.211
    1PA     H9S12487   0.664   0.490   3.081
    1PA     C1812488   0.802   0.646   3.019
    1PA     H8R12489   0.834   0.743   3.056
    1PA     H8S12490   0.891   0.584   3.009
    1PA     C1712491   0.735   0.660   2.881
    1PA     H7R12492   0.716   0.561   2.838
    1PA     H7S12493   0.638   0.710   2.891
    1PA     C1612494   0.821   0.743   2.784
    1PA     H6R12495   0.846   0.838   2.831
    1PA     H6S12496   0.914   0.691   2.762
    1PA     C1512497   0.743   0.770   2.653
    1PA     H5R12498   0.729   0.676   2.599
    1PA     H5S12499   0.644   0.809   2.678
    1PA     C1412500   0.816   0.871   2.564
    1PA     H4R12501   0.832   0.963   2.620
    1PA     H4S12502   0.914   0.832   2.535
    1PA     C1312503   0.734   0.903   2.437
    1PA     H3R12504   0.722   0.813   2.377
    1PA     H3S12505   0.634   0.937   2.466
    1PA     C1212506   0.803   1.013   2.354
    1PA     H2R12507   0.817   1.102   2.414
    1PA     H2S12508   0.901   0.979   2.321
    2PC     C1112509   0.721   1.049   2.232
    2PC     O1212510   0.702   0.972   2.139
    2PC     O1112511   0.676   1.177   2.236
    2PC      C112512   0.595   1.228   2.127
    2PC      HR12513   0.584   1.337   2.139
    2PC      HS12514   0.646   1.210   2.032
    2PC      C212515   0.454   1.164   2.125
    2PC      HX12516   0.463   1.054   2.124
    2PC      C312517   0.375   1.210   2.000
    2PC      HA12518   0.423   1.172   1.910
    2PC      HB12519   0.273   1.171   2.004
    2PC     O3112520   0.372   1.356   1.996
    2PC     P3112521   0.287   1.427   1.882
    2PC     O3212522   0.351   1.357   1.754
    2PC     C3112523   0.468   1.415   1.697
    2PC     H1A12524   0.445   1.514   1.656
    2PC     H1B12525   0.545   1.425   1.773
    2PC     C3212526   0.517   1.321   1.586
    2PC     H2A12527   0.609   1.361   1.543
    2PC     H2B12528   0.540   1.223   1.629
    2PC     N3112529   0.425   1.294   1.468
    2PC     C3312530   0.501   1.215   1.367
    2PC     H3A12531   0.589   1.272   1.337
    2PC     H3B12532   0.532   1.120   1.413
    2PC     H3C12533   0.436   1.196   1.282
    2PC     C3412534   0.304   1.214   1.507
    2PC     H4A12535   0.338   1.121   1.554
    2PC     H4B12536   0.244   1.272   1.578
    2PC     H4C12537   0.246   1.193   1.417
    2PC     C3512538   0.380   1.423   1.405
    2PC     H5A12539   0.320   1.479   1.476
    2PC     H5B12540   0.321   1.399   1.316
    2PC     H5C12541   0.469   1.480   1.376
    2PC     O3312542   0.142   1.396   1.888
    2PC     O3412543   0.297   1.574   1.875
    2PC     O2112544   0.381   1.208   2.242
    2PC     C2112545   0.268   1.143   2.276
    2PC     O2212546   0.232   1.037   2.228
    3OL     C1212547   0.186   1.218   2.379
    3OL     H2R12548   0.112   1.151   2.422
    3OL     H2S12549   0.133   1.299   2.329
    3OL     C1312550   0.274   1.279   2.492
    3OL     H3R12551   0.211   1.341   2.556
    3OL     H3S12552   0.350   1.344   2.449
    3OL     C1412553   0.339   1.168   2.577
    3OL     H4R12554   0.397   1.101   2.513
    3OL     H4S12555   0.261   1.110   2.626
    3OL     C1512556   0.433   1.229   2.683
    3OL     H5R12557   0.377   1.297   2.746
    3OL     H5S12558   0.512   1.287   2.633
    3OL     C1612559   0.497   1.119   2.769
    3OL     H6R12560   0.555   1.051   2.706
    3OL     H6S12561   0.418   1.060   2.818
    3OL     C1712562   0.588   1.181   2.876
    3OL     H7R12563   0.530   1.249   2.938
    3OL     H7S12564   0.666   1.239   2.827
    3OL     C1812565   0.653   1.073   2.965
    3OL     H8R12566   0.719   1.012   2.904
    3OL     H8S12567   0.575   1.007   3.004
    3OL     C1912568   0.732   1.138   3.076
    3OL     H9R12569   0.826   1.183   3.047
    3OL    C11012570   0.695   1.142   3.204
    3OL    H10R12571   0.759   1.190   3.277
    3OL    C11112572   0.565   1.087   3.259
    3OL    H11R12573   0.577   0.980   3.276
    3OL    H11S12574   0.485   1.100   3.186
    3OL    C11212575   0.525   1.152   3.392
    3OL    H12R12576   0.604   1.137   3.465
    3OL    H12S12577   0.435   1.102   3.430
    3OL    C11312578   0.496   1.303   3.379
    3OL    H13R12579   0.419   1.320   3.304
    3OL    H13S12580   0.587   1.355   3.347
    3OL    C11412581   0.449   1.359   3.515
    3OL    H14R12582   0.527   1.341   3.590
    3OL    H14S12583   0.360   1.305   3.547
    3OL    C11512584   0.419   1.509   3.507
    3OL    H15R12585   0.345   1.528   3.429
    3OL    H15S12586   0.510   1.564   3.480
    3OL    C11612587   0.366   1.560   3.643
    3OL    H16R12588   0.438   1.534   3.720
    3OL    H16S12589   0.272   1.510   3.668
    3OL    C11712590   0.344   1.713   3.643
    3OL    H17R12591   0.433   1.763   3.603
    3OL    H17S12592   0.332   1.747   3.747
    3OL    C11812593   0.219   1.755   3.564
    3OL    H18R12594   0.227   1.724   3.459
    3OL    H18S12595   0.208   1.863   3.566
    3OL    H18T12596   0.130   1.710   3.606
    1PA    C11612597   6.327   6.390   3.798
    1PA    H16R12598   6.426   6.389   3.751
    1PA    H16S12599   6.335   6.340   3.895
    1PA    H16T12600   6.298   0.046   3.815
    1PA    C11512601   6.224   6.318   3.711
    1PA    H15R12602   6.250   6.212   3.702
    1PA    H15S12603   6.126   6.323   3.760
    1PA    C11412604   6.212   6.380   3.570
    1PA    H14R12605   6.121   6.341   3.523
    1PA    H14S12606   6.201   0.040   3.577
    1PA    C11312607   6.333   6.344   3.481
    1PA    H13R12608   6.424   6.387   3.523
    1PA    H13S12609   6.345   6.235   3.479
    1PA    C11212610   6.313   6.396   3.337
    1PA    H12R12611   6.219   6.357   3.298
    1PA    H12S12612   6.306   0.057   3.338
    1PA    C11112613   6.429   6.351   3.247
    1PA    H11R12614   0.074   6.395   3.281
    1PA    H11S12615   6.439   6.242   3.252
    1PA    C11012616   6.403   6.392   3.100
    1PA    H10R12617   6.306   6.352   3.069
    1PA    H10S12618   6.400   0.053   3.092
    1PA     C1912619   0.064   6.335   3.007
    1PA     H9R12620   0.162   6.377   3.032
    1PA     H9S12621   0.070   6.227   3.023
    1PA     C1812622   0.029   6.360   2.859
    1PA     H8R12623   0.071   6.278   2.799
    1PA     H8S12624   6.369   6.357   2.845
    1PA     C1712625   0.085   0.045   2.805
    1PA     H7R12626   0.045   0.129   2.863
    1PA     H7S12627   0.194   0.046   2.815
    1PA     C1612628   0.047   0.060   2.657
    1PA     H6R12629   0.087   6.423   2.601
    1PA     H6S12630   6.386   0.055   2.649
    1PA     C1512631   0.096   0.191   2.592
    1PA     H5R12632   0.056   0.276   2.646
    1PA     H5S12633   0.205   0.195   2.596
    1PA     C1412634   0.050   0.195   2.445
    1PA     H4R12635   0.096   0.113   2.390
    1PA     H4S12636   6.390   0.179   2.442
    1PA     C1312637   0.081   0.328   2.374
    1PA     H3R12638   0.036   0.410   2.431
    1PA     H3S12639   0.189   0.345   2.372
    1PA     C1212640   0.024   0.324   2.231
    1PA     H2R12641   0.080   0.251   2.172
    1PA     H2S12642   6.369   0.290   2.235
    2PC     C1112643   0.025   0.456   2.156
    2PC     O1212644   6.448   0.464   2.038
    2PC     O1112645   0.046   0.564   2.234
    2PC      C112646   0.031   0.697   2.177
    2PC      HR12647   0.072   0.771   2.247
    2PC      HS12648   0.087   0.704   2.083
    2PC      C212649   6.330   0.729   2.151
    2PC      HX12650   6.286   0.653   2.086
    2PC      C312651   6.316   0.866   2.080
    2PC      HA12652   6.221   0.912   2.108
    2PC      HB12653   6.398   0.933   2.108
    2PC     O3112654   6.316   0.844   1.937
    2PC     P3112655   6.315   0.969   1.838
    2PC     O3212656   6.190   1.050   1.895
    2PC     C3112657   6.057   1.022   1.847
    2PC     H1A12658   6.044   0.914   1.836
    2PC     H1B12659   5.985   1.058   1.920
    2PC     C3212660   6.031   1.092   1.711
    2PC     H2A12661   6.107   1.061   1.639
    2PC     H2B12662   5.934   1.059   1.673
    2PC     N3112663   6.028   1.243   1.710
    2PC     C3312664   5.997   1.290   1.571
    2PC     H3A12665   5.997   1.399   1.570
    2PC     H3B12666   6.074   1.252   1.503
    2PC     H3C12667   5.899   1.252   1.543
    2PC     C3412668   5.923   1.297   1.803
    2PC     H4A12669   5.827   1.252   1.777
    2PC     H4B12670   5.950   1.271   1.906
    2PC     H4C12671   5.918   1.405   1.792
    2PC     C3512672   6.162   1.299   1.749
    2PC     H5A12673   6.182   1.274   1.853
    2PC     H5B12674   6.160   1.407   1.736
    2PC     H5C12675   6.238   1.255   1.684
    2PC     O3312676   6.441   1.047   1.840
    2PC     O3412677   6.297   0.933   1.696
    2PC     O2112678   6.260   0.733   2.278
    2PC     C2112679   6.211   0.616   2.327
    2PC     O2212680   6.204   0.512   2.264
    3OL     C1212681   6.168   0.626   2.471
    3OL     H2R12682   6.064   0.593   2.479
    3OL     H2S12683   6.173   0.729   2.504
    3OL     C1312684   6.259   0.538   2.559
    3OL     H3R12685   6.362   0.572   2.549
    3OL     H3S12686   6.254   0.434   2.525
    3OL     C1412687   6.218   0.544   2.708
    3OL     H4R12688   6.116   0.507   2.720
    3OL     H4S12689   6.220   0.648   2.742
    3OL     C1512690   6.315   0.460   2.794
    3OL     H5R12691   6.417   0.496   2.779
    3OL     H5S12692   6.311   0.356   2.761
    3OL     C1612693   6.278   0.468   2.943
    3OL     H6R12694   6.178   0.426   2.958
    3OL     H6S12695   6.275   0.573   2.974
    3OL     C1712696   6.381   0.392   3.029
    3OL     H7R12697   0.033   0.431   3.010
    3OL     H7S12698   6.381   0.287   3.001
    3OL     C1812699   6.352   0.404   3.180
    3OL     H8R12700   6.362   0.508   3.212
    3OL     H8S12701   6.427   0.346   3.235
    3OL     C1912702   6.214   0.350   3.214
    3OL     H9R12703   6.194   0.249   3.177
    3OL    C11012704   6.119   0.415   3.280
    3OL    H10R12705   6.023   0.366   3.295
    3OL    C11112706   6.132   0.553   3.342
    3OL    H11R12707   6.149   0.628   3.264
    3OL    H11S12708   6.217   0.554   3.411
    3OL    C11212709   6.003   0.587   3.419
    3OL    H12R12710   5.980   0.502   3.484
    3OL    H12S12711   5.919   0.597   3.349
    3OL    C11312712   6.015   0.712   3.507
    3OL    H13R12713   6.110   0.713   3.560
    3OL    H13S12714   5.937   0.707   3.583
    3OL    C11412715   5.995   0.844   3.430
    3OL    H14R12716   5.905   0.838   3.369
    3OL    H14S12717   6.080   0.862   3.363
    3OL    C11512718   5.981   0.961   3.530
    3OL    H15R12719   6.073   0.971   3.588
    3OL    H15S12720   5.900   0.939   3.599
    3OL    C11612721   5.951   1.095   3.459
    3OL    H16R12722   5.865   1.083   3.394
    3OL    H16S12723   6.037   1.124   3.397
    3OL    C11712724   5.922   1.205   3.563
    3OL    H17R12725   6.009   1.218   3.628
    3OL    H17S12726   5.838   1.174   3.626
    3OL    C11812727   5.888   1.339   3.496
    3OL    H18R12728   5.864   1.414   3.572
    3OL    H18S12729   5.803   1.328   3.430
    3OL    H18T12730   5.974   1.376   3.438
    1PA    C11612731   5.616   6.427   3.829
    1PA    H16R12732   5.720   0.000   3.806
    1PA    H16S12733   5.608   6.399   3.935
    1PA    H16T12734   5.557   0.070   3.813
    1PA    C11512735   5.563   6.313   3.740
    1PA    H15R12736   5.460   6.290   3.768
    1PA    H15S12737   5.563   6.346   3.637
    1PA    C11412738   5.650   6.186   3.755
    1PA    H14R12739   5.752   6.208   3.724
    1PA    H14S12740   5.653   6.158   3.861
    1PA    C11312741   5.595   6.066   3.674
    1PA    H13R12742   5.656   5.978   3.698
    1PA    H13S12743   5.492   6.045   3.704
    1PA    C11212744   5.600   6.091   3.522
    1PA    H12R12745   5.531   6.170   3.495
    1PA    H12S12746   5.700   6.124   3.494
    1PA    C11112747   5.564   5.963   3.444
    1PA    H11R12748   5.633   5.883   3.470
    1PA    H11S12749   5.463   5.931   3.469
    1PA    C11012750   5.574   5.992   3.293
    1PA    H10R12751   5.502   6.070   3.268
    1PA    H10S12752   5.674   6.031   3.271
    1PA     C1912753   5.547   5.869   3.204
    1PA     H9R12754   5.615   5.788   3.232
    1PA     H9S12755   5.444   5.835   3.217
    1PA     C1812756   5.572   5.910   3.058
    1PA     H8R12757   5.503   5.991   3.031
    1PA     H8S12758   5.673   5.950   3.050
    1PA     C1712759   5.555   5.794   2.958
    1PA     H7R12760   5.616   5.709   2.988
    1PA     H7S12761   5.451   5.761   2.959
    1PA     C1612762   5.593   5.838   2.815
    1PA     H6R12763   5.559   5.762   2.744
    1PA     H6S12764   5.541   5.931   2.790
    1PA     C1512765   5.746   5.856   2.800
    1PA     H5R12766   5.782   5.931   2.869
    1PA     H5S12767   5.794   5.762   2.826
    1PA     C1412768   5.791   5.895   2.658
    1PA     H4R12769   5.900   5.898   2.656
    1PA     H4S12770   5.760   5.819   2.586
    1PA     C1312771   5.736   6.033   2.614
    1PA     H3R12772   5.628   6.024   2.600
    1PA     H3S12773   5.755   6.107   2.691
    1PA     C1212774   5.802   6.078   2.481
    1PA     H2R12775   5.902   6.117   2.501
    1PA     H2S12776   5.813   5.993   2.415
    2PC     C1112777   5.718   6.182   2.411
    2PC     O1212778   5.602   6.163   2.381
    2PC     O1112779   5.786   6.296   2.384
    2PC      C112780   5.715   6.409   2.324
    2PC      HR12781   5.616   6.380   2.289
    2PC      HS12782   5.703   0.040   2.399
    2PC      C212783   5.796   0.015   2.204
    2PC      HX12784   5.749   0.106   2.166
    2PC      C312785   5.803   6.359   2.090
    2PC      HA12786   5.877   6.282   2.115
    2PC      HB12787   5.706   6.311   2.074
    2PC     O3112788   5.841   6.429   1.969
    2PC     P3112789   5.894   6.344   1.845
    2PC     O3212790   6.047   6.327   1.887
    2PC     C3112791   6.110   6.198   1.872
    2PC     H1A12792   6.201   6.197   1.933
    2PC     H1B12793   6.043   6.120   1.909
    2PC     C3212794   6.145   6.172   1.724
    2PC     H2A12795   6.182   6.070   1.715
    2PC     H2B12796   6.055   6.183   1.663
    2PC     N3112797   6.251   6.260   1.661
    2PC     C3312798   6.383   6.242   1.731
    2PC     H3A12799   6.373   6.278   1.834
    2PC     H3B12800   6.409   6.136   1.730
    2PC     H3C12801   0.011   6.299   1.677
    2PC     C3412802   6.268   6.218   1.518
    2PC     H4A12803   6.299   6.114   1.515
    2PC     H4B12804   6.172   6.230   1.467
    2PC     H4C12805   6.343   6.282   1.472
    2PC     C3512806   6.212   6.405   1.664
    2PC     H5A12807   6.288   0.014   1.611
    2PC     H5B12808   6.204   6.437   1.768
    2PC     H5C12809   6.115   6.415   1.614
    2PC     O3312810   5.824   6.214   1.832
    2PC     O3412811   5.875   6.411   1.715
    2PC     O2112812   5.933   0.043   2.246
    2PC     C2112813   5.956   0.151   2.323
    2PC     O2212814   5.871   0.235   2.348
    3OL     C1212815   6.096   0.155   2.378
    3OL     H2R12816   6.125   0.258   2.397
    3OL     H2S12817   6.164   0.115   2.302
    3OL     C1312818   6.108   0.071   2.506
    3OL     H3R12819   6.213   0.052   2.526
    3OL     H3S12820   6.060   6.421   2.491
    3OL     C1412821   6.044   0.142   2.627
    3OL     H4R12822   5.938   0.158   2.609
    3OL     H4S12823   6.091   0.239   2.641
    3OL     C1512824   6.062   0.058   2.755
    3OL     H5R12825   6.168   0.043   2.775
    3OL     H5S12826   6.017   6.407   2.739
    3OL     C1612827   5.995   0.124   2.877
    3OL     H6R12828   5.889   0.140   2.856
    3OL     H6S12829   6.040   0.222   2.895
    3OL     C1712830   6.011   0.035   3.002
    3OL     H7R12831   6.116   0.025   3.027
    3OL     H7S12832   5.973   6.383   2.978
    3OL     C1812833   5.934   0.091   3.123
    3OL     H8R12834   5.832   0.115   3.090
    3OL     H8S12835   5.980   0.183   3.158
    3OL     C1912836   5.928   6.434   3.232
    3OL     H9R12837   5.931   6.331   3.197
    3OL    C11012838   5.925   0.009   3.363
    3OL    H10R12839   5.923   6.372   3.431
    3OL    C11112840   5.916   0.144   3.430
    3OL    H11R12841   5.860   0.215   3.369
    3OL    H11S12842   6.017   0.183   3.444
    3OL    C11212843   5.850   0.129   3.569
    3OL    H12R12844   5.904   0.051   3.624
    3OL    H12S12845   5.747   0.096   3.558
    3OL    C11312846   5.857   0.258   3.653
    3OL    H13R12847   5.956   0.304   3.644
    3OL    H13S12848   5.842   0.233   3.758
    3OL    C11412849   5.748   0.360   3.612
    3OL    H14R12850   5.649   0.314   3.624
    3OL    H14S12851   5.759   0.387   3.507
    3OL    C11512852   5.756   0.486   3.700
    3OL    H15R12853   5.856   0.529   3.691
    3OL    H15S12854   5.741   0.459   3.805
    3OL    C11612855   5.651   0.591   3.658
    3OL    H16R12856   5.551   0.550   3.672
    3OL    H16S12857   5.663   0.615   3.552
    3OL    C11712858   5.665   0.720   3.741
    3OL    H17R12859   5.763   0.765   3.725
    3OL    H17S12860   5.656   0.697   3.847
    3OL    C11812861   5.556   0.821   3.703
    3OL    H18R12862   5.566   0.912   3.763
    3OL    H18S12863   5.456   0.779   3.720
    3OL    H18T12864   5.564   0.849   3.597
    1PA    C11612865   1.364   1.435   4.163
    1PA    H16R12866   1.326   1.364   4.090
    1PA    H16S12867   1.364   1.387   4.261
    1PA    H16T12868   1.467   1.461   4.138
    1PA    C11512869   1.274   1.560   4.166
    1PA    H15R12870   1.171   1.530   4.183
    1PA    H15S12871   1.305   1.621   4.251
    1PA    C11412872   1.286   1.646   4.038
    1PA    H14R12873   1.246   1.745   4.060
    1PA    H14S12874   1.391   1.659   4.012
    1PA    C11312875   1.208   1.588   3.918
    1PA    H13R12876   1.248   1.490   3.892
    1PA    H13S12877   1.103   1.575   3.946
    1PA    C11212878   1.219   1.683   3.798
    1PA    H12R12879   1.182   1.782   3.827
    1PA    H12S12880   1.324   1.694   3.770
    1PA    C11112881   1.139   1.634   3.676
    1PA    H11R12882   1.174   1.535   3.646
    1PA    H11S12883   1.033   1.626   3.701
    1PA    C11012884   1.157   1.732   3.558
    1PA    H10R12885   1.125   1.832   3.590
    1PA    H10S12886   1.263   1.738   3.532
    1PA     C1912887   1.076   1.691   3.434
    1PA     H9R12888   1.106   1.591   3.402
    1PA     H9S12889   0.970   1.688   3.458
    1PA     C1812890   1.101   1.791   3.319
    1PA     H8R12891   1.075   1.892   3.352
    1PA     H8S12892   1.207   1.791   3.293
    1PA     C1712893   1.018   1.756   3.193
    1PA     H7R12894   1.041   1.654   3.161
    1PA     H7S12895   0.912   1.761   3.218
    1PA     C1612896   1.049   1.855   3.079
    1PA     H6R12897   1.030   1.957   3.113
    1PA     H6S12898   1.155   1.848   3.052
    1PA     C1512899   0.962   1.826   2.955
    1PA     H5R12900   0.980   1.723   2.921
    1PA     H5S12901   0.857   1.834   2.982
    1PA     C1412902   0.994   1.923   2.840
    1PA     H4R12903   0.983   2.026   2.876
    1PA     H4S12904   1.097   1.910   2.807
    1PA     C1312905   0.899   1.903   2.720
    1PA     H3R12906   0.909   1.801   2.682
    1PA     H3S12907   0.796   1.915   2.755
    1PA     C1212908   0.928   2.004   2.608
    1PA     H2R12909   0.924   2.105   2.649
    1PA     H2S12910   1.029   1.988   2.569
    2PC     C1112911   0.829   1.997   2.494
    2PC     O1212912   0.861   2.007   2.377
    2PC     O1112913   0.701   1.987   2.536
    2PC      C112914   0.594   1.979   2.438
    2PC      HR12915   0.598   2.065   2.371
    2PC      HS12916   0.605   1.887   2.380
    2PC      C212917   0.461   1.978   2.514
    2PC      HX12918   0.465   1.898   2.590
    2PC      C312919   0.340   1.948   2.423
    2PC      HA12920   0.349   1.847   2.382
    2PC      HB12921   0.248   1.954   2.482
    2PC     O3112922   0.332   2.042   2.313
    2PC     P3112923   0.213   2.023   2.208
    2PC     O3212924   0.087   2.047   2.302
    2PC     C3112925   6.406   2.062   2.239
    2PC     H1A12926   6.405   2.156   2.183
    2PC     H1B12927   6.386   1.979   2.171
    2PC     C3212928   6.299   2.067   2.350
    2PC     H2A12929   6.336   2.129   2.432
    2PC     H2B12930   6.208   2.113   2.311
    2PC     N3112931   6.254   1.936   2.411
    2PC     C3312932   6.157   1.967   2.521
    2PC     H3A12933   6.074   2.023   2.478
    2PC     H3B12934   6.123   1.873   2.564
    2PC     H3C12935   6.209   2.027   2.596
    2PC     C3412936   6.184   1.850   2.309
    2PC     H4A12937   6.256   1.819   2.233
    2PC     H4B12938   6.143   1.763   2.360
    2PC     H4C12939   6.104   1.909   2.264
    2PC     C3512940   6.370   1.858   2.469
    2PC     H5A12941   6.330   1.769   2.517
    2PC     H5B12942   6.420   1.922   2.542
    2PC     H5C12943   6.438   1.831   2.388
    2PC     O3312944   0.222   2.120   2.096
    2PC     O3412945   0.210   1.888   2.147
    2PC     O2112946   0.443   2.107   2.579
    2PC     C2112947   0.477   2.118   2.709
    2PC     O2212948   0.496   2.023   2.783
    3OL     C1212949   0.484   2.262   2.756
    3OL     H2R12950   0.416   2.323   2.697
    3OL     H2S12951   0.585   2.299   2.738
    3OL     C1312952   0.449   2.274   2.906
    3OL     H3R12953   0.516   2.209   2.963
    3OL     H3S12954   0.347   2.238   2.922
    3OL     C1412955   0.462   2.419   2.957
    3OL     H4R12956   0.409   2.486   2.889
    3OL     H4S12957   0.567   2.448   2.956
    3OL     C1512958   0.405   2.438   3.100
    3OL     H5R12959   0.296   2.429   3.096
    3OL     H5S12960   0.428   2.540   3.132
    3OL     C1612961   0.461   2.337   3.202
    3OL     H6R12962   0.570   2.341   3.202
    3OL     H6S12963   0.433   2.236   3.173
    3OL     C1712964   0.408   2.361   3.346
    3OL     H7R12965   0.429   2.272   3.405
    3OL     H7S12966   0.300   2.373   3.344
    3OL     C1812967   0.475   2.482   3.414
    3OL     H8R12968   0.446   2.572   3.359
    3OL     H8S12969   0.583   2.471   3.408
    3OL     C1912970   0.429   2.494   3.558
    3OL     H9R12971   0.332   2.450   3.579
    3OL    C11012972   0.498   2.550   3.657
    3OL    H10R12973   0.455   2.551   3.757
    3OL    C11112974   0.634   2.617   3.645
    3OL    H11R12975   0.625   2.721   3.675
    3OL    H11S12976   0.668   2.617   3.542
    3OL    C11212977   0.741   2.548   3.733
    3OL    H12R12978   0.838   2.593   3.713
    3OL    H12S12979   0.747   2.443   3.702
    3OL    C11312980   0.710   2.554   3.884
    3OL    H13R12981   0.779   2.486   3.936
    3OL    H13S12982   0.609   2.517   3.903
    3OL    C11412983   0.728   2.696   3.942
    3OL    H14R12984   0.664   2.767   3.890
    3OL    H14S12985   0.832   2.728   3.925
    3OL    C11512986   0.699   2.701   4.094
    3OL    H15R12987   0.738   2.795   4.134
    3OL    H15S12988   0.751   2.620   4.144
    3OL    C11612989   0.548   2.694   4.123
    3OL    H16R12990   0.506   2.602   4.082
    3OL    H16S12991   0.497   2.778   4.074
    3OL    C11712992   0.520   2.699   4.274
    3OL    H17R12993   0.558   2.793   4.316
    3OL    H17S12994   0.572   2.617   4.324
    3OL    C11812995   0.369   2.689   4.302
    3OL    H18R12996   0.329   2.594   4.264
    3OL    H18S12997   0.315   2.770   4.254
    3OL    H18T12998   0.350   2.693   4.410
    1PA    C11612999   4.233   6.143   3.779
    1PA    H16R13000   4.179   6.165   3.871
    1PA    H16S13001   4.161   6.110   3.704
    1PA    H16T13002   4.281   6.235   3.743
    1PA    C11513003   4.339   6.034   3.804
    1PA    H15R13004   4.411   6.069   3.879
    1PA    H15S13005   4.291   5.945   3.844
    1PA    C11413006   4.414   5.999   3.674
    1PA    H14R13007   4.342   5.963   3.600
    1PA    H14S13008   4.460   6.089   3.634
    1PA    C11313009   4.521   5.891   3.699
    1PA    H13R13010   4.597   5.928   3.768
    1PA    H13S13011   4.474   5.805   3.746
    1PA    C11213012   4.587   5.843   3.568
    1PA    H12R13013   4.646   5.753   3.589
    1PA    H12S13014   4.509   5.815   3.497
    1PA    C11113015   4.679   5.950   3.505
    1PA    H11R13016   4.625   6.044   3.496
    1PA    H11S13017   4.766   5.969   3.569
    1PA    C11013018   4.724   5.907   3.364
    1PA    H10R13019   4.641   5.859   3.313
    1PA    H10S13020   4.750   5.996   3.307
    1PA     C1913021   4.847   5.813   3.366
    1PA     H9R13022   4.934   5.868   3.400
    1PA     H9S13023   4.830   5.729   3.434
    1PA     C1813024   4.870   5.760   3.223
    1PA     H8R13025   4.787   5.694   3.197
    1PA     H8S13026   4.869   5.843   3.153
    1PA     C1713027   5.003   5.682   3.210
    1PA     H7R13028   5.087   5.745   3.239
    1PA     H7S13029   5.000   5.596   3.278
    1PA     C1613030   5.023   5.630   3.065
    1PA     H6R13031   5.102   5.555   3.066
    1PA     H6S13032   4.932   5.582   3.030
    1PA     C1513033   5.065   5.742   2.967
    1PA     H5R13034   4.993   5.824   2.971
    1PA     H5S13035   5.162   5.781   2.997
    1PA     C1413036   5.072   5.689   2.822
    1PA     H4R13037   5.136   5.601   2.818
    1PA     H4S13038   4.972   5.660   2.789
    1PA     C1313039   5.129   5.798   2.729
    1PA     H3R13040   5.072   5.890   2.740
    1PA     H3S13041   5.232   5.819   2.759
    1PA     C1213042   5.127   5.754   2.580
    1PA     H2R13043   5.177   5.658   2.569
    1PA     H2S13044   5.023   5.743   2.548
    2PC     C1113045   5.194   5.853   2.487
    2PC     O1213046   5.204   5.837   2.367
    2PC     O1113047   5.249   5.959   2.552
    2PC      C113048   5.321   6.060   2.478
    2PC      HR13049   5.374   6.125   2.548
    2PC      HS13050   5.394   6.012   2.412
    2PC      C213051   5.224   6.147   2.394
    2PC      HX13052   5.171   6.085   2.320
    2PC      C313053   5.302   6.257   2.320
    2PC      HA13054   5.330   6.334   2.393
    2PC      HB13055   5.392   6.217   2.273
    2PC     O3113056   5.219   6.316   2.219
    2PC     P3113057   5.208   6.246   2.076
    2PC     O3213058   5.144   6.364   1.993
    2PC     C3113059   5.004   6.391   2.011
    2PC     H1A13060   4.947   6.304   1.978
    2PC     H1B13061   4.983   6.413   2.116
    2PC     C3213062   4.974   0.065   1.922
    2PC     H2A13063   5.026   0.152   1.963
    2PC     H2B13064   5.012   0.047   1.822
    2PC     N3113065   4.829   0.106   1.906
    2PC     C3313066   4.769   0.148   2.037
    2PC     H3A13067   4.826   0.233   2.075
    2PC     H3B13068   4.665   0.175   2.020
    2PC     H3C13069   4.776   0.063   2.106
    2PC     C3413070   4.825   0.223   1.812
    2PC     H4A13071   4.871   0.194   1.717
    2PC     H4B13072   4.721   0.252   1.797
    2PC     H4C13073   4.881   0.305   1.857
    2PC     C3513074   4.748   6.443   1.846
    2PC     H5A13075   4.645   0.030   1.835
    2PC     H5B13076   4.751   6.357   1.913
    2PC     H5C13077   4.791   6.417   1.749
    2PC     O3313078   5.340   6.209   2.022
    2PC     O3413079   5.126   6.122   2.074
    2PC     O2113080   5.132   6.213   2.484
    2PC     C2113081   5.010   6.160   2.503
    2PC     O2213082   4.966   6.066   2.441
    3OL     C1213083   4.934   6.231   2.613
    3OL     H2R13084   4.828   6.224   2.592
    3OL     H2S13085   4.962   6.336   2.614
    3OL     C1313086   4.965   6.165   2.749
    3OL     H3R13087   5.073   6.168   2.766
    3OL     H3S13088   4.935   6.061   2.745
    3OL     C1413089   4.891   6.237   2.864
    3OL     H4R13090   4.785   6.242   2.839
    3OL     H4S13091   4.928   6.339   2.874
    3OL     C1513092   4.906   6.161   2.997
    3OL     H5R13093   4.875   6.057   2.984
    3OL     H5S13094   4.839   6.206   3.070
    3OL     C1613095   5.050   6.165   3.052
    3OL     H6R13096   5.081   6.269   3.065
    3OL     H6S13097   5.119   6.118   2.981
    3OL     C1713098   5.058   6.090   3.186
    3OL     H7R13099   5.029   5.987   3.171
    3OL     H7S13100   4.987   6.134   3.257
    3OL     C1813101   5.200   6.093   3.246
    3OL     H8R13102   5.230   6.197   3.264
    3OL     H8S13103   5.270   6.052   3.173
    3OL     C1913104   5.205   6.010   3.372
    3OL     H9R13105   5.203   5.903   3.357
    3OL    C11013106   5.215   6.058   3.496
    3OL    H10R13107   5.221   5.988   3.579
    3OL    C11113108   5.215   6.204   3.534
    3OL    H11R13109   5.154   6.262   3.464
    3OL    H11S13110   5.317   6.243   3.531
    3OL    C11213111   5.159   6.224   3.676
    3OL    H12R13112   5.220   6.167   3.747
    3OL    H12S13113   5.057   6.186   3.682
    3OL    C11313114   5.161   6.373   3.714
    3OL    H13R13115   5.097   6.429   3.646
    3OL    H13S13116   5.263   6.412   3.703
    3OL    C11413117   5.114   6.395   3.859
    3OL    H14R13118   5.177   6.338   3.927
    3OL    H14S13119   5.011   6.359   3.870
    3OL    C11513120   5.121   0.097   3.895
    3OL    H15R13121   5.055   0.154   3.829
    3OL    H15S13122   5.223   0.133   3.880
    3OL    C11613123   5.080   0.122   4.041
    3OL    H16R13124   5.145   0.064   4.108
    3OL    H16S13125   4.977   0.088   4.057
    3OL    C11713126   5.091   0.271   4.075
    3OL    H17R13127   5.024   0.329   4.011
    3OL    H17S13128   5.193   0.305   4.057
    3OL    C11813129   5.055   0.298   4.223
    3OL    H18R13130   4.952   0.269   4.243
    3OL    H18S13131   5.066   0.405   4.245
    3OL    H18T13132   5.121   0.242   4.289
    1PA    C11613133   4.903   0.366   3.507
    1PA    H16R13134   4.850   0.388   3.600
    1PA    H16S13135   4.848   0.289   3.453
    1PA    H16T13136   4.904   0.456   3.445
    1PA    C11513137   5.046   0.318   3.536
    1PA    H15R13138   5.043   0.227   3.595
    1PA    H15S13139   5.096   0.296   3.441
    1PA    C11413140   5.124   0.427   3.612
    1PA    H14R13141   5.128   0.518   3.551
    1PA    H14S13142   5.071   0.452   3.704
    1PA    C11313143   5.268   0.385   3.649
    1PA    H13R13144   5.313   0.466   3.707
    1PA    H13S13145   5.266   0.298   3.715
    1PA    C11213146   5.357   0.358   3.526
    1PA    H12R13147   5.315   0.406   3.438
    1PA    H12S13148   5.455   0.403   3.542
    1PA    C11113149   5.377   0.207   3.499
    1PA    H11R13150   5.424   0.160   3.586
    1PA    H11S13151   5.280   0.159   3.484
    1PA    C11013152   5.465   0.187   3.375
    1PA    H10R13153   5.418   0.236   3.289
    1PA    H10S13154   5.562   0.235   3.391
    1PA     C1913155   5.486   0.038   3.344
    1PA     H9R13156   5.542   6.438   3.425
    1PA     H9S13157   5.389   6.436   3.338
    1PA     C1813158   5.562   0.021   3.211
    1PA     H8R13159   5.509   0.077   3.133
    1PA     H8S13160   5.661   0.065   3.221
    1PA     C1713161   5.572   6.321   3.172
    1PA     H7R13162   5.625   6.267   3.251
    1PA     H7S13163   5.472   6.278   3.165
    1PA     C1613164   5.648   6.296   3.039
    1PA     H6R13165   5.753   6.318   3.053
    1PA     H6S13166   5.641   6.191   3.013
    1PA     C1513167   5.596   6.381   2.920
    1PA     H5R13168   5.610   0.039   2.941
    1PA     H5S13169   5.658   6.358   2.832
    1PA     C1413170   5.448   6.353   2.885
    1PA     H4R13171   5.437   6.250   2.850
    1PA     H4S13172   5.386   6.365   2.974
    1PA     C1313173   5.401   0.004   2.777
    1PA     H3R13174   5.413   0.106   2.815
    1PA     H3S13175   5.463   6.442   2.688
    1PA     C1213176   5.253   6.429   2.740
    1PA     H2R13177   5.243   6.337   2.682
    1PA     H2S13178   5.192   6.418   2.831
    2PC     C1113179   5.200   0.097   2.660
    2PC     O1213180   5.094   0.152   2.685
    2PC     O1113181   5.283   0.133   2.561
    2PC      C113182   5.255   0.254   2.485
    2PC      HR13183   5.160   0.242   2.431
    2PC      HS13184   5.245   0.339   2.553
    2PC      C213185   5.371   0.277   2.386
    2PC      HX13186   5.354   0.371   2.331
    2PC      C313187   5.380   0.157   2.288
    2PC      HA13188   5.424   0.073   2.342
    2PC      HB13189   5.281   0.128   2.253
    2PC     O3113190   5.464   0.188   2.174
    2PC     P3113191   5.410   0.288   2.063
    2PC     O3213192   5.432   0.206   1.929
    2PC     C3113193   5.562   0.149   1.902
    2PC     H1A13194   5.639   0.225   1.919
    2PC     H1B13195   5.580   0.064   1.968
    2PC     C3213196   5.564   0.107   1.754
    2PC     H2A13197   5.528   0.190   1.694
    2PC     H2B13198   5.667   0.085   1.724
    2PC     N3113199   5.482   6.434   1.713
    2PC     C3313200   5.345   6.433   1.775
    2PC     H3A13201   5.289   6.348   1.734
    2PC     H3B13202   5.356   6.422   1.883
    2PC     H3C13203   5.296   0.079   1.751
    2PC     C3413204   5.467   6.437   1.564
    2PC     H4A13205   5.414   0.081   1.536
    2PC     H4B13206   5.567   6.436   1.519
    2PC     H4C13207   5.410   6.350   1.532
    2PC     C3513208   5.552   6.307   1.752
    2PC     H5A13209   5.557   6.302   1.861
    2PC     H5B13210   5.652   6.308   1.709
    2PC     H5C13211   5.495   6.223   1.713
    2PC     O3313212   5.266   0.320   2.075
    2PC     O3413213   5.477   0.420   2.061
    2PC     O2113214   5.496   0.283   2.459
    2PC     C2113215   5.521   0.388   2.541
    2PC     O2213216   5.449   0.485   2.552
    3OL     C1213217   5.647   0.367   2.620
    3OL     H2R13218   5.726   0.333   2.553
    3OL     H2S13219   5.629   0.286   2.692
    3OL     C1313220   5.694   0.495   2.694
    3OL     H3R13221   5.610   0.542   2.745
    3OL     H3S13222   5.731   0.566   2.620
    3OL     C1413223   5.806   0.464   2.796
    3OL     H4R13224   5.864   0.555   2.815
    3OL     H4S13225   5.875   0.391   2.752
    3OL     C1513226   5.750   0.410   2.930
    3OL     H5R13227   5.828   0.353   2.981
    3OL     H5S13228   5.667   0.341   2.911
    3OL     C1613229   5.704   0.524   3.023
    3OL     H6R13230   5.637   0.591   2.968
    3OL     H6S13231   5.792   0.583   3.053
    3OL     C1713232   5.632   0.470   3.148
    3OL     H7R13233   5.694   0.394   3.196
    3OL     H7S13234   5.539   0.421   3.116
    3OL     C1813235   5.599   0.580   3.250
    3OL     H8R13236   5.692   0.613   3.297
    3OL     H8S13237   5.538   0.538   3.330
    3OL     C1913238   5.532   0.701   3.187
    3OL     H9R13239   5.596   0.761   3.123
    3OL    C11013240   5.405   0.738   3.205
    3OL    H10R13241   5.369   0.826   3.153
    3OL    C11113242   5.303   0.663   3.288
    3OL    H11R13243   5.332   0.665   3.393
    3OL    H11S13244   5.301   0.559   3.256
    3OL    C11213245   5.160   0.721   3.275
    3OL    H12R13246   5.092   0.651   3.322
    3OL    H12S13247   5.131   0.726   3.169
    3OL    C11313248   5.142   0.859   3.344
    3OL    H13R13249   5.213   0.866   3.427
    3OL    H13S13250   5.042   0.863   3.388
    3OL    C11413251   5.161   0.980   3.250
    3OL    H14R13252   5.250   0.969   3.190
    3OL    H14S13253   5.174   1.069   3.311
    3OL    C11513254   5.039   1.002   3.158
    3OL    H15R13255   4.951   1.023   3.219
    3OL    H15S13256   5.018   0.911   3.100
    3OL    C11613257   5.063   1.119   3.061
    3OL    H16R13258   5.148   1.096   2.997
    3OL    H16S13259   5.088   1.209   3.118
    3OL    C11713260   4.939   1.146   2.975
    3OL    H17R13261   4.853   1.169   3.039
    3OL    H17S13262   4.914   1.056   2.917
    3OL    C11813263   4.963   1.263   2.878
    3OL    H18R13264   4.873   1.281   2.818
    3OL    H18S13265   5.046   1.241   2.811
    3OL    H18T13266   4.986   1.354   2.933
    1PA    C11613267   4.439   4.556   3.398
    1PA    H16R13268   4.494   4.592   3.485
    1PA    H16S13269   4.335   4.537   3.429
    1PA    H16T13270   4.439   4.634   3.322
    1PA    C11513271   4.503   4.427   3.345
    1PA    H15R13272   4.605   4.448   3.314
    1PA    H15S13273   4.507   4.353   3.425
    1PA    C11413274   4.421   4.371   3.226
    1PA    H14R13275   4.318   4.357   3.258
    1PA    H14S13276   4.421   4.442   3.144
    1PA    C11313277   4.475   4.234   3.179
    1PA    H13R13278   4.492   4.169   3.265
    1PA    H13S13279   4.399   4.187   3.117
    1PA    C11213280   4.604   4.247   3.095
    1PA    H12R13281   4.585   4.308   3.007
    1PA    H12S13282   4.682   4.296   3.154
    1PA    C11113283   4.654   4.107   3.052
    1PA    H11R13284   4.679   4.049   3.140
    1PA    H11S13285   4.573   4.056   2.999
    1PA    C11013286   4.777   4.118   2.959
    1PA    H10R13287   4.749   4.170   2.867
    1PA    H10S13288   4.854   4.179   3.009
    1PA     C1913289   4.839   3.981   2.925
    1PA     H9R13290   4.925   3.997   2.860
    1PA     H9S13291   4.875   3.933   3.016
    1PA     C1813292   4.740   3.886   2.853
    1PA     H8R13293   4.658   3.862   2.922
    1PA     H8S13294   4.697   3.935   2.766
    1PA     C1713295   4.808   3.753   2.813
    1PA     H7R13296   4.874   3.721   2.894
    1PA     H7S13297   4.732   3.675   2.802
    1PA     C1613298   4.890   3.763   2.682
    1PA     H6R13299   4.959   3.847   2.689
    1PA     H6S13300   4.951   3.673   2.671
    1PA     C1513301   4.804   3.779   2.554
    1PA     H5R13302   4.740   3.866   2.562
    1PA     H5S13303   4.871   3.797   2.470
    1PA     C1413304   4.718   3.654   2.523
    1PA     H4R13305   4.783   3.566   2.518
    1PA     H4S13306   4.646   3.637   2.604
    1PA     C1313307   4.643   3.671   2.390
    1PA     H3R13308   4.580   3.760   2.395
    1PA     H3S13309   4.715   3.685   2.309
    1PA     C1213310   4.554   3.548   2.359
    1PA     H2R13311   4.615   3.457   2.359
    1PA     H2S13312   4.478   3.536   2.436
    2PC     C1113313   4.487   3.559   2.225
    2PC     O1213314   4.499   3.655   2.150
    2PC     O1113315   4.409   3.452   2.196
    2PC      C113316   4.341   3.454   2.067
    2PC      HR13317   4.273   3.540   2.063
    2PC      HS13318   4.416   3.466   1.988
    2PC      C213319   4.263   3.323   2.046
    2PC      HX13320   4.330   3.239   2.066
    2PC      C313321   4.212   3.316   1.900
    2PC      HA13322   4.298   3.302   1.833
    2PC      HB13323   4.143   3.232   1.887
    2PC     O3113324   4.145   3.441   1.868
    2PC     P3113325   4.138   3.492   1.717
    2PC     O3213326   4.290   3.534   1.696
    2PC     C3113327   4.320   3.614   1.580
    2PC     H1A13328   4.303   3.556   1.489
    2PC     H1B13329   4.254   3.702   1.579
    2PC     C3213330   4.466   3.662   1.590
    2PC     H2A13331   4.484   3.737   1.513
    2PC     H2B13332   4.482   3.708   1.687
    2PC     N3113333   4.576   3.559   1.573
    2PC     C3313334   4.709   3.629   1.584
    2PC     H3A13335   4.715   3.704   1.505
    2PC     H3B13336   4.715   3.677   1.681
    2PC     H3C13337   4.789   3.556   1.572
    2PC     C3413338   4.570   3.454   1.680
    2PC     H4A13339   4.655   3.386   1.668
    2PC     H4B13340   4.576   3.504   1.777
    2PC     H4C13341   4.476   3.400   1.670
    2PC     C3513342   4.568   3.493   1.438
    2PC     H5A13343   4.571   3.571   1.361
    2PC     H5B13344   4.474   3.437   1.432
    2PC     H5C13345   4.652   3.425   1.427
    2PC     O3313346   4.091   3.392   1.619
    2PC     O3413347   4.048   3.608   1.705
    2PC     O2113348   4.149   3.321   2.135
    2PC     C2113349   4.099   3.202   2.174
    2PC     O2213350   4.157   3.096   2.158
    3OL     C1213351   3.966   3.215   2.242
    3OL     H2R13352   3.887   3.193   2.170
    3OL     H2S13353   3.952   3.318   2.274
    3OL     C1313354   3.952   3.123   2.365
    3OL     H3R13355   4.034   3.142   2.435
    3OL     H3S13356   3.959   3.018   2.333
    3OL     C1413357   3.817   3.148   2.434
    3OL     H4R13358   3.737   3.134   2.361
    3OL     H4S13359   3.813   3.252   2.468
    3OL     C1513360   3.795   3.054   2.553
    3OL     H5R13361   3.872   3.072   2.628
    3OL     H5S13362   3.803   2.950   2.519
    3OL     C1613363   3.656   3.078   2.614
    3OL     H6R13364   3.581   3.073   2.535
    3OL     H6S13365   3.652   3.178   2.657
    3OL     C1713366   3.623   2.974   2.724
    3OL     H7R13367   3.696   2.982   2.804
    3OL     H7S13368   3.631   2.873   2.681
    3OL     C1813369   3.482   2.994   2.782
    3OL     H8R13370   3.480   3.089   2.837
    3OL     H8S13371   3.463   2.915   2.855
    3OL     C1913372   3.375   2.989   2.675
    3OL     H9R13373   3.368   2.895   2.621
    3OL    C11013374   3.291   3.088   2.641
    3OL    H10R13375   3.220   3.071   2.561
    3OL    C11113376   3.287   3.227   2.701
    3OL    H11R13377   3.271   3.299   2.621
    3OL    H11S13378   3.383   3.253   2.747
    3OL    C11213379   3.175   3.244   2.805
    3OL    H12R13380   3.078   3.225   2.758
    3OL    H12S13381   3.175   3.347   2.841
    3OL    C11313382   3.193   3.147   2.924
    3OL    H13R13383   3.293   3.161   2.966
    3OL    H13S13384   3.186   3.044   2.889
    3OL    C11413385   3.088   3.170   3.034
    3OL    H14R13386   2.988   3.157   2.993
    3OL    H14S13387   3.096   3.272   3.072
    3OL    C11513388   3.112   3.070   3.149
    3OL    H15R13389   3.216   3.078   3.183
    3OL    H15S13390   3.097   2.969   3.111
    3OL    C11613391   3.017   3.095   3.267
    3OL    H16R13392   2.914   3.100   3.231
    3OL    H16S13393   3.040   3.192   3.313
    3OL    C11713394   3.027   2.985   3.375
    3OL    H17R13395   2.989   2.891   3.334
    3OL    H17S13396   2.962   3.012   3.458
    3OL    C11813397   3.170   2.964   3.428
    3OL    H18R13398   3.168   2.894   3.512
    3OL    H18S13399   3.213   3.058   3.463
    3OL    H18T13400   3.234   2.922   3.351
    1PA    C11613401   0.094   5.770   3.578
    1PA    H16R13402   0.189   5.818   3.555
    1PA    H16S13403   0.097   5.667   3.543
    1PA    H16T13404   0.081   5.769   3.687
    1PA    C11513405   6.426   5.846   3.512
    1PA    H15R13406   6.332   5.796   3.537
    1PA    H15S13407   6.421   5.947   3.552
    1PA    C11413408   6.442   5.851   3.359
    1PA    H14R13409   0.088   5.900   3.334
    1PA    H14S13410   6.446   5.749   3.319
    1PA    C11313411   6.324   5.925   3.294
    1PA    H13R13412   6.232   5.871   3.313
    1PA    H13S13413   6.314   6.025   3.338
    1PA    C11213414   6.344   5.939   3.142
    1PA    H12R13415   6.435   5.997   3.122
    1PA    H12S13416   6.357   5.840   3.098
    1PA    C11113417   6.223   6.008   3.075
    1PA    H11R13418   6.134   5.946   3.089
    1PA    H11S13419   6.205   6.104   3.123
    1PA    C11013420   6.248   6.029   2.925
    1PA    H10R13421   6.333   6.097   2.913
    1PA    H10S13422   6.275   5.934   2.879
    1PA     C1913423   6.125   6.088   2.854
    1PA     H9R13424   6.047   6.012   2.847
    1PA     H9S13425   6.085   6.170   2.914
    1PA     C1813426   6.159   6.142   2.714
    1PA     H8R13427   6.069   6.186   2.670
    1PA     H8S13428   6.231   6.222   2.724
    1PA     C1713429   6.213   6.033   2.617
    1PA     H7R13430   6.297   5.980   2.662
    1PA     H7S13431   6.134   5.960   2.599
    1PA     C1613432   6.257   6.095   2.483
    1PA     H6R13433   6.266   6.015   2.409
    1PA     H6S13434   6.181   6.164   2.447
    1PA     C1513435   6.394   6.167   2.496
    1PA     H5R13436   6.387   6.242   2.574
    1PA     H5S13437   0.023   6.095   2.526
    1PA     C1413438   6.436   6.238   2.366
    1PA     H4R13439   6.354   6.299   2.329
    1PA     H4S13440   0.071   6.305   2.388
    1PA     C1313441   0.033   6.138   2.257
    1PA     H3R13442   0.119   6.081   2.293
    1PA     H3S13443   6.401   6.067   2.235
    1PA     C1213444   0.072   6.212   2.127
    1PA     H2R13445   6.432   6.261   2.084
    1PA     H2S13446   0.146   6.289   2.149
    2PC     C1113447   0.128   6.115   2.026
    2PC     O1213448   0.059   6.047   1.953
    2PC     O1113449   0.263   6.116   2.027
    2PC      C113450   0.333   6.015   1.948
    2PC      HR13451   0.293   5.916   1.970
    2PC      HS13452   0.322   6.036   1.842
    2PC      C213453   0.481   6.021   1.991
    2PC      HX13454   0.513   6.126   1.992
    2PC      C313455   0.575   5.942   1.897
    2PC      HA13456   0.573   5.988   1.798
    2PC      HB13457   0.678   5.946   1.935
    2PC     O3113458   0.533   5.803   1.886
    2PC     P3113459   0.609   5.714   1.778
    2PC     O3213460   0.532   5.575   1.783
    2PC     C3113461   0.399   5.573   1.727
    2PC     H1A13462   0.333   5.632   1.791
    2PC     H1B13463   0.399   5.616   1.626
    2PC     C3213464   0.350   5.426   1.722
    2PC     H2A13465   0.384   5.374   1.811
    2PC     H2B13466   0.241   5.425   1.722
    2PC     N3113467   0.392   5.344   1.602
    2PC     C3313468   0.355   5.200   1.627
    2PC     H3A13469   0.383   5.142   1.539
    2PC     H3B13470   0.411   5.166   1.714
    2PC     H3C13471   0.248   5.195   1.645
    2PC     C3413472   0.318   5.390   1.479
    2PC     H4A13473   0.210   5.383   1.499
    2PC     H4B13474   0.345   5.494   1.459
    2PC     H4C13475   0.346   5.327   1.395
    2PC     C3513476   0.540   5.351   1.577
    2PC     H5A13477   0.568   5.455   1.559
    2PC     H5B13478   0.564   5.290   1.490
    2PC     H5C13479   0.592   5.312   1.665
    2PC     O3313480   0.600   5.770   1.641
    2PC     O3413481   0.753   5.697   1.805
    2PC     O2113482   0.487   5.968   2.126
    2PC     C2113483   0.590   6.000   2.206
    2PC     O2213484   0.685   6.069   2.173
    3OL     C1213485   0.571   5.948   2.346
    3OL     H2R13486   0.488   5.877   2.347
    3OL     H2S13487   0.545   6.032   2.410
    3OL     C1313488   0.699   5.880   2.400
    3OL     H3R13489   0.783   5.948   2.386
    3OL     H3S13490   0.720   5.790   2.343
    3OL     C1413491   0.686   5.848   2.550
    3OL     H4R13492   0.647   5.935   2.604
    3OL     H4S13493   0.787   5.829   2.589
    3OL     C1513494   0.597   5.725   2.576
    3OL     H5R13495   0.643   5.637   2.529
    3OL     H5S13496   0.500   5.740   2.529
    3OL     C1613497   0.574   5.698   2.726
    3OL     H6R13498   0.505   5.614   2.735
    3OL     H6S13499   0.526   5.784   2.772
    3OL     C1713500   0.705   5.665   2.802
    3OL     H7R13501   0.772   5.751   2.798
    3OL     H7S13502   0.756   5.582   2.754
    3OL     C1813503   0.679   5.630   2.949
    3OL     H8R13504   0.622   5.711   2.996
    3OL     H8S13505   0.774   5.624   3.002
    3OL     C1913506   0.601   5.501   2.963
    3OL     H9R13507   0.499   5.503   2.924
    3OL    C11013508   0.647   5.388   3.016
    3OL    H10R13509   0.582   5.301   3.020
    3OL    C11113510   0.786   5.369   3.073
    3OL    H11R13511   0.806   5.447   3.147
    3OL    H11S13512   0.860   5.379   2.993
    3OL    C11213513   0.803   5.231   3.139
    3OL    H12R13514   0.908   5.220   3.168
    3OL    H12S13515   0.781   5.153   3.066
    3OL    C11313516   0.713   5.216   3.263
    3OL    H13R13517   0.608   5.226   3.233
    3OL    H13S13518   0.733   5.296   3.334
    3OL    C11413519   0.730   5.079   3.333
    3OL    H14R13520   0.703   5.000   3.262
    3OL    H14S13521   0.659   5.072   3.415
    3OL    C11513522   0.873   5.051   3.386
    3OL    H15R13523   0.941   5.040   3.301
    3OL    H15S13524   0.873   4.956   3.439
    3OL    C11613525   0.930   5.161   3.480
    3OL    H16R13526   0.941   5.254   3.425
    3OL    H16S13527   1.029   5.130   3.512
    3OL    C11713528   0.842   5.184   3.604
    3OL    H17R13529   0.826   5.089   3.656
    3OL    H17S13530   0.744   5.222   3.575
    3OL    C11813531   0.909   5.284   3.700
    3OL    H18R13532   1.006   5.246   3.733
    3OL    H18S13533   0.846   5.299   3.788
    3OL    H18T13534   0.923   5.380   3.651
    1PA    C11613535   2.782   3.366   3.772
    1PA    H16R13536   2.811   3.267   3.735
    1PA    H16S13537   2.682   3.359   3.815
    1PA    H16T13538   2.852   3.396   3.850
    1PA    C11513539   2.784   3.469   3.658
    1PA    H15R13540   2.756   3.567   3.698
    1PA    H15S13541   2.885   3.477   3.617
    1PA    C11413542   2.687   3.429   3.545
    1PA    H14R13543   2.719   3.335   3.500
    1PA    H14S13544   2.588   3.413   3.588
    1PA    C11313545   2.679   3.539   3.438
    1PA    H13R13546   2.654   3.633   3.487
    1PA    H13S13547   2.776   3.552   3.390
    1PA    C11213548   2.570   3.510   3.333
    1PA    H12R13549   2.478   3.477   3.382
    1PA    H12S13550   2.547   3.604   3.281
    1PA    C11113551   2.615   3.406   3.227
    1PA    H11R13552   2.710   3.437   3.183
    1PA    H11S13553   2.630   3.309   3.275
    1PA    C11013554   2.508   3.395   3.117
    1PA    H10R13555   2.413   3.363   3.160
    1PA    H10S13556   2.492   3.494   3.073
    1PA     C1913557   2.548   3.298   3.004
    1PA     H9R13558   2.487   3.320   2.916
    1PA     H9S13559   2.653   3.316   2.976
    1PA     C1813560   2.528   3.150   3.043
    1PA     H8R13561   2.593   3.125   3.127
    1PA     H8S13562   2.425   3.137   3.077
    1PA     C1713563   2.554   3.054   2.925
    1PA     H7R13564   2.521   2.954   2.954
    1PA     H7S13565   2.494   3.084   2.839
    1PA     C1613566   2.703   3.048   2.886
    1PA     H6R13567   2.736   3.146   2.850
    1PA     H6S13568   2.763   3.023   2.974
    1PA     C1513569   2.727   2.943   2.776
    1PA     H5R13570   2.692   2.845   2.811
    1PA     H5S13571   2.670   2.969   2.687
    1PA     C1413572   2.877   2.934   2.741
    1PA     H4R13573   2.910   3.030   2.701
    1PA     H4S13574   2.935   2.914   2.831
    1PA     C1313575   2.904   2.823   2.637
    1PA     H3R13576   2.869   2.727   2.676
    1PA     H3S13577   2.848   2.844   2.546
    1PA     C1213578   3.054   2.816   2.606
    1PA     H2R13579   3.088   2.914   2.573
    1PA     H2S13580   3.110   2.791   2.697
    2PC     C1113581   3.090   2.717   2.498
    2PC     O1213582   3.012   2.637   2.448
    2PC     O1113583   3.219   2.727   2.462
    2PC      C113584   3.262   2.649   2.347
    2PC      HR13585   3.253   2.542   2.368
    2PC      HS13586   3.199   2.674   2.262
    2PC      C213587   3.408   2.684   2.315
    2PC      HX13588   3.421   2.793   2.325
    2PC      C313589   3.444   2.641   2.171
    2PC      HA13590   3.402   2.714   2.101
    2PC      HB13591   3.553   2.638   2.158
    2PC     O3113592   3.387   2.510   2.145
    2PC     P3113593   3.370   2.463   1.994
    2PC     O3213594   3.299   2.322   2.017
    2PC     C3113595   3.186   2.291   1.934
    2PC     H1A13596   3.105   2.360   1.959
    2PC     H1B13597   3.214   2.302   1.829
    2PC     C3213598   3.142   2.146   1.962
    2PC     H2A13599   3.222   2.078   1.933
    2PC     H2B13600   3.124   2.134   2.069
    2PC     N3113601   3.017   2.098   1.892
    2PC     C3313602   2.991   1.956   1.931
    2PC     H3A13603   2.979   1.951   2.039
    2PC     H3B13604   2.899   1.922   1.881
    2PC     H3C13605   3.075   1.895   1.899
    2PC     C3413606   2.897   2.181   1.931
    2PC     H4A13607   2.913   2.284   1.899
    2PC     H4B13608   2.809   2.139   1.881
    2PC     H4C13609   2.884   2.175   2.039
    2PC     C3513610   3.033   2.105   1.742
    2PC     H5A13611   2.941   2.069   1.696
    2PC     H5B13612   3.117   2.041   1.715
    2PC     H5C13613   3.052   2.208   1.713
    2PC     O3313614   3.286   2.558   1.918
    2PC     O3413615   3.498   2.446   1.923
    2PC     O2113616   3.493   2.616   2.411
    2PC     C2113617   3.617   2.665   2.433
    2PC     O2213618   3.662   2.762   2.377
    3OL     C1213619   3.692   2.587   2.538
    3OL     H2R13620   3.779   2.645   2.568
    3OL     H2S13621   3.727   2.493   2.494
    3OL     C1313622   3.605   2.555   2.662
    3OL     H3R13623   3.525   2.486   2.634
    3OL     H3S13624   3.557   2.647   2.696
    3OL     C1413625   3.689   2.495   2.776
    3OL     H4R13626   3.769   2.565   2.801
    3OL     H4S13627   3.736   2.402   2.744
    3OL     C1513628   3.603   2.472   2.903
    3OL     H5R13629   3.536   2.557   2.916
    3OL     H5S13630   3.668   2.469   2.991
    3OL     C1613631   3.521   2.342   2.897
    3OL     H6R13632   3.481   2.325   2.797
    3OL     H6S13633   3.435   2.352   2.964
    3OL     C1713634   3.603   2.219   2.943
    3OL     H7R13635   3.647   2.239   3.041
    3OL     H7S13636   3.685   2.202   2.873
    3OL     C1813637   3.515   2.093   2.952
    3OL     H8R13638   3.468   2.075   2.855
    3OL     H8S13639   3.434   2.110   3.024
    3OL     C1913640   3.597   1.972   2.991
    3OL     H9R13641   3.633   1.912   2.908
    3OL    C11013642   3.625   1.933   3.115
    3OL    H10R13643   3.685   1.843   3.130
    3OL    C11113644   3.585   2.004   3.243
    3OL    H11R13645   3.517   2.086   3.224
    3OL    H11S13646   3.675   2.046   3.289
    3OL    C11213647   3.520   1.905   3.342
    3OL    H12R13648   3.584   1.817   3.354
    3OL    H12S13649   3.426   1.871   3.299
    3OL    C11313650   3.492   1.968   3.480
    3OL    H13R13651   3.422   1.905   3.534
    3OL    H13S13652   3.445   2.066   3.467
    3OL    C11413653   3.620   1.981   3.565
    3OL    H14R13654   3.694   2.042   3.512
    3OL    H14S13655   3.663   1.881   3.580
    3OL    C11513656   3.590   2.045   3.702
    3OL    H15R13657   3.517   1.985   3.757
    3OL    H15S13658   3.545   2.143   3.685
    3OL    C11613659   3.718   2.063   3.786
    3OL    H16R13660   3.698   2.135   3.865
    3OL    H16S13661   3.797   2.104   3.723
    3OL    C11713662   3.765   1.931   3.851
    3OL    H17R13663   3.783   1.855   3.774
    3OL    H17S13664   3.687   1.893   3.917
    3OL    C11813665   3.894   1.953   3.931
    3OL    H18R13666   3.975   1.983   3.865
    3OL    H18S13667   3.923   1.862   3.983
    3OL    H18T13668   3.880   2.032   4.005
    1PA    C11613669   3.572   2.682   3.641
    1PA    H16R13670   3.518   2.695   3.735
    1PA    H16S13671   3.679   2.682   3.662
    1PA    H16T13672   3.545   2.584   3.600
    1PA    C11513673   3.535   2.794   3.543
    1PA    H15R13674   3.428   2.791   3.522
    1PA    H15S13675   3.557   2.890   3.590
    1PA    C11413676   3.614   2.781   3.411
    1PA    H14R13677   3.722   2.784   3.432
    1PA    H14S13678   3.593   2.683   3.367
    1PA    C11313679   3.578   2.890   3.308
    1PA    H13R13680   3.628   2.867   3.214
    1PA    H13S13681   3.471   2.889   3.289
    1PA    C11213682   3.621   3.031   3.354
    1PA    H12R13683   3.566   3.057   3.445
    1PA    H12S13684   3.727   3.032   3.379
    1PA    C11113685   3.589   3.139   3.248
    1PA    H11R13686   3.491   3.119   3.205
    1PA    H11S13687   3.584   3.237   3.296
    1PA    C11013688   3.694   3.145   3.134
    1PA    H10R13689   3.717   3.045   3.099
    1PA    H10S13690   3.649   3.199   3.050
    1PA     C1913691   3.822   3.218   3.179
    1PA     H9R13692   3.798   3.320   3.212
    1PA     H9S13693   3.865   3.166   3.265
    1PA     C1813694   3.929   3.225   3.068
    1PA     H8R13695   4.022   3.263   3.111
    1PA     H8S13696   3.950   3.124   3.031
    1PA     C1713697   3.888   3.316   2.950
    1PA     H7R13698   3.798   3.277   2.903
    1PA     H7S13699   3.865   3.416   2.988
    1PA     C1613700   4.001   3.325   2.846
    1PA     H6R13701   4.091   3.365   2.893
    1PA     H6S13702   4.025   3.225   2.809
    1PA     C1513703   3.959   3.414   2.728
    1PA     H5R13704   3.870   3.373   2.680
    1PA     H5S13705   3.934   3.514   2.765
    1PA     C1413706   4.073   3.426   2.624
    1PA     H4R13707   4.162   3.469   2.672
    1PA     H4S13708   4.100   3.326   2.588
    1PA     C1313709   4.030   3.514   2.506
    1PA     H3R13710   3.944   3.468   2.457
    1PA     H3S13711   3.999   3.612   2.543
    1PA     C1213712   4.145   3.532   2.405
    1PA     H2R13713   4.227   3.588   2.451
    1PA     H2S13714   4.183   3.435   2.375
    2PC     C1113715   4.099   3.605   2.280
    2PC     O1213716   4.155   3.704   2.236
    2PC     O1113717   3.991   3.548   2.224
    2PC      C113718   3.938   3.605   2.102
    2PC      HR13719   3.902   3.706   2.121
    2PC      HS13720   4.018   3.609   2.026
    2PC      C213721   3.823   3.516   2.051
    2PC      HX13722   3.860   3.414   2.033
    2PC      C313723   3.768   3.576   1.920
    2PC      HA13724   3.848   3.588   1.847
    2PC      HB13725   3.691   3.511   1.877
    2PC     O3113726   3.712   3.705   1.952
    2PC     P3113727   3.627   3.781   1.842
    2PC     O3213728   3.565   3.893   1.936
    2PC     C3113729   3.485   3.996   1.877
    2PC     H1A13730   3.473   4.076   1.951
    2PC     H1B13731   3.536   4.036   1.788
    2PC     C3213732   3.346   3.939   1.841
    2PC     H2A13733   3.358   3.857   1.770
    2PC     H2B13734   3.299   3.900   1.931
    2PC     N3113735   3.247   4.035   1.779
    2PC     C3313736   3.222   4.153   1.869
    2PC     H3A13737   3.148   4.218   1.822
    2PC     H3B13738   3.185   4.117   1.965
    2PC     H3C13739   3.316   4.208   1.881
    2PC     C3413740   3.296   4.084   1.646
    2PC     H4A13741   3.389   4.140   1.661
    2PC     H4B13742   3.316   3.997   1.582
    2PC     H4C13743   3.220   4.148   1.602
    2PC     C3513744   3.117   3.962   1.759
    2PC     H5A13745   3.134   3.877   1.694
    2PC     H5B13746   3.045   4.031   1.714
    2PC     H5C13747   3.080   3.929   1.856
    2PC     O3313748   3.710   3.836   1.733
    2PC     O3413749   3.525   3.694   1.780
    2PC     O2113750   3.720   3.515   2.153
    2PC     C2113751   3.607   3.443   2.137
    2PC     O2213752   3.582   3.374   2.041
    3OL     C1213753   3.510   3.458   2.252
    3OL     H2R13754   3.433   3.382   2.243
    3OL     H2S13755   3.462   3.555   2.244
    3OL     C1313756   3.579   3.443   2.389
    3OL     H3R13757   3.675   3.494   2.390
    3OL     H3S13758   3.597   3.337   2.409
    3OL     C1413759   3.491   3.503   2.501
    3OL     H4R13760   3.392   3.457   2.499
    3OL     H4S13761   3.480   3.610   2.484
    3OL     C1513762   3.557   3.478   2.637
    3OL     H5R13763   3.660   3.513   2.636
    3OL     H5S13764   3.559   3.371   2.657
    3OL     C1613765   3.480   3.549   2.750
    3OL     H6R13766   3.375   3.520   2.748
    3OL     H6S13767   3.485   3.657   2.734
    3OL     C1713768   3.542   3.513   2.887
    3OL     H7R13769   3.649   3.531   2.884
    3OL     H7S13770   3.528   3.407   2.906
    3OL     C1813771   3.480   3.595   3.001
    3OL     H8R13772   3.498   3.701   2.982
    3OL     H8S13773   3.532   3.570   3.094
    3OL     C1913774   3.331   3.572   3.013
    3OL     H9R13775   3.270   3.627   2.941
    3OL    C11013776   3.269   3.495   3.103
    3OL    H10R13777   3.161   3.488   3.101
    3OL    C11113778   3.336   3.410   3.209
    3OL    H11R13779   3.440   3.437   3.225
    3OL    H11S13780   3.335   3.306   3.175
    3OL    C11213781   3.260   3.416   3.343
    3OL    H12R13782   3.301   3.340   3.410
    3OL    H12S13783   3.155   3.391   3.326
    3OL    C11313784   3.270   3.554   3.410
    3OL    H13R13785   3.233   3.632   3.343
    3OL    H13S13786   3.375   3.577   3.433
    3OL    C11413787   3.188   3.554   3.541
    3OL    H14R13788   3.222   3.473   3.605
    3OL    H14S13789   3.083   3.536   3.516
    3OL    C11513790   3.201   3.687   3.617
    3OL    H15R13791   3.171   3.770   3.553
    3OL    H15S13792   3.305   3.703   3.647
    3OL    C11613793   3.111   3.685   3.743
    3OL    H16R13794   3.137   3.599   3.805
    3OL    H16S13795   3.007   3.674   3.713
    3OL    C11713796   3.127   3.814   3.826
    3OL    H17R13797   3.107   3.901   3.763
    3OL    H17S13798   3.230   3.822   3.861
    3OL    C11813799   3.032   3.814   3.946
    3OL    H18R13800   3.047   3.904   4.006
    3OL    H18S13801   3.050   3.727   4.010
    3OL    H18T13802   2.928   3.811   3.913
    1PA    C11613803   4.064   5.452   4.172
    1PA    H16R13804   4.085   5.403   4.267
    1PA    H16S13805   4.148   5.434   4.105
    1PA    H16T13806   3.975   5.405   4.129
    1PA    C11513807   4.042   5.603   4.193
    1PA    H15R13808   3.960   5.619   4.262
    1PA    H15S13809   4.131   5.645   4.239
    1PA    C11413810   4.016   5.677   4.060
    1PA    H14R13811   4.029   5.784   4.077
    1PA    H14S13812   4.090   5.646   3.985
    1PA    C11313813   3.873   5.651   4.008
    1PA    H13R13814   3.860   5.545   3.986
    1PA    H13S13815   3.801   5.679   4.085
    1PA    C11213816   3.845   5.734   3.881
    1PA    H12R13817   3.867   5.839   3.902
    1PA    H12S13818   3.912   5.704   3.800
    1PA    C11113819   3.698   5.723   3.837
    1PA    H11R13820   3.636   5.719   3.926
    1PA    H11S13821   3.669   5.813   3.782
    1PA    C11013822   3.670   5.597   3.751
    1PA    H10R13823   3.721   5.511   3.794
    1PA    H10S13824   3.563   5.575   3.755
    1PA     C1913825   3.710   5.612   3.602
    1PA     H9R13826   3.816   5.635   3.594
    1PA     H9S13827   3.694   5.516   3.553
    1PA     C1813828   3.627   5.720   3.529
    1PA     H8R13829   3.521   5.708   3.552
    1PA     H8S13830   3.657   5.818   3.565
    1PA     C1713831   3.647   5.717   3.376
    1PA     H7R13832   3.614   5.812   3.335
    1PA     H7S13833   3.753   5.705   3.352
    1PA     C1613834   3.563   5.604   3.311
    1PA     H6R13835   3.595   5.508   3.351
    1PA     H6S13836   3.458   5.618   3.336
    1PA     C1513837   3.579   5.601   3.157
    1PA     H5R13838   3.544   5.695   3.115
    1PA     H5S13839   3.684   5.590   3.132
    1PA     C1413840   3.498   5.484   3.097
    1PA     H4R13841   3.528   5.392   3.149
    1PA     H4S13842   3.391   5.498   3.116
    1PA     C1313843   3.524   5.466   2.946
    1PA     H3R13844   3.625   5.500   2.922
    1PA     H3S13845   3.520   5.359   2.922
    1PA     C1213846   3.420   5.539   2.858
    1PA     H2R13847   3.321   5.497   2.878
    1PA     H2S13848   3.416   5.645   2.883
    2PC     C1113849   3.451   5.524   2.711
    2PC     O1213850   3.563   5.510   2.666
    2PC     O1113851   3.340   5.525   2.634
    2PC      C113852   3.359   5.507   2.491
    2PC      HR13853   3.422   5.588   2.451
    2PC      HS13854   3.409   5.411   2.474
    2PC      C213855   3.223   5.507   2.419
    2PC      HX13856   3.153   5.443   2.474
    2PC      C313857   3.237   5.456   2.273
    2PC      HA13858   3.274   5.353   2.275
    2PC      HB13859   3.140   5.457   2.222
    2PC     O3113860   3.332   5.540   2.202
    2PC     P3113861   3.401   5.488   2.067
    2PC     O3213862   3.327   5.562   1.949
    2PC     C3113863   3.200   5.517   1.901
    2PC     H1A13864   3.200   5.408   1.890
    2PC     H1B13865   3.122   5.548   1.971
    2PC     C3213866   3.183   5.585   1.764
    2PC     H2A13867   3.214   5.689   1.772
    2PC     H2B13868   3.249   5.535   1.692
    2PC     N3113869   3.046   5.588   1.702
    2PC     C3313870   3.060   5.641   1.562
    2PC     H3A13871   2.961   5.642   1.515
    2PC     H3B13872   3.099   5.743   1.568
    2PC     H3C13873   3.127   5.576   1.506
    2PC     C3413874   2.986   5.450   1.695
    2PC     H4A13875   2.967   5.415   1.797
    2PC     H4B13876   2.892   5.455   1.640
    2PC     H4C13877   3.056   5.383   1.645
    2PC     C3513878   2.956   5.680   1.778
    2PC     H5A13879   2.859   5.682   1.729
    2PC     H5B13880   3.000   5.780   1.778
    2PC     H5C13881   2.945   5.643   1.880
    2PC     O3313882   3.543   5.528   2.063
    2PC     O3413883   3.410   5.341   2.057
    2PC     O2113884   3.174   5.643   2.416
    2PC     C2113885   3.043   5.664   2.392
    2PC     O2213886   2.962   5.574   2.376
    3OL     C1213887   3.007   5.810   2.373
    3OL     H2R13888   2.899   5.822   2.386
    3OL     H2S13889   3.032   5.836   2.270
    3OL     C1313890   3.082   5.906   2.467
    3OL     H3R13891   3.059   6.009   2.437
    3OL     H3S13892   3.190   5.894   2.456
    3OL     C1413893   3.042   5.887   2.615
    3OL     H4R13894   3.076   5.790   2.651
    3OL     H4S13895   2.933   5.890   2.623
    3OL     C1513896   3.102   5.999   2.702
    3OL     H5R13897   3.069   6.095   2.663
    3OL     H5S13898   3.211   5.998   2.696
    3OL     C1613899   3.057   5.989   2.849
    3OL     H6R13900   2.954   5.952   2.855
    3OL     H6S13901   3.057   6.089   2.893
    3OL     C1713902   3.150   5.900   2.933
    3OL     H7R13903   3.252   5.941   2.930
    3OL     H7S13904   3.154   5.799   2.891
    3OL     C1813905   3.102   5.893   3.079
    3OL     H8R13906   3.007   5.839   3.082
    3OL     H8S13907   3.081   5.994   3.114
    3OL     C1913908   3.203   5.823   3.168
    3OL     H9R13909   3.213   5.717   3.151
    3OL    C11013910   3.276   5.879   3.264
    3OL    H10R13911   3.345   5.816   3.321
    3OL    C11113912   3.279   6.026   3.303
    3OL    H11R13913   3.206   6.084   3.247
    3OL    H11S13914   3.377   6.067   3.277
    3OL    C11213915   3.256   6.050   3.453
    3OL    H12R13916   3.156   6.015   3.481
    3OL    H12S13917   3.258   6.158   3.472
    3OL    C11313918   3.363   5.981   3.541
    3OL    H13R13919   3.462   6.006   3.502
    3OL    H13S13920   3.352   5.873   3.537
    3OL    C11413921   3.356   6.029   3.688
    3OL    H14R13922   3.347   6.138   3.689
    3OL    H14S13923   3.451   6.006   3.737
    3OL    C11513924   3.239   5.968   3.768
    3OL    H15R13925   3.151   5.959   3.704
    3OL    H15S13926   3.211   6.036   3.848
    3OL    C11613927   3.272   5.829   3.828
    3OL    H16R13928   3.310   5.764   3.749
    3OL    H16S13929   3.179   5.784   3.865
    3OL    C11713930   3.374   5.834   3.944
    3OL    H17R13931   3.466   5.883   3.912
    3OL    H17S13932   3.400   5.731   3.971
    3OL    C11813933   3.320   5.905   4.070
    3OL    H18R13934   3.229   5.856   4.105
    3OL    H18S13935   3.299   6.010   4.050
    3OL    H18T13936   3.395   5.900   4.150
    1PA    C11613937   3.747   4.038   3.589
    1PA    H16R13938   3.829   4.062   3.656
    1PA    H16S13939   3.698   3.947   3.625
    1PA    H16T13940   3.674   4.119   3.593
    1PA    C11513941   3.799   4.018   3.446
    1PA    H15R13942   3.857   4.106   3.417
    1PA    H15S13943   3.867   3.932   3.442
    1PA    C11413944   3.685   3.999   3.344
    1PA    H14R13945   3.615   4.082   3.354
    1PA    H14S13946   3.726   4.003   3.243
    1PA    C11313947   3.610   3.865   3.362
    1PA    H13R13948   3.683   3.784   3.360
    1PA    H13S13949   3.561   3.862   3.460
    1PA    C11213950   3.506   3.842   3.251
    1PA    H12R13951   3.555   3.854   3.154
    1PA    H12S13952   3.470   3.740   3.258
    1PA    C11113953   3.386   3.938   3.263
    1PA    H11R13954   3.339   3.923   3.360
    1PA    H11S13955   3.419   4.042   3.258
    1PA    C11013956   3.280   3.913   3.153
    1PA    H10R13957   3.258   3.806   3.147
    1PA    H10S13958   3.188   3.964   3.181
    1PA     C1913959   3.326   3.967   3.016
    1PA     H9R13960   3.341   4.075   3.022
    1PA     H9S13961   3.421   3.921   2.988
    1PA     C1813962   3.222   3.935   2.908
    1PA     H8R13963   3.208   3.827   2.904
    1PA     H8S13964   3.126   3.979   2.936
    1PA     C1713965   3.265   3.987   2.770
    1PA     H7R13966   3.282   4.095   2.776
    1PA     H7S13967   3.359   3.941   2.739
    1PA     C1613968   3.156   3.960   2.663
    1PA     H6R13969   3.059   3.991   2.702
    1PA     H6S13970   3.177   4.021   2.575
    1PA     C1513971   3.150   3.812   2.621
    1PA     H5R13972   3.245   3.784   2.574
    1PA     H5S13973   3.137   3.748   2.709
    1PA     C1413974   3.033   3.788   2.524
    1PA     H4R13975   2.940   3.817   2.573
    1PA     H4S13976   3.044   3.851   2.435
    1PA     C1313977   3.023   3.639   2.482
    1PA     H3R13978   3.034   3.575   2.570
    1PA     H3S13979   2.924   3.621   2.441
    1PA     C1213980   3.129   3.604   2.376
    1PA     H2R13981   3.116   3.669   2.289
    1PA     H2S13982   3.229   3.622   2.414
    2PC     C1113983   3.119   3.461   2.329
    2PC     O1213984   3.062   3.372   2.390
    2PC     O1113985   3.182   3.444   2.211
    2PC      C113986   3.181   3.315   2.144
    2PC      HR13987   3.249   3.321   2.059
    2PC      HS13988   3.217   3.237   2.212
    2PC      C213989   3.039   3.280   2.094
    2PC      HX13990   2.975   3.255   2.180
    2PC      C313991   3.044   3.158   1.998
    2PC      HA13992   3.069   3.069   2.056
    2PC      HB13993   2.948   3.142   1.949
    2PC     O3113994   3.147   3.180   1.898
    2PC     P3113995   3.204   3.056   1.816
    2PC     O3213996   3.082   3.021   1.723
    2PC     C3113997   3.040   2.884   1.715
    2PC     H1A13998   3.125   2.821   1.684
    2PC     H1B13999   3.007   2.851   1.814
    2PC     C3214000   2.923   2.872   1.616
    2PC     H2A14001   2.883   2.771   1.622
    2PC     H2B14002   2.844   2.941   1.645
    2PC     N3114003   2.952   2.897   1.469
    2PC     C3314004   2.829   2.862   1.391
    2PC     H3A14005   2.848   2.882   1.285
    2PC     H3B14006   2.807   2.756   1.406
    2PC     H3C14007   2.746   2.924   1.426
    2PC     C3414008   2.984   3.042   1.445
    2PC     H4A14009   2.902   3.103   1.484
    2PC     H4B14010   3.077   3.066   1.498
    2PC     H4C14011   2.996   3.058   1.338
    2PC     C3514012   3.065   2.812   1.420
    2PC     H5A14013   3.157   2.842   1.472
    2PC     H5B14014   3.077   2.829   1.313
    2PC     H5C14015   3.042   2.707   1.439
    2PC     O3314016   3.325   3.090   1.739
    2PC     O3414017   3.245   2.945   1.906
    2PC     O2114018   2.983   3.396   2.026
    2PC     C2114019   2.850   3.397   2.002
    2PC     O2214020   2.773   3.309   2.038
    3OL     C1214021   2.805   3.519   1.925
    3OL     H2R14022   2.758   3.485   1.833
    3OL     H2S14023   2.893   3.578   1.897
    3OL     C1314024   2.706   3.607   2.004
    3OL     H3R14025   2.622   3.547   2.038
    3OL     H3S14026   2.666   3.684   1.937
    3OL     C1414027   2.772   3.677   2.125
    3OL     H4R14028   2.863   3.728   2.093
    3OL     H4S14029   2.800   3.602   2.200
    3OL     C1514030   2.675   3.780   2.188
    3OL     H5R14031   2.585   3.729   2.223
    3OL     H5S14032   2.646   3.852   2.113
    3OL     C1614033   2.741   3.853   2.307
    3OL     H6R14034   2.837   3.894   2.275
    3OL     H6S14035   2.761   3.782   2.387
    3OL     C1714036   2.652   3.967   2.359
    3OL     H7R14037   2.556   3.927   2.393
    3OL     H7S14038   2.632   4.038   2.278
    3OL     C1814039   2.720   4.042   2.476
    3OL     H8R14040   2.819   4.073   2.444
    3OL     H8S14041   2.734   3.973   2.560
    3OL     C1914042   2.641   4.165   2.516
    3OL     H9R14043   2.649   4.248   2.446
    3OL    C11014044   2.567   4.180   2.626
    3OL    H10R14045   2.517   4.276   2.642
    3OL    C11114046   2.541   4.077   2.734
    3OL    H11R14047   2.580   4.114   2.829
    3OL    H11S14048   2.592   3.983   2.712
    3OL    C11214049   2.390   4.050   2.748
    3OL    H12R14050   2.352   4.018   2.651
    3OL    H12S14051   2.338   4.143   2.774
    3OL    C11314052   2.359   3.941   2.852
    3OL    H13R14053   2.421   3.853   2.834
    3OL    H13S14054   2.255   3.910   2.840
    3OL    C11414055   2.378   3.989   2.998
    3OL    H14R14056   2.320   4.080   3.014
    3OL    H14S14057   2.483   4.012   3.015
    3OL    C11514058   2.332   3.880   3.096
    3OL    H15R14059   2.387   3.787   3.077
    3OL    H15S14060   2.226   3.858   3.079
    3OL    C11614061   2.353   3.923   3.242
    3OL    H16R14062   2.301   4.017   3.261
    3OL    H16S14063   2.459   3.940   3.260
    3OL    C11714064   2.300   3.815   3.339
    3OL    H17R14065   2.348   3.719   3.317
    3OL    H17S14066   2.193   3.803   3.325
    3OL    C11814067   2.329   3.853   3.486
    3OL    H18R14068   2.288   3.777   3.553
    3OL    H18S14069   2.283   3.949   3.510
    3OL    H18T14070   2.436   3.860   3.503
    1PA    C11614071   0.507   4.831   3.894
    1PA    H16R14072   0.407   4.852   3.857
    1PA    H16S14073   0.519   4.883   3.990
    1PA    H16T14074   0.516   4.724   3.911
    1PA    C11514075   0.613   4.880   3.793
    1PA    H15R14076   0.597   4.830   3.697
    1PA    H15S14077   0.598   4.987   3.776
    1PA    C11414078   0.757   4.856   3.842
    1PA    H14R14079   0.826   4.905   3.774
    1PA    H14S14080   0.770   4.905   3.940
    1PA    C11314081   0.799   4.708   3.854
    1PA    H13R14082   0.902   4.703   3.890
    1PA    H13S14083   0.737   4.658   3.929
    1PA    C11214084   0.789   4.632   3.720
    1PA    H12R14085   0.684   4.627   3.689
    1PA    H12S14086   0.844   4.688   3.643
    1PA    C11114087   0.846   4.490   3.732
    1PA    H11R14088   0.954   4.495   3.742
    1PA    H11S14089   0.807   4.443   3.823
    1PA    C11014090   0.810   4.399   3.612
    1PA    H10R14091   0.858   4.302   3.625
    1PA    H10S14092   0.702   4.381   3.613
    1PA     C1914093   0.851   4.459   3.476
    1PA     H9R14094   0.803   4.556   3.461
    1PA     H9S14095   0.959   4.474   3.473
    1PA     C1814096   0.809   4.365   3.360
    1PA     H8R14097   0.856   4.268   3.373
    1PA     H8S14098   0.700   4.350   3.363
    1PA     C1714099   0.849   4.426   3.225
    1PA     H7R14100   0.803   4.524   3.213
    1PA     H7S14101   0.957   4.440   3.224
    1PA     C1614102   0.808   4.335   3.107
    1PA     H6R14103   0.857   4.238   3.117
    1PA     H6S14104   0.700   4.318   3.112
    1PA     C1514105   0.842   4.396   2.970
    1PA     H5R14106   0.800   4.332   2.892
    1PA     H5S14107   0.795   4.494   2.961
    1PA     C1414108   0.995   4.409   2.947
    1PA     H4R14109   1.037   4.474   3.024
    1PA     H4S14110   1.043   4.311   2.957
    1PA     C1314111   1.027   4.470   2.810
    1PA     H3R14112   0.960   4.554   2.791
    1PA     H3S14113   1.129   4.510   2.812
    1PA     C1214114   1.017   4.367   2.696
    1PA     H2R14115   1.088   4.286   2.712
    1PA     H2S14116   0.918   4.324   2.692
    2PC     C1114117   1.046   4.433   2.563
    2PC     O1214118   0.971   4.513   2.511
    2PC     O1114119   1.161   4.390   2.506
    2PC      C114120   1.198   4.438   2.374
    2PC      HR14121   1.279   4.374   2.336
    2PC      HS14122   1.112   4.430   2.306
    2PC      C214123   1.250   4.583   2.376
    2PC      HX14124   1.178   4.648   2.428
    2PC      C314125   1.271   4.637   2.232
    2PC      HA14126   1.176   4.672   2.192
    2PC      HB14127   1.341   4.722   2.232
    2PC     O3114128   1.323   4.533   2.145
    2PC     P3114129   1.354   4.569   1.993
    2PC     O3214130   1.352   4.422   1.932
    2PC     C3114131   1.225   4.363   1.901
    2PC     H1A14132   1.154   4.384   1.980
    2PC     H1B14133   1.188   4.405   1.807
    2PC     C3214134   1.245   4.210   1.886
    2PC     H2A14135   1.149   4.164   1.861
    2PC     H2B14136   1.315   4.189   1.805
    2PC     N3114137   1.297   4.134   2.008
    2PC     C3314138   1.444   4.158   2.026
    2PC     H3A14139   1.495   4.124   1.935
    2PC     H3B14140   1.462   4.264   2.043
    2PC     H3C14141   1.478   4.101   2.112
    2PC     C3414142   1.225   4.174   2.133
    2PC     H4A14143   1.243   4.280   2.151
    2PC     H4B14144   1.118   4.156   2.119
    2PC     H4C14145   1.264   4.114   2.216
    2PC     C3514146   1.275   3.987   1.988
    2PC     H5A14147   1.168   3.969   1.977
    2PC     H5B14148   1.315   3.934   2.075
    2PC     H5C14149   1.328   3.956   1.897
    2PC     O3314150   1.260   4.663   1.929
    2PC     O3414151   1.487   4.630   1.971
    2PC     O2114152   1.376   4.584   2.449
    2PC     C2114153   1.433   4.702   2.483
    2PC     O2214154   1.385   4.811   2.457
    3OL     C1214155   1.560   4.685   2.563
    3OL     H2R14156   1.617   4.778   2.559
    3OL     H2S14157   1.620   4.606   2.517
    3OL     C1314158   1.528   4.648   2.709
    3OL     H3R14159   1.475   4.552   2.712
    3OL     H3S14160   1.461   4.723   2.751
    3OL     C1414161   1.655   4.641   2.795
    3OL     H4R14162   1.703   4.739   2.799
    3OL     H4S14163   1.726   4.571   2.751
    3OL     C1514164   1.621   4.595   2.938
    3OL     H5R14165   1.575   4.496   2.933
    3OL     H5S14166   1.547   4.663   2.981
    3OL     C1614167   1.745   4.590   3.029
    3OL     H6R14168   1.787   4.690   3.042
    3OL     H6S14169   1.821   4.526   2.984
    3OL     C1714170   1.705   4.532   3.166
    3OL     H7R14171   1.660   4.434   3.150
    3OL     H7S14172   1.628   4.595   3.212
    3OL     C1814173   1.823   4.518   3.264
    3OL     H8R14174   1.850   4.616   3.304
    3OL     H8S14175   1.910   4.481   3.210
    3OL     C1914176   1.788   4.419   3.373
    3OL     H9R14177   1.795   4.315   3.343
    3OL    C11014178   1.752   4.445   3.498
    3OL    H10R14179   1.730   4.362   3.564
    3OL    C11114180   1.735   4.582   3.562
    3OL    H11R14181   1.630   4.596   3.588
    3OL    H11S14182   1.761   4.662   3.492
    3OL    C11214183   1.820   4.598   3.690
    3OL    H12R14184   1.802   4.697   3.732
    3OL    H12S14185   1.926   4.592   3.663
    3OL    C11314186   1.788   4.490   3.796
    3OL    H13R14187   1.811   4.391   3.756
    3OL    H13S14188   1.682   4.493   3.820
    3OL    C11414189   1.872   4.513   3.923
    3OL    H14R14190   1.846   4.609   3.969
    3OL    H14S14191   1.977   4.517   3.895
    3OL    C11514192   1.854   4.400   4.027
    3OL    H15R14193   1.932   4.411   4.103
    3OL    H15S14194   1.869   4.303   3.979
    3OL    C11614195   1.717   4.403   4.097
    3OL    H16R14196   1.637   4.383   4.025
    3OL    H16S14197   1.699   4.502   4.139
    3OL    C11714198   1.711   4.299   4.210
    3OL    H17R14199   1.788   4.321   4.285
    3OL    H17S14200   1.732   4.199   4.170
    3OL    C11814201   1.574   4.298   4.279
    3OL    H18R14202   1.551   4.397   4.321
    3OL    H18S14203   1.572   4.225   4.360
    3OL    H18T14204   1.495   4.272   4.208
    1PA    C11614205   2.228   4.445   3.145
    1PA    H16R14206   2.145   4.403   3.202
    1PA    H16S14207   2.321   4.422   3.196
    1PA    H16T14208   2.229   4.398   3.047
    1PA    C11514209   2.210   4.597   3.130
    1PA    H15R14210   2.290   4.635   3.066
    1PA    H15S14211   2.115   4.618   3.082
    1PA    C11414212   2.217   4.669   3.267
    1PA    H14R14213   2.140   4.626   3.333
    1PA    H14S14214   2.314   4.651   3.313
    1PA    C11314215   2.192   4.821   3.253
    1PA    H13R14216   2.096   4.837   3.204
    1PA    H13S14217   2.184   4.863   3.354
    1PA    C11214218   2.304   4.894   3.176
    1PA    H12R14219   2.400   4.881   3.226
    1PA    H12S14220   2.313   4.851   3.076
    1PA    C11114221   2.271   5.044   3.160
    1PA    H11R14222   2.325   5.082   3.074
    1PA    H11S14223   2.164   5.055   3.139
    1PA    C11014224   2.310   5.126   3.285
    1PA    H10R14225   2.278   5.074   3.375
    1PA    H10S14226   2.418   5.136   3.290
    1PA     C1914227   2.244   5.266   3.285
    1PA     H9R14228   2.136   5.254   3.291
    1PA     H9S14229   2.276   5.320   3.374
    1PA     C1814230   2.279   5.350   3.159
    1PA     H8R14231   2.387   5.366   3.154
    1PA     H8S14232   2.248   5.296   3.070
    1PA     C1714233   2.205   5.486   3.164
    1PA     H7R14234   2.098   5.469   3.178
    1PA     H7S14235   2.241   5.542   3.250
    1PA     C1614236   2.227   5.570   3.037
    1PA     H6R14237   2.185   5.670   3.054
    1PA     H6S14238   2.334   5.583   3.018
    1PA     C1514239   2.159   5.509   2.913
    1PA     H5R14240   2.205   5.412   2.890
    1PA     H5S14241   2.053   5.491   2.934
    1PA     C1414242   2.171   5.600   2.790
    1PA     H4R14243   2.119   5.694   2.808
    1PA     H4S14244   2.277   5.623   2.772
    1PA     C1314245   2.112   5.530   2.666
    1PA     H3R14246   2.162   5.434   2.652
    1PA     H3S14247   2.006   5.510   2.683
    1PA     C1214248   2.128   5.616   2.539
    1PA     H2R14249   2.071   5.708   2.550
    1PA     H2S14250   2.233   5.643   2.525
    2PC     C1114251   2.081   5.543   2.416
    2PC     O1214252   2.096   5.424   2.398
    2PC     O1114253   2.023   5.627   2.327
    2PC      C114254   1.979   5.575   2.198
    2PC      HR14255   1.949   5.659   2.135
    2PC      HS14256   2.062   5.523   2.151
    2PC      C214257   1.860   5.476   2.210
    2PC      HX14258   1.882   5.396   2.280
    2PC      C314259   1.830   5.414   2.072
    2PC      HA14260   1.907   5.341   2.049
    2PC      HB14261   1.732   5.364   2.074
    2PC     O3114262   1.830   5.519   1.973
    2PC     P3114263   1.816   5.481   1.819
    2PC     O3214264   1.658   5.468   1.807
    2PC     C3114265   1.599   5.491   1.678
    2PC     H1A14266   1.624   5.593   1.647
    2PC     H1B14267   1.640   5.421   1.605
    2PC     C3214268   1.445   5.478   1.688
    2PC     H2A14269   1.409   5.538   1.772
    2PC     H2B14270   1.401   5.518   1.597
    2PC     N3114271   1.387   5.339   1.705
    2PC     C3314272   1.428   5.280   1.838
    2PC     H3A14273   1.398   5.349   1.916
    2PC     H3B14274   1.378   5.184   1.850
    2PC     H3C14275   1.536   5.267   1.838
    2PC     C3414276   1.237   5.350   1.701
    2PC     H4A14277   1.208   5.389   1.604
    2PC     H4B14278   1.195   5.250   1.716
    2PC     H4C14279   1.205   5.417   1.780
    2PC     C3514280   1.430   5.247   1.595
    2PC     H5A14281   1.379   5.151   1.607
    2PC     H5B14282   1.538   5.233   1.600
    2PC     H5C14283   1.402   5.292   1.499
    2PC     O3314284   1.872   5.593   1.741
    2PC     O3414285   1.888   5.356   1.784
    2PC     O2114286   1.741   5.548   2.250
    2PC     C2114287   1.717   5.566   2.381
    2PC     O2214288   1.785   5.518   2.471
    3OL     C1214289   1.593   5.649   2.403
    3OL     H2R14290   1.508   5.594   2.364
    3OL     H2S14291   1.602   5.741   2.345
    3OL     C1314292   1.572   5.683   2.552
    3OL     H3R14293   1.656   5.741   2.589
    3OL     H3S14294   1.567   5.590   2.609
    3OL     C1414295   1.441   5.763   2.571
    3OL     H4R14296   1.356   5.704   2.536
    3OL     H4S14297   1.445   5.853   2.510
    3OL     C1514298   1.419   5.804   2.718
    3OL     H5R14299   1.335   5.873   2.722
    3OL     H5S14300   1.507   5.857   2.754
    3OL     C1614301   1.391   5.682   2.809
    3OL     H6R14302   1.477   5.615   2.807
    3OL     H6S14303   1.305   5.626   2.772
    3OL     C1714304   1.368   5.726   2.955
    3OL     H7R14305   1.443   5.800   2.984
    3OL     H7S14306   1.382   5.639   3.019
    3OL     C1814307   1.226   5.781   2.977
    3OL     H8R14308   1.153   5.708   2.943
    3OL     H8S14309   1.212   5.871   2.917
    3OL     C1914310   1.206   5.816   3.123
    3OL     H9R14311   1.265   5.900   3.158
    3OL    C11014312   1.126   5.754   3.210
    3OL    H10R14313   1.122   5.790   3.312
    3OL    C11114314   1.035   5.636   3.182
    3OL    H11R14315   1.026   5.614   3.076
    3OL    H11S14316   0.935   5.661   3.218
    3OL    C11214317   1.082   5.509   3.257
    3OL    H12R14318   1.005   5.433   3.254
    3OL    H12S14319   1.097   5.535   3.362
    3OL    C11314320   1.214   5.452   3.201
    3OL    H13R14321   1.256   5.384   3.275
    3OL    H13S14322   1.287   5.532   3.187
    3OL    C11414323   1.194   5.373   3.071
    3OL    H14R14324   1.153   5.438   2.993
    3OL    H14S14325   1.123   5.292   3.088
    3OL    C11514326   1.328   5.314   3.022
    3OL    H15R14327   1.374   5.255   3.102
    3OL    H15S14328   1.397   5.395   2.998
    3OL    C11614329   1.307   5.224   2.899
    3OL    H16R14330   1.258   5.280   2.819
    3OL    H16S14331   1.241   5.142   2.927
    3OL    C11714332   1.440   5.164   2.846
    3OL    H17R14333   1.417   5.082   2.778
    3OL    H17S14334   1.497   5.122   2.929
    3OL    C11814335   1.524   5.269   2.771
    3OL    H18R14336   1.614   5.222   2.729
    3OL    H18S14337   1.555   5.349   2.837
    3OL    H18T14338   1.467   5.312   2.688
    1PA    C11614339   3.119   2.200   4.097
    1PA    H16R14340   3.228   2.198   4.103
    1PA    H16S14341   3.080   2.112   4.150
    1PA    H16T14342   3.083   2.290   4.148
    1PA    C11514343   3.072   2.200   3.951
    1PA    H15R14344   2.963   2.202   3.947
    1PA    H15S14345   3.109   2.289   3.901
    1PA    C11414346   3.123   2.075   3.876
    1PA    H14R14347   3.232   2.072   3.879
    1PA    H14S14348   3.086   1.985   3.927
    1PA    C11314349   3.075   2.074   3.730
    1PA    H13R14350   2.966   2.078   3.727
    1PA    H13S14351   3.113   2.163   3.679
    1PA    C11214352   3.124   1.948   3.657
    1PA    H12R14353   3.233   1.943   3.662
    1PA    H12S14354   3.085   1.860   3.709
    1PA    C11114355   3.078   1.944   3.510
    1PA    H11R14356   2.969   1.946   3.505
    1PA    H11S14357   3.115   2.033   3.458
    1PA    C11014358   3.131   1.817   3.440
    1PA    H10R14359   3.240   1.819   3.440
    1PA    H10S14360   3.102   1.730   3.499
    1PA     C1914361   3.082   1.797   3.295
    1PA     H9R14362   3.130   1.708   3.256
    1PA     H9S14363   2.975   1.776   3.295
    1PA     C1814364   3.112   1.915   3.200
    1PA     H8R14365   3.197   1.973   3.236
    1PA     H8S14366   3.139   1.874   3.102
    1PA     C1714367   2.988   2.006   3.182
    1PA     H7R14368   2.905   1.948   3.142
    1PA     H7S14369   2.957   2.044   3.280
    1PA     C1614370   3.015   2.127   3.090
    1PA     H6R14371   2.931   2.196   3.099
    1PA     H6S14372   3.104   2.180   3.124
    1PA     C1514373   3.031   2.087   2.942
    1PA     H5R14374   3.119   2.024   2.930
    1PA     H5S14375   2.944   2.031   2.909
    1PA     C1414376   3.047   2.214   2.855
    1PA     H4R14377   2.957   2.275   2.863
    1PA     H4S14378   3.131   2.272   2.892
    1PA     C1314379   3.074   2.180   2.706
    1PA     H3R14380   3.166   2.122   2.699
    1PA     H3S14381   2.992   2.120   2.666
    1PA     C1214382   3.088   2.310   2.625
    1PA     H2R14383   2.992   2.362   2.620
    1PA     H2S14384   3.159   2.377   2.674
    2PC     C1114385   3.138   2.284   2.486
    2PC     O1214386   3.066   2.277   2.388
    2PC     O1114387   3.272   2.269   2.483
    2PC      C114388   3.339   2.239   2.358
    2PC      HR14389   3.309   2.141   2.321
    2PC      HS14390   3.316   2.315   2.283
    2PC      C214391   3.490   2.239   2.389
    2PC      HX14392   3.514   2.331   2.443
    2PC      C314393   3.577   2.232   2.261
    2PC      HA14394   3.541   2.300   2.184
    2PC      HB14395   3.679   2.261   2.287
    2PC     O3114396   3.579   2.096   2.209
    2PC     P3114397   3.709   2.044   2.134
    2PC     O3214398   3.803   2.013   2.259
    2PC     C3114399   3.873   1.887   2.263
    2PC     H1A14400   3.905   1.868   2.366
    2PC     H1B14401   3.804   1.807   2.235
    2PC     C3214402   3.995   1.887   2.168
    2PC     H2A14403   4.038   1.786   2.167
    2PC     H2B14404   3.963   1.912   2.067
    2PC     N3114405   4.111   1.979   2.202
    2PC     C3314406   4.073   2.123   2.180
    2PC     H3A14407   4.160   2.186   2.202
    2PC     H3B14408   4.041   2.136   2.077
    2PC     H3C14409   3.991   2.148   2.248
    2PC     C3414410   4.157   1.961   2.344
    2PC     H4A14411   4.182   1.856   2.359
    2PC     H4B14412   4.245   2.023   2.360
    2PC     H4C14413   4.077   1.991   2.411
    2PC     C3514414   4.226   1.948   2.112
    2PC     H5A14415   4.308   2.015   2.135
    2PC     H5B14416   4.193   1.961   2.009
    2PC     H5C14417   4.256   1.844   2.129
    2PC     O3314418   3.683   1.927   2.049
    2PC     O3414419   3.768   2.145   2.042
    2PC     O2114420   3.519   2.124   2.472
    2PC     C2114421   3.640   2.115   2.531
    2PC     O2214422   3.719   2.207   2.538
    3OL     C1214423   3.663   1.977   2.589
    3OL     H2R14424   3.668   1.906   2.506
    3OL     H2S14425   3.577   1.949   2.650
    3OL     C1314426   3.792   1.968   2.673
    3OL     H3R14427   3.784   2.034   2.759
    3OL     H3S14428   3.877   2.003   2.613
    3OL     C1414429   3.818   1.824   2.720
    3OL     H4R14430   3.837   1.761   2.633
    3OL     H4S14431   3.728   1.785   2.769
    3OL     C1514432   3.938   1.818   2.816
    3OL     H5R14433   3.919   1.880   2.904
    3OL     H5S14434   4.025   1.859   2.765
    3OL     C1614435   3.970   1.674   2.860
    3OL     H6R14436   4.069   1.674   2.906
    3OL     H6S14437   3.975   1.608   2.773
    3OL     C1714438   3.868   1.618   2.963
    3OL     H7R14439   3.769   1.611   2.917
    3OL     H7S14440   3.861   1.688   3.047
    3OL     C1814441   3.912   1.480   3.013
    3OL     H8R14442   4.016   1.487   3.048
    3OL     H8S14443   3.910   1.409   2.930
    3OL     C1914444   3.826   1.432   3.128
    3OL     H9R14445   3.771   1.510   3.180
    3OL    C11014446   3.815   1.306   3.170
    3OL    H10R14447   3.751   1.284   3.255
    3OL    C11114448   3.884   1.186   3.108
    3OL    H11R14449   3.915   1.207   3.006
    3OL    H11S14450   3.813   1.103   3.103
    3OL    C11214451   4.008   1.140   3.188
    3OL    H12R14452   4.080   1.223   3.193
    3OL    H12S14453   4.056   1.059   3.133
    3OL    C11314454   3.974   1.093   3.331
    3OL    H13R14455   3.900   1.012   3.327
    3OL    H13S14456   3.929   1.176   3.386
    3OL    C11414457   4.099   1.045   3.407
    3OL    H14R14458   4.076   1.043   3.514
    3OL    H14S14459   4.181   1.117   3.393
    3OL    C11514460   4.144   0.904   3.363
    3OL    H15R14461   4.158   0.903   3.255
    3OL    H15S14462   4.066   0.832   3.386
    3OL    C11614463   4.276   0.859   3.429
    3OL    H16R14464   4.355   0.932   3.406
    3OL    H16S14465   4.306   0.764   3.385
    3OL    C11714466   4.264   0.842   3.582
    3OL    H17R14467   4.182   0.774   3.605
    3OL    H17S14468   4.241   0.939   3.628
    3OL    C11814469   4.394   0.788   3.642
    3OL    H18R14470   4.477   0.858   3.623
    3OL    H18S14471   4.420   0.691   3.599
    3OL    H18T14472   4.384   0.776   3.750
    1PA    C11614473   3.740   1.274   3.820
    1PA    H16R14474   3.714   1.172   3.790
    1PA    H16S14475   3.713   1.287   3.925
    1PA    H16T14476   3.849   1.286   3.811
    1PA    C11514477   3.666   1.377   3.733
    1PA    H15R14478   3.559   1.363   3.746
    1PA    H15S14479   3.691   1.477   3.768
    1PA    C11414480   3.705   1.362   3.585
    1PA    H14R14481   3.812   1.377   3.575
    1PA    H14S14482   3.683   1.260   3.551
    1PA    C11314483   3.632   1.463   3.494
    1PA    H13R14484   3.640   1.564   3.536
    1PA    H13S14485   3.682   1.465   3.397
    1PA    C11214486   3.483   1.426   3.474
    1PA    H12R14487   3.475   1.325   3.434
    1PA    H12S14488   3.432   1.427   3.570
    1PA    C11114489   3.410   1.524   3.379
    1PA    H11R14490   3.303   1.505   3.386
    1PA    H11S14491   3.426   1.627   3.413
    1PA    C11014492   3.454   1.509   3.232
    1PA    H10R14493   3.558   1.541   3.222
    1PA    H10S14494   3.448   1.404   3.202
    1PA     C1914495   3.366   1.594   3.139
    1PA     H9R14496   3.263   1.557   3.146
    1PA     H9S14497   3.366   1.698   3.173
    1PA     C1814498   3.412   1.587   2.993
    1PA     H8R14499   3.515   1.625   2.985
    1PA     H8S14500   3.413   1.483   2.959
    1PA     C1714501   3.319   1.671   2.903
    1PA     H7R14502   3.218   1.631   2.909
    1PA     H7S14503   3.316   1.774   2.940
    1PA     C1614504   3.366   1.672   2.756
    1PA     H6R14505   3.465   1.718   2.751
    1PA     H6S14506   3.374   1.569   2.720
    1PA     C1514507   3.267   1.750   2.668
    1PA     H5R14508   3.170   1.701   2.672
    1PA     H5S14509   3.255   1.851   2.709
    1PA     C1414510   3.314   1.760   2.522
    1PA     H4R14511   3.412   1.807   2.518
    1PA     H4S14512   3.324   1.659   2.479
    1PA     C1314513   3.213   1.842   2.439
    1PA     H3R14514   3.117   1.791   2.438
    1PA     H3S14515   3.199   1.939   2.488
    1PA     C1214516   3.261   1.867   2.294
    1PA     H2R14517   3.201   1.946   2.249
    1PA     H2S14518   3.364   1.902   2.295
    2PC     C1114519   3.250   1.746   2.205
    2PC     O1214520   3.153   1.672   2.201
    2PC     O1114521   3.360   1.729   2.131
    2PC      C114522   3.365   1.621   2.034
    2PC      HR14523   3.319   1.531   2.077
    2PC      HS14524   3.311   1.649   1.943
    2PC      C214525   3.513   1.592   2.005
    2PC      HX14526   3.564   1.686   1.979
    2PC      C314527   3.531   1.488   1.891
    2PC      HA14528   3.527   1.540   1.795
    2PC      HB14529   3.627   1.437   1.900
    2PC     O3114530   3.422   1.391   1.896
    2PC     P3114531   3.404   1.287   1.778
    2PC     O3214532   3.360   1.383   1.659
    2PC     C3114533   3.222   1.383   1.618
    2PC     H1A14534   3.190   1.279   1.602
    2PC     H1B14535   3.160   1.427   1.697
    2PC     C3214536   3.207   1.459   1.485
    2PC     H2A14537   3.281   1.422   1.414
    2PC     H2B14538   3.108   1.437   1.444
    2PC     N3114539   3.218   1.609   1.487
    2PC     C3314540   3.117   1.671   1.579
    2PC     H3A14541   3.018   1.640   1.548
    2PC     H3B14542   3.138   1.638   1.681
    2PC     H3C14543   3.127   1.779   1.573
    2PC     C3414544   3.356   1.652   1.528
    2PC     H4A14545   3.363   1.760   1.520
    2PC     H4B14546   3.372   1.620   1.631
    2PC     H4C14547   3.428   1.604   1.462
    2PC     C3514548   3.191   1.661   1.348
    2PC     H5A14549   3.199   1.769   1.349
    2PC     H5B14550   3.091   1.629   1.318
    2PC     H5C14551   3.265   1.618   1.280
    2PC     O3314552   3.525   1.207   1.746
    2PC     O3414553   3.298   1.188   1.808
    2PC     O2114554   3.567   1.540   2.128
    2PC     C2114555   3.698   1.555   2.156
    2PC     O2214556   3.783   1.591   2.077
    3OL     C1214557   3.728   1.523   2.300
    3OL     H2R14558   3.830   1.554   2.322
    3OL     H2S14559   3.723   1.416   2.314
    3OL     C1314560   3.631   1.595   2.397
    3OL     H3R14561   3.527   1.574   2.370
    3OL     H3S14562   3.645   1.702   2.388
    3OL     C1414563   3.655   1.551   2.543
    3OL     H4R14564   3.608   1.624   2.609
    3OL     H4S14565   3.761   1.551   2.564
    3OL     C1514566   3.594   1.412   2.570
    3OL     H5R14567   3.631   1.340   2.496
    3OL     H5S14568   3.486   1.417   2.560
    3OL     C1614569   3.631   1.361   2.710
    3OL     H6R14570   3.593   1.430   2.786
    3OL     H6S14571   3.740   1.357   2.720
    3OL     C1714572   3.571   1.221   2.732
    3OL     H7R14573   3.603   1.154   2.652
    3OL     H7S14574   3.462   1.227   2.729
    3OL     C1814575   3.615   1.162   2.867
    3OL     H8R14576   3.589   1.231   2.948
    3OL     H8S14577   3.724   1.153   2.868
    3OL     C1914578   3.554   1.025   2.888
    3OL     H9R14579   3.602   0.945   2.831
    3OL    C11014580   3.453   0.995   2.968
    3OL    H10R14581   3.419   0.892   2.975
    3OL    C11114582   3.373   1.093   3.052
    3OL    H11R14583   3.267   1.083   3.029
    3OL    H11S14584   3.400   1.196   3.030
    3OL    C11214585   3.394   1.066   3.203
    3OL    H12R14586   3.355   1.152   3.259
    3OL    H12S14587   3.501   1.059   3.224
    3OL    C11314588   3.321   0.938   3.249
    3OL    H13R14589   3.347   0.855   3.182
    3OL    H13S14590   3.213   0.953   3.242
    3OL    C11414591   3.358   0.897   3.393
    3OL    H14R14592   3.463   0.870   3.397
    3OL    H14S14593   3.300   0.807   3.419
    3OL    C11514594   3.329   1.007   3.497
    3OL    H15R14595   3.225   1.038   3.490
    3OL    H15S14596   3.392   1.094   3.477
    3OL    C11614597   3.360   0.956   3.640
    3OL    H16R14598   3.461   0.916   3.642
    3OL    H16S14599   3.292   0.875   3.666
    3OL    C11714600   3.350   1.068   3.746
    3OL    H17R14601   3.414   1.152   3.717
    3OL    H17S14602   3.387   1.029   3.841
    3OL    C11814603   3.205   1.118   3.765
    3OL    H18R14604   3.140   1.035   3.793
    3OL    H18S14605   3.167   1.164   3.674
    3OL    H18T14606   3.202   1.193   3.845
    1PA    C11614607   6.023   1.056   3.069
    1PA    H16R14608   5.989   1.031   2.968
    1PA    H16S14609   6.007   1.163   3.084
    1PA    H16T14610   5.961   1.002   3.141
    1PA    C11514611   6.172   1.021   3.087
    1PA    H15R14612   6.231   1.076   3.014
    1PA    H15S14613   6.204   1.051   3.187
    1PA    C11414614   6.194   0.869   3.069
    1PA    H14R14615   6.131   0.816   3.141
    1PA    H14S14616   6.162   0.838   2.969
    1PA    C11314617   6.341   0.829   3.092
    1PA    H13R14618   6.381   0.882   3.179
    1PA    H13S14619   6.345   0.723   3.116
    1PA    C11214620   6.429   0.855   2.968
    1PA    H12R14621   6.387   0.803   2.882
    1PA    H12S14622   6.429   0.962   2.946
    1PA    C11114623   0.126   0.807   2.993
    1PA    H11R14624   0.163   0.856   3.083
    1PA    H11S14625   0.127   0.699   3.011
    1PA    C11014626   0.221   0.841   2.876
    1PA    H10R14627   0.209   0.946   2.848
    1PA    H10S14628   0.324   0.829   2.911
    1PA     C1914629   0.200   0.751   2.753
    1PA     H9R14630   0.208   0.646   2.782
    1PA     H9S14631   0.100   0.767   2.712
    1PA     C1814632   0.305   0.782   2.645
    1PA     H8R14633   0.298   0.887   2.615
    1PA     H8S14634   0.405   0.766   2.686
    1PA     C1714635   0.286   0.693   2.520
    1PA     H7R14636   0.289   0.588   2.549
    1PA     H7S14637   0.188   0.713   2.476
    1PA     C1614638   0.396   0.721   2.415
    1PA     H6R14639   0.392   0.825   2.383
    1PA     H6S14640   0.494   0.703   2.459
    1PA     C1514641   0.378   0.629   2.292
    1PA     H5R14642   0.378   0.525   2.325
    1PA     H5S14643   0.280   0.649   2.248
    1PA     C1414644   0.486   0.651   2.185
    1PA     H4R14645   0.478   0.751   2.143
    1PA     H4S14646   0.585   0.643   2.232
    1PA     C1314647   0.477   0.545   2.072
    1PA     H3R14648   0.567   0.552   2.011
    1PA     H3S14649   0.475   0.445   2.116
    1PA     C1214650   0.354   0.565   1.981
    1PA     H2R14651   0.263   0.567   2.041
    1PA     H2S14652   0.362   0.660   1.928
    2PC     C1114653   0.342   0.453   1.881
    2PC     O1214654   0.253   0.369   1.887
    2PC     O1114655   0.440   0.456   1.788
    2PC      C114656   0.449   0.348   1.691
    2PC      HR14657   0.349   0.315   1.661
    2PC      HS14658   0.501   0.384   1.602
    2PC      C214659   0.527   0.229   1.749
    2PC      HX14660   0.623   0.267   1.786
    2PC      C314661   0.555   0.119   1.643
    2PC      HA14662   0.641   0.153   1.583
    2PC      HB14663   0.582   0.024   1.689
    2PC     O3114664   0.442   0.099   1.554
    2PC     P3114665   0.470   0.049   1.404
    2PC     O3214666   0.526   0.187   1.349
    2PC     C3114667   0.565   0.196   1.211
    2PC     H1A14668   0.644   0.122   1.193
    2PC     H1B14669   0.479   0.173   1.147
    2PC     C3214670   0.619   0.338   1.182
    2PC     H2A14671   0.708   0.356   1.243
    2PC     H2B14672   0.648   0.342   1.077
    2PC     N3114673   0.526   0.456   1.206
    2PC     C3314674   0.588   0.578   1.143
    2PC     H3A14675   0.603   0.559   1.037
    2PC     H3B14676   0.519   0.662   1.158
    2PC     H3C14677   0.683   0.597   1.192
    2PC     C3414678   0.392   0.434   1.143
    2PC     H4A14679   0.330   0.521   1.164
    2PC     H4B14680   0.405   0.422   1.036
    2PC     H4C14681   0.347   0.345   1.187
    2PC     C3514682   0.507   0.483   1.352
    2PC     H5A14683   0.456   0.397   1.396
    2PC     H5B14684   0.445   0.572   1.362
    2PC     H5C14685   0.604   0.498   1.399
    2PC     O3314686   0.572   6.390   1.397
    2PC     O3414687   0.352   0.002   1.328
    2PC     O2114688   0.451   0.178   1.862
    2PC     C2114689   0.511   0.101   1.954
    2PC     O2214690   0.617   0.043   1.936
    3OL     C1214691   0.433   0.097   2.083
    3OL     H2R14692   0.327   0.094   2.060
    3OL     H2S14693   0.453   0.189   2.137
    3OL     C1314694   0.472   6.424   2.170
    3OL     H3R14695   0.580   6.422   2.185
    3OL     H3S14696   0.445   6.331   2.118
    3OL     C1414697   0.402   6.429   2.307
    3OL     H4R14698   0.294   6.433   2.293
    3OL     H4S14699   0.433   0.071   2.360
    3OL     C1514700   0.440   6.305   2.389
    3OL     H5R14701   0.548   6.299   2.398
    3OL     H5S14702   0.406   6.215   2.336
    3OL     C1614703   0.377   6.307   2.529
    3OL     H6R14704   0.268   6.310   2.521
    3OL     H6S14705   0.409   6.396   2.583
    3OL     C1714706   0.419   6.181   2.607
    3OL     H7R14707   0.528   6.178   2.614
    3OL     H7S14708   0.387   6.092   2.551
    3OL     C1814709   0.358   6.175   2.747
    3OL     H8R14710   0.249   6.174   2.737
    3OL     H8S14711   0.387   6.264   2.804
    3OL     C1914712   0.402   6.048   2.816
    3OL     H9R14713   0.413   5.962   2.749
    3OL    C11014714   0.432   6.033   2.944
    3OL    H10R14715   0.465   5.935   2.980
    3OL    C11114716   0.419   6.138   3.052
    3OL    H11R14717   0.374   6.230   3.014
    3OL    H11S14718   0.518   6.164   3.089
    3OL    C11214719   0.335   6.085   3.169
    3OL    H12R14720   0.372   5.987   3.199
    3OL    H12S14721   0.231   6.072   3.138
    3OL    C11314722   0.342   6.181   3.290
    3OL    H13R14723   0.303   6.278   3.261
    3OL    H13S14724   0.446   6.194   3.319
    3OL    C11414725   0.261   6.126   3.409
    3OL    H14R14726   0.295   6.025   3.432
    3OL    H14S14727   0.156   6.121   3.383
    3OL    C11514728   0.280   6.216   3.533
    3OL    H15R14729   0.246   6.317   3.510
    3OL    H15S14730   0.387   6.221   3.557
    3OL    C11614731   0.202   6.161   3.653
    3OL    H16R14732   0.228   6.057   3.672
    3OL    H16S14733   0.095   6.164   3.630
    3OL    C11714734   0.227   6.245   3.780
    3OL    H17R14735   0.149   6.223   3.853
    3OL    H17S14736   0.221   6.351   3.757
    3OL    C11814737   0.363   6.212   3.845
    3OL    H18R14738   0.376   6.270   3.937
    3OL    H18S14739   0.445   6.238   3.777
    3OL    H18T14740   0.370   6.106   3.869
    1PA    C11614741   2.896   1.377   3.523
    1PA    H16R14742   2.826   1.402   3.443
    1PA    H16S14743   2.874   1.441   3.609
    1PA    H16T14744   2.881   1.273   3.553
    1PA    C11514745   3.041   1.399   3.476
    1PA    H15R14746   3.058   1.505   3.457
    1PA    H15S14747   3.108   1.370   3.557
    1PA    C11414748   3.074   1.317   3.350
    1PA    H14R14749   3.183   1.311   3.341
    1PA    H14S14750   3.037   1.215   3.361
    1PA    C11314751   3.017   1.381   3.222
    1PA    H13R14752   2.908   1.380   3.224
    1PA    H13S14753   3.049   1.485   3.216
    1PA    C11214754   3.067   1.306   3.098
    1PA    H12R14755   3.176   1.301   3.101
    1PA    H12S14756   3.030   1.203   3.099
    1PA    C11114757   3.025   1.375   2.967
    1PA    H11R14758   2.916   1.377   2.959
    1PA    H11S14759   3.060   1.479   2.968
    1PA    C11014760   3.085   1.301   2.846
    1PA    H10R14761   3.193   1.290   2.860
    1PA    H10S14762   3.042   1.201   2.840
    1PA     C1914763   3.059   1.376   2.714
    1PA     H9R14764   2.951   1.386   2.697
    1PA     H9S14765   3.102   1.476   2.719
    1PA     C1814766   3.122   1.299   2.596
    1PA     H8R14767   3.228   1.283   2.617
    1PA     H8S14768   3.076   1.200   2.588
    1PA     C1714769   3.106   1.374   2.463
    1PA     H7R14770   3.000   1.392   2.444
    1PA     H7S14771   3.155   1.472   2.468
    1PA     C1614772   3.164   1.294   2.344
    1PA     H6R14773   3.124   1.192   2.345
    1PA     H6S14774   3.132   1.340   2.251
    1PA     C1514775   3.319   1.289   2.346
    1PA     H5R14776   3.358   1.390   2.339
    1PA     H5S14777   3.354   1.245   2.439
    1PA     C1414778   3.372   1.205   2.228
    1PA     H4R14779   3.333   1.103   2.235
    1PA     H4S14780   3.338   1.248   2.134
    1PA     C1314781   3.527   1.202   2.229
    1PA     H3R14782   3.564   1.303   2.219
    1PA     H3S14783   3.563   1.162   2.324
    1PA     C1214784   3.581   1.116   2.113
    1PA     H2R14785   3.548   1.012   2.125
    1PA     H2S14786   3.540   1.153   2.019
    2PC     C1114787   3.731   1.120   2.103
    2PC     O1214788   3.800   1.020   2.114
    2PC     O1114789   3.779   1.244   2.079
    2PC      C114790   3.920   1.264   2.051
    2PC      HR14791   3.961   1.178   1.996
    2PC      HS14792   3.929   1.352   1.987
    2PC      C214793   3.999   1.290   2.181
    2PC      HX14794   3.941   1.358   2.243
    2PC      C314795   4.134   1.361   2.155
    2PC      HA14796   4.115   1.466   2.133
    2PC      HB14797   4.195   1.353   2.245
    2PC     O3114798   4.207   1.302   2.044
    2PC     P3114799   4.338   1.378   1.992
    2PC     O3214800   4.282   1.447   1.861
    2PC     C3114801   4.233   1.362   1.755
    2PC     H1A14802   4.314   1.300   1.716
    2PC     H1B14803   4.154   1.298   1.795
    2PC     C3214804   4.173   1.451   1.644
    2PC     H2A14805   4.105   1.390   1.584
    2PC     H2B14806   4.114   1.530   1.690
    2PC     N3114807   4.266   1.518   1.546
    2PC     C3314808   4.184   1.604   1.454
    2PC     H3A14809   4.111   1.542   1.403
    2PC     H3B14810   4.134   1.680   1.515
    2PC     H3C14811   4.251   1.651   1.382
    2PC     C3414812   4.367   1.605   1.616
    2PC     H4A14813   4.313   1.682   1.671
    2PC     H4B14814   4.426   1.543   1.684
    2PC     H4C14815   4.432   1.651   1.541
    2PC     C3514816   4.337   1.415   1.462
    2PC     H5A14817   4.263   1.352   1.412
    2PC     H5B14818   4.402   1.355   1.526
    2PC     H5C14819   4.397   1.467   1.386
    2PC     O3314820   4.395   1.477   2.087
    2PC     O3414821   4.449   1.284   1.963
    2PC     O2114822   4.024   1.165   2.251
    2PC     C2114823   3.951   1.138   2.362
    2PC     O2214824   3.869   1.215   2.410
    3OL     C1214825   3.983   1.005   2.425
    3OL     H2R14826   4.078   0.968   2.387
    3OL     H2S14827   3.905   0.934   2.395
    3OL     C1314828   3.989   1.015   2.580
    3OL     H3R14829   3.909   1.081   2.615
    3OL     H3S14830   4.084   1.061   2.609
    3OL     C1414831   3.972   0.878   2.648
    3OL     H4R14832   4.052   0.811   2.617
    3OL     H4S14833   3.877   0.835   2.617
    3OL     C1514834   3.974   0.893   2.802
    3OL     H5R14835   3.907   0.975   2.831
    3OL     H5S14836   4.075   0.920   2.835
    3OL     C1614837   3.928   0.764   2.872
    3OL     H6R14838   3.993   0.681   2.844
    3OL     H6S14839   3.827   0.740   2.838
    3OL     C1714840   3.926   0.781   3.025
    3OL     H7R14841   3.866   0.869   3.051
    3OL     H7S14842   4.027   0.798   3.061
    3OL     C1814843   3.867   0.657   3.095
    3OL     H8R14844   3.928   0.570   3.072
    3OL     H8S14845   3.767   0.639   3.054
    3OL     C1914846   3.854   0.680   3.244
    3OL     H9R14847   3.805   0.774   3.271
    3OL    C11014848   3.900   0.602   3.342
    3OL    H10R14849   3.886   0.634   3.445
    3OL    C11114850   3.969   0.468   3.326
    3OL    H11R14851   4.074   0.478   3.352
    3OL    H11S14852   3.965   0.434   3.223
    3OL    C11214853   3.905   0.358   3.415
    3OL    H12R14854   3.953   0.262   3.393
    3OL    H12S14855   3.800   0.348   3.388
    3OL    C11314856   3.915   0.386   3.567
    3OL    H13R14857   3.856   0.310   3.619
    3OL    H13S14858   3.871   0.483   3.590
    3OL    C11414859   4.060   0.379   3.619
    3OL    H14R14860   4.121   0.458   3.573
    3OL    H14S14861   4.104   0.283   3.589
    3OL    C11514862   4.068   0.391   3.772
    3OL    H15R14863   4.168   0.360   3.804
    3OL    H15S14864   3.997   0.321   3.818
    3OL    C11614865   4.041   0.534   3.822
    3OL    H16R14866   3.940   0.564   3.792
    3OL    H16S14867   4.110   0.604   3.776
    3OL    C11714868   4.050   0.545   3.976
    3OL    H17R14869   3.992   0.465   4.023
    3OL    H17S14870   4.006   0.640   4.008
    3OL    C11814871   4.196   0.540   4.026
    3OL    H18R14872   4.255   0.620   3.980
    3OL    H18S14873   4.242   0.444   4.002
    3OL    H18T14874   4.199   0.554   4.134
    1PA    C11614875   1.239   0.134   3.834
    1PA    H16R14876   1.272   0.231   3.872
    1PA    H16S14877   1.287   0.056   3.894
    1PA    H16T14878   1.131   0.127   3.848
    1PA    C11514879   1.275   0.119   3.686
    1PA    H15R14880   1.240   0.023   3.649
    1PA    H15S14881   1.225   0.197   3.629
    1PA    C11414882   1.427   0.131   3.664
    1PA    H14R14883   1.463   0.224   3.707
    1PA    H14S14884   1.478   0.049   3.716
    1PA    C11314885   1.462   0.127   3.514
    1PA    H13R14886   1.429   0.032   3.471
    1PA    H13S14887   1.409   0.207   3.463
    1PA    C11214888   1.613   0.144   3.492
    1PA    H12R14889   1.647   0.235   3.541
    1PA    H12S14890   1.667   0.060   3.538
    1PA    C11114891   1.647   0.151   3.342
    1PA    H11R14892   1.619   0.057   3.293
    1PA    H11S14893   1.590   0.232   3.296
    1PA    C11014894   1.798   0.178   3.321
    1PA    H10R14895   1.824   0.268   3.377
    1PA    H10S14896   1.857   0.096   3.362
    1PA     C1914897   1.832   0.200   3.172
    1PA     H9R14898   1.926   0.256   3.166
    1PA     H9S14899   1.755   0.262   3.126
    1PA     C1814900   1.848   0.069   3.094
    1PA     H8R14901   1.932   0.011   3.134
    1PA     H8S14902   1.758   0.008   3.105
    1PA     C1714903   1.872   0.099   2.945
    1PA     H7R14904   1.787   0.157   2.907
    1PA     H7S14905   1.961   0.161   2.934
    1PA     C1614906   1.887   6.418   2.861
    1PA     H6R14907   1.981   6.369   2.884
    1PA     H6S14908   1.807   6.349   2.888
    1PA     C1514909   1.877   0.000   2.710
    1PA     H5R14910   1.860   6.355   2.657
    1PA     H5S14911   1.790   0.063   2.692
    1PA     C1414912   2.003   0.067   2.653
    1PA     H4R14913   2.037   0.147   2.719
    1PA     H4S14914   2.084   6.442   2.646
    1PA     C1314915   1.978   0.129   2.513
    1PA     H3R14916   1.898   0.204   2.522
    1PA     H3S14917   2.068   0.182   2.482
    1PA     C1214918   1.939   0.025   2.405
    1PA     H2R14919   2.020   6.401   2.392
    1PA     H2S14920   1.851   6.418   2.436
    2PC     C1114921   1.908   0.088   2.271
    2PC     O1214922   1.867   0.024   2.175
    2PC     O1114923   1.930   0.222   2.267
    2PC      C114924   1.894   0.299   2.150
    2PC      HR14925   1.933   0.401   2.163
    2PC      HS14926   1.940   0.255   2.061
    2PC      C214927   1.741   0.310   2.133
    2PC      HX14928   1.696   0.213   2.112
    2PC      C314929   1.710   0.405   2.016
    2PC      HA14930   1.745   0.506   2.039
    2PC      HB14931   1.758   0.370   1.924
    2PC     O3114932   1.567   0.408   1.997
    2PC     P3114933   1.508   0.509   1.890
    2PC     O3214934   1.354   0.483   1.919
    2PC     C3114935   1.256   0.566   1.854
    2PC     H1A14936   1.160   0.552   1.904
    2PC     H1B14937   1.284   0.672   1.865
    2PC     C3214938   1.244   0.529   1.704
    2PC     H2A14939   1.176   0.599   1.656
    2PC     H2B14940   1.342   0.538   1.656
    2PC     N3114941   1.192   0.391   1.671
    2PC     C3314942   1.290   0.284   1.711
    2PC     H3A14943   1.300   0.284   1.820
    2PC     H3B14944   1.251   0.187   1.677
    2PC     H3C14945   1.386   0.305   1.664
    2PC     C3414946   1.060   0.366   1.737
    2PC     H4A14947   1.021   0.271   1.701
    2PC     H4B14948   1.076   0.361   1.845
    2PC     H4C14949   0.992   0.447   1.711
    2PC     C3514950   1.173   0.383   1.522
    2PC     H5A14951   1.096   0.454   1.493
    2PC     H5B14952   1.144   0.281   1.497
    2PC     H5C14953   1.268   0.408   1.473
    2PC     O3314954   1.546   0.651   1.909
    2PC     O3414955   1.547   0.475   1.751
    2PC     O2114956   1.685   0.370   2.253
    2PC     C2114957   1.646   0.289   2.353
    2PC     O2214958   1.646   0.168   2.346
    3OL     C1214959   1.602   0.366   2.475
    3OL     H2R14960   1.517   0.429   2.449
    3OL     H2S14961   1.684   0.431   2.506
    3OL     C1314962   1.564   0.270   2.590
    3OL     H3R14963   1.651   0.210   2.617
    3OL     H3S14964   1.487   0.201   2.555
    3OL     C1414965   1.512   0.343   2.714
    3OL     H4R14966   1.422   0.399   2.689
    3OL     H4S14967   1.586   0.414   2.751
    3OL     C1514968   1.480   0.240   2.825
    3OL     H5R14969   1.572   0.191   2.857
    3OL     H5S14970   1.414   0.162   2.784
    3OL     C1614971   1.412   0.306   2.946
    3OL     H6R14972   1.323   0.360   2.912
    3OL     H6S14973   1.479   0.379   2.991
    3OL     C1714974   1.372   0.200   3.050
    3OL     H7R14975   1.461   0.146   3.082
    3OL     H7S14976   1.304   0.128   3.004
    3OL     C1814977   1.304   0.262   3.173
    3OL     H8R14978   1.371   0.337   3.216
    3OL     H8S14979   1.290   0.184   3.249
    3OL     C1914980   1.171   0.327   3.139
    3OL     H9R14981   1.160   0.362   3.037
    3OL    C11014982   1.069   0.339   3.223
    3OL    H10R14983   0.976   0.385   3.189
    3OL    C11114984   1.072   0.296   3.368
    3OL    H11R14985   1.160   0.337   3.417
    3OL    H11S14986   1.078   0.187   3.374
    3OL    C11214987   0.946   0.343   3.442
    3OL    H12R14988   0.857   0.298   3.396
    3OL    H12S14989   0.936   0.451   3.434
    3OL    C11314990   0.953   0.303   3.591
    3OL    H13R14991   1.040   0.351   3.637
    3OL    H13S14992   0.966   0.195   3.599
    3OL    C11414993   0.826   0.345   3.666
    3OL    H14R14994   0.740   0.291   3.625
    3OL    H14S14995   0.808   0.452   3.652
    3OL    C11514996   0.840   0.315   3.817
    3OL    H15R14997   0.920   0.377   3.857
    3OL    H15S14998   0.870   0.210   3.831
    3OL    C11614999   0.710   0.343   3.894
    3OL    H16R15000   0.667   0.438   3.862
    3OL    H16S15001   0.734   0.352   4.001
    3OL    C11715002   0.608   0.229   3.876
    3OL    H17R15003   0.652   0.135   3.910
    3OL    H17S15004   0.582   0.218   3.771
    3OL    C11815005   0.479   0.256   3.956
    3OL    H18R15006   0.410   0.173   3.944
    3OL    H18S15007   0.431   0.347   3.921
    3OL    H18T15008   0.502   0.266   4.063
    1PA    C11615009   0.629   5.526   3.830
    1PA    H16R15010   0.621   5.433   3.772
    1PA    H16S15011   0.534   5.579   3.824
    1PA    H16T15012   0.647   5.500   3.934
    1PA    C11515013   0.744   5.613   3.777
    1PA    H15R15014   0.752   5.705   3.835
    1PA    H15S15015   0.838   5.558   3.790
    1PA    C11415016   0.728   5.647   3.627
    1PA    H14R15017   0.824   5.685   3.591
    1PA    H14S15018   0.706   5.556   3.571
    1PA    C11315019   0.618   5.753   3.603
    1PA    H13R15020   0.523   5.714   3.639
    1PA    H13S15021   0.641   5.843   3.660
    1PA    C11215022   0.603   5.788   3.454
    1PA    H12R15023   0.594   5.696   3.396
    1PA    H12S15024   0.510   5.844   3.440
    1PA    C11115025   0.720   5.873   3.400
    1PA    H11R15026   0.726   5.967   3.455
    1PA    H11S15027   0.814   5.820   3.414
    1PA    C11015028   0.699   5.902   3.250
    1PA    H10R15029   0.689   5.807   3.198
    1PA    H10S15030   0.607   5.958   3.236
    1PA     C1915031   0.818   5.979   3.190
    1PA     H9R15032   0.826   6.077   3.238
    1PA     H9S15033   0.911   5.925   3.209
    1PA     C1815034   0.798   5.996   3.038
    1PA     H8R15035   0.783   5.897   2.994
    1PA     H8S15036   0.709   6.055   3.019
    1PA     C1715037   0.920   6.063   2.972
    1PA     H7R15038   0.932   6.164   3.013
    1PA     H7S15039   1.010   6.006   2.995
    1PA     C1615040   0.900   6.070   2.820
    1PA     H6R15041   0.876   5.970   2.782
    1PA     H6S15042   0.815   6.135   2.797
    1PA     C1515043   1.026   6.122   2.748
    1PA     H5R15044   1.052   6.222   2.785
    1PA     H5S15045   1.109   6.056   2.772
    1PA     C1415046   1.007   6.125   2.595
    1PA     H4R15047   1.105   6.122   2.548
    1PA     H4S15048   0.953   6.035   2.563
    1PA     C1315049   0.933   6.252   2.549
    1PA     H3R15050   0.835   6.258   2.598
    1PA     H3S15051   0.991   6.340   2.578
    1PA     C1215052   0.914   6.252   2.396
    1PA     H2R15053   1.009   6.233   2.347
    1PA     H2S15054   0.845   6.172   2.366
    2PC     C1115055   0.859   6.383   2.347
    2PC     O1215056   0.774   6.448   2.405
    2PC     O1115057   0.920   6.424   2.234
    2PC      C115058   0.885   0.107   2.181
    2PC      HR15059   0.780   0.107   2.150
    2PC      HS15060   0.896   0.182   2.260
    2PC      C215061   0.976   0.141   2.062
    2PC      HX15062   0.953   0.241   2.024
    2PC      C315063   0.957   0.038   1.949
    2PC      HA15064   0.987   6.387   1.984
    2PC      HB15065   0.852   0.035   1.921
    2PC     O3115066   1.034   0.078   1.834
    2PC     P3115067   1.035   6.435   1.703
    2PC     O3215068   1.157   6.339   1.737
    2PC     C3115069   1.131   6.210   1.793
    2PC     H1A15070   1.057   6.217   1.872
    2PC     H1B15071   1.093   6.144   1.714
    2PC     C3215072   1.264   6.154   1.848
    2PC     H2A15073   1.252   6.048   1.870
    2PC     H2B15074   1.342   6.165   1.773
    2PC     N3115075   1.318   6.217   1.976
    2PC     C3315076   1.339   6.365   1.962
    2PC     H3A15077   1.404   6.383   1.875
    2PC     H3B15078   1.243   6.413   1.947
    2PC     H3C15079   1.388   6.402   2.053
    2PC     C3415080   1.225   6.191   2.091
    2PC     H4A15081   1.208   6.083   2.098
    2PC     H4B15082   1.271   6.228   2.182
    2PC     H4C15083   1.130   6.242   2.072
    2PC     C3515084   1.451   6.153   2.006
    2PC     H5A15085   1.520   6.178   1.925
    2PC     H5B15086   1.438   6.045   2.012
    2PC     H5C15087   1.488   6.193   2.100
    2PC     O3315088   0.909   6.364   1.670
    2PC     O3415089   1.067   0.071   1.586
    2PC     O2115090   1.114   0.134   2.105
    2PC     C2115091   1.159   0.227   2.192
    2PC     O2215092   1.100   0.329   2.220
    3OL     C1215093   1.287   0.182   2.258
    3OL     H2R15094   1.334   0.266   2.309
    3OL     H2S15095   1.355   0.145   2.181
    3OL     C1315096   1.253   0.069   2.359
    3OL     H3R15097   1.168   0.011   2.321
    3OL     H3S15098   1.223   0.113   2.454
    3OL     C1415099   1.371   6.420   2.379
    3OL     H4R15100   1.454   0.025   2.425
    3OL     H4S15101   1.404   6.382   2.283
    3OL     C1515102   1.327   6.303   2.469
    3OL     H5R15103   1.238   6.257   2.426
    3OL     H5S15104   1.299   6.340   2.568
    3OL     C1615105   1.436   6.194   2.481
    3OL     H6R15106   1.462   6.159   2.381
    3OL     H6S15107   1.394   6.108   2.534
    3OL     C1715108   1.564   6.241   2.553
    3OL     H7R15109   1.607   6.327   2.501
    3OL     H7S15110   1.638   6.161   2.547
    3OL     C1815111   1.542   6.277   2.702
    3OL     H8R15112   1.478   6.365   2.709
    3OL     H8S15113   1.639   6.305   2.743
    3OL     C1915114   1.487   6.161   2.782
    3OL     H9R15115   1.527   6.064   2.755
    3OL    C11015116   1.394   6.170   2.876
    3OL    H10R15117   1.360   6.079   2.926
    3OL    C11115118   1.334   6.300   2.925
    3OL    H11R15119   1.281   6.349   2.843
    3OL    H11S15120   1.413   6.367   2.959
    3OL    C11215121   1.233   6.279   3.041
    3OL    H12R15122   1.152   6.215   3.007
    3OL    H12S15123   1.189   6.376   3.067
    3OL    C11315124   1.298   6.217   3.166
    3OL    H13R15125   1.382   6.279   3.198
    3OL    H13S15126   1.336   6.118   3.142
    3OL    C11415127   1.196   6.205   3.281
    3OL    H14R15128   1.112   6.142   3.249
    3OL    H14S15129   1.155   6.304   3.304
    3OL    C11515130   1.261   6.146   3.408
    3OL    H15R15131   1.345   6.210   3.437
    3OL    H15S15132   1.302   6.047   3.386
    3OL    C11615133   1.162   6.139   3.526
    3OL    H16R15134   1.106   6.232   3.531
    3OL    H16S15135   1.218   6.130   3.619
    3OL    C11715136   1.063   6.020   3.515
    3OL    H17R15137   1.026   6.011   3.413
    3OL    H17S15138   0.977   6.040   3.579
    3OL    C11815139   1.127   5.888   3.560
    3OL    H18R15140   1.213   5.863   3.498
    3OL    H18S15141   1.055   5.806   3.553
    3OL    H18T15142   1.161   5.895   3.664
    1PA    C11615143   4.435   3.627   2.879
    1PA    H16R15144   4.496   3.699   2.825
    1PA    H16S15145   4.450   3.529   2.835
    1PA    H16T15146   4.468   3.624   2.983
    1PA    C11515147   4.286   3.667   2.870
    1PA    H15R15148   4.257   3.668   2.765
    1PA    H15S15149   4.224   3.593   2.921
    1PA    C11415150   4.260   3.807   2.929
    1PA    H14R15151   4.333   3.878   2.890
    1PA    H14S15152   4.162   3.841   2.895
    1PA    C11315153   4.264   3.808   3.084
    1PA    H13R15154   4.199   3.730   3.125
    1PA    H13S15155   4.366   3.785   3.116
    1PA    C11215156   4.225   3.946   3.142
    1PA    H12R15157   4.287   3.963   3.230
    1PA    H12S15158   4.249   4.025   3.071
    1PA    C11115159   4.077   3.957   3.186
    1PA    H11R15160   4.053   3.879   3.259
    1PA    H11S15161   4.066   4.053   3.239
    1PA    C11015162   3.975   3.957   3.070
    1PA    H10R15163   3.893   4.025   3.095
    1PA    H10S15164   4.022   3.996   2.980
    1PA     C1915165   3.916   3.816   3.046
    1PA     H9R15166   3.996   3.744   3.027
    1PA     H9S15167   3.865   3.783   3.138
    1PA     C1815168   3.815   3.810   2.930
    1PA     H8R15169   3.774   3.709   2.925
    1PA     H8S15170   3.731   3.878   2.950
    1PA     C1715171   3.879   3.845   2.794
    1PA     H7R15172   3.904   3.952   2.792
    1PA     H7S15173   3.972   3.789   2.782
    1PA     C1615174   3.786   3.812   2.676
    1PA     H6R15175   3.770   3.704   2.672
    1PA     H6S15176   3.689   3.860   2.691
    1PA     C1515177   3.849   3.861   2.544
    1PA     H5R15178   3.854   3.970   2.544
    1PA     H5S15179   3.951   3.824   2.537
    1PA     C1415180   3.771   3.813   2.419
    1PA     H4R15181   3.833   3.832   2.331
    1PA     H4S15182   3.755   3.705   2.424
    1PA     C1315183   3.637   3.887   2.403
    1PA     H3R15184   3.571   3.862   2.486
    1PA     H3S15185   3.655   3.995   2.406
    1PA     C1215186   3.568   3.851   2.270
    1PA     H2R15187   3.633   3.877   2.186
    1PA     H2S15188   3.549   3.744   2.265
    2PC     C1115189   3.438   3.926   2.256
    2PC     O1215190   3.329   3.873   2.254
    2PC     O1115191   3.457   4.059   2.254
    2PC      C115192   3.345   4.146   2.286
    2PC      HR15193   3.269   4.139   2.207
    2PC      HS15194   3.300   4.114   2.380
    2PC      C215195   3.398   4.291   2.299
    2PC      HX15196   3.324   4.354   2.349
    2PC      C315197   3.430   4.349   2.160
    2PC      HA15198   3.513   4.294   2.115
    2PC      HB15199   3.343   4.341   2.095
    2PC     O3115200   3.466   4.488   2.174
    2PC     P3115201   3.495   4.571   2.042
    2PC     O3215202   3.525   4.714   2.104
    2PC     C3115203   3.491   4.829   2.024
    2PC     H1A15204   3.531   4.817   1.923
    2PC     H1B15205   3.382   4.839   2.019
    2PC     C3215206   3.552   4.955   2.090
    2PC     H2A15207   3.526   5.042   2.030
    2PC     H2B15208   3.509   4.968   2.189
    2PC     N3115209   3.702   4.959   2.107
    2PC     C3315210   3.747   4.858   2.209
    2PC     H3A15211   3.730   4.758   2.169
    2PC     H3B15212   3.853   4.873   2.227
    2PC     H3C15213   3.690   4.874   2.301
    2PC     C3415214   3.772   4.932   1.977
    2PC     H4A15215   3.740   5.007   1.904
    2PC     H4B15216   3.880   4.939   1.993
    2PC     H4C15217   3.746   4.832   1.943
    2PC     C3515218   3.743   5.094   2.157
    2PC     H5A15219   3.698   5.109   2.255
    2PC     H5B15220   3.708   5.169   2.086
    2PC     H5C15221   3.852   5.096   2.164
    2PC     O3315222   3.611   4.520   1.966
    2PC     O3415223   3.379   4.576   1.950
    2PC     O2115224   3.522   4.290   2.376
    2PC     C2115225   3.520   4.252   2.505
    2PC     O2215226   3.418   4.223   2.566
    3OL     C1215227   3.659   4.247   2.563
    3OL     H2R15228   3.697   4.349   2.572
    3OL     H2S15229   3.724   4.196   2.491
    3OL     C1315230   3.669   4.174   2.699
    3OL     H3R15231   3.774   4.151   2.718
    3OL     H3S15232   3.615   4.079   2.693
    3OL     C1415233   3.616   4.259   2.816
    3OL     H4R15234   3.509   4.279   2.801
    3OL     H4S15235   3.668   4.355   2.817
    3OL     C1515236   3.636   4.185   2.950
    3OL     H5R15237   3.743   4.164   2.964
    3OL     H5S15238   3.585   4.089   2.945
    3OL     C1615239   3.582   4.265   3.070
    3OL     H6R15240   3.579   4.199   3.157
    3OL     H6S15241   3.480   4.297   3.050
    3OL     C1715242   3.671   4.387   3.103
    3OL     H7R15243   3.671   4.456   3.018
    3OL     H7S15244   3.774   4.355   3.119
    3OL     C1815245   3.620   4.464   3.227
    3OL     H8R15246   3.515   4.490   3.214
    3OL     H8S15247   3.676   4.558   3.232
    3OL     C1915248   3.644   4.389   3.356
    3OL     H9R15249   3.749   4.376   3.383
    3OL    C11015250   3.551   4.347   3.441
    3OL    H10R15251   3.582   4.299   3.534
    3OL    C11115252   3.402   4.351   3.417
    3OL    H11R15253   3.380   4.348   3.311
    3OL    H11S15254   3.361   4.443   3.458
    3OL    C11215255   3.334   4.231   3.487
    3OL    H12R15256   3.343   4.242   3.595
    3OL    H12S15257   3.385   4.139   3.459
    3OL    C11315258   3.185   4.222   3.448
    3OL    H13R15259   3.177   4.213   3.339
    3OL    H13S15260   3.134   4.313   3.478
    3OL    C11415261   3.117   4.100   3.514
    3OL    H14R15262   3.127   4.108   3.623
    3OL    H14S15263   3.167   4.009   3.483
    3OL    C11515264   2.968   4.093   3.477
    3OL    H15R15265   2.958   4.085   3.368
    3OL    H15S15266   2.919   4.186   3.507
    3OL    C11615267   2.900   3.973   3.544
    3OL    H16R15268   2.910   3.980   3.653
    3OL    H16S15269   2.951   3.881   3.513
    3OL    C11715270   2.751   3.961   3.506
    3OL    H17R15271   2.714   3.864   3.539
    3OL    H17S15272   2.739   3.965   3.398
    3OL    C11815273   2.665   4.071   3.572
    3OL    H18R15274   2.695   4.169   3.536
    3OL    H18S15275   2.677   4.069   3.681
    3OL    H18T15276   2.560   4.056   3.548
    1PA    C11615277   2.514   0.608   3.796
    1PA    H16R15278   2.464   0.522   3.842
    1PA    H16S15279   2.441   0.689   3.787
    1PA    H16T15280   2.594   0.641   3.862
    1PA    C11515281   2.570   0.570   3.658
    1PA    H15R15282   2.624   0.655   3.616
    1PA    H15S15283   2.641   0.488   3.671
    1PA    C11415284   2.457   0.528   3.562
    1PA    H14R15285   2.399   0.446   3.606
    1PA    H14S15286   2.388   0.612   3.549
    1PA    C11315287   2.509   0.486   3.423
    1PA    H13R15288   2.425   0.478   3.355
    1PA    H13S15289   2.576   0.563   3.384
    1PA    C11215290   2.582   0.350   3.430
    1PA    H12R15291   2.675   0.361   3.486
    1PA    H12S15292   2.519   0.279   3.484
    1PA    C11115293   2.613   0.290   3.291
    1PA    H11R15294   2.657   0.191   3.306
    1PA    H11S15295   2.520   0.275   3.236
    1PA    C11015296   2.709   0.376   3.207
    1PA    H10R15297   2.660   0.470   3.180
    1PA    H10S15298   2.798   0.400   3.266
    1PA     C1915299   2.749   0.300   3.080
    1PA     H9R15300   2.801   0.208   3.109
    1PA     H9S15301   2.660   0.271   3.024
    1PA     C1815302   2.841   0.384   2.990
    1PA     H8R15303   2.787   0.471   2.952
    1PA     H8S15304   2.926   0.420   3.048
    1PA     C1715305   2.892   0.299   2.872
    1PA     H7R15306   2.946   0.213   2.911
    1PA     H7S15307   2.807   0.262   2.814
    1PA     C1615308   2.986   0.379   2.780
    1PA     H6R15309   2.933   0.465   2.739
    1PA     H6S15310   3.070   0.417   2.839
    1PA     C1515311   3.039   0.291   2.665
    1PA     H5R15312   3.089   0.203   2.706
    1PA     H5S15313   2.956   0.257   2.604
    1PA     C1415314   3.139   0.370   2.578
    1PA     H4R15315   3.090   0.459   2.540
    1PA     H4S15316   3.223   0.402   2.640
    1PA     C1315317   3.192   0.286   2.460
    1PA     H3R15318   3.241   0.196   2.497
    1PA     H3S15319   3.109   0.255   2.396
    1PA     C1215320   3.291   0.370   2.378
    1PA     H2R15321   3.242   0.460   2.340
    1PA     H2S15322   3.373   0.403   2.443
    2PC     C1115323   3.350   0.296   2.260
    2PC     O1215324   3.287   0.225   2.184
    2PC     O1115325   3.483   0.319   2.249
    2PC      C115326   3.549   0.289   2.124
    2PC      HR15327   3.527   0.186   2.093
    2PC      HS15328   3.511   0.356   2.046
    2PC      C215329   3.701   0.309   2.140
    2PC      HX15330   3.748   0.317   2.042
    2PC      C315331   3.766   0.191   2.217
    2PC      HA15332   3.821   0.230   2.303
    2PC      HB15333   3.690   0.122   2.253
    2PC     O3115334   3.861   0.121   2.132
    2PC     P3115335   3.807   0.012   2.028
    2PC     O3215336   3.771   6.340   2.126
    2PC     C3115337   3.639   6.281   2.119
    2PC     H1A15338   3.623   6.221   2.209
    2PC     H1B15339   3.565   6.361   2.118
    2PC     C3215340   3.625   6.192   1.993
    2PC     H2A15341   3.520   6.165   1.981
    2PC     H2B15342   3.656   6.248   1.905
    2PC     N3115343   3.702   6.061   1.991
    2PC     C3315344   3.676   5.993   1.859
    2PC     H3A15345   3.735   5.901   1.856
    2PC     H3B15346   3.570   5.970   1.853
    2PC     H3C15347   3.706   6.060   1.779
    2PC     C3415348   3.850   6.082   2.005
    2PC     H4A15349   3.870   6.129   2.101
    2PC     H4B15350   3.899   5.985   1.999
    2PC     H4C15351   3.884   6.147   1.923
    2PC     C3515352   3.653   5.971   2.100
    2PC     H5A15353   3.545   5.960   2.090
    2PC     H5B15354   3.680   6.014   2.196
    2PC     H5C15355   3.701   5.874   2.087
    2PC     O3315356   3.690   0.063   1.954
    2PC     O3415357   3.900   6.422   1.919
    2PC     O2115358   3.728   0.430   2.216
    2PC     C2115359   3.695   0.549   2.163
    2PC     O2215360   3.655   0.564   2.049
    3OL     C1215361   3.715   0.663   2.260
    3OL     H2R15362   3.769   0.743   2.208
    3OL     H2S15363   3.777   0.629   2.343
    3OL     C1315364   3.580   0.716   2.313
    3OL     H3R15365   3.528   0.636   2.366
    3OL     H3S15366   3.517   0.747   2.229
    3OL     C1415367   3.602   0.836   2.408
    3OL     H4R15368   3.659   0.912   2.355
    3OL     H4S15369   3.663   0.805   2.494
    3OL     C1515370   3.470   0.899   2.457
    3OL     H5R15371   3.400   0.909   2.374
    3OL     H5S15372   3.492   1.000   2.493
    3OL     C1615373   3.404   0.820   2.572
    3OL     H6R15374   3.476   0.806   2.653
    3OL     H6S15375   3.374   0.721   2.537
    3OL     C1715376   3.281   0.896   2.625
    3OL     H7R15377   3.208   0.909   2.544
    3OL     H7S15378   3.311   0.996   2.657
    3OL     C1815379   3.213   0.823   2.743
    3OL     H8R15380   3.287   0.809   2.822
    3OL     H8S15381   3.179   0.725   2.711
    3OL     C1915382   3.097   0.905   2.796
    3OL     H9R15383   3.085   1.003   2.751
    3OL    C11015384   3.009   0.864   2.886
    3OL    H10R15385   2.928   0.930   2.915
    3OL    C11115386   3.014   0.732   2.961
    3OL    H11R15387   3.115   0.689   2.956
    3OL    H11S15388   2.946   0.660   2.914
    3OL    C11215389   2.974   0.749   3.108
    3OL    H12R15390   3.031   0.830   3.152
    3OL    H12S15391   2.999   0.658   3.163
    3OL    C11315392   2.822   0.775   3.124
    3OL    H13R15393   2.768   0.688   3.088
    3OL    H13S15394   2.791   0.860   3.064
    3OL    C11415395   2.783   0.800   3.271
    3OL    H14R15396   2.834   0.727   3.335
    3OL    H14S15397   2.676   0.784   3.282
    3OL    C11515398   2.817   0.944   3.315
    3OL    H15R15399   2.759   1.013   3.253
    3OL    H15S15400   2.923   0.966   3.297
    3OL    C11615401   2.784   0.969   3.463
    3OL    H16R15402   2.683   0.933   3.486
    3OL    H16S15403   2.784   1.077   3.481
    3OL    C11715404   2.887   0.903   3.556
    3OL    H17R15405   2.987   0.937   3.531
    3OL    H17S15406   2.884   0.794   3.543
    3OL    C11815407   2.857   0.936   3.703
    3OL    H18R15408   2.930   0.887   3.769
    3OL    H18S15409   2.757   0.903   3.731
    3OL    H18T15410   2.864   1.044   3.719
    1PA    C11615411   5.575   1.938   4.200
    1PA    H16R15412   5.647   1.939   4.118
    1PA    H16S15413   5.628   1.908   4.291
    1PA    H16T15414   5.536   2.039   4.214
    1PA    C11515415   5.461   1.839   4.171
    1PA    H15R15416   5.503   1.738   4.160
    1PA    H15S15417   5.392   1.837   4.256
    1PA    C11415418   5.384   1.878   4.043
    1PA    H14R15419   5.343   1.978   4.054
    1PA    H14S15420   5.453   1.879   3.957
    1PA    C11315421   5.270   1.778   4.017
    1PA    H13R15422   5.309   1.677   4.007
    1PA    H13S15423   5.203   1.779   4.103
    1PA    C11215424   5.188   1.813   3.891
    1PA    H12R15425   5.088   1.770   3.903
    1PA    H12S15426   5.175   1.921   3.883
    1PA    C11115427   5.250   1.755   3.763
    1PA    H11R15428   5.349   1.800   3.746
    1PA    H11S15429   5.264   1.648   3.774
    1PA    C11015430   5.159   1.782   3.642
    1PA    H10R15431   5.059   1.744   3.664
    1PA    H10S15432   5.149   1.890   3.625
    1PA     C1915433   5.208   1.714   3.512
    1PA     H9R15434   5.224   1.608   3.531
    1PA     H9S15435   5.131   1.724   3.436
    1PA     C1815436   5.339   1.777   3.460
    1PA     H8R15437   5.327   1.885   3.459
    1PA     H8S15438   5.421   1.754   3.528
    1PA     C1715439   5.374   1.730   3.317
    1PA     H7R15440   5.288   1.741   3.252
    1PA     H7S15441   5.453   1.795   3.279
    1PA     C1615442   5.425   1.584   3.313
    1PA     H6R15443   5.508   1.574   3.383
    1PA     H6S15444   5.347   1.515   3.346
    1PA     C1515445   5.475   1.545   3.172
    1PA     H5R15446   5.529   1.629   3.128
    1PA     H5S15447   5.546   1.463   3.182
    1PA     C1415448   5.361   1.500   3.078
    1PA     H4R15449   5.314   1.411   3.120
    1PA     H4S15450   5.284   1.578   3.072
    1PA     C1315451   5.415   1.469   2.937
    1PA     H3R15452   5.442   1.562   2.887
    1PA     H3S15453   5.506   1.409   2.945
    1PA     C1215454   5.310   1.394   2.853
    1PA     H2R15455   5.279   1.303   2.905
    1PA     H2S15456   5.221   1.456   2.840
    2PC     C1115457   5.360   1.353   2.715
    2PC     O1215458   5.475   1.362   2.677
    2PC     O1115459   5.258   1.308   2.639
    2PC      C115460   5.283   1.263   2.502
    2PC      HR15461   5.187   1.245   2.453
    2PC      HS15462   5.335   1.343   2.448
    2PC      C215463   5.367   1.133   2.498
    2PC      HX15464   5.456   1.143   2.560
    2PC      C315465   5.414   1.103   2.354
    2PC      HA15466   5.500   1.167   2.330
    2PC      HB15467   5.445   0.998   2.347
    2PC     O3115468   5.309   1.129   2.258
    2PC     P3115469   5.341   1.118   2.103
    2PC     O3215470   5.327   0.961   2.080
    2PC     C3115471   5.446   0.885   2.054
    2PC     H1A15472   5.504   0.932   1.975
    2PC     H1B15473   5.507   0.881   2.145
    2PC     C3215474   5.406   0.743   2.012
    2PC     H2A15475   5.495   0.681   2.005
    2PC     H2B15476   5.341   0.700   2.089
    2PC     N3115477   5.333   0.727   1.880
    2PC     C3315478   5.416   0.782   1.768
    2PC     H3A15479   5.514   0.735   1.770
    2PC     H3B15480   5.365   0.760   1.674
    2PC     H3C15481   5.426   0.890   1.781
    2PC     C3415482   5.312   0.581   1.855
    2PC     H4A15483   5.408   0.531   1.859
    2PC     H4B15484   5.247   0.542   1.933
    2PC     H4C15485   5.265   0.569   1.757
    2PC     C3515486   5.198   0.792   1.882
    2PC     H5A15487   5.140   0.746   1.962
    2PC     H5B15488   5.150   0.774   1.785
    2PC     H5C15489   5.210   0.898   1.899
    2PC     O3315490   5.243   1.188   2.017
    2PC     O3415491   5.474   1.171   2.066
    2PC     O2115492   5.288   1.020   2.545
    2PC     C2115493   5.290   0.990   2.676
    2PC     O2215494   5.351   1.052   2.761
    3OL     C1215495   5.210   0.866   2.708
    3OL     H2R15496   5.178   0.819   2.615
    3OL     H2S15497   5.120   0.896   2.762
    3OL     C1315498   5.291   0.764   2.792
    3OL     H3R15499   5.321   0.810   2.886
    3OL     H3S15500   5.382   0.736   2.738
    3OL     C1415501   5.206   0.639   2.820
    3OL     H4R15502   5.178   0.593   2.725
    3OL     H4S15503   5.114   0.669   2.871
    3OL     C1515504   5.281   0.534   2.906
    3OL     H5R15505   5.313   0.580   3.000
    3OL     H5S15506   5.369   0.498   2.854
    3OL     C1615507   5.186   0.417   2.936
    3OL     H6R15508   5.156   0.370   2.842
    3OL     H6S15509   5.096   0.456   2.984
    3OL     C1715510   5.247   0.310   3.029
    3OL     H7R15511   5.276   0.356   3.124
    3OL     H7S15512   5.337   0.267   2.984
    3OL     C1815513   5.143   0.199   3.055
    3OL     H8R15514   5.121   0.150   2.960
    3OL     H8S15515   5.051   0.246   3.091
    3OL     C1915516   5.191   0.096   3.155
    3OL     H9R15517   5.297   0.077   3.155
    3OL    C11015518   5.113   0.033   3.242
    3OL    H10R15519   5.156   6.410   3.312
    3OL    C11115520   4.962   0.048   3.251
    3OL    H11R15521   4.916   0.002   3.163
    3OL    H11S15522   4.935   0.154   3.251
    3OL    C11215523   4.904   6.431   3.378
    3OL    H12R15524   4.951   0.029   3.465
    3OL    H12S15525   4.929   6.324   3.381
    3OL    C11315526   4.751   0.002   3.387
    3OL    H13R15527   4.726   0.105   3.360
    3OL    H13S15528   4.720   6.436   3.490
    3OL    C11415529   4.674   6.351   3.298
    3OL    H14R15530   4.687   6.249   3.337
    3OL    H14S15531   4.714   6.352   3.197
    3OL    C11515532   4.524   6.387   3.293
    3OL    H15R15533   4.515   0.040   3.254
    3OL    H15S15534   4.482   6.387   3.394
    3OL    C11615535   4.444   6.292   3.201
    3OL    H16R15536   4.503   6.270   3.112
    3OL    H16S15537   4.353   6.344   3.166
    3OL    C11715538   4.403   6.160   3.269
    3OL    H17R15539   4.488   6.116   3.320
    3OL    H17S15540   4.370   6.090   3.193
    3OL    C11815541   4.287   6.180   3.369
    3OL    H18R15542   4.316   6.245   3.451
    3OL    H18S15543   4.256   6.084   3.410
    3OL    H18T15544   4.200   6.225   3.319
    1PA    C11615545   4.305   4.778   3.702
    1PA    H16R15546   4.302   4.788   3.811
    1PA    H16S15547   4.403   4.737   3.674
    1PA    H16T15548   4.228   4.708   3.672
    1PA    C11515549   4.284   4.916   3.637
    1PA    H15R15550   4.186   4.955   3.665
    1PA    H15S15551   4.359   4.985   3.676
    1PA    C11415552   4.296   4.912   3.483
    1PA    H14R15553   4.293   5.014   3.446
    1PA    H14S15554   4.393   4.870   3.454
    1PA    C11315555   4.183   4.831   3.418
    1PA    H13R15556   4.191   4.726   3.448
    1PA    H13S15557   4.086   4.868   3.453
    1PA    C11215558   4.188   4.840   3.264
    1PA    H12R15559   4.171   4.943   3.233
    1PA    H12S15560   4.287   4.810   3.228
    1PA    C11115561   4.081   4.749   3.200
    1PA    H11R15562   4.102   4.645   3.224
    1PA    H11S15563   3.983   4.773   3.243
    1PA    C11015564   4.075   4.768   3.047
    1PA    H10R15565   4.051   4.872   3.026
    1PA    H10S15566   4.173   4.749   3.003
    1PA     C1915567   3.967   4.679   2.981
    1PA     H9R15568   3.889   4.654   3.052
    1PA     H9S15569   3.920   4.736   2.901
    1PA     C1815570   4.024   4.550   2.917
    1PA     H8R15571   3.944   4.501   2.861
    1PA     H8S15572   4.101   4.578   2.844
    1PA     C1715573   4.082   4.450   3.020
    1PA     H7R15574   4.165   4.496   3.074
    1PA     H7S15575   4.005   4.427   3.094
    1PA     C1615576   4.130   4.319   2.954
    1PA     H6R15577   4.152   4.246   3.032
    1PA     H6S15578   4.050   4.278   2.891
    1PA     C1515579   4.257   4.342   2.869
    1PA     H5R15580   4.237   4.415   2.791
    1PA     H5S15581   4.337   4.382   2.932
    1PA     C1415582   4.306   4.211   2.804
    1PA     H4R15583   4.330   4.137   2.880
    1PA     H4S15584   4.226   4.170   2.741
    1PA     C1315585   4.430   4.239   2.718
    1PA     H3R15586   4.408   4.320   2.647
    1PA     H3S15587   4.512   4.273   2.782
    1PA     C1215588   4.475   4.114   2.639
    1PA     H2R15589   4.507   4.036   2.708
    1PA     H2S15590   4.391   4.075   2.581
    2PC     C1115591   4.587   4.149   2.545
    2PC     O1215592   4.571   4.166   2.425
    2PC     O1115593   4.707   4.161   2.606
    2PC      C115594   4.823   4.196   2.526
    2PC      HR15595   4.913   4.179   2.585
    2PC      HS15596   4.826   4.130   2.439
    2PC      C215597   4.820   4.345   2.481
    2PC      HX15598   4.718   4.376   2.455
    2PC      C315599   4.911   4.365   2.359
    2PC      HA15600   5.017   4.362   2.389
    2PC      HB15601   4.892   4.286   2.287
    2PC     O3115602   4.882   4.492   2.294
    2PC     P3115603   4.946   4.516   2.150
    2PC     O3215604   4.842   4.439   2.060
    2PC     C3115605   4.720   4.505   2.022
    2PC     H1A15606   4.681   4.559   2.109
    2PC     H1B15607   4.740   4.577   1.942
    2PC     C3215608   4.615   4.400   1.978
    2PC     H2A15609   4.600   4.330   2.060
    2PC     H2B15610   4.521   4.451   1.960
    2PC     N3115611   4.642   4.317   1.855
    2PC     C3315612   4.765   4.232   1.870
    2PC     H3A15613   4.753   4.171   1.960
    2PC     H3B15614   4.774   4.168   1.782
    2PC     H3C15615   4.852   4.297   1.880
    2PC     C3415616   4.525   4.226   1.834
    2PC     H4A15617   4.435   4.286   1.824
    2PC     H4B15618   4.543   4.166   1.745
    2PC     H4C15619   4.517   4.161   1.922
    2PC     C3515620   4.657   4.404   1.733
    2PC     H5A15621   4.567   4.465   1.723
    2PC     H5B15622   4.668   4.339   1.646
    2PC     H5C15623   4.745   4.467   1.745
    2PC     O3315624   4.964   4.658   2.112
    2PC     O3415625   5.080   4.456   2.138
    2PC     O2115626   4.872   4.424   2.590
    2PC     C2115627   4.790   4.463   2.689
    2PC     O2215628   4.669   4.454   2.685
    3OL     C1215629   4.867   4.521   2.805
    3OL     H2R15630   4.940   4.593   2.766
    3OL     H2S15631   4.923   4.440   2.853
    3OL     C1315632   4.777   4.591   2.910
    3OL     H3R15633   4.703   4.520   2.948
    3OL     H3S15634   4.723   4.673   2.863
    3OL     C1415635   4.863   4.642   3.027
    3OL     H4R15636   4.938   4.713   2.990
    3OL     H4S15637   4.917   4.558   3.071
    3OL     C1515638   4.780   4.709   3.139
    3OL     H5R15639   4.844   4.721   3.226
    3OL     H5S15640   4.697   4.644   3.168
    3OL     C1615641   4.726   4.848   3.097
    3OL     H6R15642   4.652   4.837   3.018
    3OL     H6S15643   4.808   4.909   3.058
    3OL     C1715644   4.663   4.920   3.219
    3OL     H7R15645   4.739   4.929   3.297
    3OL     H7S15646   4.582   4.859   3.260
    3OL     C1815647   4.611   5.060   3.184
    3OL     H8R15648   4.689   5.114   3.130
    3OL     H8S15649   4.594   5.114   3.277
    3OL     C1915650   4.484   5.055   3.102
    3OL     H9R15651   4.489   4.992   3.013
    3OL    C11015652   4.370   5.119   3.128
    3OL    H10R15653   4.286   5.104   3.061
    3OL    C11115654   4.341   5.211   3.245
    3OL    H11R15655   4.419   5.209   3.321
    3OL    H11S15656   4.250   5.176   3.293
    3OL    C11215657   4.318   5.356   3.198
    3OL    H12R15658   4.249   5.356   3.114
    3OL    H12S15659   4.412   5.400   3.165
    3OL    C11315660   4.258   5.441   3.313
    3OL    H13R15661   4.332   5.452   3.392
    3OL    H13S15662   4.173   5.388   3.356
    3OL    C11415663   4.212   5.579   3.262
    3OL    H14R15664   4.152   5.566   3.172
    3OL    H14S15665   4.298   5.640   3.234
    3OL    C11515666   4.126   5.652   3.368
    3OL    H15R15667   4.051   5.583   3.407
    3OL    H15S15668   4.072   5.733   3.318
    3OL    C11615669   4.210   5.711   3.483
    3OL    H16R15670   4.271   5.794   3.445
    3OL    H16S15671   4.279   5.635   3.520
    3OL    C11715672   4.122   5.759   3.600
    3OL    H17R15673   4.186   5.789   3.682
    3OL    H17S15674   4.062   5.675   3.635
    3OL    C11815675   4.030   5.876   3.562
    3OL    H18R15676   4.088   5.960   3.524
    3OL    H18S15677   3.975   5.911   3.650
    3OL    H18T15678   3.957   5.846   3.486
    1PA    C11615679   6.377   0.293   3.584
    1PA    H16R15680   6.316   0.377   3.617
    1PA    H16S15681   6.364   0.211   3.655
    1PA    H16T15682   6.340   0.261   3.486
    1PA    C11515683   0.077   0.334   3.576
    1PA    H15R15684   0.087   0.418   3.508
    1PA    H15S15685   0.111   0.366   3.674
    1PA    C11415686   0.165   0.217   3.526
    1PA    H14R15687   0.155   0.132   3.594
    1PA    H14S15688   0.131   0.186   3.427
    1PA    C11315689   0.313   0.261   3.519
    1PA    H13R15690   0.323   0.349   3.456
    1PA    H13S15691   0.345   0.290   3.619
    1PA    C11215692   0.407   0.149   3.469
    1PA    H12R15693   0.510   0.182   3.481
    1PA    H12S15694   0.394   0.061   3.533
    1PA    C11115695   0.385   0.108   3.321
    1PA    H11R15696   0.455   0.029   3.296
    1PA    H11S15697   0.285   0.067   3.309
    1PA    C11015698   0.404   0.226   3.223
    1PA    H10R15699   0.323   0.298   3.236
    1PA    H10S15700   0.498   0.277   3.245
    1PA     C1915701   0.407   0.177   3.077
    1PA     H9R15702   0.495   0.114   3.061
    1PA     H9S15703   0.318   0.117   3.056
    1PA     C1815704   0.411   0.297   2.979
    1PA     H8R15705   0.315   0.350   2.985
    1PA     H8S15706   0.489   0.367   3.010
    1PA     C1715707   0.438   0.253   2.834
    1PA     H7R15708   0.540   0.216   2.826
    1PA     H7S15709   0.371   0.171   2.807
    1PA     C1615710   0.416   0.370   2.736
    1PA     H6R15711   0.310   0.396   2.737
    1PA     H6S15712   0.470   0.459   2.771
    1PA     C1515713   0.459   0.335   2.592
    1PA     H5R15714   0.452   0.227   2.575
    1PA     H5S15715   0.389   0.383   2.523
    1PA     C1415716   0.601   0.386   2.562
    1PA     H4R15717   0.605   0.492   2.585
    1PA     H4S15718   0.673   0.335   2.627
    1PA     C1315719   0.639   0.364   2.414
    1PA     H3R15720   0.646   0.258   2.392
    1PA     H3S15721   0.561   0.407   2.351
    1PA     C1215722   0.773   0.434   2.382
    1PA     H2R15723   0.776   0.532   2.428
    1PA     H2S15724   0.857   0.376   2.422
    2PC     C1115725   0.794   0.452   2.233
    2PC     O1215726   0.756   0.374   2.148
    2PC     O1115727   0.853   0.570   2.205
    2PC      C115728   0.878   0.602   2.066
    2PC      HR15729   0.942   0.526   2.021
    2PC      HS15730   0.783   0.606   2.012
    2PC      C215731   0.947   0.740   2.058
    2PC      HX15732   0.900   0.806   2.132
    2PC      C315733   0.934   0.801   1.918
    2PC      HA15734   0.831   0.837   1.904
    2PC      HB15735   1.002   0.886   1.907
    2PC     O3115736   0.964   0.701   1.817
    2PC     P3115737   0.942   0.739   1.664
    2PC     O3215738   1.073   0.823   1.634
    2PC     C3115739   1.061   0.945   1.558
    2PC     H1A15740   1.002   0.928   1.468
    2PC     H1B15741   1.012   1.020   1.620
    2PC     C3215742   1.204   0.993   1.522
    2PC     H2A15743   1.199   1.096   1.486
    2PC     H2B15744   1.266   0.991   1.611
    2PC     N3115745   1.279   0.915   1.415
    2PC     C3315746   1.212   0.930   1.281
    2PC     H3A15747   1.208   1.036   1.256
    2PC     H3B15748   1.272   0.876   1.207
    2PC     H3C15749   1.112   0.887   1.286
    2PC     C3415750   1.419   0.969   1.406
    2PC     H4A15751   1.414   1.074   1.377
    2PC     H4B15752   1.466   0.958   1.503
    2PC     H4C15753   1.473   0.911   1.331
    2PC     C3515754   1.287   0.769   1.449
    2PC     H5A15755   1.353   0.721   1.376
    2PC     H5B15756   1.187   0.726   1.444
    2PC     H5C15757   1.328   0.760   1.550
    2PC     O3315758   0.935   0.621   1.574
    2PC     O3415759   0.814   0.812   1.643
    2PC     O2115760   1.087   0.721   2.090
    2PC     C2115761   1.158   0.825   2.139
    2PC     O2215762   1.111   0.936   2.160
    3OL     C1215763   1.303   0.793   2.164
    3OL     H2R15764   1.348   0.871   2.225
    3OL     H2S15765   1.354   0.795   2.067
    3OL     C1315766   1.328   0.655   2.228
    3OL     H3R15767   1.435   0.634   2.222
    3OL     H3S15768   1.278   0.576   2.170
    3OL     C1415769   1.286   0.646   2.376
    3OL     H4R15770   1.321   0.734   2.431
    3OL     H4S15771   1.337   0.560   2.420
    3OL     C1515772   1.134   0.629   2.396
    3OL     H5R15773   1.094   0.556   2.325
    3OL     H5S15774   1.084   0.724   2.376
    3OL     C1615775   1.098   0.585   2.540
    3OL     H6R15776   0.991   0.600   2.555
    3OL     H6S15777   1.151   0.647   2.612
    3OL     C1715778   1.130   0.435   2.563
    3OL     H7R15779   1.236   0.417   2.548
    3OL     H7S15780   1.075   0.374   2.491
    3OL     C1815781   1.091   0.391   2.706
    3OL     H8R15782   0.985   0.410   2.723
    3OL     H8S15783   1.146   0.453   2.777
    3OL     C1915784   1.127   0.245   2.728
    3OL     H9R15785   1.233   0.223   2.719
    3OL    C11015786   1.043   0.147   2.759
    3OL    H10R15787   1.082   0.047   2.775
    3OL    C11115788   0.892   0.159   2.771
    3OL    H11R15789   0.845   0.070   2.729
    3OL    H11S15790   0.857   0.243   2.711
    3OL    C11215791   0.847   0.178   2.917
    3OL    H12R15792   0.741   0.205   2.917
    3OL    H12S15793   0.901   0.261   2.962
    3OL    C11315794   0.867   0.051   3.001
    3OL    H13R15795   0.973   0.024   3.005
    3OL    H13S15796   0.813   6.415   2.955
    3OL    C11415797   0.814   0.073   3.145
    3OL    H14R15798   0.710   0.106   3.140
    3OL    H14S15799   0.872   0.152   3.192
    3OL    C11515800   0.823   6.393   3.230
    3OL    H15R15801   0.927   6.358   3.233
    3OL    H15S15802   0.763   6.314   3.183
    3OL    C11615803   0.772   6.420   3.372
    3OL    H16R15804   0.671   0.013   3.368
    3OL    H16S15805   0.836   0.046   3.420
    3OL    C11715806   0.771   6.291   3.457
    3OL    H17R15807   0.872   6.250   3.463
    3OL    H17S15808   0.707   6.216   3.409
    3OL    C11815809   0.718   6.319   3.599
    3OL    H18R15810   0.781   6.392   3.649
    3OL    H18S15811   0.718   6.227   3.658
    3OL    H18T15812   0.616   6.358   3.595
    1PA    C11615813   3.282   5.483   3.543
    1PA    H16R15814   3.180   5.457   3.574
    1PA    H16S15815   3.275   5.550   3.457
    1PA    H16T15816   3.329   5.538   3.625
    1PA    C11515817   3.363   5.357   3.510
    1PA    H15R15818   3.466   5.385   3.485
    1PA    H15S15819   3.367   5.292   3.597
    1PA    C11415820   3.300   5.281   3.392
    1PA    H14R15821   3.198   5.252   3.417
    1PA    H14S15822   3.296   5.346   3.304
    1PA    C11315823   3.382   5.155   3.358
    1PA    H13R15824   3.481   5.183   3.322
    1PA    H13S15825   3.396   5.096   3.449
    1PA    C11215826   3.312   5.066   3.253
    1PA    H12R15827   3.363   4.970   3.248
    1PA    H12S15828   3.210   5.045   3.287
    1PA    C11115829   3.308   5.130   3.113
    1PA    H11R15830   3.255   5.225   3.117
    1PA    H11S15831   3.410   5.151   3.079
    1PA    C11015832   3.238   5.036   3.013
    1PA    H10R15833   3.297   4.945   3.003
    1PA    H10S15834   3.140   5.009   3.052
    1PA     C1915835   3.222   5.103   2.875
    1PA     H9R15836   3.169   5.197   2.888
    1PA     H9S15837   3.320   5.125   2.833
    1PA     C1815838   3.143   5.011   2.780
    1PA     H8R15839   3.198   4.917   2.767
    1PA     H8S15840   3.047   4.984   2.825
    1PA     C1715841   3.121   5.074   2.641
    1PA     H7R15842   3.218   5.098   2.597
    1PA     H7S15843   3.074   5.000   2.575
    1PA     C1615844   3.034   5.203   2.642
    1PA     H6R15845   3.085   5.280   2.699
    1PA     H6S15846   3.026   5.240   2.540
    1PA     C1515847   2.892   5.184   2.700
    1PA     H5R15848   2.896   5.148   2.803
    1PA     H5S15849   2.842   5.281   2.702
    1PA     C1415850   2.806   5.088   2.614
    1PA     H4R15851   2.810   5.122   2.510
    1PA     H4S15852   2.848   4.987   2.617
    1PA     C1315853   2.660   5.084   2.663
    1PA     H3R15854   2.657   5.050   2.766
    1PA     H3S15855   2.618   5.185   2.660
    1PA     C1215856   2.573   4.990   2.576
    1PA     H2R15857   2.611   4.888   2.582
    1PA     H2S15858   2.471   4.990   2.613
    2PC     C1115859   2.572   5.034   2.432
    2PC     O1215860   2.638   4.979   2.345
    2PC     O1115861   2.498   5.145   2.411
    2PC      C115862   2.498   5.202   2.278
    2PC      HR15863   2.600   5.225   2.248
    2PC      HS15864   2.454   5.130   2.208
    2PC      C215865   2.416   5.333   2.277
    2PC      HX15866   2.315   5.317   2.316
    2PC      C315867   2.406   5.386   2.133
    2PC      HA15868   2.504   5.424   2.102
    2PC      HB15869   2.374   5.307   2.064
    2PC     O3115870   2.308   5.493   2.130
    2PC     P3115871   2.312   5.596   2.009
    2PC     O3215872   2.311   5.499   1.884
    2PC     C3115873   2.186   5.434   1.851
    2PC     H1A15874   2.155   5.373   1.936
    2PC     H1B15875   2.110   5.510   1.831
    2PC     C3215876   2.210   5.345   1.728
    2PC     H2A15877   2.300   5.286   1.743
    2PC     H2B15878   2.125   5.277   1.717
    2PC     N3115879   2.224   5.414   1.594
    2PC     C3315880   2.093   5.476   1.553
    2PC     H3A15881   2.068   5.556   1.623
    2PC     H3B15882   2.103   5.515   1.452
    2PC     H3C15883   2.016   5.398   1.557
    2PC     C3415884   2.330   5.520   1.597
    2PC     H4A15885   2.339   5.563   1.497
    2PC     H4B15886   2.300   5.598   1.668
    2PC     H4C15887   2.424   5.475   1.628
    2PC     C3515888   2.263   5.310   1.493
    2PC     H5A15889   2.360   5.269   1.522
    2PC     H5B15890   2.271   5.359   1.395
    2PC     H5C15891   2.187   5.232   1.491
    2PC     O3315892   2.197   5.689   2.005
    2PC     O3415893   2.434   5.680   2.013
    2PC     O2115894   2.486   5.435   2.351
    2PC     C2115895   2.477   5.443   2.485
    2PC     O2215896   2.407   5.372   2.554
    3OL     C1215897   2.564   5.555   2.538
    3OL     H2R15898   2.517   5.650   2.509
    3OL     H2S15899   2.660   5.551   2.487
    3OL     C1315900   2.585   5.551   2.690
    3OL     H3R15901   2.645   5.464   2.717
    3OL     H3S15902   2.488   5.541   2.741
    3OL     C1415903   2.654   5.680   2.738
    3OL     H4R15904   2.590   5.765   2.711
    3OL     H4S15905   2.749   5.694   2.686
    3OL     C1515906   2.675   5.683   2.891
    3OL     H5R15907   2.607   5.614   2.941
    3OL     H5S15908   2.650   5.783   2.927
    3OL     C1615909   2.821   5.654   2.934
    3OL     H6R15910   2.828   5.669   3.041
    3OL     H6S15911   2.888   5.725   2.886
    3OL     C1715912   2.867   5.510   2.900
    3OL     H7R15913   2.867   5.497   2.792
    3OL     H7S15914   2.797   5.438   2.943
    3OL     C1815915   3.009   5.482   2.953
    3OL     H8R15916   3.079   5.553   2.908
    3OL     H8S15917   3.041   5.383   2.919
    3OL     C1915918   3.018   5.492   3.104
    3OL     H9R15919   3.043   5.591   3.141
    3OL    C11015920   2.999   5.393   3.191
    3OL    H10R15921   3.008   5.414   3.297
    3OL    C11115922   2.963   5.250   3.156
    3OL    H11R15923   3.034   5.184   3.205
    3OL    H11S15924   2.971   5.232   3.049
    3OL    C11215925   2.821   5.215   3.203
    3OL    H12R15926   2.752   5.291   3.166
    3OL    H12S15927   2.815   5.215   3.312
    3OL    C11315928   2.775   5.078   3.148
    3OL    H13R15929   2.788   5.077   3.040
    3OL    H13S15930   2.668   5.065   3.168
    3OL    C11415931   2.852   4.960   3.212
    3OL    H14R15932   2.832   4.959   3.319
    3OL    H14S15933   2.960   4.973   3.199
    3OL    C11515934   2.810   4.824   3.152
    3OL    H15R15935   2.701   4.815   3.154
    3OL    H15S15936   2.851   4.744   3.215
    3OL    C11615937   2.863   4.805   3.008
    3OL    H16R15938   2.972   4.817   3.009
    3OL    H16S15939   2.823   4.881   2.942
    3OL    C11715940   2.830   4.665   2.952
    3OL    H17R15941   2.858   4.588   3.023
    3OL    H17S15942   2.889   4.649   2.861
    3OL    C11815943   2.680   4.651   2.915
    3OL    H18R15944   2.662   4.554   2.870
    3OL    H18S15945   2.651   4.729   2.844
    3OL    H18T15946   2.618   4.660   3.004
    1PA    C11615947   3.049   0.579   3.691
    1PA    H16R15948   3.001   0.644   3.765
    1PA    H16S15949   3.104   0.643   3.621
    1PA    H16T15950   3.120   0.514   3.742
    1PA    C11515951   2.942   0.496   3.617
    1PA    H15R15952   2.884   0.440   3.691
    1PA    H15S15953   2.873   0.562   3.565
    1PA    C11415954   3.004   0.395   3.518
    1PA    H14R15955   3.079   0.335   3.569
    1PA    H14S15956   2.926   0.327   3.484
    1PA    C11315957   3.067   0.464   3.395
    1PA    H13R15958   2.991   0.523   3.343
    1PA    H13S15959   3.146   0.533   3.427
    1PA    C11215960   3.127   0.359   3.299
    1PA    H12R15961   3.198   0.297   3.354
    1PA    H12S15962   3.047   0.294   3.263
    1PA    C11115963   3.199   0.424   3.180
    1PA    H11R15964   3.128   0.481   3.119
    1PA    H11S15965   3.275   0.494   3.216
    1PA    C11015966   3.266   0.316   3.093
    1PA    H10R15967   3.330   0.254   3.155
    1PA    H10S15968   3.189   0.252   3.049
    1PA     C1915969   3.351   0.378   2.980
    1PA     H9R15970   3.288   0.438   2.914
    1PA     H9S15971   3.425   0.445   3.025
    1PA     C1815972   3.422   0.268   2.900
    1PA     H8R15973   3.485   0.208   2.967
    1PA     H8S15974   3.347   0.200   2.858
    1PA     C1715975   3.509   0.322   2.784
    1PA     H7R15976   3.548   0.238   2.728
    1PA     H7S15977   3.446   0.380   2.716
    1PA     C1615978   3.625   0.411   2.834
    1PA     H6R15979   3.585   0.501   2.879
    1PA     H6S15980   3.684   0.359   2.910
    1PA     C1515981   3.716   0.453   2.716
    1PA     H5R15982   3.656   0.475   2.628
    1PA     H5S15983   3.768   0.545   2.744
    1PA     C1415984   3.821   0.344   2.684
    1PA     H4R15985   3.892   0.335   2.767
    1PA     H4S15986   3.771   0.248   2.673
    1PA     C1315987   3.898   0.373   2.554
    1PA     H3R15988   3.961   0.287   2.530
    1PA     H3S15989   3.826   0.385   2.472
    1PA     C1215990   3.987   0.499   2.562
    1PA     H2R15991   3.926   0.587   2.585
    1PA     H2S15992   4.060   0.488   2.642
    2PC     C1115993   4.059   0.525   2.433
    2PC     O1215994   4.037   0.465   2.329
    2PC     O1115995   4.151   0.624   2.443
    2PC      C115996   4.220   0.660   2.321
    2PC      HR15997   4.271   0.572   2.280
    2PC      HS15998   4.145   0.694   2.248
    2PC      C215999   4.323   0.772   2.343
    2PC      HX16000   4.278   0.851   2.404
    2PC      C316001   4.365   0.831   2.206
    2PC      HA16002   4.282   0.892   2.168
    2PC      HB16003   4.453   0.895   2.214
    2PC     O3116004   4.391   0.723   2.112
    2PC     P3116005   4.396   0.755   1.955
    2PC     O3216006   4.259   0.695   1.902
    2PC     C3116007   4.210   0.571   1.957
    2PC     H1A16008   4.287   0.493   1.950
    2PC     H1B16009   4.184   0.586   2.062
    2PC     C3216010   4.082   0.529   1.881
    2PC     H2A16011   4.022   0.463   1.944
    2PC     H2B16012   4.022   0.618   1.859
    2PC     N3116013   4.100   0.455   1.750
    2PC     C3316014   4.185   0.534   1.654
    2PC     H3A16015   4.191   0.478   1.560
    2PC     H3B16016   4.138   0.631   1.638
    2PC     H3C16017   4.285   0.546   1.697
    2PC     C3416018   4.163   0.320   1.775
    2PC     H4A16019   4.166   0.266   1.680
    2PC     H4B16020   4.263   0.334   1.815
    2PC     H4C16021   4.100   0.266   1.846
    2PC     C3516022   3.966   0.433   1.687
    2PC     H5A16023   3.905   0.373   1.755
    2PC     H5B16024   3.980   0.379   1.593
    2PC     H5C16025   3.919   0.530   1.670
    2PC     O3316026   4.400   0.900   1.928
    2PC     O3416027   4.512   0.698   1.885
    2PC     O2116028   4.437   0.716   2.412
    2PC     C2116029   4.532   0.798   2.463
    2PC     O2216030   4.530   0.919   2.450
    3OL     C1216031   4.640   0.725   2.538
    3OL     H2R16032   4.735   0.741   2.488
    3OL     H2S16033   4.619   0.619   2.537
    3OL     C1316034   4.648   0.777   2.684
    3OL     H3R16035   4.552   0.763   2.734
    3OL     H3S16036   4.669   0.884   2.682
    3OL     C1416037   4.759   0.706   2.763
    3OL     H4R16038   4.774   0.760   2.858
    3OL     H4S16039   4.854   0.711   2.708
    3OL     C1516040   4.724   0.559   2.794
    3OL     H5R16041   4.712   0.504   2.701
    3OL     H5S16042   4.630   0.556   2.849
    3OL     C1616043   4.835   0.493   2.877
    3OL     H6R16044   4.843   0.543   2.974
    3OL     H6S16045   4.930   0.506   2.826
    3OL     C1716046   4.811   0.342   2.898
    3OL     H7R16047   4.896   0.302   2.954
    3OL     H7S16048   4.810   0.291   2.802
    3OL     C1816049   4.681   0.310   2.975
    3OL     H8R16050   4.595   0.327   2.910
    3OL     H8S16051   4.671   0.378   3.060
    3OL     C1916052   4.684   0.168   3.026
    3OL     H9R16053   4.709   0.158   3.131
    3OL    C11016054   4.661   0.059   2.954
    3OL    H10R16055   4.667   6.409   3.003
    3OL    C11116056   4.625   0.052   2.807
    3OL    H11R16057   4.706   0.003   2.752
    3OL    H11S16058   4.613   0.152   2.763
    3OL    C11216059   4.497   6.418   2.787
    3OL    H12R16060   4.505   6.324   2.841
    3OL    H12S16061   4.485   6.394   2.681
    3OL    C11316062   4.373   0.048   2.835
    3OL    H13R16063   4.355   0.131   2.767
    3OL    H13S16064   4.392   0.090   2.934
    3OL    C11416065   4.247   6.408   2.843
    3OL    H14R16066   4.265   6.326   2.913
    3OL    H14S16067   4.227   6.364   2.745
    3OL    C11516068   4.127   0.043   2.889
    3OL    H15R16069   4.104   0.119   2.813
    3OL    H15S16070   4.153   0.096   2.981
    3OL    C11616071   4.003   6.403   2.914
    3OL    H16R16072   4.024   6.331   2.993
    3OL    H16S16073   3.982   6.345   2.823
    3OL    C11716074   3.878   0.037   2.950
    3OL    H17R16075   3.792   6.418   2.956
    3OL    H17S16076   3.857   0.110   2.872
    3OL    C11816077   3.892   0.110   3.085
    3OL    H18R16078   3.970   0.187   3.080
    3OL    H18S16079   3.917   0.040   3.165
    3OL    H18T16080   3.798   0.159   3.112
    1PA    C11616081   1.043   2.336   3.720
    1PA    H16R16082   1.052   2.443   3.704
    1PA    H16S16083   1.121   2.304   3.790
    1PA    H16T16084   0.946   2.315   3.766
    1PA    C11516085   1.057   2.260   3.587
    1PA    H15R16086   1.157   2.277   3.546
    1PA    H15S16087   1.046   2.153   3.604
    1PA    C11416088   0.951   2.308   3.485
    1PA    H14R16089   0.851   2.295   3.528
    1PA    H14S16090   0.965   2.414   3.466
    1PA    C11316091   0.961   2.228   3.354
    1PA    H13R16092   1.060   2.240   3.309
    1PA    H13S16093   0.949   2.122   3.377
    1PA    C11216094   0.850   2.269   3.254
    1PA    H12R16095   0.839   2.190   3.179
    1PA    H12S16096   0.756   2.275   3.307
    1PA    C11116097   0.876   2.404   3.183
    1PA    H11R16098   0.786   2.433   3.127
    1PA    H11S16099   0.892   2.482   3.258
    1PA    C11016100   0.996   2.404   3.085
    1PA    H10R16101   1.011   2.505   3.048
    1PA    H10S16102   1.087   2.376   3.138
    1PA     C1916103   0.975   2.309   2.964
    1PA     H9R16104   0.962   2.207   3.002
    1PA     H9S16105   0.884   2.336   2.910
    1PA     C1816106   1.096   2.310   2.869
    1PA     H8R16107   1.188   2.309   2.927
    1PA     H8S16108   1.095   2.218   2.809
    1PA     C1716109   1.095   2.430   2.773
    1PA     H7R16110   1.008   2.426   2.707
    1PA     H7S16111   1.087   2.522   2.832
    1PA     C1616112   1.225   2.438   2.690
    1PA     H6R16113   1.239   2.541   2.656
    1PA     H6S16114   1.310   2.415   2.755
    1PA     C1516115   1.229   2.345   2.566
    1PA     H5R16116   1.333   2.338   2.533
    1PA     H5S16117   1.197   2.244   2.592
    1PA     C1416118   1.145   2.401   2.450
    1PA     H4R16119   1.038   2.387   2.470
    1PA     H4S16120   1.162   2.509   2.443
    1PA     C1316121   1.182   2.341   2.313
    1PA     H3R16122   1.136   2.402   2.236
    1PA     H3S16123   1.290   2.346   2.298
    1PA     C1216124   1.136   2.194   2.294
    1PA     H2R16125   1.191   2.128   2.361
    1PA     H2S16126   1.030   2.185   2.319
    2PC     C1116127   1.155   2.149   2.151
    2PC     O1216128   1.155   2.224   2.055
    2PC     O1116129   1.175   2.015   2.140
    2PC      C116130   1.200   1.958   2.008
    2PC      HR16131   1.198   1.849   2.015
    2PC      HS16132   1.120   1.991   1.940
    2PC      C216133   1.338   2.004   1.954
    2PC      HX16134   1.353   2.111   1.971
    2PC      C316135   1.352   1.980   1.803
    2PC      HA16136   1.366   1.874   1.781
    2PC      HB16137   1.264   2.018   1.750
    2PC     O3116138   1.469   2.055   1.762
    2PC     P3116139   1.500   2.073   1.607
    2PC     O3216140   1.590   1.944   1.582
    2PC     C3116141   1.588   1.887   1.450
    2PC     H1A16142   1.485   1.856   1.426
    2PC     H1B16143   1.620   1.964   1.379
    2PC     C3216144   1.684   1.767   1.445
    2PC     H2A16145   1.786   1.803   1.459
    2PC     H2B16146   1.661   1.698   1.526
    2PC     N3116147   1.684   1.685   1.318
    2PC     C3316148   1.720   1.770   1.199
    2PC     H3A16149   1.726   1.705   1.112
    2PC     H3B16150   1.641   1.845   1.185
    2PC     H3C16151   1.816   1.818   1.218
    2PC     C3416152   1.786   1.575   1.331
    2PC     H4A16153   1.884   1.619   1.348
    2PC     H4B16154   1.757   1.511   1.414
    2PC     H4C16155   1.786   1.517   1.238
    2PC     C3516156   1.551   1.621   1.295
    2PC     H5A16157   1.476   1.699   1.280
    2PC     H5B16158   1.526   1.561   1.383
    2PC     H5C16159   1.558   1.557   1.207
    2PC     O3316160   1.375   2.079   1.529
    2PC     O3416161   1.574   2.198   1.582
    2PC     O2116162   1.441   1.926   2.019
    2PC     C2116163   1.501   1.978   2.128
    2PC     O2216164   1.480   2.089   2.173
    3OL     C1216165   1.605   1.884   2.183
    3OL     H2R16166   1.687   1.944   2.224
    3OL     H2S16167   1.645   1.824   2.101
    3OL     C1316168   1.545   1.792   2.291
    3OL     H3R16169   1.454   1.746   2.251
    3OL     H3S16170   1.517   1.850   2.378
    3OL     C1416171   1.641   1.678   2.331
    3OL     H4R16172   1.664   1.619   2.242
    3OL     H4S16173   1.592   1.611   2.402
    3OL     C1516174   1.775   1.728   2.390
    3OL     H5R16175   1.816   1.807   2.328
    3OL     H5S16176   1.847   1.646   2.389
    3OL     C1616177   1.761   1.779   2.535
    3OL     H6R16178   1.730   1.696   2.599
    3OL     H6S16179   1.685   1.857   2.541
    3OL     C1716180   1.896   1.835   2.581
    3OL     H7R16181   1.922   1.922   2.520
    3OL     H7S16182   1.974   1.760   2.565
    3OL     C1816183   1.896   1.877   2.729
    3OL     H8R16184   1.816   1.949   2.746
    3OL     H8S16185   1.991   1.926   2.750
    3OL     C1916186   1.881   1.757   2.821
    3OL     H9R16187   1.907   1.661   2.776
    3OL    C11016188   1.842   1.761   2.948
    3OL    H10R16189   1.836   1.668   3.004
    3OL    C11116190   1.804   1.886   3.024
    3OL    H11R16191   1.712   1.866   3.079
    3OL    H11S16192   1.783   1.968   2.956
    3OL    C11216193   1.913   1.929   3.124
    3OL    H12R16194   1.930   1.849   3.196
    3OL    H12S16195   1.878   2.016   3.179
    3OL    C11316196   2.046   1.964   3.054
    3OL    H13R16197   2.028   2.037   2.975
    3OL    H13S16198   2.088   1.874   3.007
    3OL    C11416199   2.147   2.021   3.154
    3OL    H14R16200   2.163   1.951   3.236
    3OL    H14S16201   2.106   2.113   3.197
    3OL    C11516202   2.282   2.052   3.086
    3OL    H15R16203   2.265   2.116   3.000
    3OL    H15S16204   2.326   1.958   3.050
    3OL    C11616205   2.378   2.121   3.184
    3OL    H16R16206   2.393   2.060   3.273
    3OL    H16S16207   2.333   2.215   3.217
    3OL    C11716208   2.514   2.153   3.119
    3OL    H17R16209   2.564   2.230   3.177
    3OL    H17S16210   2.498   2.191   3.018
    3OL    C11816211   2.605   2.029   3.113
    3OL    H18R16212   2.558   1.949   3.054
    3OL    H18S16213   2.625   1.991   3.213
    3OL    H18T16214   2.700   2.055   3.065
    1PA    C11616215   2.247   6.420   3.442
    1PA    H16R16216   2.182   0.059   3.454
    1PA    H16S16217   2.306   6.408   3.533
    1PA    H16T16218   2.184   6.331   3.430
    1PA    C11516219   2.340   6.437   3.321
    1PA    H15R16220   2.401   0.079   3.335
    1PA    H15S16221   2.408   6.352   3.315
    1PA    C11416222   2.259   0.001   3.190
    1PA    H14R16223   2.201   6.357   3.176
    1PA    H14S16224   2.188   0.084   3.199
    1PA    C11316225   2.351   0.024   3.069
    1PA    H13R16226   2.408   0.116   3.083
    1PA    H13S16227   2.422   6.389   3.060
    1PA    C11216228   2.267   0.034   2.939
    1PA    H12R16229   2.212   6.388   2.926
    1PA    H12S16230   2.193   0.113   2.950
    1PA    C11116231   2.353   0.059   2.813
    1PA    H11R16232   2.433   6.433   2.806
    1PA    H11S16233   2.289   0.046   2.726
    1PA    C11016234   2.411   0.201   2.810
    1PA    H10R16235   2.331   0.272   2.833
    1PA    H10S16236   2.488   0.211   2.887
    1PA     C1916237   2.469   0.237   2.672
    1PA     H9R16238   2.549   0.168   2.645
    1PA     H9S16239   2.391   0.229   2.597
    1PA     C1816240   2.524   0.382   2.674
    1PA     H8R16241   2.449   0.445   2.722
    1PA     H8S16242   2.615   0.387   2.734
    1PA     C1716243   2.549   0.439   2.533
    1PA     H7R16244   2.462   0.421   2.470
    1PA     H7S16245   2.560   0.547   2.543
    1PA     C1616246   2.675   0.383   2.464
    1PA     H6R16247   2.762   0.395   2.529
    1PA     H6S16248   2.663   0.277   2.443
    1PA     C1516249   2.698   0.461   2.333
    1PA     H5R16250   2.612   0.451   2.267
    1PA     H5S16251   2.707   0.567   2.358
    1PA     C1416252   2.826   0.420   2.257
    1PA     H4R16253   2.853   0.502   2.190
    1PA     H4S16254   2.909   0.407   2.327
    1PA     C1316255   2.808   0.293   2.173
    1PA     H3R16256   2.797   0.207   2.239
    1PA     H3S16257   2.718   0.301   2.112
    1PA     C1216258   2.930   0.273   2.080
    1PA     H2R16259   2.937   0.358   2.011
    1PA     H2S16260   3.022   0.271   2.138
    2PC     C1116261   2.921   0.147   1.999
    2PC     O1216262   2.859   0.048   2.036
    2PC     O1116263   2.982   0.157   1.879
    2PC      C116264   2.999   0.037   1.799
    2PC      HR16265   2.912   6.419   1.808
    2PC      HS16266   3.009   0.066   1.694
    2PC      C216267   3.128   6.412   1.842
    2PC      HX16268   3.212   0.032   1.825
    2PC      C316269   3.150   6.283   1.760
    2PC      HA16270   3.168   6.310   1.656
    2PC      HB16271   3.237   6.228   1.797
    2PC     O3116272   3.032   6.198   1.767
    2PC     P3116273   3.018   6.081   1.660
    2PC     O3216274   2.980   6.170   1.534
    2PC     C3116275   2.840   6.197   1.514
    2PC     H1A16276   2.793   6.109   1.470
    2PC     H1B16277   2.793   6.218   1.610
    2PC     C3216278   2.820   6.319   1.422
    2PC     H2A16279   2.713   6.330   1.403
    2PC     H2B16280   2.854   6.410   1.473
    2PC     N3116281   2.887   6.319   1.286
    2PC     C3316282   2.880   6.185   1.219
    2PC     H3A16283   2.938   6.114   1.279
    2PC     H3B16284   2.775   6.154   1.213
    2PC     H3C16285   2.923   6.193   1.120
    2PC     C3416286   2.816   6.419   1.198
    2PC     H4A16287   2.865   6.421   1.101
    2PC     H4B16288   2.712   6.387   1.187
    2PC     H4C16289   2.821   0.069   1.246
    2PC     C3516290   3.030   6.361   1.298
    2PC     H5A16291   3.075   6.363   1.198
    2PC     H5B16292   3.083   6.289   1.361
    2PC     H5C16293   3.035   0.012   1.343
    2PC     O3316294   3.142   6.001   1.645
    2PC     O3416295   2.912   5.983   1.691
    2PC     O2116296   3.121   6.381   1.984
    2PC     C2116297   3.236   6.358   2.051
    2PC     O2216298   3.345   6.352   1.998
    3OL     C1216299   3.217   6.333   2.199
    3OL     H2R16300   3.303   6.375   2.252
    3OL     H2S16301   3.217   6.225   2.216
    3OL     C1316302   3.087   6.393   2.255
    3OL     H3R16303   3.002   6.350   2.202
    3OL     H3S16304   3.086   0.053   2.239
    3OL     C1416305   3.071   6.362   2.405
    3OL     H4R16306   3.153   6.408   2.460
    3OL     H4S16307   3.077   6.254   2.420
    3OL     C1516308   2.936   6.413   2.458
    3OL     H5R16309   2.855   6.374   2.397
    3OL     H5S16310   2.933   0.074   2.452
    3OL     C1616311   2.916   6.369   2.604
    3OL     H6R16312   2.999   6.404   2.665
    3OL     H6S16313   2.915   6.259   2.609
    3OL     C1716314   2.783   6.422   2.661
    3OL     H7R16315   2.701   6.395   2.593
    3OL     H7S16316   2.786   0.083   2.666
    3OL     C1816317   2.751   6.365   2.801
    3OL     H8R16318   2.738   6.257   2.793
    3OL     H8S16319   2.657   6.408   2.835
    3OL     C1916320   2.860   6.394   2.903
    3OL     H9R16321   2.945   0.003   2.866
    3OL    C11016322   2.857   6.355   3.030
    3OL    H10R16323   2.940   6.382   3.095
    3OL    C11116324   2.746   6.277   3.096
    3OL    H11R16325   2.658   6.271   3.032
    3OL    H11S16326   2.715   6.328   3.188
    3OL    C11216327   2.793   6.135   3.132
    3OL    H12R16328   2.884   6.141   3.193
    3OL    H12S16329   2.819   6.082   3.040
    3OL    C11316330   2.684   6.056   3.208
    3OL    H13R16331   2.592   6.058   3.148
    3OL    H13S16332   2.662   6.105   3.303
    3OL    C11416333   2.724   5.909   3.232
    3OL    H14R16334   2.759   5.866   3.138
    3OL    H14S16335   2.635   5.853   3.262
    3OL    C11516336   2.832   5.893   3.341
    3OL    H15R16337   2.793   5.930   3.436
    3OL    H15S16338   2.920   5.953   3.316
    3OL    C11616339   2.873   5.745   3.356
    3OL    H16R16340   2.908   5.709   3.259
    3OL    H16S16341   2.786   5.685   3.383
    3OL    C11716342   2.985   5.724   3.459
    3OL    H17R16343   3.063   5.800   3.447
    3OL    H17S16344   3.032   5.627   3.441
    3OL    C11816345   2.933   5.726   3.604
    3OL    H18R16346   2.858   5.648   3.619
    3OL    H18S16347   2.887   5.822   3.628
    3OL    H18T16348   3.015   5.709   3.674
    1PA    C11616349   1.063   0.654   3.757
    1PA    H16R16350   1.054   0.732   3.681
    1PA    H16S16351   0.971   0.653   3.817
    1PA    H16T16352   1.074   0.558   3.708
    1PA    C11516353   1.184   0.683   3.848
    1PA    H15R16354   1.170   0.782   3.893
    1PA    H15S16355   1.187   0.611   3.930
    1PA    C11416356   1.317   0.682   3.770
    1PA    H14R16357   1.305   0.735   3.675
    1PA    H14S16358   1.392   0.735   3.828
    1PA    C11316359   1.367   0.538   3.745
    1PA    H13R16360   1.382   0.489   3.842
    1PA    H13S16361   1.293   0.480   3.690
    1PA    C11216362   1.502   0.537   3.669
    1PA    H12R16363   1.567   0.615   3.709
    1PA    H12S16364   1.551   0.441   3.687
    1PA    C11116365   1.483   0.555   3.517
    1PA    H11R16366   1.421   0.473   3.478
    1PA    H11S16367   1.431   0.649   3.497
    1PA    C11016368   1.619   0.555   3.446
    1PA    H10R16369   1.679   0.638   3.482
    1PA    H10S16370   1.673   0.463   3.470
    1PA     C1916371   1.603   0.565   3.293
    1PA     H9R16372   1.544   0.481   3.256
    1PA     H9S16373   1.549   0.657   3.268
    1PA     C1816374   1.741   0.565   3.224
    1PA     H8R16375   1.799   0.651   3.257
    1PA     H8S16376   1.795   0.475   3.254
    1PA     C1716377   1.727   0.568   3.071
    1PA     H7R16378   1.664   0.485   3.038
    1PA     H7S16379   1.679   0.661   3.040
    1PA     C1616380   1.865   0.556   3.005
    1PA     H6R16381   1.929   0.639   3.037
    1PA     H6S16382   1.913   0.463   3.038
    1PA     C1516383   1.855   0.555   2.851
    1PA     H5R16384   1.792   0.472   2.819
    1PA     H5S16385   1.809   0.648   2.817
    1PA     C1416386   1.995   0.541   2.788
    1PA     H4R16387   2.059   0.623   2.821
    1PA     H4S16388   2.041   0.447   2.823
    1PA     C1316389   1.989   0.540   2.635
    1PA     H3R16390   1.924   0.459   2.600
    1PA     H3S16391   1.947   0.635   2.599
    1PA     C1216392   2.130   0.521   2.576
    1PA     H2R16393   2.196   0.602   2.607
    1PA     H2S16394   2.173   0.428   2.614
    2PC     C1116395   2.129   0.516   2.425
    2PC     O1216396   2.047   0.572   2.355
    2PC     O1116397   2.229   0.438   2.380
    2PC      C116398   2.236   0.412   2.237
    2PC      HR16399   2.137   0.382   2.201
    2PC      HS16400   2.267   0.503   2.185
    2PC      C216401   2.335   0.298   2.211
    2PC      HX16402   2.432   0.325   2.253
    2PC      C316403   2.350   0.273   2.059
    2PC      HA16404   2.417   0.349   2.018
    2PC      HB16405   2.392   0.174   2.039
    2PC     O3116406   2.221   0.283   1.993
    2PC     P3116407   2.216   0.294   1.834
    2PC     O3216408   2.136   0.164   1.794
    2PC     C3116409   2.206   0.038   1.785
    2PC     H1A16410   2.290   0.047   1.715
    2PC     H1B16411   2.244   0.012   1.883
    2PC     C3216412   2.107   6.378   1.737
    2PC     H2A16413   2.157   6.281   1.740
    2PC     H2B16414   2.021   6.374   1.805
    2PC     N3116415   2.051   6.389   1.597
    2PC     C3316416   1.969   6.266   1.568
    2PC     H3A16417   1.930   6.273   1.466
    2PC     H3B16418   2.033   6.178   1.577
    2PC     H3C16419   1.887   6.261   1.639
    2PC     C3416420   1.961   0.061   1.584
    2PC     H4A16421   1.920   0.062   1.483
    2PC     H4B16422   1.882   0.053   1.659
    2PC     H4C16423   2.021   0.150   1.602
    2PC     C3516424   2.160   6.396   1.494
    2PC     H5A16425   2.115   6.397   1.395
    2PC     H5B16426   2.225   6.309   1.506
    2PC     H5C16427   2.216   0.041   1.510
    2PC     O3316428   2.145   0.416   1.790
    2PC     O3416429   2.350   0.300   1.771
    2PC     O2116430   2.287   0.178   2.278
    2PC     C2116431   2.373   0.077   2.303
    2PC     O2216432   2.488   0.076   2.263
    3OL     C1216433   2.311   6.419   2.391
    3OL     H2R16434   2.253   6.351   2.329
    3OL     H2S16435   2.243   0.019   2.460
    3OL     C1316436   2.416   6.339   2.472
    3OL     H3R16437   2.475   6.409   2.533
    3OL     H3S16438   2.485   6.289   2.404
    3OL     C1416439   2.349   6.235   2.564
    3OL     H4R16440   2.292   6.164   2.503
    3OL     H4S16441   2.277   6.285   2.629
    3OL     C1516442   2.453   6.159   2.648
    3OL     H5R16443   2.507   6.229   2.712
    3OL     H5S16444   2.526   6.113   2.581
    3OL     C1616445   2.389   6.048   2.735
    3OL     H6R16446   2.469   5.985   2.773
    3OL     H6S16447   2.325   5.986   2.673
    3OL     C1716448   2.309   6.105   2.854
    3OL     H7R16449   2.231   6.172   2.817
    3OL     H7S16450   2.375   6.164   2.918
    3OL     C1816451   2.242   5.994   2.938
    3OL     H8R16452   2.178   5.935   2.872
    3OL     H8S16453   2.177   6.040   3.013
    3OL     C1916454   2.343   5.901   3.003
    3OL     H9R16455   2.402   5.842   2.934
    3OL    C11016456   2.360   5.882   3.134
    3OL    H10R16457   2.433   5.809   3.167
    3OL    C11116458   2.290   5.957   3.246
    3OL    H11R16459   2.251   6.052   3.212
    3OL    H11S16460   2.364   5.979   3.323
    3OL    C11216461   2.177   5.872   3.308
    3OL    H12R16462   2.215   5.771   3.326
    3OL    H12S16463   2.094   5.863   3.238
    3OL    C11316464   2.127   5.930   3.443
    3OL    H13R16465   2.214   5.948   3.506
    3OL    H13S16466   2.066   5.855   3.494
    3OL    C11416467   2.047   6.061   3.428
    3OL    H14R16468   2.096   6.127   3.357
    3OL    H14S16469   2.047   6.112   3.524
    3OL    C11516470   1.901   6.036   3.386
    3OL    H15R16471   1.852   5.972   3.460
    3OL    H15S16472   1.900   5.982   3.291
    3OL    C11616473   1.825   6.169   3.372
    3OL    H16R16474   1.874   6.233   3.298
    3OL    H16S16475   1.828   6.222   3.468
    3OL    C11716476   1.677   6.149   3.333
    3OL    H17R16477   1.625   6.245   3.341
    3OL    H17S16478   1.628   6.081   3.403
    3OL    C11816479   1.661   6.096   3.189
    3OL    H18R16480   1.702   5.996   3.180
    3OL    H18S16481   1.711   6.162   3.118
    3OL    H18T16482   1.555   6.091   3.162
    1PA    C11616483   2.015   0.343   3.638
    1PA    H16R16484   2.110   0.308   3.679
    1PA    H16S16485   1.959   0.256   3.603
    1PA    H16T16486   1.959   0.392   3.717
    1PA    C11516487   2.039   0.441   3.521
    1PA    H15R16488   1.943   0.476   3.484
    1PA    H15S16489   2.096   0.527   3.558
    1PA    C11416490   2.118   0.372   3.408
    1PA    H14R16491   2.214   0.338   3.445
    1PA    H14S16492   2.063   0.284   3.373
    1PA    C11316493   2.139   0.469   3.290
    1PA    H13R16494   2.043   0.506   3.254
    1PA    H13S16495   2.198   0.555   3.324
    1PA    C11216496   2.212   0.397   3.174
    1PA    H12R16497   2.307   0.356   3.209
    1PA    H12S16498   2.151   0.313   3.141
    1PA    C11116499   2.237   0.490   3.054
    1PA    H11R16500   2.271   0.430   2.970
    1PA    H11S16501   2.143   0.537   3.024
    1PA    C11016502   2.341   0.600   3.082
    1PA    H10R16503   2.303   0.669   3.158
    1PA    H10S16504   2.433   0.555   3.121
    1PA     C1916505   2.374   0.677   2.953
    1PA     H9R16506   2.418   0.608   2.881
    1PA     H9S16507   2.282   0.716   2.908
    1PA     C1816508   2.470   0.794   2.980
    1PA     H8R16509   2.417   0.872   3.035
    1PA     H8S16510   2.552   0.761   3.044
    1PA     C1716511   2.526   0.855   2.850
    1PA     H7R16512   2.446   0.868   2.777
    1PA     H7S16513   2.568   0.953   2.872
    1PA     C1616514   2.638   0.766   2.791
    1PA     H6R16515   2.717   0.752   2.865
    1PA     H6S16516   2.598   0.667   2.767
    1PA     C1516517   2.698   0.826   2.663
    1PA     H5R16518   2.620   0.836   2.587
    1PA     H5S16519   2.737   0.926   2.684
    1PA     C1416520   2.812   0.737   2.610
    1PA     H4R16521   2.891   0.729   2.684
    1PA     H4S16522   2.773   0.636   2.592
    1PA     C1316523   2.870   0.793   2.479
    1PA     H3R16524   2.790   0.798   2.404
    1PA     H3S16525   2.908   0.894   2.495
    1PA     C1216526   2.983   0.703   2.426
    1PA     H2R16527   3.071   0.713   2.491
    1PA     H2S16528   2.951   0.599   2.429
    2PC     C1116529   3.023   0.736   2.285
    2PC     O1216530   3.075   0.654   2.210
    2PC     O1116531   3.006   0.866   2.253
    2PC      C116532   3.037   0.911   2.119
    2PC      HR16533   3.044   1.021   2.119
    2PC      HS16534   3.134   0.871   2.089
    2PC      C216535   2.927   0.867   2.020
    2PC      HX16536   2.919   0.758   2.017
    2PC      C316537   2.960   0.917   1.878
    2PC      HA16538   2.950   1.026   1.873
    2PC      HB16539   3.063   0.889   1.852
    2PC     O3116540   2.870   0.855   1.785
    2PC     P3116541   2.901   0.864   1.629
    2PC     O3216542   2.949   0.716   1.600
    2PC     C3116543   3.044   0.693   1.494
    2PC     H1A16544   3.011   0.746   1.405
    2PC     H1B16545   3.142   0.730   1.524
    2PC     C3216546   3.048   0.541   1.464
    2PC     H2A16547   2.947   0.507   1.441
    2PC     H2B16548   3.110   0.524   1.377
    2PC     N3116549   3.101   0.448   1.572
    2PC     C3316550   3.242   0.483   1.608
    2PC     H3A16551   3.303   0.479   1.517
    2PC     H3B16552   3.244   0.584   1.651
    2PC     H3C16553   3.278   0.411   1.681
    2PC     C3416554   3.016   0.451   1.696
    2PC     H4A16555   3.055   0.376   1.766
    2PC     H4B16556   3.021   0.550   1.740
    2PC     H4C16557   2.913   0.426   1.668
    2PC     C3516558   3.098   0.309   1.518
    2PC     H5A16559   3.162   0.304   1.429
    2PC     H5B16560   2.995   0.282   1.493
    2PC     H5C16561   3.137   0.241   1.595
    2PC     O3316562   2.783   0.903   1.550
    2PC     O3416563   3.000   0.970   1.597
    2PC     O2116564   2.803   0.930   2.063
    2PC     C2116565   2.717   0.857   2.136
    2PC     O2216566   2.716   0.736   2.141
    3OL     C1216567   2.619   0.946   2.210
    3OL     H2R16568   2.568   1.011   2.139
    3OL     H2S16569   2.677   1.010   2.277
    3OL     C1316570   2.516   0.864   2.292
    3OL     H3R16571   2.568   0.789   2.352
    3OL     H3S16572   2.448   0.812   2.224
    3OL     C1416573   2.436   0.957   2.385
    3OL     H4R16574   2.383   1.031   2.326
    3OL     H4S16575   2.504   1.010   2.452
    3OL     C1516576   2.335   0.876   2.470
    3OL     H5R16577   2.388   0.803   2.530
    3OL     H5S16578   2.266   0.822   2.404
    3OL     C1616579   2.255   0.971   2.561
    3OL     H6R16580   2.203   1.045   2.500
    3OL     H6S16581   2.323   1.024   2.628
    3OL     C1716582   2.151   0.892   2.644
    3OL     H7R16583   2.202   0.816   2.704
    3OL     H7S16584   2.082   0.841   2.576
    3OL     C1816585   2.073   0.986   2.737
    3OL     H8R16586   2.027   1.064   2.676
    3OL     H8S16587   2.142   1.035   2.806
    3OL     C1916588   1.964   0.909   2.810
    3OL     H9R16589   1.902   0.847   2.746
    3OL    C11016590   1.941   0.908   2.941
    3OL    H10R16591   1.860   0.847   2.979
    3OL    C11116592   2.014   0.989   3.046
    3OL    H11R16593   1.940   1.042   3.107
    3OL    H11S16594   2.078   1.065   3.001
    3OL    C11216595   2.098   0.898   3.138
    3OL    H12R16596   2.178   0.852   3.081
    3OL    H12S16597   2.034   0.819   3.178
    3OL    C11316598   2.156   0.981   3.254
    3OL    H13R16599   2.073   1.028   3.307
    3OL    H13S16600   2.221   1.060   3.215
    3OL    C11416601   2.235   0.894   3.354
    3OL    H14R16602   2.323   0.851   3.305
    3OL    H14S16603   2.172   0.811   3.388
    3OL    C11516604   2.279   0.980   3.474
    3OL    H15R16605   2.191   1.027   3.518
    3OL    H15S16606   2.345   1.059   3.440
    3OL    C11616607   2.351   0.895   3.581
    3OL    H16R16608   2.440   0.850   3.536
    3OL    H16S16609   2.286   0.814   3.614
    3OL    C11716610   2.395   0.979   3.702
    3OL    H17R16611   2.450   1.067   3.668
    3OL    H17S16612   2.463   0.920   3.763
    3OL    C11816613   2.275   1.023   3.789
    3OL    H18R16614   2.207   1.086   3.732
    3OL    H18S16615   2.310   1.080   3.875
    3OL    H18T16616   2.221   0.936   3.826
    1PA    C11616617   1.856   0.578   3.952
    1PA    H16R16618   1.824   0.490   3.896
    1PA    H16S16619   1.768   0.633   3.985
    1PA    H16T16620   1.910   0.544   4.041
    1PA    C11516621   1.946   0.667   3.865
    1PA    H15R16622   1.980   0.752   3.924
    1PA    H15S16623   2.035   0.611   3.834
    1PA    C11416624   1.870   0.717   3.740
    1PA    H14R16625   1.839   0.631   3.680
    1PA    H14S16626   1.781   0.770   3.772
    1PA    C11316627   1.960   0.810   3.655
    1PA    H13R16628   1.993   0.894   3.716
    1PA    H13S16629   2.049   0.755   3.624
    1PA    C11216630   1.888   0.863   3.529
    1PA    H12R16631   1.961   0.919   3.470
    1PA    H12S16632   1.854   0.779   3.467
    1PA    C11116633   1.770   0.956   3.564
    1PA    H11R16634   1.691   0.900   3.614
    1PA    H11S16635   1.805   1.032   3.634
    1PA    C11016636   1.712   1.027   3.440
    1PA    H10R16637   1.654   1.112   3.474
    1PA    H10S16638   1.793   1.066   3.378
    1PA     C1916639   1.620   0.935   3.356
    1PA     H9R16640   1.679   0.855   3.310
    1PA     H9S16641   1.548   0.888   3.423
    1PA     C1816642   1.543   1.013   3.248
    1PA     H8R16643   1.460   0.951   3.213
    1PA     H8S16644   1.499   1.103   3.292
    1PA     C1716645   1.631   1.051   3.128
    1PA     H7R16646   1.718   1.107   3.162
    1PA     H7S16647   1.666   0.960   3.078
    1PA     C1616648   1.551   1.138   3.028
    1PA     H6R16649   1.456   1.089   3.006
    1PA     H6S16650   1.527   1.235   3.073
    1PA     C1516651   1.626   1.159   2.895
    1PA     H5R16652   1.653   1.062   2.853
    1PA     H5S16653   1.558   1.207   2.823
    1PA     C1416654   1.753   1.246   2.910
    1PA     H4R16655   1.727   1.345   2.948
    1PA     H4S16656   1.819   1.200   2.984
    1PA     C1316657   1.829   1.257   2.777
    1PA     H3R16658   1.934   1.279   2.798
    1PA     H3S16659   1.826   1.161   2.724
    1PA     C1216660   1.774   1.368   2.686
    1PA     H2R16661   1.667   1.353   2.670
    1PA     H2S16662   1.786   1.466   2.733
    2PC     C1116663   1.843   1.369   2.552
    2PC     O1216664   1.964   1.361   2.537
    2PC     O1116665   1.754   1.375   2.451
    2PC      C116666   1.799   1.365   2.312
    2PC      HR16667   1.712   1.384   2.248
    2PC      HS16668   1.875   1.441   2.292
    2PC      C216669   1.856   1.225   2.282
    2PC      HX16670   1.949   1.210   2.338
    2PC      C316671   1.885   1.209   2.131
    2PC      HA16672   1.974   1.268   2.106
    2PC      HB16673   1.904   1.104   2.106
    2PC     O3116674   1.774   1.260   2.053
    2PC     P3116675   1.787   1.268   1.895
    2PC     O3216676   1.785   1.114   1.859
    2PC     C3116677   1.766   1.076   1.721
    2PC     H1A16678   1.671   1.118   1.686
    2PC     H1B16679   1.847   1.114   1.660
    2PC     C3216680   1.758   0.922   1.715
    2PC     H2A16681   1.689   0.887   1.793
    2PC     H2B16682   1.720   0.892   1.618
    2PC     N3116683   1.886   0.843   1.736
    2PC     C3316684   1.983   0.870   1.624
    2PC     H3A16685   2.071   0.808   1.639
    2PC     H3B16686   1.935   0.842   1.530
    2PC     H3C16687   2.009   0.976   1.624
    2PC     C3416688   1.952   0.876   1.867
    2PC     H4A16689   2.038   0.811   1.880
    2PC     H4B16690   1.983   0.981   1.866
    2PC     H4C16691   1.879   0.859   1.947
    2PC     C3516692   1.852   0.697   1.735
    2PC     H5A16693   1.943   0.640   1.752
    2PC     H5B16694   1.809   0.673   1.637
    2PC     H5C16695   1.779   0.678   1.814
    2PC     O3316696   1.676   1.344   1.834
    2PC     O3416697   1.913   1.334   1.852
    2PC     O2116698   1.758   1.126   2.324
    2PC     C2116699   1.800   0.999   2.345
    2PC     O2216700   1.914   0.961   2.328
    3OL     C1216701   1.689   0.914   2.404
    3OL     H2R16702   1.628   0.874   2.324
    3OL     H2S16703   1.626   0.980   2.464
    3OL     C1316704   1.744   0.800   2.492
    3OL     H3R16705   1.818   0.839   2.562
    3OL     H3S16706   1.795   0.728   2.429
    3OL     C1416707   1.632   0.727   2.570
    3OL     H4R16708   1.671   0.633   2.609
    3OL     H4S16709   1.550   0.704   2.502
    3OL     C1516710   1.581   0.811   2.689
    3OL     H5R16711   1.550   0.910   2.655
    3OL     H5S16712   1.661   0.826   2.762
    3OL     C1616713   1.461   0.743   2.759
    3OL     H6R16714   1.492   0.648   2.803
    3OL     H6S16715   1.383   0.722   2.685
    3OL     C1716716   1.403   0.836   2.868
    3OL     H7R16717   1.379   0.933   2.824
    3OL     H7S16718   1.478   0.853   2.945
    3OL     C1816719   1.275   0.779   2.933
    3OL     H8R16720   1.206   0.750   2.854
    3OL     H8S16721   1.227   0.859   2.990
    3OL     C1916722   1.305   0.659   3.020
    3OL     H9R16723   1.346   0.573   2.967
    3OL    C11016724   1.285   0.648   3.152
    3OL    H10R16725   1.309   0.554   3.201
    3OL    C11116726   1.228   0.754   3.244
    3OL    H11R16727   1.216   0.850   3.193
    3OL    H11S16728   1.298   0.771   3.326
    3OL    C11216729   1.093   0.709   3.302
    3OL    H12R16730   1.108   0.623   3.367
    3OL    H12S16731   1.027   0.678   3.221
    3OL    C11316732   1.025   0.823   3.381
    3OL    H13R16733   1.011   0.909   3.314
    3OL    H13S16734   1.090   0.855   3.463
    3OL    C11416735   0.889   0.778   3.437
    3OL    H14R16736   0.903   0.697   3.508
    3OL    H14S16737   0.827   0.741   3.356
    3OL    C11516738   0.816   0.896   3.506
    3OL    H15R16739   0.800   0.974   3.431
    3OL    H15S16740   0.880   0.939   3.584
    3OL    C11616741   0.680   0.853   3.564
    3OL    H16R16742   0.632   0.783   3.495
    3OL    H16S16743   0.614   0.940   3.570
    3OL    C11716744   0.690   0.790   3.704
    3OL    H17R16745   0.769   0.714   3.706
    3OL    H17S16746   0.596   0.740   3.727
    3OL    C11816747   0.716   0.896   3.813
    3OL    H18R16748   0.813   0.944   3.798
    3OL    H18S16749   0.716   0.850   3.911
    3OL    H18T16750   0.638   0.973   3.810
    1PA    C11616751   0.421   1.894   3.136
    1PA    H16R16752   0.329   1.947   3.161
    1PA    H16S16753   0.428   1.889   3.027
    1PA    H16T16754   0.505   1.952   3.174
    1PA    C11516755   0.420   1.753   3.198
    1PA    H15R16756   0.404   1.763   3.306
    1PA    H15S16757   0.336   1.696   3.158
    1PA    C11416758   0.552   1.677   3.175
    1PA    H14R16759   0.636   1.736   3.211
    1PA    H14S16760   0.550   1.584   3.233
    1PA    C11316761   0.574   1.641   3.026
    1PA    H13R16762   0.488   1.585   2.989
    1PA    H13S16763   0.580   1.733   2.967
    1PA    C11216764   0.702   1.559   3.005
    1PA    H12R16765   0.788   1.613   3.047
    1PA    H12S16766   0.694   1.464   3.058
    1PA    C11116767   0.725   1.535   2.855
    1PA    H11R16768   0.639   1.479   2.815
    1PA    H11S16769   0.729   1.631   2.803
    1PA    C11016770   0.854   1.456   2.826
    1PA    H10R16771   0.941   1.512   2.863
    1PA    H10S16772   0.851   1.360   2.878
    1PA     C1916773   0.867   1.434   2.674
    1PA     H9R16774   0.779   1.380   2.637
    1PA     H9S16775   0.868   1.531   2.624
    1PA     C1816776   0.994   1.357   2.633
    1PA     H8R16777   1.001   1.359   2.524
    1PA     H8S16778   1.082   1.409   2.673
    1PA     C1716779   0.993   1.211   2.682
    1PA     H7R16780   1.008   1.207   2.790
    1PA     H7S16781   0.894   1.168   2.662
    1PA     C1616782   1.100   1.126   2.611
    1PA     H6R16783   1.087   1.021   2.640
    1PA     H6S16784   1.083   1.132   2.503
    1PA     C1516785   1.244   1.170   2.645
    1PA     H5R16786   1.257   1.276   2.624
    1PA     H5S16787   1.260   1.156   2.752
    1PA     C1416788   1.350   1.088   2.568
    1PA     H4R16789   1.448   1.108   2.612
    1PA     H4S16790   1.329   0.982   2.581
    1PA     C1316791   1.355   1.120   2.417
    1PA     H3R16792   1.418   1.045   2.368
    1PA     H3S16793   1.256   1.112   2.372
    1PA     C1216794   1.415   1.260   2.388
    1PA     H2R16795   1.357   1.337   2.438
    1PA     H2S16796   1.517   1.265   2.427
    2PC     C1116797   1.418   1.292   2.240
    2PC     O1216798   1.395   1.211   2.152
    2PC     O1116799   1.445   1.422   2.219
    2PC      C116800   1.442   1.477   2.085
    2PC      HR16801   1.494   1.574   2.085
    2PC      HS16802   1.494   1.410   2.016
    2PC      C216803   1.296   1.500   2.038
    2PC      HX16804   1.244   1.403   2.036
    2PC      C316805   1.293   1.564   1.898
    2PC      HA16806   1.349   1.658   1.899
    2PC      HB16807   1.339   1.496   1.826
    2PC     O3116808   1.157   1.590   1.857
    2PC     P3116809   1.126   1.655   1.715
    2PC     O3216810   1.032   1.776   1.760
    2PC     C3116811   0.902   1.743   1.812
    2PC     H1A16812   0.846   1.685   1.738
    2PC     H1B16813   0.914   1.684   1.903
    2PC     C3216814   0.826   1.873   1.845
    2PC     H2A16815   0.732   1.846   1.894
    2PC     H2B16816   0.884   1.933   1.915
    2PC     N3116817   0.788   1.965   1.731
    2PC     C3316818   0.697   2.072   1.785
    2PC     H3A16819   0.669   2.139   1.704
    2PC     H3B16820   0.608   2.024   1.827
    2PC     H3C16821   0.751   2.127   1.863
    2PC     C3416822   0.909   2.032   1.671
    2PC     H4A16823   0.958   2.091   1.748
    2PC     H4B16824   0.976   1.954   1.634
    2PC     H4C16825   0.876   2.096   1.589
    2PC     C3516826   0.713   1.891   1.624
    2PC     H5A16827   0.677   1.963   1.551
    2PC     H5B16828   0.628   1.839   1.670
    2PC     H5C16829   0.780   1.819   1.577
    2PC     O3316830   1.242   1.708   1.641
    2PC     O3416831   1.064   1.563   1.616
    2PC     O2116832   1.235   1.592   2.133
    2PC     C2116833   1.106   1.575   2.169
    2PC     O2216834   1.036   1.481   2.132
    3OL     C1216835   1.052   1.688   2.254
    3OL     H2R16836   0.961   1.656   2.305
    3OL     H2S16837   1.025   1.770   2.187
    3OL     C1316838   1.153   1.743   2.358
    3OL     H3R16839   1.112   1.834   2.402
    3OL     H3S16840   1.246   1.771   2.309
    3OL     C1416841   1.181   1.642   2.472
    3OL     H4R16842   1.217   1.548   2.429
    3OL     H4S16843   1.087   1.621   2.524
    3OL     C1516844   1.285   1.696   2.572
    3OL     H5R16845   1.252   1.792   2.611
    3OL     H5S16846   1.380   1.712   2.520
    3OL     C1616847   1.307   1.598   2.689
    3OL     H6R16848   1.333   1.499   2.649
    3OL     H6S16849   1.214   1.588   2.745
    3OL     C1716850   1.420   1.646   2.782
    3OL     H7R16851   1.396   1.745   2.821
    3OL     H7S16852   1.512   1.655   2.725
    3OL     C1816853   1.444   1.550   2.900
    3OL     H8R16854   1.539   1.576   2.947
    3OL     H8S16855   1.454   1.448   2.861
    3OL     C1916856   1.331   1.555   3.002
    3OL     H9R16857   1.232   1.568   2.960
    3OL    C11016858   1.345   1.551   3.134
    3OL    H10R16859   1.257   1.560   3.197
    3OL    C11116860   1.474   1.528   3.210
    3OL    H11R16861   1.551   1.485   3.144
    3OL    H11S16862   1.457   1.454   3.289
    3OL    C11216863   1.528   1.658   3.273
    3OL    H12R16864   1.454   1.697   3.344
    3OL    H12S16865   1.541   1.733   3.195
    3OL    C11316866   1.662   1.633   3.345
    3OL    H13R16867   1.734   1.592   3.273
    3OL    H13S16868   1.648   1.559   3.424
    3OL    C11416869   1.719   1.763   3.404
    3OL    H14R16870   1.650   1.802   3.480
    3OL    H14S16871   1.728   1.838   3.326
    3OL    C11516872   1.857   1.739   3.468
    3OL    H15R16873   1.923   1.691   3.396
    3OL    H15S16874   1.846   1.671   3.553
    3OL    C11616875   1.922   1.870   3.517
    3OL    H16R16876   1.858   1.917   3.591
    3OL    H16S16877   1.933   1.938   3.432
    3OL    C11716878   2.061   1.842   3.578
    3OL    H17R16879   2.123   1.787   3.507
    3OL    H17S16880   2.049   1.779   3.667
    3OL    C11816881   2.132   1.972   3.617
    3OL    H18R16882   2.227   1.950   3.665
    3OL    H18S16883   2.071   2.031   3.686
    3OL    H18T16884   2.151   2.033   3.528
    1PA    C11616885   3.213   6.421   3.310
    1PA    H16R16886   3.159   0.066   3.290
    1PA    H16S16887   3.272   6.433   3.401
    1PA    H16T16888   3.141   6.341   3.326
    1PA    C11516889   3.306   6.387   3.192
    1PA    H15R16890   3.381   0.017   3.181
    1PA    H15S16891   3.358   6.293   3.212
    1PA    C11416892   3.226   6.375   3.061
    1PA    H14R16893   3.148   6.298   3.072
    1PA    H14S16894   3.176   0.022   3.039
    1PA    C11316895   3.318   6.337   2.943
    1PA    H13R16896   3.402   6.407   2.940
    1PA    H13S16897   3.359   6.237   2.960
    1PA    C11216898   3.241   6.341   2.810
    1PA    H12R16899   3.152   6.279   2.818
    1PA    H12S16900   3.207   6.443   2.790
    1PA    C11116901   3.326   6.291   2.692
    1PA    H11R16902   3.365   6.191   2.715
    1PA    H11S16903   3.263   6.281   2.604
    1PA    C11016904   3.443   6.386   2.659
    1PA    H10R16905   3.405   0.038   2.640
    1PA    H10S16906   3.510   6.392   2.746
    1PA     C1916907   3.523   6.337   2.537
    1PA     H9R16908   3.552   6.232   2.549
    1PA     H9S16909   3.459   6.343   2.448
    1PA     C1816910   3.648   6.424   2.514
    1PA     H8R16911   3.682   6.412   2.411
    1PA     H8S16912   3.622   0.081   2.528
    1PA     C1716913   3.763   6.386   2.611
    1PA     H7R16914   3.812   0.029   2.647
    1PA     H7S16915   3.722   6.336   2.699
    1PA     C1616916   3.867   6.294   2.544
    1PA     H6R16917   3.918   6.237   2.622
    1PA     H6S16918   3.818   6.223   2.478
    1PA     C1516919   3.972   6.378   2.468
    1PA     H5R16920   3.922   6.438   2.391
    1PA     H5S16921   4.020   6.447   2.538
    1PA     C1416922   4.079   6.288   2.402
    1PA     H4R16923   4.125   6.223   2.477
    1PA     H4S16924   4.030   6.224   2.329
    1PA     C1316925   4.187   6.372   2.332
    1PA     H3R16926   4.241   6.307   2.262
    1PA     H3S16927   4.140   0.003   2.273
    1PA     C1216928   4.288   6.432   2.432
    1PA     H2R16929   4.237   0.049   2.503
    1PA     H2S16930   4.336   6.353   2.490
    2PC     C1116931   4.395   0.066   2.364
    2PC     O1216932   4.404   0.078   2.242
    2PC     O1116933   4.479   0.125   2.451
    2PC      C116934   4.569   0.229   2.401
    2PC      HR16935   4.642   0.254   2.479
    2PC      HS16936   4.624   0.191   2.314
    2PC      C216937   4.490   0.356   2.363
    2PC      HX16938   4.395   0.331   2.316
    2PC      C316939   4.570   0.443   2.263
    2PC      HA16940   4.572   0.393   2.166
    2PC      HB16941   4.525   0.541   2.252
    2PC     O3116942   4.707   0.457   2.310
    2PC     P3116943   4.816   0.526   2.217
    2PC     O3216944   4.797   0.681   2.248
    2PC     C3116945   4.762   0.768   2.139
    2PC     H1A16946   4.832   0.753   2.055
    2PC     H1B16947   4.661   0.743   2.105
    2PC     C3216948   4.767   0.915   2.186
    2PC     H2A16949   4.738   0.979   2.102
    2PC     H2B16950   4.695   0.931   2.266
    2PC     N3116951   4.900   0.970   2.235
    2PC     C3316952   5.014   0.928   2.147
    2PC     H3A16953   5.105   0.976   2.185
    2PC     H3B16954   5.024   0.820   2.153
    2PC     H3C16955   4.993   0.961   2.045
    2PC     C3416956   4.892   1.120   2.235
    2PC     H4A16957   4.987   1.160   2.272
    2PC     H4B16958   4.874   1.153   2.132
    2PC     H4C16959   4.810   1.151   2.300
    2PC     C3516960   4.928   0.924   2.376
    2PC     H5A16961   5.023   0.968   2.408
    2PC     H5B16962   4.935   0.815   2.376
    2PC     H5C16963   4.846   0.958   2.440
    2PC     O3316964   4.953   0.479   2.247
    2PC     O3416965   4.801   0.492   2.074
    2PC     O2116966   4.465   0.435   2.482
    2PC     C2116967   4.361   0.405   2.562
    2PC     O2216968   4.278   0.320   2.538
    3OL     C1216969   4.358   0.492   2.686
    3OL     H2R16970   4.301   0.582   2.663
    3OL     H2S16971   4.460   0.524   2.708
    3OL     C1316972   4.299   0.420   2.809
    3OL     H3R16973   4.365   0.338   2.837
    3OL     H3S16974   4.202   0.378   2.784
    3OL     C1416975   4.285   0.517   2.928
    3OL     H4R16976   4.227   0.604   2.895
    3OL     H4S16977   4.383   0.554   2.960
    3OL     C1516978   4.210   0.453   3.047
    3OL     H5R16979   4.124   0.398   3.009
    3OL     H5S16980   4.171   0.532   3.112
    3OL     C1616981   4.297   0.357   3.132
    3OL     H6R16982   4.356   0.291   3.067
    3OL     H6S16983   4.231   0.294   3.191
    3OL     C1716984   4.390   0.434   3.228
    3OL     H7R16985   4.331   0.503   3.289
    3OL     H7S16986   4.461   0.494   3.171
    3OL     C1816987   4.467   0.338   3.320
    3OL     H8R16988   4.523   0.267   3.259
    3OL     H8S16989   4.397   0.280   3.381
    3OL     C1916990   4.565   0.414   3.407
    3OL     H9R16991   4.645   0.464   3.352
    3OL    C11016992   4.562   0.424   3.540
    3OL    H10R16993   4.639   0.483   3.589
    3OL    C11116994   4.461   0.358   3.631
    3OL    H11R16995   4.476   0.250   3.629
    3OL    H11S16996   4.360   0.378   3.595
    3OL    C11216997   4.471   0.407   3.778
    3OL    H12R16998   4.403   0.349   3.839
    3OL    H12S16999   4.437   0.511   3.783
    3OL    C11317000   4.614   0.400   3.839
    3OL    H13R17001   4.609   0.431   3.944
    3OL    H13S17002   4.678   0.472   3.789
    3OL    C11417003   4.680   0.261   3.831
    3OL    H14R17004   4.784   0.270   3.861
    3OL    H14S17005   4.679   0.225   3.728
    3OL    C11517006   4.612   0.158   3.924
    3OL    H15R17007   4.505   0.150   3.901
    3OL    H15S17008   4.621   0.192   4.027
    3OL    C11617009   4.677   0.019   3.911
    3OL    H16R17010   4.652   6.408   4.000
    3OL    H16S17011   4.786   0.029   3.908
    3OL    C11717012   4.627   6.391   3.786
    3OL    H17R17013   4.643   0.004   3.697
    3OL    H17S17014   4.520   6.373   3.795
    3OL    C11817015   4.700   6.257   3.769
    3OL    H18R17016   4.808   6.273   3.759
    3OL    H18S17017   4.665   6.206   3.679
    3OL    H18T17018   4.682   6.191   3.854
    1PA    C11617019   2.149   1.954   4.079
    1PA    H16R17020   2.241   2.012   4.073
    1PA    H16S17021   2.093   1.986   4.167
    1PA    H16T17022   2.089   1.975   3.990
    1PA    C11517023   2.180   1.803   4.087
    1PA    H15R17024   2.238   1.783   4.177
    1PA    H15S17025   2.086   1.747   4.094
    1PA    C11417026   2.259   1.756   3.964
    1PA    H14R17027   2.204   1.782   3.873
    1PA    H14S17028   2.355   1.808   3.960
    1PA    C11317029   2.282   1.604   3.968
    1PA    H13R17030   2.331   1.577   4.062
    1PA    H13S17031   2.186   1.552   3.965
    1PA    C11217032   2.369   1.559   3.850
    1PA    H12R17033   2.319   1.585   3.756
    1PA    H12S17034   2.464   1.612   3.852
    1PA    C11117035   2.395   1.407   3.855
    1PA    H11R17036   2.441   1.382   3.951
    1PA    H11S17037   2.301   1.352   3.849
    1PA    C11017038   2.490   1.361   3.742
    1PA    H10R17039   2.579   1.424   3.741
    1PA    H10S17040   2.523   1.259   3.763
    1PA     C1917041   2.422   1.365   3.603
    1PA     H9R17042   2.333   1.300   3.604
    1PA     H9S17043   2.389   1.466   3.581
    1PA     C1817044   2.519   1.318   3.493
    1PA     H8R17045   2.610   1.378   3.498
    1PA     H8S17046   2.547   1.214   3.510
    1PA     C1717047   2.455   1.333   3.354
    1PA     H7R17048   2.365   1.272   3.348
    1PA     H7S17049   2.425   1.437   3.339
    1PA     C1617050   2.553   1.292   3.242
    1PA     H6R17051   2.644   1.353   3.249
    1PA     H6S17052   2.582   1.188   3.255
    1PA     C1517053   2.488   1.311   3.104
    1PA     H5R17054   2.399   1.249   3.098
    1PA     H5S17055   2.456   1.415   3.094
    1PA     C1417056   2.584   1.276   2.989
    1PA     H4R17057   2.673   1.339   2.995
    1PA     H4S17058   2.616   1.172   2.998
    1PA     C1317059   2.514   1.297   2.853
    1PA     H3R17060   2.426   1.233   2.848
    1PA     H3S17061   2.481   1.401   2.846
    1PA     C1217062   2.607   1.266   2.735
    1PA     H2R17063   2.695   1.330   2.738
    1PA     H2S17064   2.642   1.162   2.741
    2PC     C1117065   2.538   1.285   2.602
    2PC     O1217066   2.418   1.303   2.588
    2PC     O1117067   2.625   1.282   2.499
    2PC      C117068   2.577   1.303   2.363
    2PC      HR17069   2.657   1.277   2.292
    2PC      HS17070   2.491   1.237   2.344
    2PC      C217071   2.536   1.450   2.340
    2PC      HX17072   2.476   1.486   2.424
    2PC      C317073   2.452   1.463   2.211
    2PC      HA17074   2.353   1.421   2.229
    2PC      HB17075   2.440   1.567   2.182
    2PC     O3117076   2.515   1.391   2.102
    2PC     P3117077   2.427   1.354   1.974
    2PC     O3217078   2.490   1.213   1.940
    2PC     C3117079   2.580   1.199   1.828
    2PC     H1A17080   2.531   1.235   1.737
    2PC     H1B17081   2.670   1.259   1.847
    2PC     C3217082   2.617   1.050   1.815
    2PC     H2A17083   2.693   1.039   1.738
    2PC     H2B17084   2.658   1.015   1.909
    2PC     N3117085   2.506   0.953   1.777
    2PC     C3317086   2.455   0.984   1.640
    2PC     H3A17087   2.376   0.913   1.615
    2PC     H3B17088   2.415   1.086   1.639
    2PC     H3C17089   2.538   0.975   1.569
    2PC     C3417090   2.561   0.814   1.774
    2PC     H4A17091   2.637   0.808   1.696
    2PC     H4B17092   2.606   0.792   1.871
    2PC     H4C17093   2.480   0.744   1.753
    2PC     C3517094   2.391   0.956   1.874
    2PC     H5A17095   2.344   1.054   1.871
    2PC     H5B17096   2.428   0.934   1.974
    2PC     H5C17097   2.318   0.880   1.843
    2PC     O3317098   2.283   1.336   2.001
    2PC     O3417099   2.433   1.456   1.867
    2PC     O2117100   2.657   1.530   2.330
    2PC     C2117101   2.648   1.665   2.335
    2PC     O2217102   2.542   1.725   2.344
    3OL     C1217103   2.783   1.732   2.327
    3OL     H2R17104   2.783   1.796   2.239
    3OL     H2S17105   2.860   1.657   2.312
    3OL     C1317106   2.815   1.816   2.452
    3OL     H3R17107   2.738   1.893   2.466
    3OL     H3S17108   2.910   1.869   2.435
    3OL     C1417109   2.826   1.730   2.580
    3OL     H4R17110   2.890   1.644   2.561
    3OL     H4S17111   2.727   1.693   2.607
    3OL     C1517112   2.884   1.812   2.697
    3OL     H5R17113   2.829   1.905   2.711
    3OL     H5S17114   2.987   1.840   2.672
    3OL     C1617115   2.886   1.733   2.830
    3OL     H6R17116   2.961   1.776   2.896
    3OL     H6S17117   2.915   1.629   2.811
    3OL     C1717118   2.749   1.738   2.900
    3OL     H7R17119   2.672   1.695   2.835
    3OL     H7S17120   2.722   1.842   2.918
    3OL     C1817121   2.750   1.662   3.034
    3OL     H8R17122   2.830   1.702   3.097
    3OL     H8S17123   2.772   1.557   3.014
    3OL     C1917124   2.616   1.674   3.104
    3OL     H9R17125   2.531   1.687   3.038
    3OL    C11017126   2.596   1.676   3.236
    3OL    H10R17127   2.495   1.689   3.274
    3OL    C11117128   2.702   1.654   3.342
    3OL    H11R17129   2.795   1.617   3.297
    3OL    H11S17130   2.667   1.576   3.410
    3OL    C11217131   2.733   1.781   3.424
    3OL    H12R17132   2.764   1.861   3.356
    3OL    H12S17133   2.817   1.760   3.490
    3OL    C11317134   2.614   1.828   3.509
    3OL    H13R17135   2.583   1.747   3.577
    3OL    H13S17136   2.528   1.852   3.445
    3OL    C11417137   2.652   1.952   3.591
    3OL    H14R17138   2.679   2.034   3.524
    3OL    H14S17139   2.740   1.930   3.653
    3OL    C11517140   2.537   1.998   3.682
    3OL    H15R17141   2.510   1.917   3.751
    3OL    H15S17142   2.449   2.020   3.621
    3OL    C11617143   2.576   2.123   3.763
    3OL    H16R17144   2.600   2.205   3.694
    3OL    H16S17145   2.666   2.102   3.822
    3OL    C11717146   2.463   2.166   3.858
    3OL    H17R17147   2.441   2.086   3.929
    3OL    H17S17148   2.372   2.185   3.801
    3OL    C11817149   2.502   2.293   3.936
    3OL    H18R17150   2.518   2.377   3.867
    3OL    H18S17151   2.593   2.277   3.993
    3OL    H18T17152   2.422   2.321   4.005
    4SOL     OW17153   0.909   5.118   7.333
    4SOL    HW117154   0.907   5.024   7.313
    4SOL    HW217155   0.929   5.122   7.427
    5SOL     OW17156   5.276   1.255   6.325
    5SOL    HW117157   5.342   1.255   6.256
    5SOL    HW217158   5.318   1.295   6.401
    6SOL     OW17159   0.063   1.025   0.928
    6SOL    HW117160   0.154   1.036   0.902
    6SOL    HW217161   0.066   1.010   1.023
    7SOL     OW17162   6.369   5.661   2.107
    7SOL    HW117163   6.331   5.582   2.069
    7SOL    HW217164   6.324   5.671   2.191
    8SOL     OW17165   5.801   1.945   0.279
    8SOL    HW117166   5.872   1.948   0.215
    8SOL    HW217167   5.815   2.022   0.334
    9SOL     OW17168   0.637   3.733   0.731
    9SOL    HW117169   0.606   3.716   0.820
    9SOL    HW217170   0.720   3.779   0.743
   10SOL     OW17171   1.869   0.870   7.112
   10SOL    HW117172   1.933   0.845   7.179
   10SOL    HW217173   1.922   0.908   7.042
   11SOL     OW17174   0.315   1.263   6.476
   11SOL    HW117175   0.357   1.191   6.524
   11SOL    HW217176   0.315   1.234   6.385
   12SOL     OW17177   5.289   3.526   7.503
   12SOL    HW117178   5.338   3.557   7.579
   12SOL    HW217179   5.237   3.452   7.536
   13SOL     OW17180   1.656   4.614   0.983
   13SOL    HW117181   1.625   4.626   1.073
   13SOL    HW217182   1.741   4.571   0.992
   14SOL     OW17183   6.332   2.521   7.178
   14SOL    HW117184   6.400   2.515   7.111
   14SOL    HW217185   6.338   2.612   7.210
   15SOL     OW17186   0.467   0.258   0.014
   15SOL    HW117187   0.531   0.278   0.082
   15SOL    HW217188   0.384   0.292   0.048
   16SOL     OW17189   0.208   0.315   0.110
   16SOL    HW117190   0.200   0.392   0.166
   16SOL    HW217191   0.142   0.254   0.142
   17SOL     OW17192   2.363   1.726   1.092
   17SOL    HW117193   2.269   1.740   1.099
   17SOL    HW217194   2.373   1.663   1.021
   18SOL     OW17195   4.583   2.291   5.633
   18SOL    HW117196   4.677   2.307   5.624
   18SOL    HW217197   4.542   2.369   5.596
   19SOL     OW17198   4.294   4.851   6.775
   19SOL    HW117199   4.387   4.871   6.784
   19SOL    HW217200   4.292   4.771   6.721
   20SOL     OW17201   1.244   4.995   0.380
   20SOL    HW117202   1.330   5.032   0.361
   20SOL    HW217203   1.216   4.956   0.296
   21SOL     OW17204   2.746   4.880   1.213
   21SOL    HW117205   2.754   4.794   1.255
   21SOL    HW217206   2.684   4.866   1.142
   22SOL     OW17207   2.281   3.340   6.177
   22SOL    HW117208   2.299   3.410   6.240
   22SOL    HW217209   2.206   3.293   6.214
   23SOL     OW17210   2.530   1.006   5.366
   23SOL    HW117211   2.524   1.072   5.297
   23SOL    HW217212   2.454   0.950   5.352
   24SOL     OW17213   0.256   2.838   0.092
   24SOL    HW117214   0.206   2.877   0.163
   24SOL    HW217215   0.190   2.805   0.031
   25SOL     OW17216   5.560   0.506   7.346
   25SOL    HW117217   5.556   0.477   7.255
   25SOL    HW217218   5.540   0.599   7.343
   26SOL     OW17219   0.847   2.355   0.215
   26SOL    HW117220   0.873   2.267   0.190
   26SOL    HW217221   0.794   2.387   0.141
   27SOL     OW17222   1.586   2.873   7.510
   27SOL    HW117223   1.516   2.815   7.480
   27SOL    HW217224   1.565   2.889   7.603
   28SOL     OW17225   3.454   0.873   0.110
   28SOL    HW117226   3.365   0.851   0.082
   28SOL    HW217227   3.442   0.925   0.189
   29SOL     OW17228   5.771   5.604   6.642
   29SOL    HW117229   5.691   5.566   6.678
   29SOL    HW217230   5.745   5.689   6.609
   30SOL     OW17231   0.877   6.044   7.237
   30SOL    HW117232   0.874   6.133   7.202
   30SOL    HW217233   0.940   6.048   7.308
   31SOL     OW17234   0.456   4.795   6.530
   31SOL    HW117235   0.432   4.878   6.489
   31SOL    HW217236   0.480   4.819   6.620
   32SOL     OW17237   6.225   6.292   7.119
   32SOL    HW117238   6.235   6.305   7.024
   32SOL    HW217239   6.279   6.216   7.139
   33SOL     OW17240   1.492   1.313   6.703
   33SOL    HW117241   1.481   1.376   6.774
   33SOL    HW217242   1.583   1.284   6.711
   34SOL     OW17243   3.522   1.717   7.365
   34SOL    HW117244   3.493   1.776   7.296
   34SOL    HW217245   3.454   1.722   7.432
   35SOL     OW17246   5.684   2.185   6.800
   35SOL    HW117247   5.698   2.199   6.894
   35SOL    HW217248   5.707   2.269   6.760
   36SOL     OW17249   4.472   4.812   0.638
   36SOL    HW117250   4.544   4.773   0.588
   36SOL    HW217251   4.471   4.763   0.721
   37SOL     OW17252   2.607   6.010   7.120
   37SOL    HW117253   2.670   6.074   7.153
   37SOL    HW217254   2.539   6.062   7.078
   38SOL     OW17255   2.776   1.310   7.749
   38SOL    HW117256   2.785   1.221   7.783
   38SOL    HW217257   2.697   1.344   7.791
   39SOL     OW17258   3.284   1.743   7.522
   39SOL    HW117259   3.263   1.808   7.589
   39SOL    HW217260   3.273   1.659   7.566
   40SOL     OW17261   0.691   0.410   6.595
   40SOL    HW117262   0.720   0.489   6.548
   40SOL    HW217263   0.720   0.425   6.685
   41SOL     OW17264   1.021   2.851   6.248
   41SOL    HW117265   0.980   2.774   6.208
   41SOL    HW217266   0.997   2.924   6.190
   42SOL     OW17267   0.479   0.571   0.488
   42SOL    HW117268   0.472   0.576   0.393
   42SOL    HW217269   0.505   0.660   0.515
   43SOL     OW17270   4.980   2.529   0.191
   43SOL    HW117271   5.000   2.614   0.231
   43SOL    HW217272   5.065   2.490   0.173
   44SOL     OW17273   4.397   0.974   7.668
   44SOL    HW117274   4.484   0.998   7.636
   44SOL    HW217275   4.394   0.879   7.661
   45SOL     OW17276   5.908   1.655   6.537
   45SOL    HW117277   5.915   1.607   6.455
   45SOL    HW217278   5.872   1.740   6.512
   46SOL     OW17279   6.122   5.907   7.769
   46SOL    HW117280   6.202   5.855   7.758
   46SOL    HW217281   6.091   5.922   7.679
   47SOL     OW17282   0.573   3.698   1.558
   47SOL    HW117283   0.490   3.696   1.606
   47SOL    HW217284   0.575   3.616   1.510
   48SOL     OW17285   3.765   0.325   7.578
   48SOL    HW117286   3.845   0.312   7.527
   48SOL    HW217287   3.694   0.301   7.518
   49SOL     OW17288   3.304   0.152   5.943
   49SOL    HW117289   3.323   0.096   5.868
   49SOL    HW217290   3.322   0.096   6.019
   50SOL     OW17291   3.603   0.353   7.294
   50SOL    HW117292   3.668   0.420   7.313
   50SOL    HW217293   3.577   0.369   7.203
   51SOL     OW17294   2.254   1.722   7.143
   51SOL    HW117295   2.263   1.767   7.227
   51SOL    HW217296   2.285   1.633   7.161
   52SOL     OW17297   0.115   4.019   5.833
   52SOL    HW117298   0.207   4.040   5.814
   52SOL    HW217299   0.075   4.008   5.746
   53SOL     OW17300   2.636   1.771   1.933
   53SOL    HW117301   2.573   1.832   1.970
   53SOL    HW217302   2.626   1.779   1.839
   54SOL     OW17303   1.378   2.596   7.683
   54SOL    HW117304   1.360   2.653   7.758
   54SOL    HW217305   1.312   2.527   7.690
   55SOL     OW17306   4.755   4.151   7.402
   55SOL    HW117307   4.750   4.100   7.483
   55SOL    HW217308   4.789   4.236   7.429
   56SOL     OW17309   1.670   2.477   6.090
   56SOL    HW117310   1.666   2.537   6.015
   56SOL    HW217311   1.637   2.394   6.056
   57SOL     OW17312   4.432   4.563   5.828
   57SOL    HW117313   4.490   4.634   5.855
   57SOL    HW217314   4.458   4.543   5.738
   58SOL     OW17315   4.010   1.335   0.930
   58SOL    HW117316   4.034   1.308   1.019
   58SOL    HW217317   3.970   1.258   0.891
   59SOL     OW17318   3.741   5.297   0.847
   59SOL    HW117319   3.686   5.285   0.769
   59SOL    HW217320   3.681   5.324   0.915
   60SOL     OW17321   4.451   1.493   0.964
   60SOL    HW117322   4.528   1.516   0.914
   60SOL    HW217323   4.382   1.481   0.899
   61SOL     OW17324   4.946   5.831   7.165
   61SOL    HW117325   4.991   5.801   7.244
   61SOL    HW217326   4.969   5.924   7.158
   62SOL     OW17327   5.211   6.313   7.158
   62SOL    HW117328   5.176   6.366   7.230
   62SOL    HW217329   5.306   6.326   7.163
   63SOL     OW17330   3.471   5.454   0.632
   63SOL    HW117331   3.540   5.390   0.612
   63SOL    HW217332   3.448   5.490   0.547
   64SOL     OW17333   1.521   2.462   0.385
   64SOL    HW117334   1.494   2.547   0.419
   64SOL    HW217335   1.465   2.448   0.309
   65SOL     OW17336   3.561   4.737   0.998
   65SOL    HW117337   3.656   4.738   1.008
   65SOL    HW217338   3.533   4.824   1.026
   66SOL     OW17339   3.230   1.209   5.573
   66SOL    HW117340   3.168   1.182   5.640
   66SOL    HW217341   3.294   1.138   5.570
   67SOL     OW17342   0.175   3.244   7.058
   67SOL    HW117343   0.177   3.212   6.968
   67SOL    HW217344   0.085   3.275   7.071
   68SOL     OW17345   0.306   0.455   0.662
   68SOL    HW117346   0.226   0.434   0.614
   68SOL    HW217347   0.361   0.500   0.598
   69SOL     OW17348   3.950   4.512   0.467
   69SOL    HW117349   4.033   4.488   0.509
   69SOL    HW217350   3.891   4.439   0.486
   70SOL     OW17351   3.550   5.544   6.972
   70SOL    HW117352   3.605   5.507   6.904
   70SOL    HW217353   3.611   5.568   7.042
   71SOL     OW17354   0.289   1.279   1.102
   71SOL    HW117355   0.266   1.203   1.048
   71SOL    HW217356   0.208   1.302   1.147
   72SOL     OW17357   3.061   6.169   6.763
   72SOL    HW117358   2.966   6.157   6.752
   72SOL    HW217359   3.070   6.254   6.805
   73SOL     OW17360   1.255   6.433   5.964
   73SOL    HW117361   1.260   6.392   5.878
   73SOL    HW217362   1.162   6.439   5.983
   74SOL     OW17363   1.277   3.102   7.669
   74SOL    HW117364   1.353   3.054   7.700
   74SOL    HW217365   1.307   3.148   7.590
   75SOL     OW17366   1.011   2.883   1.061
   75SOL    HW117367   0.960   2.892   0.981
   75SOL    HW217368   1.080   2.821   1.039
   76SOL     OW17369   0.747   4.922   6.239
   76SOL    HW117370   0.744   4.946   6.331
   76SOL    HW217371   0.663   4.951   6.203
   77SOL     OW17372   3.317   1.424   5.974
   77SOL    HW117373   3.322   1.485   5.901
   77SOL    HW217374   3.327   1.479   6.052
   78SOL     OW17375   5.355   6.352   7.508
   78SOL    HW117376   5.280   6.380   7.456
   78SOL    HW217377   5.382   6.431   7.556
   79SOL     OW17378   5.525   4.700   7.348
   79SOL    HW117379   5.517   4.779   7.401
   79SOL    HW217380   5.496   4.725   7.261
   80SOL     OW17381   1.749   1.022   0.454
   80SOL    HW117382   1.747   0.926   0.450
   80SOL    HW217383   1.725   1.050   0.366
   81SOL     OW17384   3.310   4.184   6.040
   81SOL    HW117385   3.362   4.182   5.960
   81SOL    HW217386   3.371   4.213   6.108
   82SOL     OW17387   4.593   3.198   6.725
   82SOL    HW117388   4.654   3.129   6.701
   82SOL    HW217389   4.603   3.264   6.656
   83SOL     OW17390   2.785   3.180   0.935
   83SOL    HW117391   2.725   3.161   0.863
   83SOL    HW217392   2.869   3.144   0.906
   84SOL     OW17393   0.041   5.762   5.632
   84SOL    HW117394   6.431   5.838   5.623
   84SOL    HW217395   0.013   5.720   5.713
   85SOL     OW17396   5.157   2.706   1.775
   85SOL    HW117397   5.246   2.712   1.810
   85SOL    HW217398   5.145   2.788   1.726
   86SOL     OW17399   1.940   3.865   7.201
   86SOL    HW117400   2.033   3.858   7.178
   86SOL    HW217401   1.938   3.927   7.274
   87SOL     OW17402   1.951   3.392   2.287
   87SOL    HW117403   1.903   3.309   2.278
   87SOL    HW217404   1.923   3.427   2.371
   88SOL     OW17405   4.113   5.912   2.123
   88SOL    HW117406   4.030   5.864   2.129
   88SOL    HW217407   4.180   5.843   2.122
   89SOL     OW17408   4.392   2.349   6.852
   89SOL    HW117409   4.429   2.437   6.854
   89SOL    HW217410   4.374   2.329   6.944
   90SOL     OW17411   0.167   4.543   1.314
   90SOL    HW117412   0.258   4.516   1.325
   90SOL    HW217413   0.138   4.500   1.234
   91SOL     OW17414   4.651   1.054   7.592
   91SOL    HW117415   4.723   1.065   7.654
   91SOL    HW217416   4.694   1.033   7.509
   92SOL     OW17417   2.897   2.597   5.985
   92SOL    HW117418   2.867   2.688   5.991
   92SOL    HW217419   2.829   2.553   5.934
   93SOL     OW17420   3.041   4.201   1.280
   93SOL    HW117421   3.103   4.139   1.242
   93SOL    HW217422   3.071   4.287   1.251
   94SOL     OW17423   0.948   4.406   0.970
   94SOL    HW117424   0.861   4.444   0.975
   94SOL    HW217425   0.944   4.329   1.026
   95SOL     OW17426   4.939   1.253   7.505
   95SOL    HW117427   4.927   1.200   7.583
   95SOL    HW217428   4.858   1.303   7.498
   96SOL     OW17429   2.197   4.937   2.494
   96SOL    HW117430   2.201   5.032   2.506
   96SOL    HW217431   2.118   4.911   2.542
   97SOL     OW17432   2.233   0.714   2.023
   97SOL    HW117433   2.322   0.690   2.049
   97SOL    HW217434   2.207   0.782   2.085
   98SOL     OW17435   3.273   5.324   7.695
   98SOL    HW117436   3.192   5.284   7.727
   98SOL    HW217437   3.307   5.263   7.631
   99SOL     OW17438   0.672   1.870   6.646
   99SOL    HW117439   0.638   1.787   6.680
   99SOL    HW217440   0.610   1.895   6.577
  100SOL     OW17441   5.326   1.627   6.613
  100SOL    HW117442   5.287   1.711   6.588
  100SOL    HW217443   5.284   1.605   6.696
  101SOL     OW17444   1.069   5.142   6.561
  101SOL    HW117445   1.036   5.060   6.523
  101SOL    HW217446   1.156   5.120   6.593
  102SOL     OW17447   5.141   0.315   6.622
  102SOL    HW117448   5.152   0.406   6.591
  102SOL    HW217449   5.223   0.294   6.666
  103SOL     OW17450   2.711   1.185   0.936
  103SOL    HW117451   2.762   1.218   0.862
  103SOL    HW217452   2.775   1.145   0.993
  104SOL     OW17453   3.618   0.361   5.798
  104SOL    HW117454   3.679   0.408   5.741
  104SOL    HW217455   3.550   0.329   5.738
  105SOL     OW17456   3.617   3.104   6.355
  105SOL    HW117457   3.567   3.117   6.435
  105SOL    HW217458   3.676   3.179   6.351
  106SOL     OW17459   5.034   3.989   6.509
  106SOL    HW117460   4.960   3.949   6.555
  106SOL    HW217461   5.054   3.928   6.438
  107SOL     OW17462   3.428   2.545   7.272
  107SOL    HW117463   3.395   2.534   7.183
  107SOL    HW217464   3.519   2.571   7.261
  108SOL     OW17465   5.824   5.368   0.054
  108SOL    HW117466   5.731   5.349   0.041
  108SOL    HW217467   5.847   5.320   0.134
  109SOL     OW17468   2.206   1.177   2.193
  109SOL    HW117469   2.206   1.230   2.273
  109SOL    HW217470   2.233   1.237   2.124
  110SOL     OW17471   3.065   0.289   0.556
  110SOL    HW117472   3.109   0.214   0.595
  110SOL    HW217473   3.135   0.354   0.544
  111SOL     OW17474   0.946   4.390   0.218
  111SOL    HW117475   1.015   4.358   0.276
  111SOL    HW217476   0.961   4.484   0.213
  112SOL     OW17477   0.427   3.415   7.537
  112SOL    HW117478   0.441   3.334   7.489
  112SOL    HW217479   0.492   3.414   7.608
  113SOL     OW17480   2.800   1.658   6.591
  113SOL    HW117481   2.856   1.729   6.561
  113SOL    HW217482   2.837   1.580   6.550
  114SOL     OW17483   2.491   6.129   6.123
  114SOL    HW117484   2.423   6.175   6.173
  114SOL    HW217485   2.572   6.148   6.170
  115SOL     OW17486   4.864   2.455   7.499
  115SOL    HW117487   4.932   2.405   7.455
  115SOL    HW217488   4.796   2.467   7.434
  116SOL     OW17489   2.311   1.437   1.629
  116SOL    HW117490   2.343   1.445   1.718
  116SOL    HW217491   2.379   1.387   1.583
  117SOL     OW17492   2.382   5.559   5.662
  117SOL    HW117493   2.307   5.500   5.667
  117SOL    HW217494   2.406   5.559   5.569
  118SOL     OW17495   0.527   3.173   1.465
  118SOL    HW117496   0.435   3.145   1.466
  118SOL    HW217497   0.575   3.098   1.500
  119SOL     OW17498   2.149   2.298   2.168
  119SOL    HW117499   2.151   2.378   2.221
  119SOL    HW217500   2.077   2.312   2.106
  120SOL     OW17501   0.649   0.831   0.269
  120SOL    HW117502   0.559   0.846   0.238
  120SOL    HW217503   0.697   0.807   0.190
  121SOL     OW17504   3.657   5.259   0.581
  121SOL    HW117505   3.748   5.257   0.553
  121SOL    HW217506   3.613   5.195   0.526
  122SOL     OW17507   4.778   5.381   0.791
  122SOL    HW117508   4.690   5.374   0.752
  122SOL    HW217509   4.808   5.468   0.767
  123SOL     OW17510   0.314   2.723   6.011
  123SOL    HW117511   0.387   2.663   6.000
  123SOL    HW217512   0.285   2.710   6.102
  124SOL     OW17513   4.205   5.351   6.176
  124SOL    HW117514   4.192   5.427   6.232
  124SOL    HW217515   4.297   5.328   6.187
  125SOL     OW17516   3.854   4.139   1.249
  125SOL    HW117517   3.786   4.133   1.316
  125SOL    HW217518   3.936   4.140   1.299
  126SOL     OW17519   4.472   2.618   6.832
  126SOL    HW117520   4.463   2.666   6.914
  126SOL    HW217521   4.434   2.675   6.765
  127SOL     OW17522   2.057   1.674   5.500
  127SOL    HW117523   1.986   1.721   5.544
  127SOL    HW217524   2.136   1.720   5.527
  128SOL     OW17525   3.646   3.851   0.041
  128SOL    HW117526   3.610   3.858   7.755
  128SOL    HW217527   3.684   3.937   0.058
  129SOL     OW17528   5.465   0.650   5.738
  129SOL    HW117529   5.392   0.671   5.797
  129SOL    HW217530   5.543   0.661   5.791
  130SOL     OW17531   2.931   5.968   7.780
  130SOL    HW117532   2.956   5.878   7.798
  130SOL    HW217533   3.014   6.015   7.773
  131SOL     OW17534   0.799   4.181   5.938
  131SOL    HW117535   0.725   4.146   5.888
  131SOL    HW217536   0.824   4.109   5.996
  132SOL     OW17537   1.532   3.947   7.569
  132SOL    HW117538   1.555   3.899   7.490
  132SOL    HW217539   1.436   3.939   7.575
  133SOL     OW17540   4.312   6.270   6.740
  133SOL    HW117541   4.398   6.279   6.701
  133SOL    HW217542   4.309   6.179   6.772
  134SOL     OW17543   2.280   3.064   7.435
  134SOL    HW117544   2.230   3.116   7.371
  134SOL    HW217545   2.214   3.016   7.484
  135SOL     OW17546   1.303   3.909   6.112
  135SOL    HW117547   1.345   3.945   6.034
  135SOL    HW217548   1.287   3.985   6.168
  136SOL     OW17549   2.305   4.824   2.270
  136SOL    HW117550   2.238   4.762   2.240
  136SOL    HW217551   2.269   4.862   2.351
  137SOL     OW17552   4.115   4.532   1.070
  137SOL    HW117553   4.135   4.622   1.046
  137SOL    HW217554   4.106   4.486   0.987
  138SOL     OW17555   1.801   0.040   6.193
  138SOL    HW117556   1.706   0.030   6.201
  138SOL    HW217557   1.815   0.133   6.177
  139SOL     OW17558   3.389   5.305   6.955
  139SOL    HW117559   3.428   5.392   6.961
  139SOL    HW217560   3.295   5.322   6.948
  140SOL     OW17561   1.787   1.703   7.140
  140SOL    HW117562   1.733   1.624   7.135
  140SOL    HW217563   1.820   1.716   7.051
  141SOL     OW17564   0.585   6.170   1.530
  141SOL    HW117565   0.579   6.253   1.483
  141SOL    HW217566   0.578   6.102   1.463
  142SOL     OW17567   3.283   1.623   7.091
  142SOL    HW117568   3.242   1.658   7.170
  142SOL    HW217569   3.325   1.698   7.050
  143SOL     OW17570   0.086   0.540   1.103
  143SOL    HW117571   0.105   0.542   1.197
  143SOL    HW217572   0.056   0.451   1.087
  144SOL     OW17573   6.297   4.419   7.340
  144SOL    HW117574   6.231   4.384   7.400
  144SOL    HW217575   6.269   4.390   7.253
  145SOL     OW17576   3.070   0.588   6.565
  145SOL    HW117577   3.017   0.514   6.538
  145SOL    HW217578   3.045   0.659   6.505
  146SOL     OW17579   5.933   3.518   1.579
  146SOL    HW117580   5.935   3.437   1.631
  146SOL    HW217581   6.025   3.537   1.561
  147SOL     OW17582   0.686   0.039   0.454
  147SOL    HW117583   0.641   6.403   0.444
  147SOL    HW217584   0.616   0.102   0.470
  148SOL     OW17585   3.949   2.964   6.314
  148SOL    HW117586   3.924   3.045   6.268
  148SOL    HW217587   3.975   2.904   6.244
  149SOL     OW17588   0.152   6.307   1.424
  149SOL    HW117589   0.175   6.219   1.452
  149SOL    HW217590   0.233   6.342   1.386
  150SOL     OW17591   4.969   0.995   0.606
  150SOL    HW117592   5.010   0.910   0.621
  150SOL    HW217593   4.913   0.981   0.529
  151SOL     OW17594   4.937   5.017   1.102
  151SOL    HW117595   4.980   5.051   1.181
  151SOL    HW217596   4.953   4.922   1.106
  152SOL     OW17597   4.957   2.628   7.698
  152SOL    HW117598   4.930   2.559   7.638
  152SOL    HW217599   4.945   2.590   7.785
  153SOL     OW17600   2.289   5.095   1.164
  153SOL    HW117601   2.217   5.156   1.178
  153SOL    HW217602   2.368   5.143   1.190
  154SOL     OW17603   3.857   5.762   6.696
  154SOL    HW117604   3.816   5.831   6.643
  154SOL    HW217605   3.840   5.681   6.648
  155SOL     OW17606   5.255   5.700   6.963
  155SOL    HW117607   5.218   5.643   7.031
  155SOL    HW217608   5.234   5.789   6.992
  156SOL     OW17609   2.333   3.594   0.445
  156SOL    HW117610   2.306   3.622   0.357
  156SOL    HW217611   2.270   3.526   0.468
  157SOL     OW17612   6.051   1.281   6.282
  157SOL    HW117613   6.039   1.189   6.257
  157SOL    HW217614   6.146   1.291   6.290
  158SOL     OW17615   0.623   1.370   0.454
  158SOL    HW117616   0.542   1.420   0.467
  158SOL    HW217617   0.689   1.419   0.503
  159SOL     OW17618   1.922   3.147   6.791
  159SOL    HW117619   1.844   3.187   6.831
  159SOL    HW217620   1.994   3.205   6.816
  160SOL     OW17621   4.568   2.073   0.935
  160SOL    HW117622   4.537   2.018   0.864
  160SOL    HW217623   4.661   2.052   0.943
  161SOL     OW17624   0.200   2.607   1.605
  161SOL    HW117625   0.219   2.691   1.647
  161SOL    HW217626   0.164   2.552   1.675
  162SOL     OW17627   2.004   1.820   1.371
  162SOL    HW117628   2.089   1.832   1.414
  162SOL    HW217629   1.968   1.909   1.363
  163SOL     OW17630   1.853   1.533   5.387
  163SOL    HW117631   1.932   1.576   5.419
  163SOL    HW217632   1.881   1.490   5.306
  164SOL     OW17633   4.284   4.642   6.600
  164SOL    HW117634   4.331   4.562   6.578
  164SOL    HW217635   4.211   4.645   6.538
  165SOL     OW17636   0.979   1.235   0.128
  165SOL    HW117637   0.924   1.305   0.093
  165SOL    HW217638   1.006   1.184   0.052
  166SOL     OW17639   2.525   4.452   7.258
  166SOL    HW117640   2.479   4.399   7.322
  166SOL    HW217641   2.456   4.489   7.203
  167SOL     OW17642   1.384   5.112   5.794
  167SOL    HW117643   1.456   5.155   5.747
  167SOL    HW217644   1.426   5.041   5.842
  168SOL     OW17645   1.587   2.702   0.697
  168SOL    HW117646   1.586   2.771   0.764
  168SOL    HW217647   1.644   2.635   0.733
  169SOL     OW17648   3.085   4.624   1.468
  169SOL    HW117649   3.160   4.646   1.523
  169SOL    HW217650   3.072   4.531   1.481
  170SOL     OW17651   4.645   1.791   7.020
  170SOL    HW117652   4.646   1.752   7.108
  170SOL    HW217653   4.693   1.873   7.030
  171SOL     OW17654   6.112   0.153   6.859
  171SOL    HW117655   6.176   0.175   6.927
  171SOL    HW217656   6.134   0.064   6.833
  172SOL     OW17657   4.185   1.041   1.957
  172SOL    HW117658   4.204   1.125   1.999
  172SOL    HW217659   4.271   1.000   1.948
  173SOL     OW17660   1.152   1.696   6.960
  173SOL    HW117661   1.118   1.613   6.994
  173SOL    HW217662   1.213   1.725   7.027
  174SOL     OW17663   0.080   5.634   6.108
  174SOL    HW117664   0.094   5.721   6.146
  174SOL    HW217665   0.111   5.573   6.176
  175SOL     OW17666   0.827   3.230   7.674
  175SOL    HW117667   0.850   3.234   7.581
  175SOL    HW217668   0.911   3.229   7.720
  176SOL     OW17669   3.243   5.769   0.526
  176SOL    HW117670   3.204   5.742   0.608
  176SOL    HW217671   3.180   5.831   0.488
  177SOL     OW17672   0.477   5.268   7.158
  177SOL    HW117673   0.435   5.207   7.219
  177SOL    HW217674   0.562   5.287   7.199
  178SOL     OW17675   4.272   4.177   7.448
  178SOL    HW117676   4.273   4.088   7.414
  178SOL    HW217677   4.352   4.184   7.500
  179SOL     OW17678   0.625   4.358   6.057
  179SOL    HW117679   0.652   4.378   6.146
  179SOL    HW217680   0.695   4.303   6.022
  180SOL     OW17681   3.918   2.319   7.290
  180SOL    HW117682   3.836   2.327   7.338
  180SOL    HW217683   3.986   2.330   7.356
  181SOL     OW17684   5.438   2.427   0.894
  181SOL    HW117685   5.378   2.454   0.964
  181SOL    HW217686   5.511   2.385   0.940
  182SOL     OW17687   0.748   5.006   0.339
  182SOL    HW117688   0.829   5.021   0.387
  182SOL    HW217689   0.758   5.056   0.258
  183SOL     OW17690   4.765   1.503   6.242
  183SOL    HW117691   4.839   1.561   6.221
  183SOL    HW217692   4.738   1.468   6.157
  184SOL     OW17693   2.784   4.107   1.247
  184SOL    HW117694   2.752   4.144   1.165
  184SOL    HW217695   2.875   4.137   1.253
  185SOL     OW17696   4.552   4.821   7.059
  185SOL    HW117697   4.558   4.897   7.118
  185SOL    HW217698   4.557   4.859   6.971
  186SOL     OW17699   5.301   4.427   7.647
  186SOL    HW117700   5.353   4.350   7.623
  186SOL    HW217701   5.224   4.391   7.692
  187SOL     OW17702   1.899   2.228   6.892
  187SOL    HW117703   1.928   2.152   6.842
  187SOL    HW217704   1.935   2.214   6.980
  188SOL     OW17705   5.538   5.340   0.344
  188SOL    HW117706   5.518   5.293   0.425
  188SOL    HW217707   5.567   5.271   0.283
  189SOL     OW17708   1.339   4.506   0.656
  189SOL    HW117709   1.248   4.480   0.668
  189SOL    HW217710   1.335   4.575   0.589
  190SOL     OW17711   2.520   5.596   6.069
  190SOL    HW117712   2.444   5.647   6.041
  190SOL    HW217713   2.573   5.586   5.990
  191SOL     OW17714   3.468   5.927   0.516
  191SOL    HW117715   3.435   5.997   0.572
  191SOL    HW217716   3.399   5.861   0.517
  192SOL     OW17717   4.670   6.013   0.980
  192SOL    HW117718   4.668   6.109   0.974
  192SOL    HW217719   4.594   5.990   1.032
  193SOL     OW17720   0.887   5.422   1.512
  193SOL    HW117721   0.906   5.452   1.601
  193SOL    HW217722   0.828   5.490   1.477
  194SOL     OW17723   6.274   5.898   6.058
  194SOL    HW117724   6.224   5.832   6.010
  194SOL    HW217725   6.347   5.920   6.000
  195SOL     OW17726   0.138   1.924   1.176
  195SOL    HW117727   0.183   1.864   1.235
  195SOL    HW217728   0.208   1.980   1.141
  196SOL     OW17729   0.107   5.072   7.476
  196SOL    HW117730   0.134   5.014   7.547
  196SOL    HW217731   0.014   5.051   7.463
  197SOL     OW17732   1.602   0.072   0.372
  197SOL    HW117733   1.607   0.043   0.463
  197SOL    HW217734   1.633   6.445   0.322
  198SOL     OW17735   1.763   0.289   0.433
  198SOL    HW117736   1.791   0.256   0.519
  198SOL    HW217737   1.709   0.220   0.397
  199SOL     OW17738   3.404   2.784   6.122
  199SOL    HW117739   3.376   2.787   6.213
  199SOL    HW217740   3.339   2.834   6.074
  200SOL     OW17741   2.482   4.400   6.297
  200SOL    HW117742   2.522   4.351   6.225
  200SOL    HW217743   2.535   4.479   6.305
  201SOL     OW17744   4.071   1.643   2.371
  201SOL    HW117745   4.161   1.612   2.362
  201SOL    HW217746   4.030   1.581   2.431
  202SOL     OW17747   5.983   5.256   6.703
  202SOL    HW117748   5.906   5.235   6.651
  202SOL    HW217749   5.997   5.178   6.757
  203SOL     OW17750   1.068   0.829   0.018
  203SOL    HW117751   1.083   0.869   0.104
  203SOL    HW217752   1.152   0.789   7.797
  204SOL     OW17753   0.546   3.983   0.637
  204SOL    HW117754   0.559   3.889   0.643
  204SOL    HW217755   0.616   4.013   0.578
  205SOL     OW17756   5.358   4.467   7.356
  205SOL    HW117757   5.323   4.468   7.445
  205SOL    HW217758   5.403   4.551   7.347
  206SOL     OW17759   4.236   1.938   6.694
  206SOL    HW117760   4.304   2.006   6.701
  206SOL    HW217761   4.279   1.865   6.650
  207SOL     OW17762   5.312   3.273   0.046
  207SOL    HW117763   5.320   3.197   0.104
  207SOL    HW217764   5.387   3.265   7.790
  208SOL     OW17765   2.205   3.126   0.994
  208SOL    HW117766   2.256   3.135   1.075
  208SOL    HW217767   2.117   3.155   1.018
  209SOL     OW17768   6.425   1.959   7.772
  209SOL    HW117769   6.409   1.941   0.062
  209SOL    HW217770   0.066   1.926   7.757
  210SOL     OW17771   4.077   0.903   7.473
  210SOL    HW117772   4.065   0.808   7.462
  210SOL    HW217773   4.171   0.916   7.466
  211SOL     OW17774   4.646   6.009   6.638
  211SOL    HW117775   4.620   6.099   6.620
  211SOL    HW217776   4.571   5.956   6.612
  212SOL     OW17777   0.226   3.071   6.146
  212SOL    HW117778   0.228   3.095   6.238
  212SOL    HW217779   0.134   3.051   6.128
  213SOL     OW17780   4.318   4.300   5.517
  213SOL    HW117781   4.234   4.306   5.473
  213SOL    HW217782   4.351   4.213   5.494
  214SOL     OW17783   1.412   6.174   7.294
  214SOL    HW117784   1.364   6.120   7.231
  214SOL    HW217785   1.488   6.206   7.245
  215SOL     OW17786   4.170   6.103   5.837
  215SOL    HW117787   4.218   6.150   5.769
  215SOL    HW217788   4.219   6.022   5.850
  216SOL     OW17789   5.869   4.012   0.947
  216SOL    HW117790   5.958   4.040   0.927
  216SOL    HW217791   5.868   3.918   0.927
  217SOL     OW17792   5.151   3.694   1.181
  217SOL    HW117793   5.059   3.718   1.186
  217SOL    HW217794   5.157   3.610   1.227
  218SOL     OW17795   3.742   6.211   1.034
  218SOL    HW117796   3.736   6.306   1.039
  218SOL    HW217797   3.721   6.189   0.944
  219SOL     OW17798   0.166   0.543   1.362
  219SOL    HW117799   0.178   0.460   1.409
  219SOL    HW217800   0.135   0.604   1.429
  220SOL     OW17801   4.816   2.516   0.597
  220SOL    HW117802   4.724   2.503   0.621
  220SOL    HW217803   4.853   2.564   0.672
  221SOL     OW17804   3.263   5.002   2.279
  221SOL    HW117805   3.230   4.914   2.297
  221SOL    HW217806   3.340   5.010   2.335
  222SOL     OW17807   0.915   5.591   0.521
  222SOL    HW117808   1.006   5.604   0.497
  222SOL    HW217809   0.880   5.680   0.530
  223SOL     OW17810   2.206   3.334   5.612
  223SOL    HW117811   2.285   3.300   5.653
  223SOL    HW217812   2.231   3.349   5.521
  224SOL     OW17813   4.496   4.813   2.036
  224SOL    HW117814   4.472   4.728   2.072
  224SOL    HW217815   4.586   4.826   2.065
  225SOL     OW17816   5.272   0.861   1.097
  225SOL    HW117817   5.269   0.913   1.016
  225SOL    HW217818   5.334   0.908   1.153
  226SOL     OW17819   2.748   0.956   0.284
  226SOL    HW117820   2.737   1.029   0.344
  226SOL    HW217821   2.665   0.907   0.290
  227SOL     OW17822   4.441   3.143   1.690
  227SOL    HW117823   4.433   3.049   1.708
  227SOL    HW217824   4.506   3.174   1.753
  228SOL     OW17825   3.293   3.180   7.197
  228SOL    HW117826   3.304   3.223   7.281
  228SOL    HW217827   3.275   3.088   7.218
  229SOL     OW17828   5.381   1.938   6.228
  229SOL    HW117829   5.370   1.849   6.264
  229SOL    HW217830   5.305   1.986   6.262
  230SOL     OW17831   3.877   2.556   6.826
  230SOL    HW117832   3.795   2.599   6.802
  230SOL    HW217833   3.862   2.525   6.916
  231SOL     OW17834   4.475   0.895   1.041
  231SOL    HW117835   4.549   0.950   1.066
  231SOL    HW217836   4.402   0.955   1.033
  232SOL     OW17837   1.222   5.710   1.057
  232SOL    HW117838   1.178   5.688   1.139
  232SOL    HW217839   1.152   5.743   1.000
  233SOL     OW17840   5.833   2.949   0.830
  233SOL    HW117841   5.759   2.930   0.773
  233SOL    HW217842   5.794   2.991   0.907
  234SOL     OW17843   0.884   1.980   0.507
  234SOL    HW117844   0.898   1.936   0.423
  234SOL    HW217845   0.954   1.945   0.563
  235SOL     OW17846   2.201   2.354   6.162
  235SOL    HW117847   2.155   2.432   6.191
  235SOL    HW217848   2.294   2.376   6.166
  236SOL     OW17849   5.408   0.630   6.943
  236SOL    HW117850   5.359   0.683   7.007
  236SOL    HW217851   5.454   0.565   6.996
  237SOL     OW17852   0.669   5.643   7.488
  237SOL    HW117853   0.748   5.688   7.457
  237SOL    HW217854   0.608   5.649   7.415
  238SOL     OW17855   1.336   4.820   6.413
  238SOL    HW117856   1.395   4.857   6.349
  238SOL    HW217857   1.325   4.729   6.386
  239SOL     OW17858   5.724   1.454   0.829
  239SOL    HW117859   5.713   1.451   0.734
  239SOL    HW217860   5.663   1.389   0.862
  240SOL     OW17861   0.987   5.096   0.073
  240SOL    HW117862   0.892   5.107   0.081
  240SOL    HW217863   1.024   5.168   0.125
  241SOL     OW17864   2.694   1.086   6.781
  241SOL    HW117865   2.779   1.047   6.763
  241SOL    HW217866   2.707   1.180   6.764
  242SOL     OW17867   3.901   6.194   5.384
  242SOL    HW117868   3.947   6.133   5.327
  242SOL    HW217869   3.868   6.261   5.324
  243SOL     OW17870   0.530   6.365   7.614
  243SOL    HW117871   0.595   6.358   7.684
  243SOL    HW217872   0.547   6.289   7.558
  244SOL     OW17873   6.186   4.994   0.239
  244SOL    HW117874   6.178   5.086   0.215
  244SOL    HW217875   6.259   4.991   0.301
  245SOL     OW17876   2.345   4.602   7.095
  245SOL    HW117877   2.301   4.532   7.046
  245SOL    HW217878   2.368   4.667   7.028
  246SOL     OW17879   6.308   2.407   1.515
  246SOL    HW117880   6.356   2.397   1.597
  246SOL    HW217881   6.351   2.481   1.471
  247SOL     OW17882   0.434   4.323   6.788
  247SOL    HW117883   0.379   4.332   6.710
  247SOL    HW217884   0.500   4.259   6.764
  248SOL     OW17885   2.129   3.303   1.888
  248SOL    HW117886   2.165   3.295   1.800
  248SOL    HW217887   2.135   3.397   1.907
  249SOL     OW17888   5.796   6.000   6.341
  249SOL    HW117889   5.725   6.060   6.323
  249SOL    HW217890   5.806   5.950   6.259
  250SOL     OW17891   4.595   0.082   0.241
  250SOL    HW117892   4.557   0.011   0.189
  250SOL    HW217893   4.520   0.123   0.285
  251SOL     OW17894   4.653   4.339   6.594
  251SOL    HW117895   4.672   4.253   6.556
  251SOL    HW217896   4.560   4.337   6.615
  252SOL     OW17897   2.163   3.936   0.487
  252SOL    HW117898   2.201   4.018   0.458
  252SOL    HW217899   2.233   3.893   0.536
  253SOL     OW17900   5.172   0.050   0.331
  253SOL    HW117901   5.114   0.118   0.365
  253SOL    HW217902   5.242   0.045   0.396
  254SOL     OW17903   4.910   0.682   7.790
  254SOL    HW117904   4.885   0.648   7.704
  254SOL    HW217905   4.980   0.624   0.016
  255SOL     OW17906   0.834   1.318   7.075
  255SOL    HW117907   0.763   1.337   7.014
  255SOL    HW217908   0.795   1.323   7.162
  256SOL     OW17909   4.249   1.532   7.576
  256SOL    HW117910   4.244   1.457   7.517
  256SOL    HW217911   4.195   1.507   7.651
  257SOL     OW17912   0.449   3.554   6.514
  257SOL    HW117913   0.411   3.498   6.447
  257SOL    HW217914   0.441   3.643   6.479
  258SOL     OW17915   5.941   2.612   5.704
  258SOL    HW117916   5.882   2.687   5.710
  258SOL    HW217917   6.029   2.650   5.699
  259SOL     OW17918   2.957   5.140   1.562
  259SOL    HW117919   2.967   5.046   1.546
  259SOL    HW217920   2.864   5.151   1.585
  260SOL     OW17921   6.230   3.668   7.615
  260SOL    HW117922   6.283   3.692   7.691
  260SOL    HW217923   6.142   3.699   7.636
  261SOL     OW17924   1.869   0.179   7.096
  261SOL    HW117925   1.959   0.209   7.103
  261SOL    HW217926   1.825   0.219   7.171
  262SOL     OW17927   3.438   6.014   6.424
  262SOL    HW117928   3.455   5.927   6.389
  262SOL    HW217929   3.370   6.001   6.490
  263SOL     OW17930   2.549   1.551   6.592
  263SOL    HW117931   2.490   1.618   6.558
  263SOL    HW217932   2.636   1.591   6.588
  264SOL     OW17933   0.835   5.764   5.543
  264SOL    HW117934   0.762   5.821   5.520
  264SOL    HW217935   0.804   5.676   5.524
  265SOL     OW17936   1.541   0.003   6.273
  265SOL    HW117937   1.546   0.061   6.349
  265SOL    HW217938   1.498   6.372   6.306
  266SOL     OW17939   3.740   1.243   0.039
  266SOL    HW117940   3.678   1.301   7.796
  266SOL    HW217941   3.711   1.155   0.018
  267SOL     OW17942   2.218   3.975   1.911
  267SOL    HW117943   2.183   3.959   1.998
  267SOL    HW217944   2.190   3.900   1.859
  268SOL     OW17945   1.477   1.562   0.694
  268SOL    HW117946   1.570   1.575   0.673
  268SOL    HW217947   1.478   1.519   0.780
  269SOL     OW17948   3.674   1.653   0.653
  269SOL    HW117949   3.685   1.680   0.561
  269SOL    HW217950   3.762   1.658   0.690
  270SOL     OW17951   3.799   0.919   6.499
  270SOL    HW117952   3.725   0.868   6.533
  270SOL    HW217953   3.853   0.855   6.453
  271SOL     OW17954   3.933   5.108   0.781
  271SOL    HW117955   3.897   5.020   0.781
  271SOL    HW217956   3.863   5.163   0.816
  272SOL     OW17957   3.521   2.364   5.900
  272SOL    HW117958   3.512   2.271   5.921
  272SOL    HW217959   3.570   2.366   5.818
  273SOL     OW17960   0.482   4.830   7.121
  273SOL    HW117961   0.409   4.890   7.106
  273SOL    HW217962   0.443   4.743   7.116
  274SOL     OW17963   4.864   4.856   6.741
  274SOL    HW117964   4.896   4.841   6.652
  274SOL    HW217965   4.915   4.797   6.796
  275SOL     OW17966   4.494   2.408   1.085
  275SOL    HW117967   4.520   2.499   1.068
  275SOL    HW217968   4.474   2.373   0.999
  276SOL     OW17969   3.795   5.999   5.555
  276SOL    HW117970   3.826   6.072   5.501
  276SOL    HW217971   3.708   6.025   5.582
  277SOL     OW17972   0.811   1.420   2.286
  277SOL    HW117973   0.887   1.421   2.228
  277SOL    HW217974   0.773   1.334   2.274
  278SOL     OW17975   4.688   5.884   7.089
  278SOL    HW117976   4.681   5.973   7.123
  278SOL    HW217977   4.776   5.855   7.115
  279SOL     OW17978   5.244   0.798   6.649
  279SOL    HW117979   5.249   0.876   6.594
  279SOL    HW217980   5.333   0.785   6.681
  280SOL     OW17981   5.968   3.981   2.045
  280SOL    HW117982   5.927   4.044   1.985
  280SOL    HW217983   5.977   3.901   1.993
  281SOL     OW17984   1.479   0.265   7.665
  281SOL    HW117985   1.446   0.327   7.600
  281SOL    HW217986   1.571   0.288   7.676
  282SOL     OW17987   2.047   4.628   1.261
  282SOL    HW117988   1.997   4.628   1.342
  282SOL    HW217989   2.082   4.717   1.254
  283SOL     OW17990   2.531   5.975   7.510
  283SOL    HW117991   2.624   6.000   7.514
  283SOL    HW217992   2.486   6.046   7.556
  284SOL     OW17993   3.690   2.825   1.909
  284SOL    HW117994   3.701   2.731   1.922
  284SOL    HW217995   3.724   2.865   1.989
  285SOL     OW17996   4.954   5.808   1.074
  285SOL    HW117997   4.913   5.821   0.988
  285SOL    HW217998   4.881   5.794   1.134
  286SOL     OW17999   4.121   0.012   6.652
  286SOL    HW118000   4.163   0.096   6.673
  286SOL    HW218001   4.187   6.395   6.677
  287SOL     OW18002   3.612   5.674   1.846
  287SOL    HW118003   3.579   5.624   1.921
  287SOL    HW218004   3.535   5.688   1.791
  288SOL     OW18005   5.919   5.217   0.267
  288SOL    HW118006   5.934   5.189   0.357
  288SOL    HW218007   6.007   5.231   0.231
  289SOL     OW18008   4.898   0.662   1.213
  289SOL    HW118009   4.956   0.686   1.285
  289SOL    HW218010   4.932   0.577   1.182
  290SOL     OW18011   3.362   3.544   0.247
  290SOL    HW118012   3.293   3.496   0.294
  290SOL    HW218013   3.422   3.476   0.217
  291SOL     OW18014   3.472   3.618   1.537
  291SOL    HW118015   3.401   3.555   1.549
  291SOL    HW218016   3.497   3.643   1.625
  292SOL     OW18017   3.993   4.152   6.194
  292SOL    HW118018   4.032   4.237   6.215
  292SOL    HW218019   4.068   4.097   6.172
  293SOL     OW18020   2.581   3.709   0.776
  293SOL    HW118021   2.674   3.725   0.793
  293SOL    HW218022   2.579   3.630   0.723
  294SOL     OW18023   5.196   1.242   7.681
  294SOL    HW118024   5.129   1.245   7.612
  294SOL    HW218025   5.224   1.150   7.683
  295SOL     OW18026   3.645   5.769   0.889
  295SOL    HW118027   3.646   5.825   0.811
  295SOL    HW218028   3.737   5.747   0.903
  296SOL     OW18029   2.810   5.298   5.595
  296SOL    HW118030   2.829   5.378   5.643
  296SOL    HW218031   2.722   5.273   5.625
  297SOL     OW18032   0.658   2.956   1.567
  297SOL    HW118033   0.658   2.866   1.534
  297SOL    HW218034   0.646   2.946   1.661
  298SOL     OW18035   6.145   5.881   1.591
  298SOL    HW118036   6.079   5.872   1.522
  298SOL    HW218037   6.096   5.869   1.672
  299SOL     OW18038   0.359   4.163   0.178
  299SOL    HW118039   0.316   4.127   0.100
  299SOL    HW218040   0.331   4.254   0.181
  300SOL     OW18041   4.036   3.960   5.822
  300SOL    HW118042   4.047   4.054   5.804
  300SOL    HW218043   3.941   3.946   5.819
  301SOL     OW18044   4.936   1.369   0.935
  301SOL    HW118045   4.884   1.334   1.008
  301SOL    HW218046   4.911   1.314   0.860
  302SOL     OW18047   3.844   2.063   6.837
  302SOL    HW118048   3.874   2.087   6.925
  302SOL    HW218049   3.833   2.147   6.792
  303SOL     OW18050   4.851   0.310   5.530
  303SOL    HW118051   4.898   0.254   5.592
  303SOL    HW218052   4.907   0.387   5.520
  304SOL     OW18053   2.703   4.156   1.506
  304SOL    HW118054   2.725   4.138   1.415
  304SOL    HW218055   2.722   4.249   1.517
  305SOL     OW18056   2.529   6.339   7.374
  305SOL    HW118057   2.443   6.323   7.334
  305SOL    HW218058   2.575   6.392   7.310
  306SOL     OW18059   3.209   2.716   4.995
  306SOL    HW118060   3.236   2.760   5.076
  306SOL    HW218061   3.286   2.718   4.939
  307SOL     OW18062   5.988   2.044   6.491
  307SOL    HW118063   6.051   1.980   6.522
  307SOL    HW218064   5.910   1.992   6.470
  308SOL     OW18065   1.831   4.445   7.224
  308SOL    HW118066   1.805   4.488   7.305
  308SOL    HW218067   1.816   4.511   7.156
  309SOL     OW18068   3.620   1.902   1.649
  309SOL    HW118069   3.679   1.860   1.712
  309SOL    HW218070   3.547   1.934   1.702
  310SOL     OW18071   5.495   3.501   6.450
  310SOL    HW118072   5.534   3.432   6.396
  310SOL    HW218073   5.562   3.521   6.515
  311SOL     OW18074   4.365   2.201   1.582
  311SOL    HW118075   4.304   2.146   1.632
  311SOL    HW218076   4.360   2.286   1.624
  312SOL     OW18077   1.377   1.040   1.042
  312SOL    HW118078   1.460   0.992   1.038
  312SOL    HW218079   1.331   1.013   0.962
  313SOL     OW18080   2.549   2.905   1.692
  313SOL    HW118081   2.458   2.891   1.719
  313SOL    HW218082   2.562   2.842   1.621
  314SOL     OW18083   6.248   2.997   0.929
  314SOL    HW118084   6.201   2.936   0.985
  314SOL    HW218085   6.186   3.017   0.858
  315SOL     OW18086   6.429   2.370   7.519
  315SOL    HW118087   6.356   2.432   7.523
  315SOL    HW218088   0.057   2.420   7.547
  316SOL     OW18089   3.106   4.059   6.678
  316SOL    HW118090   3.120   4.113   6.600
  316SOL    HW218091   3.145   4.109   6.750
  317SOL     OW18092   2.051   3.878   0.229
  317SOL    HW118093   2.073   3.907   0.317
  317SOL    HW218094   1.961   3.909   0.216
  318SOL     OW18095   5.238   1.731   1.421
  318SOL    HW118096   5.303   1.786   1.376
  318SOL    HW218097   5.184   1.793   1.469
  319SOL     OW18098   5.218   0.097   0.058
  319SOL    HW118099   5.154   0.166   0.039
  319SOL    HW218100   5.209   0.081   0.152
  320SOL     OW18101   3.797   6.052   6.946
  320SOL    HW118102   3.837   5.965   6.953
  320SOL    HW218103   3.844   6.094   6.873
  321SOL     OW18104   2.392   1.594   7.761
  321SOL    HW118105   2.395   1.690   7.764
  321SOL    HW218106   2.314   1.571   0.009
  322SOL     OW18107   3.350   2.015   0.459
  322SOL    HW118108   3.319   2.094   0.415
  322SOL    HW218109   3.314   1.943   0.407
  323SOL     OW18110   1.767   4.580   7.456
  323SOL    HW118111   1.710   4.656   7.469
  323SOL    HW218112   1.855   4.612   7.476
  324SOL     OW18113   5.970   1.932   5.878
  324SOL    HW118114   6.063   1.929   5.856
  324SOL    HW218115   5.933   1.995   5.816
  325SOL     OW18116   1.087   1.776   0.911
  325SOL    HW118117   1.143   1.722   0.966
  325SOL    HW218118   1.029   1.821   0.972
  326SOL     OW18119   4.546   5.668   0.793
  326SOL    HW118120   4.547   5.667   0.889
  326SOL    HW218121   4.638   5.668   0.768
  327SOL     OW18122   0.999   2.169   7.623
  327SOL    HW118123   0.992   2.074   7.610
  327SOL    HW218124   0.965   2.207   7.542
  328SOL     OW18125   0.473   6.253   0.148
  328SOL    HW118126   0.552   6.260   0.096
  328SOL    HW218127   0.416   6.195   0.098
  329SOL     OW18128   3.330   1.252   7.575
  329SOL    HW118129   3.360   1.252   7.484
  329SOL    HW218130   3.321   1.159   7.597
  330SOL     OW18131   1.801   5.881   0.641
  330SOL    HW118132   1.778   5.950   0.579
  330SOL    HW218133   1.895   5.870   0.631
  331SOL     OW18134   0.726   1.700   6.948
  331SOL    HW118135   0.659   1.674   6.885
  331SOL    HW218136   0.693   1.670   7.033
  332SOL     OW18137   6.127   2.958   7.391
  332SOL    HW118138   6.036   2.986   7.403
  332SOL    HW218139   6.165   3.022   7.331
  333SOL     OW18140   2.368   3.613   1.804
  333SOL    HW118141   2.284   3.656   1.791
  333SOL    HW218142   2.371   3.593   1.898
  334SOL     OW18143   4.965   1.256   6.823
  334SOL    HW118144   4.934   1.342   6.852
  334SOL    HW218145   4.920   1.194   6.880
  335SOL     OW18146   5.529   3.258   0.314
  335SOL    HW118147   5.615   3.252   0.273
  335SOL    HW218148   5.543   3.310   0.393
  336SOL     OW18149   2.739   5.517   7.220
  336SOL    HW118150   2.704   5.428   7.221
  336SOL    HW218151   2.661   5.573   7.215
  337SOL     OW18152   0.144   5.651   6.665
  337SOL    HW118153   0.116   5.661   6.756
  337SOL    HW218154   0.216   5.714   6.656
  338SOL     OW18155   0.212   5.346   0.045
  338SOL    HW118156   0.154   5.328   7.774
  338SOL    HW218157   0.251   5.262   0.067
  339SOL     OW18158   1.018   4.455   6.011
  339SOL    HW118159   1.105   4.491   5.996
  339SOL    HW218160   1.033   4.366   6.042
  340SOL     OW18161   5.181   5.051   5.741
  340SOL    HW118162   5.090   5.025   5.758
  340SOL    HW218163   5.184   5.143   5.766
  341SOL     OW18164   0.028   0.722   0.156
  341SOL    HW118165   0.061   0.789   0.095
  341SOL    HW218166   0.009   0.771   0.237
  342SOL     OW18167   0.817   4.833   7.765
  342SOL    HW118168   0.776   4.820   0.048
  342SOL    HW218169   0.746   4.825   7.702
  343SOL     OW18170   3.313   5.592   1.239
  343SOL    HW118171   3.384   5.624   1.183
  343SOL    HW218172   3.355   5.573   1.323
  344SOL     OW18173   5.810   5.217   1.550
  344SOL    HW118174   5.722   5.205   1.586
  344SOL    HW218175   5.855   5.271   1.615
  345SOL     OW18176   2.636   5.051   5.909
  345SOL    HW118177   2.692   5.027   5.983
  345SOL    HW218178   2.651   4.981   5.845
  346SOL     OW18179   5.243   2.436   7.554
  346SOL    HW118180   5.301   2.452   7.629
  346SOL    HW218181   5.250   2.516   7.502
  347SOL     OW18182   0.355   5.122   0.114
  347SOL    HW118183   0.411   5.128   0.192
  347SOL    HW218184   0.414   5.092   0.044
  348SOL     OW18185   2.629   1.797   0.119
  348SOL    HW118186   2.682   1.750   0.055
  348SOL    HW218187   2.547   1.817   0.073
  349SOL     OW18188   6.138   0.614   7.197
  349SOL    HW118189   6.223   0.598   7.156
  349SOL    HW218190   6.144   0.570   7.282
  350SOL     OW18191   6.290   0.426   7.734
  350SOL    HW118192   6.226   0.356   7.725
  350SOL    HW218193   6.249   0.502   7.693
  351SOL     OW18194   6.212   4.347   0.835
  351SOL    HW118195   6.140   4.379   0.781
  351SOL    HW218196   6.193   4.254   0.849
  352SOL     OW18197   5.658   3.174   6.615
  352SOL    HW118198   5.680   3.138   6.701
  352SOL    HW218199   5.723   3.243   6.600
  353SOL     OW18200   4.334   4.064   6.535
  353SOL    HW118201   4.239   4.070   6.543
  353SOL    HW218202   4.348   4.008   6.459
  354SOL     OW18203   1.584   3.601   5.958
  354SOL    HW118204   1.624   3.677   5.916
  354SOL    HW218205   1.560   3.544   5.885
  355SOL     OW18206   3.230   1.840   0.288
  355SOL    HW118207   3.137   1.820   0.300
  355SOL    HW218208   3.234   1.895   0.210
  356SOL     OW18209   0.428   3.306   5.735
  356SOL    HW118210   0.498   3.316   5.670
  356SOL    HW218211   0.471   3.265   5.811
  357SOL     OW18212   5.593   2.507   0.256
  357SOL    HW118213   5.518   2.455   0.286
  357SOL    HW218214   5.555   2.572   0.197
  358SOL     OW18215   2.744   3.014   2.282
  358SOL    HW118216   2.811   3.049   2.341
  358SOL    HW218217   2.791   2.954   2.225
  359SOL     OW18218   1.497   0.394   1.434
  359SOL    HW118219   1.565   0.354   1.489
  359SOL    HW218220   1.515   0.488   1.439
  360SOL     OW18221   2.022   6.163   7.197
  360SOL    HW118222   2.019   6.211   7.114
  360SOL    HW218223   1.944   6.193   7.245
  361SOL     OW18224   2.388   1.558   6.818
  361SOL    HW118225   2.391   1.475   6.866
  361SOL    HW218226   2.447   1.546   6.744
  362SOL     OW18227   3.147   1.004   6.572
  362SOL    HW118228   3.122   1.002   6.479
  362SOL    HW218229   3.219   1.068   6.576
  363SOL     OW18230   3.648   5.681   2.236
  363SOL    HW118231   3.660   5.621   2.310
  363SOL    HW218232   3.612   5.627   2.167
  364SOL     OW18233   4.101   4.228   5.781
  364SOL    HW118234   4.085   4.276   5.862
  364SOL    HW218235   4.192   4.199   5.788
  365SOL     OW18236   2.419   3.609   1.447
  365SOL    HW118237   2.490   3.587   1.386
  365SOL    HW218238   2.459   3.667   1.511
  366SOL     OW18239   3.600   1.938   6.801
  366SOL    HW118240   3.586   1.926   6.895
  366SOL    HW218241   3.689   1.972   6.795
  367SOL     OW18242   0.991   1.785   6.057
  367SOL    HW118243   1.033   1.773   6.143
  367SOL    HW218244   1.052   1.840   6.009
  368SOL     OW18245   0.849   3.646   7.082
  368SOL    HW118246   0.841   3.731   7.040
  368SOL    HW218247   0.762   3.628   7.118
  369SOL     OW18248   2.415   3.165   6.616
  369SOL    HW118249   2.374   3.112   6.684
  369SOL    HW218250   2.509   3.156   6.632
  370SOL     OW18251   3.230   4.204   6.892
  370SOL    HW118252   3.287   4.265   6.938
  370SOL    HW218253   3.142   4.239   6.905
  371SOL     OW18254   3.300   4.543   5.867
  371SOL    HW118255   3.347   4.622   5.838
  371SOL    HW218256   3.250   4.515   5.790
  372SOL     OW18257   0.405   5.414   7.646
  372SOL    HW118258   0.323   5.396   7.691
  372SOL    HW218259   0.380   5.468   7.571
  373SOL     OW18260   4.739   0.789   6.694
  373SOL    HW118261   4.699   0.720   6.747
  373SOL    HW218262   4.833   0.776   6.704
  374SOL     OW18263   4.557   0.468   1.642
  374SOL    HW118264   4.582   0.467   1.735
  374SOL    HW218265   4.521   0.555   1.628
  375SOL     OW18266   1.388   4.097   0.667
  375SOL    HW118267   1.446   4.173   0.675
  375SOL    HW218268   1.392   4.055   0.753
  376SOL     OW18269   1.432   6.240   0.164
  376SOL    HW118270   1.521   6.268   0.183
  376SOL    HW218271   1.416   6.269   0.074
  377SOL     OW18272   0.475   3.191   7.380
  377SOL    HW118273   0.544   3.132   7.348
  377SOL    HW218274   0.394   3.154   7.345
  378SOL     OW18275   2.154   2.665   7.549
  378SOL    HW118276   2.152   2.758   7.571
  378SOL    HW218277   2.094   2.657   7.474
  379SOL     OW18278   5.987   2.397   6.854
  379SOL    HW118279   6.006   2.312   6.815
  379SOL    HW218280   5.901   2.421   6.819
  380SOL     OW18281   5.427   0.382   7.558
  380SOL    HW118282   5.482   0.417   7.627
  380SOL    HW218283   5.464   0.418   7.477
  381SOL     OW18284   4.614   0.738   1.363
  381SOL    HW118285   4.581   0.694   1.284
  381SOL    HW218286   4.704   0.707   1.372
  382SOL     OW18287   6.438   5.662   0.156
  382SOL    HW118288   6.397   5.711   0.085
  382SOL    HW218289   0.080   5.647   0.126
  383SOL     OW18290   5.920   3.155   0.523
  383SOL    HW118291   5.913   3.067   0.487
  383SOL    HW218292   5.966   3.205   0.455
  384SOL     OW18293   3.025   1.580   5.735
  384SOL    HW118294   3.002   1.510   5.796
  384SOL    HW218295   3.095   1.542   5.681
  385SOL     OW18296   6.138   2.291   0.098
  385SOL    HW118297   6.055   2.260   0.061
  385SOL    HW218298   6.204   2.264   0.034
  386SOL     OW18299   4.072   2.757   5.869
  386SOL    HW118300   4.080   2.684   5.808
  386SOL    HW218301   3.982   2.787   5.859
  387SOL     OW18302   2.837   4.935   0.764
  387SOL    HW118303   2.847   4.852   0.717
  387SOL    HW218304   2.879   4.921   0.849
  388SOL     OW18305   5.426   2.571   6.327
  388SOL    HW118306   5.456   2.609   6.245
  388SOL    HW218307   5.488   2.500   6.345
  389SOL     OW18308   5.856   4.167   1.867
  389SOL    HW118309   5.911   4.232   1.910
  389SOL    HW218310   5.767   4.199   1.879
  390SOL     OW18311   5.483   5.240   0.591
  390SOL    HW118312   5.393   5.222   0.618
  390SOL    HW218313   5.532   5.160   0.613
  391SOL     OW18314   3.630   4.018   7.001
  391SOL    HW118315   3.628   4.105   6.963
  391SOL    HW218316   3.688   3.968   6.943
  392SOL     OW18317   0.405   2.051   0.138
  392SOL    HW118318   0.427   2.120   0.201
  392SOL    HW218319   0.415   1.969   0.186
  393SOL     OW18320   1.725   1.391   5.064
  393SOL    HW118321   1.742   1.300   5.039
  393SOL    HW218322   1.807   1.421   5.101
  394SOL     OW18323   1.596   5.741   1.159
  394SOL    HW118324   1.646   5.732   1.078
  394SOL    HW218325   1.534   5.812   1.142
  395SOL     OW18326   3.902   2.322   2.385
  395SOL    HW118327   3.837   2.285   2.446
  395SOL    HW218328   3.986   2.299   2.423
  396SOL     OW18329   4.941   4.897   1.410
  396SOL    HW118330   5.015   4.840   1.433
  396SOL    HW218331   4.983   4.980   1.386
  397SOL     OW18332   4.990   5.132   6.262
  397SOL    HW118333   4.944   5.058   6.225
  397SOL    HW218334   5.081   5.120   6.236
  398SOL     OW18335   5.781   6.403   6.610
  398SOL    HW118336   5.710   6.405   6.546
  398SOL    HW218337   5.858   6.373   6.561
  399SOL     OW18338   2.893   2.723   7.431
  399SOL    HW118339   2.897   2.673   7.349
  399SOL    HW218340   2.924   2.810   7.408
  400SOL     OW18341   5.597   1.845   5.827
  400SOL    HW118342   5.613   1.751   5.819
  400SOL    HW218343   5.520   1.852   5.884
  401SOL     OW18344   6.018   5.304   5.443
  401SOL    HW118345   6.063   5.387   5.430
  401SOL    HW218346   5.926   5.328   5.455
  402SOL     OW18347   1.191   1.914   1.471
  402SOL    HW118348   1.259   1.977   1.492
  402SOL    HW218349   1.208   1.839   1.529
  403SOL     OW18350   2.573   3.233   6.364
  403SOL    HW118351   2.521   3.237   6.445
  403SOL    HW218352   2.534   3.161   6.314
  404SOL     OW18353   5.424   0.904   1.422
  404SOL    HW118354   5.493   0.933   1.481
  404SOL    HW218355   5.441   0.951   1.340
  405SOL     OW18356   5.354   1.419   7.440
  405SOL    HW118357   5.379   1.473   7.515
  405SOL    HW218358   5.382   1.469   7.364
  406SOL     OW18359   1.328   4.662   7.119
  406SOL    HW118360   1.381   4.607   7.061
  406SOL    HW218361   1.387   4.732   7.146
  407SOL     OW18362   2.607   0.110   6.222
  407SOL    HW118363   2.651   0.050   6.161
  407SOL    HW218364   2.670   0.123   6.293
  408SOL     OW18365   5.296   2.518   1.102
  408SOL    HW118366   5.357   2.567   1.157
  408SOL    HW218367   5.219   2.575   1.096
  409SOL     OW18368   6.142   6.228   0.920
  409SOL    HW118369   6.129   6.319   0.946
  409SOL    HW218370   6.098   6.221   0.835
  410SOL     OW18371   5.301   3.163   6.946
  410SOL    HW118372   5.339   3.092   6.893
  410SOL    HW218373   5.333   3.243   6.905
  411SOL     OW18374   2.088   1.773   1.107
  411SOL    HW118375   2.044   1.696   1.072
  411SOL    HW218376   2.058   1.780   1.197
  412SOL     OW18377   5.529   1.659   0.532
  412SOL    HW118378   5.457   1.659   0.595
  412SOL    HW218379   5.487   1.670   0.447
  413SOL     OW18380   3.091   2.973   2.294
  413SOL    HW118381   3.178   2.971   2.256
  413SOL    HW218382   3.036   2.923   2.233
  414SOL     OW18383   2.134   5.053   6.708
  414SOL    HW118384   2.116   4.969   6.750
  414SOL    HW218385   2.052   5.102   6.715
  415SOL     OW18386   3.463   1.718   5.190
  415SOL    HW118387   3.559   1.722   5.187
  415SOL    HW218388   3.444   1.674   5.273
  416SOL     OW18389   5.792   1.683   5.612
  416SOL    HW118390   5.729   1.650   5.676
  416SOL    HW218391   5.763   1.773   5.594
  417SOL     OW18392   1.785   0.038   6.584
  417SOL    HW118393   1.727   0.002   6.651
  417SOL    HW218394   1.796   6.414   6.521
  418SOL     OW18395   0.343   1.074   0.881
  418SOL    HW118396   0.400   1.142   0.847
  418SOL    HW218397   0.391   0.992   0.868
  419SOL     OW18398   3.284   1.293   1.137
  419SOL    HW118399   3.339   1.364   1.171
  419SOL    HW218400   3.197   1.313   1.171
  420SOL     OW18401   0.257   5.588   0.499
  420SOL    HW118402   0.332   5.644   0.479
  420SOL    HW218403   0.236   5.607   0.590
  421SOL     OW18404   4.119   0.631   5.736
  421SOL    HW118405   4.047   0.690   5.715
  421SOL    HW218406   4.143   0.652   5.826
  422SOL     OW18407   3.806   0.497   6.734
  422SOL    HW118408   3.755   0.555   6.791
  422SOL    HW218409   3.741   0.459   6.675
  423SOL     OW18410   4.337   3.073   7.218
  423SOL    HW118411   4.340   3.162   7.184
  423SOL    HW218412   4.317   3.019   7.141
  424SOL     OW18413   2.237   3.670   0.202
  424SOL    HW118414   2.200   3.600   0.148
  424SOL    HW218415   2.168   3.737   0.205
  425SOL     OW18416   6.019   3.586   0.063
  425SOL    HW118417   5.997   3.649   7.797
  425SOL    HW218418   6.035   3.640   0.140
  426SOL     OW18419   0.562   5.213   6.333
  426SOL    HW118420   0.491   5.215   6.398
  426SOL    HW218421   0.532   5.151   6.267
  427SOL     OW18422   5.576   4.009   7.237
  427SOL    HW118423   5.527   3.988   7.158
  427SOL    HW218424   5.559   4.102   7.252
  428SOL     OW18425   2.568   2.744   0.782
  428SOL    HW118426   2.513   2.817   0.812
  428SOL    HW218427   2.640   2.787   0.735
  429SOL     OW18428   1.080   3.911   7.009
  429SOL    HW118429   1.125   3.826   7.004
  429SOL    HW218430   1.112   3.951   7.089
  430SOL     OW18431   1.888   0.660   5.977
  430SOL    HW118432   1.969   0.612   5.962
  430SOL    HW218433   1.833   0.641   5.901
  431SOL     OW18434   0.662   1.602   1.503
  431SOL    HW118435   0.676   1.569   1.414
  431SOL    HW218436   0.726   1.555   1.556
  432SOL     OW18437   0.568   4.657   1.205
  432SOL    HW118438   0.636   4.710   1.245
  432SOL    HW218439   0.494   4.717   1.195
  433SOL     OW18440   0.182   0.922   1.692
  433SOL    HW118441   0.271   0.940   1.721
  433SOL    HW218442   0.126   0.967   1.755
  434SOL     OW18443   4.275   4.704   5.346
  434SOL    HW118444   4.237   4.674   5.429
  434SOL    HW218445   4.210   4.765   5.311
  435SOL     OW18446   5.162   2.734   0.725
  435SOL    HW118447   5.205   2.767   0.804
  435SOL    HW218448   5.079   2.697   0.757
  436SOL     OW18449   0.063   0.699   1.562
  436SOL    HW118450   0.106   0.768   1.611
  436SOL    HW218451   6.426   0.736   1.536
  437SOL     OW18452   0.017   2.820   2.420
  437SOL    HW118453   0.069   2.899   2.423
  437SOL    HW218454   0.056   2.767   2.351
  438SOL     OW18455   1.697   4.497   2.051
  438SOL    HW118456   1.758   4.569   2.065
  438SOL    HW218457   1.617   4.539   2.019
  439SOL     OW18458   1.284   6.277   5.744
  439SOL    HW118459   1.225   6.213   5.704
  439SOL    HW218460   1.360   6.226   5.770
  440SOL     OW18461   1.057   4.015   6.570
  440SOL    HW118462   1.035   3.996   6.479
  440SOL    HW218463   1.070   4.110   6.572
  441SOL     OW18464   4.137   1.272   6.600
  441SOL    HW118465   4.229   1.276   6.574
  441SOL    HW218466   4.116   1.179   6.598
  442SOL     OW18467   2.640   5.604   1.589
  442SOL    HW118468   2.685   5.683   1.558
  442SOL    HW218469   2.629   5.618   1.683
  443SOL     OW18470   5.029   6.253   0.360
  443SOL    HW118471   4.993   6.232   0.274
  443SOL    HW218472   5.075   6.335   0.347
  444SOL     OW18473   5.153   5.056   6.960
  444SOL    HW118474   5.177   5.053   7.053
  444SOL    HW218475   5.230   5.022   6.914
  445SOL     OW18476   2.966   0.969   6.774
  445SOL    HW118477   3.018   0.989   6.696
  445SOL    HW218478   2.975   0.874   6.785
  446SOL     OW18479   0.397   4.009   7.522
  446SOL    HW118480   0.339   3.953   7.470
  446SOL    HW218481   0.425   4.078   7.462
  447SOL     OW18482   1.509   2.199   0.479
  447SOL    HW118483   1.422   2.196   0.518
  447SOL    HW218484   1.520   2.289   0.451
  448SOL     OW18485   6.152   0.920   7.766
  448SOL    HW118486   6.170   0.886   0.051
  448SOL    HW218487   6.135   0.841   7.713
  449SOL     OW18488   3.638   3.981   7.578
  449SOL    HW118489   3.546   4.002   7.566
  449SOL    HW218490   3.659   3.918   7.508
  450SOL     OW18491   1.719   1.166   1.059
  450SOL    HW118492   1.702   1.235   0.996
  450SOL    HW218493   1.813   1.147   1.049
  451SOL     OW18494   2.065   2.592   6.222
  451SOL    HW118495   2.047   2.667   6.165
  451SOL    HW218496   2.101   2.630   6.302
  452SOL     OW18497   4.273   6.083   1.981
  452SOL    HW118498   4.211   6.037   2.037
  452SOL    HW218499   4.231   6.168   1.964
  453SOL     OW18500   4.653   2.914   7.137
  453SOL    HW118501   4.710   2.932   7.063
  453SOL    HW218502   4.581   2.863   7.100
  454SOL     OW18503   4.169   5.326   0.491
  454SOL    HW118504   4.229   5.312   0.565
  454SOL    HW218505   4.192   5.257   0.429
  455SOL     OW18506   5.190   2.450   6.382
  455SOL    HW118507   5.270   2.499   6.362
  455SOL    HW218508   5.177   2.393   6.307
  456SOL     OW18509   2.647   0.376   7.706
  456SOL    HW118510   2.678   0.290   7.733
  456SOL    HW218511   2.634   0.368   7.611
  457SOL     OW18512   1.724   6.009   1.339
  457SOL    HW118513   1.711   6.100   1.367
  457SOL    HW218514   1.703   5.958   1.417
  458SOL     OW18515   4.322   0.253   2.064
  458SOL    HW118516   4.229   0.269   2.083
  458SOL    HW218517   4.347   0.183   2.125
  459SOL     OW18518   5.290   1.670   0.666
  459SOL    HW118519   5.269   1.753   0.623
  459SOL    HW218520   5.233   1.668   0.743
  460SOL     OW18521   2.429   3.172   7.077
  460SOL    HW118522   2.397   3.083   7.063
  460SOL    HW218523   2.518   3.161   7.111
  461SOL     OW18524   2.787   4.439   1.520
  461SOL    HW118525   2.877   4.416   1.497
  461SOL    HW218526   2.791   4.460   1.613
  462SOL     OW18527   0.110   1.291   7.391
  462SOL    HW118528   0.021   1.287   7.357
  462SOL    HW218529   0.151   1.209   7.363
  463SOL     OW18530   4.502   0.436   6.462
  463SOL    HW118531   4.558   0.365   6.495
  463SOL    HW218532   4.460   0.472   6.540
  464SOL     OW18533   2.701   3.086   1.184
  464SOL    HW118534   2.732   3.117   1.099
  464SOL    HW218535   2.652   3.006   1.165
  465SOL     OW18536   4.971   4.837   7.501
  465SOL    HW118537   4.972   4.932   7.508
  465SOL    HW218538   4.949   4.807   7.590
  466SOL     OW18539   5.689   1.397   7.375
  466SOL    HW118540   5.694   1.471   7.435
  466SOL    HW218541   5.643   1.329   7.425
  467SOL     OW18542   0.240   2.370   7.185
  467SOL    HW118543   0.196   2.298   7.229
  467SOL    HW218544   0.177   2.401   7.120
  468SOL     OW18545   3.175   2.222   6.340
  468SOL    HW118546   3.189   2.316   6.331
  468SOL    HW218547   3.133   2.213   6.426
  469SOL     OW18548   4.928   4.365   6.666
  469SOL    HW118549   4.953   4.321   6.747
  469SOL    HW218550   4.835   4.346   6.656
  470SOL     OW18551   6.210   5.327   0.493
  470SOL    HW118552   6.266   5.360   0.423
  470SOL    HW218553   6.140   5.392   0.501
  471SOL     OW18554   0.327   5.899   5.503
  471SOL    HW118555   0.319   5.842   5.580
  471SOL    HW218556   0.272   5.974   5.524
  472SOL     OW18557   1.708   1.715   0.876
  472SOL    HW118558   1.722   1.688   0.785
  472SOL    HW218559   1.733   1.808   0.876
  473SOL     OW18560   2.304   6.290   6.281
  473SOL    HW118561   2.217   6.316   6.250
  473SOL    HW218562   2.340   6.368   6.323
  474SOL     OW18563   3.502   0.117   6.642
  474SOL    HW118564   3.587   0.123   6.596
  474SOL    HW218565   3.446   0.178   6.595
  475SOL     OW18566   1.214   2.294   0.566
  475SOL    HW118567   1.131   2.257   0.597
  475SOL    HW218568   1.233   2.364   0.628
  476SOL     OW18569   4.214   1.340   0.291
  476SOL    HW118570   4.130   1.324   0.248
  476SOL    HW218571   4.265   1.389   0.226
  477SOL     OW18572   0.764   3.528   5.796
  477SOL    HW118573   0.832   3.568   5.742
  477SOL    HW218574   0.811   3.495   5.873
  478SOL     OW18575   1.668   4.853   7.550
  478SOL    HW118576   1.630   4.797   7.618
  478SOL    HW218577   1.593   4.897   7.510
  479SOL     OW18578   5.147   0.455   1.391
  479SOL    HW118579   5.158   0.550   1.385
  479SOL    HW218580   5.107   0.430   1.308
  480SOL     OW18581   4.041   2.049   6.534
  480SOL    HW118582   4.101   2.010   6.597
  480SOL    HW218583   4.093   2.119   6.492
  481SOL     OW18584   5.166   0.969   6.102
  481SOL    HW118585   5.111   1.044   6.079
  481SOL    HW218586   5.104   0.896   6.111
  482SOL     OW18587   0.992   1.893   7.644
  482SOL    HW118588   1.042   1.814   7.667
  482SOL    HW218589   0.903   1.875   7.674
  483SOL     OW18590   6.351   2.805   7.003
  483SOL    HW118591   6.360   2.807   7.098
  483SOL    HW218592   6.260   2.778   6.988
  484SOL     OW18593   4.934   0.102   7.048
  484SOL    HW118594   4.959   0.017   7.011
  484SOL    HW218595   4.839   0.100   7.050
  485SOL     OW18596   1.845   1.756   6.872
  485SOL    HW118597   1.882   1.745   6.784
  485SOL    HW218598   1.750   1.760   6.858
  486SOL     OW18599   4.976   3.076   0.417
  486SOL    HW118600   5.046   3.040   0.472
  486SOL    HW218601   5.006   3.062   0.328
  487SOL     OW18602   5.096   5.865   1.615
  487SOL    HW118603   5.015   5.873   1.566
  487SOL    HW218604   5.089   5.930   1.685
  488SOL     OW18605   6.100   2.351   0.895
  488SOL    HW118606   6.149   2.275   0.865
  488SOL    HW218607   6.167   2.416   0.915
  489SOL     OW18608   3.755   5.392   2.005
  489SOL    HW118609   3.681   5.447   2.031
  489SOL    HW218610   3.825   5.454   1.985
  490SOL     OW18611   2.873   1.997   5.827
  490SOL    HW118612   2.785   1.971   5.802
  490SOL    HW218613   2.930   1.947   5.768
  491SOL     OW18614   3.166   4.748   2.312
  491SOL    HW118615   3.164   4.668   2.365
  491SOL    HW218616   3.163   4.717   2.222
  492SOL     OW18617   4.273   4.384   0.112
  492SOL    HW118618   4.180   4.374   0.092
  492SOL    HW218619   4.312   4.300   0.086
  493SOL     OW18620   6.018   4.332   2.006
  493SOL    HW118621   6.108   4.325   2.037
  493SOL    HW218622   5.993   4.422   2.024
  494SOL     OW18623   0.251   6.175   7.590
  494SOL    HW118624   0.251   6.145   7.681
  494SOL    HW218625   0.321   6.125   7.548
  495SOL     OW18626   1.783   6.114   1.093
  495SOL    HW118627   1.748   6.057   1.024
  495SOL    HW218628   1.772   6.063   1.173
  496SOL     OW18629   0.592   2.244   7.590
  496SOL    HW118630   0.508   2.277   7.558
  496SOL    HW218631   0.645   2.233   7.511
  497SOL     OW18632   1.815   1.545   7.648
  497SOL    HW118633   1.821   1.589   7.563
  497SOL    HW218634   1.776   1.460   7.627
  498SOL     OW18635   4.536   2.212   6.432
  498SOL    HW118636   4.508   2.304   6.433
  498SOL    HW218637   4.631   2.216   6.416
  499SOL     OW18638   2.735   6.073   2.249
  499SOL    HW118639   2.779   6.145   2.204
  499SOL    HW218640   2.774   5.994   2.214
  500SOL     OW18641   2.895   0.900   5.804
  500SOL    HW118642   2.819   0.864   5.759
  500SOL    HW218643   2.969   0.852   5.768
  501SOL     OW18644   4.147   3.802   0.024
  501SOL    HW118645   4.242   3.804   0.032
  501SOL    HW218646   4.118   3.889   0.051
  502SOL     OW18647   6.095   1.633   7.024
  502SOL    HW118648   6.071   1.683   6.945
  502SOL    HW218649   6.146   1.695   7.076
  503SOL     OW18650   4.097   0.664   1.270
  503SOL    HW118651   4.006   0.676   1.297
  503SOL    HW218652   4.145   0.733   1.317
  504SOL     OW18653   5.560   5.297   6.902
  504SOL    HW118654   5.578   5.266   6.990
  504SOL    HW218655   5.536   5.389   6.913
  505SOL     OW18656   1.067   1.748   6.324
  505SOL    HW118657   1.073   1.677   6.387
  505SOL    HW218658   1.121   1.818   6.360
  506SOL     OW18659   1.119   2.911   7.339
  506SOL    HW118660   1.112   2.949   7.251
  506SOL    HW218661   1.125   2.817   7.323
  507SOL     OW18662   2.739   5.778   6.676
  507SOL    HW118663   2.745   5.823   6.760
  507SOL    HW218664   2.661   5.815   6.634
  508SOL     OW18665   6.251   3.988   0.083
  508SOL    HW118666   6.166   3.988   0.126
  508SOL    HW218667   6.232   4.006   7.794
  509SOL     OW18668   2.149   5.203   0.890
  509SOL    HW118669   2.217   5.136   0.885
  509SOL    HW218670   2.071   5.157   0.918
  510SOL     OW18671   5.225   0.743   5.856
  510SOL    HW118672   5.133   0.716   5.865
  510SOL    HW218673   5.221   0.826   5.810
  511SOL     OW18674   5.852   1.174   0.047
  511SOL    HW118675   5.774   1.225   0.071
  511SOL    HW218676   5.829   1.134   7.766
  512SOL     OW18677   4.597   2.924   6.316
  512SOL    HW118678   4.524   2.869   6.345
  512SOL    HW218679   4.672   2.895   6.368
  513SOL     OW18680   3.694   2.360   7.451
  513SOL    HW118681   3.606   2.324   7.438
  513SOL    HW218682   3.730   2.310   7.524
  514SOL     OW18683   3.179   5.328   0.564
  514SOL    HW118684   3.274   5.333   0.574
  514SOL    HW218685   3.163   5.237   0.537
  515SOL     OW18686   0.686   4.516   0.998
  515SOL    HW118687   0.657   4.558   1.079
  515SOL    HW218688   0.642   4.565   0.928
  516SOL     OW18689   4.252   2.096   7.314
  516SOL    HW118690   4.172   2.045   7.300
  516SOL    HW218691   4.316   2.032   7.345
  517SOL     OW18692   4.655   4.428   6.326
  517SOL    HW118693   4.666   4.413   6.419
  517SOL    HW218694   4.599   4.357   6.296
  518SOL     OW18695   1.582   5.259   5.651
  518SOL    HW118696   1.530   5.335   5.625
  518SOL    HW218697   1.656   5.259   5.591
  519SOL     OW18698   5.812   1.128   6.050
  519SOL    HW118699   5.754   1.055   6.028
  519SOL    HW218700   5.883   1.122   5.986
  520SOL     OW18701   3.765   4.501   6.339
  520SOL    HW118702   3.823   4.467   6.271
  520SOL    HW218703   3.781   4.595   6.339
  521SOL     OW18704   1.641   6.042   6.365
  521SOL    HW118705   1.614   6.086   6.285
  521SOL    HW218706   1.562   6.043   6.420
  522SOL     OW18707   2.145   2.078   0.724
  522SOL    HW118708   2.106   2.071   0.811
  522SOL    HW218709   2.234   2.044   0.735
  523SOL     OW18710   5.668   5.428   0.681
  523SOL    HW118711   5.609   5.363   0.643
  523SOL    HW218712   5.703   5.475   0.606
  524SOL     OW18713   4.773   3.430   1.942
  524SOL    HW118714   4.859   3.412   1.904
  524SOL    HW218715   4.788   3.430   2.037
  525SOL     OW18716   0.189   3.434   6.079
  525SOL    HW118717   0.097   3.449   6.099
  525SOL    HW218718   0.194   3.440   5.984
  526SOL     OW18719   6.446   4.756   1.316
  526SOL    HW118720   0.053   4.677   1.313
  526SOL    HW218721   6.359   4.726   1.290
  527SOL     OW18722   0.074   5.017   1.642
  527SOL    HW118723   0.021   4.938   1.633
  527SOL    HW218724   0.085   5.027   1.737
  528SOL     OW18725   3.340   5.333   0.238
  528SOL    HW118726   3.388   5.373   0.166
  528SOL    HW218727   3.343   5.398   0.308
  529SOL     OW18728   2.141   3.410   0.502
  529SOL    HW118729   2.144   3.349   0.428
  529SOL    HW218730   2.131   3.353   0.579
  530SOL     OW18731   2.736   4.466   0.727
  530SOL    HW118732   2.642   4.482   0.731
  530SOL    HW218733   2.745   4.371   0.730
  531SOL     OW18734   5.727   3.061   1.060
  531SOL    HW118735   5.773   3.145   1.062
  531SOL    HW218736   5.774   3.007   1.124
  532SOL     OW18737   4.244   2.632   7.476
  532SOL    HW118738   4.290   2.562   7.522
  532SOL    HW218739   4.254   2.611   7.384
  533SOL     OW18740   1.050   5.201   1.477
  533SOL    HW118741   0.999   5.123   1.498
  533SOL    HW218742   0.987   5.273   1.483
  534SOL     OW18743   2.516   1.335   1.477
  534SOL    HW118744   2.561   1.401   1.530
  534SOL    HW218745   2.579   1.263   1.471
  535SOL     OW18746   3.586   1.792   6.027
  535SOL    HW118747   3.650   1.759   5.963
  535SOL    HW218748   3.508   1.812   5.975
  536SOL     OW18749   6.205   5.810   0.924
  536SOL    HW118750   6.174   5.759   0.999
  536SOL    HW218751   6.269   5.753   0.881
  537SOL     OW18752   3.850   2.379   2.121
  537SOL    HW118753   3.874   2.367   2.213
  537SOL    HW218754   3.826   2.292   2.090
  538SOL     OW18755   6.341   2.138   6.461
  538SOL    HW118756   6.341   2.122   6.555
  538SOL    HW218757   6.304   2.226   6.452
  539SOL     OW18758   4.618   1.179   7.172
  539SOL    HW118759   4.546   1.125   7.202
  539SOL    HW218760   4.576   1.255   7.132
  540SOL     OW18761   0.514   4.879   6.784
  540SOL    HW118762   0.464   4.812   6.832
  540SOL    HW218763   0.502   4.959   6.835
  541SOL     OW18764   2.599   1.708   0.374
  541SOL    HW118765   2.657   1.764   0.427
  541SOL    HW218766   2.609   1.741   0.285
  542SOL     OW18767   0.218   4.639   6.541
  542SOL    HW118768   0.205   4.572   6.473
  542SOL    HW218769   0.297   4.686   6.514
  543SOL     OW18770   6.022   2.808   6.272
  543SOL    HW118771   5.928   2.816   6.257
  543SOL    HW218772   6.030   2.737   6.336
  544SOL     OW18773   3.755   4.804   1.673
  544SOL    HW118774   3.682   4.866   1.680
  544SOL    HW218775   3.741   4.760   1.589
  545SOL     OW18776   5.806   0.452   7.466
  545SOL    HW118777   5.724   0.467   7.420
  545SOL    HW218778   5.800   0.506   7.545
  546SOL     OW18779   1.362   0.358   1.064
  546SOL    HW118780   1.321   0.314   0.990
  546SOL    HW218781   1.356   0.294   1.136
  547SOL     OW18782   2.154   5.837   2.213
  547SOL    HW118783   2.103   5.773   2.261
  547SOL    HW218784   2.175   5.794   2.130
  548SOL     OW18785   5.126   5.500   7.546
  548SOL    HW118786   5.138   5.414   7.507
  548SOL    HW218787   5.127   5.485   7.640
  549SOL     OW18788   0.283   0.736   1.057
  549SOL    HW118789   0.284   0.733   0.961
  549SOL    HW218790   0.210   0.679   1.081
  550SOL     OW18791   4.764   4.422   1.181
  550SOL    HW118792   4.747   4.362   1.254
  550SOL    HW218793   4.785   4.506   1.224
  551SOL     OW18794   2.455   0.981   6.877
  551SOL    HW118795   2.451   1.036   6.955
  551SOL    HW218796   2.535   1.008   6.832
  552SOL     OW18797   6.107   0.897   0.601
  552SOL    HW118798   6.179   0.884   0.663
  552SOL    HW218799   6.031   0.857   0.643
  553SOL     OW18800   0.481   4.474   0.656
  553SOL    HW118801   0.575   4.466   0.639
  553SOL    HW218802   0.475   4.521   0.739
  554SOL     OW18803   0.431   2.222   0.831
  554SOL    HW118804   0.469   2.304   0.863
  554SOL    HW218805   0.395   2.245   0.745
  555SOL     OW18806   0.077   2.404   5.817
  555SOL    HW118807   0.069   2.500   5.811
  555SOL    HW218808   0.155   2.384   5.766
  556SOL     OW18809   3.065   2.928   0.490
  556SOL    HW118810   3.142   2.872   0.504
  556SOL    HW218811   2.999   2.868   0.455
  557SOL     OW18812   4.018   0.590   7.177
  557SOL    HW118813   4.002   0.527   7.107
  557SOL    HW218814   4.073   0.657   7.136
  558SOL     OW18815   6.018   3.879   7.364
  558SOL    HW118816   6.105   3.840   7.362
  558SOL    HW218817   5.961   3.815   7.321
  559SOL     OW18818   3.194   0.302   1.184
  559SOL    HW118819   3.242   0.221   1.198
  559SOL    HW218820   3.104   0.282   1.211
  560SOL     OW18821   3.918   1.440   6.569
  560SOL    HW118822   3.963   1.525   6.572
  560SOL    HW218823   3.988   1.376   6.560
  561SOL     OW18824   3.481   0.380   0.343
  561SOL    HW118825   3.507   0.343   0.258
  561SOL    HW218826   3.502   0.311   0.406
  562SOL     OW18827   5.698   2.146   5.392
  562SOL    HW118828   5.691   2.065   5.443
  562SOL    HW218829   5.773   2.191   5.431
  563SOL     OW18830   5.385   1.563   7.188
  563SOL    HW118831   5.297   1.534   7.166
  563SOL    HW218832   5.433   1.557   7.105
  564SOL     OW18833   0.900   5.770   7.417
  564SOL    HW118834   0.988   5.788   7.383
  564SOL    HW218835   0.878   5.848   7.468
  565SOL     OW18836   1.022   5.543   5.874
  565SOL    HW118837   1.005   5.449   5.862
  565SOL    HW218838   1.081   5.565   5.802
  566SOL     OW18839   2.277   4.265   0.732
  566SOL    HW118840   2.195   4.219   0.711
  566SOL    HW218841   2.346   4.201   0.713
  567SOL     OW18842   5.067   3.559   2.242
  567SOL    HW118843   5.100   3.509   2.167
  567SOL    HW218844   5.059   3.649   2.209
  568SOL     OW18845   0.154   2.719   1.000
  568SOL    HW118846   0.137   2.813   0.987
  568SOL    HW218847   0.109   2.677   0.926
  569SOL     OW18848   2.601   6.248   1.889
  569SOL    HW118849   2.561   6.186   1.949
  569SOL    HW218850   2.591   6.333   1.932
  570SOL     OW18851   4.321   4.993   0.998
  570SOL    HW118852   4.285   5.078   0.977
  570SOL    HW218853   4.390   5.011   1.063
  571SOL     OW18854   1.650   0.510   6.549
  571SOL    HW118855   1.667   0.468   6.465
  571SOL    HW218856   1.695   0.455   6.613
  572SOL     OW18857   1.814   2.969   1.915
  572SOL    HW118858   1.830   3.059   1.887
  572SOL    HW218859   1.739   2.941   1.863
  573SOL     OW18860   3.377   5.928   0.207
  573SOL    HW118861   3.320   5.919   0.284
  573SOL    HW218862   3.412   5.840   0.194
  574SOL     OW18863   3.403   3.602   0.734
  574SOL    HW118864   3.388   3.655   0.656
  574SOL    HW218865   3.354   3.647   0.803
  575SOL     OW18866   2.955   5.999   5.265
  575SOL    HW118867   2.974   6.091   5.283
  575SOL    HW218868   2.862   5.988   5.286
  576SOL     OW18869   4.485   0.851   7.020
  576SOL    HW118870   4.397   0.816   7.027
  576SOL    HW218871   4.492   0.913   7.092
  577SOL     OW18872   6.223   5.879   6.887
  577SOL    HW118873   6.161   5.814   6.919
  577SOL    HW218874   6.189   5.906   6.802
  578SOL     OW18875   5.216   4.009   2.024
  578SOL    HW118876   5.299   4.055   2.040
  578SOL    HW218877   5.149   4.077   2.034
  579SOL     OW18878   0.498   5.691   7.264
  579SOL    HW118879   0.455   5.670   7.181
  579SOL    HW218880   0.538   5.777   7.250
  580SOL     OW18881   2.717   2.812   7.064
  580SOL    HW118882   2.670   2.744   7.114
  580SOL    HW218883   2.732   2.772   6.978
  581SOL     OW18884   1.417   1.135   5.103
  581SOL    HW118885   1.471   1.075   5.052
  581SOL    HW218886   1.334   1.088   5.115
  582SOL     OW18887   4.105   6.414   0.805
  582SOL    HW118888   4.130   0.039   0.748
  582SOL    HW218889   4.058   0.007   0.877
  583SOL     OW18890   2.526   2.911   0.408
  583SOL    HW118891   2.595   2.928   0.472
  583SOL    HW218892   2.556   2.953   0.327
  584SOL     OW18893   4.246   5.168   1.243
  584SOL    HW118894   4.242   5.262   1.224
  584SOL    HW218895   4.320   5.158   1.302
  585SOL     OW18896   3.018   5.526   0.425
  585SOL    HW118897   2.941   5.491   0.470
  585SOL    HW218898   3.090   5.470   0.455
  586SOL     OW18899   5.110   4.318   0.050
  586SOL    HW118900   5.161   4.241   0.024
  586SOL    HW218901   5.055   4.288   0.122
  587SOL     OW18902   3.034   5.709   7.802
  587SOL    HW118903   3.119   5.676   7.775
  587SOL    HW218904   2.976   5.691   7.728
  588SOL     OW18905   3.786   5.087   6.766
  588SOL    HW118906   3.837   5.099   6.686
  588SOL    HW218907   3.846   5.112   6.837
  589SOL     OW18908   0.420   3.665   7.374
  589SOL    HW118909   0.396   3.582   7.414
  589SOL    HW218910   0.338   3.716   7.373
  590SOL     OW18911   4.674   0.440   7.042
  590SOL    HW118912   4.749   0.492   7.071
  590SOL    HW218913   4.712   0.369   6.992
  591SOL     OW18914   1.501   5.253   2.289
  591SOL    HW118915   1.471   5.162   2.288
  591SOL    HW218916   1.580   5.252   2.342
  592SOL     OW18917   2.200   6.046   6.908
  592SOL    HW118918   2.139   6.118   6.926
  592SOL    HW218919   2.286   6.080   6.933
  593SOL     OW18920   2.888   2.511   1.976
  593SOL    HW118921   2.798   2.543   1.984
  593SOL    HW218922   2.919   2.505   2.066
  594SOL     OW18923   6.347   3.303   7.010
  594SOL    HW118924   6.345   3.247   6.932
  594SOL    HW218925   6.311   3.386   6.981
  595SOL     OW18926   3.980   0.106   1.002
  595SOL    HW118927   4.030   0.069   1.075
  595SOL    HW218928   3.889   0.084   1.022
  596SOL     OW18929   4.883   0.394   6.508
  596SOL    HW118930   4.969   0.367   6.540
  596SOL    HW218931   4.892   0.488   6.489
  597SOL     OW18932   2.830   3.030   0.049
  597SOL    HW118933   2.856   2.941   0.072
  597SOL    HW218934   2.908   3.083   0.066
  598SOL     OW18935   0.241   1.873   7.760
  598SOL    HW118936   0.269   1.781   7.753
  598SOL    HW218937   0.297   1.910   0.025
  599SOL     OW18938   2.109   1.680   0.023
  599SOL    HW118939   2.020   1.711   0.038
  599SOL    HW218940   2.120   1.684   7.731
  600SOL     OW18941   4.179   2.005   0.361
  600SOL    HW118942   4.261   2.028   0.403
  600SOL    HW218943   4.204   1.979   0.272
  601SOL     OW18944   1.209   5.139   2.131
  601SOL    HW118945   1.242   5.229   2.138
  601SOL    HW218946   1.273   5.086   2.179
  602SOL     OW18947   3.958   1.317   0.177
  602SOL    HW118948   3.884   1.282   0.128
  602SOL    HW218949   3.919   1.377   0.240
  603SOL     OW18950   3.368   0.279   5.675
  603SOL    HW118951   3.364   0.184   5.689
  603SOL    HW218952   3.312   0.316   5.743
  604SOL     OW18953   3.796   4.377   1.120
  604SOL    HW118954   3.843   4.364   1.038
  604SOL    HW218955   3.813   4.297   1.170
  605SOL     OW18956   0.024   0.001   0.420
  605SOL    HW118957   6.424   0.008   0.502
  605SOL    HW218958   6.434   6.372   0.376
  606SOL     OW18959   1.396   1.289   0.291
  606SOL    HW118960   1.465   1.319   0.232
  606SOL    HW218961   1.385   1.196   0.270
  607SOL     OW18962   4.338   5.887   0.036
  607SOL    HW118963   4.286   5.966   0.022
  607SOL    HW218964   4.278   5.827   0.081
  608SOL     OW18965   0.565   5.937   6.918
  608SOL    HW118966   0.471   5.955   6.914
  608SOL    HW218967   0.576   5.857   6.866
  609SOL     OW18968   5.192   2.005   1.891
  609SOL    HW118969   5.285   2.014   1.911
  609SOL    HW218970   5.150   2.001   1.977
  610SOL     OW18971   3.265   0.728   1.853
  610SOL    HW118972   3.275   0.811   1.900
  610SOL    HW218973   3.323   0.735   1.777
  611SOL     OW18974   0.575   2.011   1.124
  611SOL    HW118975   0.613   2.030   1.210
  611SOL    HW218976   0.640   2.043   1.061
  612SOL     OW18977   4.424   5.509   7.703
  612SOL    HW118978   4.360   5.454   7.749
  612SOL    HW218979   4.488   5.531   7.771
  613SOL     OW18980   4.075   4.064   2.408
  613SOL    HW118981   4.110   4.145   2.445
  613SOL    HW218982   4.152   4.008   2.396
  614SOL     OW18983   4.543   3.237   7.477
  614SOL    HW118984   4.578   3.215   7.390
  614SOL    HW218985   4.620   3.258   7.529
  615SOL     OW18986   5.789   6.340   1.483
  615SOL    HW118987   5.864   6.356   1.426
  615SOL    HW218988   5.818   6.372   1.569
  616SOL     OW18989   0.520   2.826   6.368
  616SOL    HW118990   0.591   2.794   6.423
  616SOL    HW218991   0.560   2.836   6.281
  617SOL     OW18992   4.069   4.115   6.526
  617SOL    HW118993   4.002   4.136   6.591
  617SOL    HW218994   4.074   4.192   6.470
  618SOL     OW18995   4.238   0.870   0.266
  618SOL    HW118996   4.202   0.858   0.354
  618SOL    HW218997   4.318   0.817   0.265
  619SOL     OW18998   2.676   4.207   1.013
  619SOL    HW118999   2.698   4.201   0.920
  619SOL    HW219000   2.583   4.184   1.018
  620SOL     OW19001   2.511   0.250   6.937
  620SOL    HW119002   2.498   0.156   6.920
  620SOL    HW219003   2.575   0.277   6.872
  621SOL     OW19004   3.691   5.289   0.243
  621SOL    HW119005   3.657   5.220   0.300
  621SOL    HW219006   3.671   5.258   0.155
  622SOL     OW19007   1.024   5.602   6.990
  622SOL    HW119008   1.003   5.614   6.897
  622SOL    HW219009   0.980   5.674   7.034
  623SOL     OW19010   1.795   3.468   1.802
  623SOL    HW119011   1.765   3.520   1.727
  623SOL    HW219012   1.841   3.531   1.858
  624SOL     OW19013   1.957   0.604   0.174
  624SOL    HW119014   1.937   0.696   0.160
  624SOL    HW219015   1.995   0.575   0.092
  625SOL     OW19016   1.159   5.799   7.326
  625SOL    HW119017   1.226   5.832   7.385
  625SOL    HW219018   1.198   5.722   7.285
  626SOL     OW19019   2.479   1.539   7.501
  626SOL    HW119020   2.560   1.590   7.493
  626SOL    HW219021   2.447   1.558   7.589
  627SOL     OW19022   5.782   3.678   1.745
  627SOL    HW119023   5.828   3.624   1.680
  627SOL    HW219024   5.710   3.622   1.776
  628SOL     OW19025   5.587   6.196   1.368
  628SOL    HW119026   5.657   6.249   1.406
  628SOL    HW219027   5.569   6.238   1.283
  629SOL     OW19028   2.236   2.265   1.574
  629SOL    HW119029   2.290   2.190   1.600
  629SOL    HW219030   2.197   2.296   1.656
  630SOL     OW19031   6.286   0.070   6.086
  630SOL    HW119032   6.336   0.143   6.123
  630SOL    HW219033   6.208   0.110   6.049
  631SOL     OW19034   5.572   0.781   6.432
  631SOL    HW119035   5.542   0.779   6.522
  631SOL    HW219036   5.494   0.797   6.380
  632SOL     OW19037   4.987   4.214   6.898
  632SOL    HW119038   4.960   4.226   6.989
  632SOL    HW219039   4.930   4.144   6.865
  633SOL     OW19040   0.657   3.391   7.317
  633SOL    HW119041   0.586   3.329   7.326
  633SOL    HW219042   0.628   3.452   7.249
  634SOL     OW19043   0.676   0.537   0.100
  634SOL    HW119044   0.696   0.450   0.132
  634SOL    HW219045   0.594   0.561   0.143
  635SOL     OW19046   1.952   5.566   5.648
  635SOL    HW119047   1.921   5.555   5.558
  635SOL    HW219048   2.024   5.503   5.655
  636SOL     OW19049   1.888   5.009   1.279
  636SOL    HW119050   1.832   4.948   1.327
  636SOL    HW219051   1.880   5.091   1.327
  637SOL     OW19052   3.717   2.736   0.108
  637SOL    HW119053   3.668   2.774   0.182
  637SOL    HW219054   3.672   2.769   0.030
  638SOL     OW19055   0.535   3.996   1.150
  638SOL    HW119056   0.469   3.927   1.143
  638SOL    HW219057   0.555   4.020   1.060
  639SOL     OW19058   5.352   3.706   1.660
  639SOL    HW119059   5.305   3.781   1.693
  639SOL    HW219060   5.356   3.645   1.733
  640SOL     OW19061   4.424   3.346   7.136
  640SOL    HW119062   4.393   3.417   7.192
  640SOL    HW219063   4.488   3.299   7.190
  641SOL     OW19064   1.615   4.406   5.485
  641SOL    HW119065   1.686   4.450   5.438
  641SOL    HW219066   1.659   4.363   5.559
  642SOL     OW19067   3.761   3.345   6.432
  642SOL    HW119068   3.850   3.331   6.463
  642SOL    HW219069   3.726   3.415   6.488
  643SOL     OW19070   4.403   1.140   2.391
  643SOL    HW119071   4.454   1.165   2.314
  643SOL    HW219072   4.448   1.063   2.426
  644SOL     OW19073   5.180   5.523   7.155
  644SOL    HW119074   5.267   5.501   7.188
  644SOL    HW219075   5.128   5.443   7.167
  645SOL     OW19076   1.104   0.063   0.298
  645SOL    HW119077   1.182   0.118   0.292
  645SOL    HW219078   1.137   6.425   0.324
  646SOL     OW19079   4.282   5.999   6.825
  646SOL    HW119080   4.234   5.924   6.790
  646SOL    HW219081   4.343   5.961   6.888
  647SOL     OW19082   4.930   2.199   6.963
  647SOL    HW119083   4.996   2.133   6.983
  647SOL    HW219084   4.856   2.150   6.927
  648SOL     OW19085   6.085   6.063   2.168
  648SOL    HW119086   6.155   6.013   2.127
  648SOL    HW219087   6.118   6.152   2.175
  649SOL     OW19088   2.269   4.182   0.421
  649SOL    HW119089   2.282   4.188   0.327
  649SOL    HW219090   2.355   4.201   0.459
  650SOL     OW19091   1.861   1.962   0.280
  650SOL    HW119092   1.927   1.919   0.225
  650SOL    HW219093   1.907   1.980   0.362
  651SOL     OW19094   4.077   2.458   0.995
  651SOL    HW119095   4.049   2.412   1.074
  651SOL    HW219096   4.111   2.541   1.027
  652SOL     OW19097   1.618   3.288   2.154
  652SOL    HW119098   1.698   3.249   2.188
  652SOL    HW219099   1.547   3.245   2.202
  653SOL     OW19100   5.996   3.688   2.328
  653SOL    HW119101   6.065   3.639   2.283
  653SOL    HW219102   6.022   3.780   2.319
  654SOL     OW19103   2.235   6.267   0.591
  654SOL    HW119104   2.145   6.298   0.597
  654SOL    HW219105   2.260   6.249   0.681
  655SOL     OW19106   5.339   4.419   2.121
  655SOL    HW119107   5.244   4.418   2.132
  655SOL    HW219108   5.362   4.328   2.101
  656SOL     OW19109   0.259   5.877   5.912
  656SOL    HW119110   0.277   5.813   5.843
  656SOL    HW219111   0.168   5.901   5.899
  657SOL     OW19112   0.031   1.617   0.474
  657SOL    HW119113   6.434   1.698   0.499
  657SOL    HW219114   0.070   1.585   0.555
  658SOL     OW19115   2.711   2.927   6.248
  658SOL    HW119116   2.692   2.856   6.309
  658SOL    HW219117   2.625   2.965   6.228
  659SOL     OW19118   0.567   5.892   0.843
  659SOL    HW119119   0.520   5.899   0.926
  659SOL    HW219120   0.653   5.859   0.867
  660SOL     OW19121   0.703   2.418   7.778
  660SOL    HW119122   0.640   2.490   7.769
  660SOL    HW219123   0.672   2.351   7.717
  661SOL     OW19124   5.144   0.772   0.655
  661SOL    HW119125   5.196   0.693   0.667
  661SOL    HW219126   5.204   0.833   0.611
  662SOL     OW19127   1.948   1.112   6.197
  662SOL    HW119128   1.968   1.030   6.151
  662SOL    HW219129   1.865   1.141   6.160
  663SOL     OW19130   3.146   2.305   5.813
  663SOL    HW119131   3.174   2.259   5.892
  663SOL    HW219132   3.217   2.292   5.750
  664SOL     OW19133   5.485   5.675   6.418
  664SOL    HW119134   5.555   5.727   6.458
  664SOL    HW219135   5.529   5.599   6.381
  665SOL     OW19136   2.986   3.818   7.397
  665SOL    HW119137   3.027   3.795   7.314
  665SOL    HW219138   2.973   3.913   7.392
  666SOL     OW19139   5.179   1.633   5.203
  666SOL    HW119140   5.118   1.563   5.182
  666SOL    HW219141   5.265   1.592   5.202
  667SOL     OW19142   5.804   2.937   7.083
  667SOL    HW119143   5.813   2.842   7.089
  667SOL    HW219144   5.733   2.959   7.142
  668SOL     OW19145   5.847   3.315   6.968
  668SOL    HW119146   5.858   3.290   7.060
  668SOL    HW219147   5.936   3.333   6.938
  669SOL     OW19148   6.239   1.078   6.062
  669SOL    HW119149   6.315   1.092   6.117
  669SOL    HW219150   6.170   1.050   6.122
  670SOL     OW19151   5.464   2.648   1.273
  670SOL    HW119152   5.495   2.578   1.331
  670SOL    HW219153   5.397   2.694   1.323
  671SOL     OW19154   3.003   6.268   7.705
  671SOL    HW119155   3.065   6.196   7.697
  671SOL    HW219156   3.045   6.328   7.767
  672SOL     OW19157   0.062   5.619   1.741
  672SOL    HW119158   6.418   5.619   1.768
  672SOL    HW219159   0.059   5.641   1.648
  673SOL     OW19160   0.398   2.368   7.420
  673SOL    HW119161   0.337   2.412   7.480
  673SOL    HW219162   0.356   2.374   7.335
  674SOL     OW19163   3.735   4.117   0.014
  674SOL    HW119164   3.714   4.080   7.731
  674SOL    HW219165   3.714   4.210   0.006
  675SOL     OW19166   5.155   0.569   6.522
  675SOL    HW119167   5.074   0.607   6.486
  675SOL    HW219168   5.197   0.642   6.569
  676SOL     OW19169   1.666   4.344   7.575
  676SOL    HW119170   1.579   4.381   7.587
  676SOL    HW219171   1.719   4.418   7.545
  677SOL     OW19172   4.794   4.030   6.839
  677SOL    HW119173   4.747   4.069   6.912
  677SOL    HW219174   4.726   4.016   6.772
  678SOL     OW19175   1.389   2.700   7.422
  678SOL    HW119176   1.304   2.680   7.382
  678SOL    HW219177   1.387   2.655   7.506
  679SOL     OW19178   3.306   0.828   6.999
  679SOL    HW119179   3.318   0.756   7.061
  679SOL    HW219180   3.231   0.877   7.033
  680SOL     OW19181   1.868   6.306   0.473
  680SOL    HW119182   1.903   6.314   0.562
  680SOL    HW219183   1.912   6.375   0.424
  681SOL     OW19184   5.072   4.052   5.051
  681SOL    HW119185   5.120   4.023   4.974
  681SOL    HW219186   5.028   3.973   5.084
  682SOL     OW19187   5.161   4.508   0.550
  682SOL    HW119188   5.225   4.446   0.515
  682SOL    HW219189   5.077   4.466   0.536
  683SOL     OW19190   5.389   2.335   0.338
  683SOL    HW119191   5.426   2.253   0.370
  683SOL    HW219192   5.317   2.354   0.398
  684SOL     OW19193   4.698   4.831   0.864
  684SOL    HW119194   4.686   4.917   0.903
  684SOL    HW219195   4.617   4.784   0.884
  685SOL     OW19196   0.819   0.596   6.191
  685SOL    HW119197   0.828   0.678   6.142
  685SOL    HW219198   0.909   0.567   6.206
  686SOL     OW19199   2.636   5.771   0.480
  686SOL    HW119200   2.620   5.863   0.498
  686SOL    HW219201   2.700   5.745   0.546
  687SOL     OW19202   1.498   5.103   0.309
  687SOL    HW119203   1.493   5.185   0.260
  687SOL    HW219204   1.575   5.058   0.274
  688SOL     OW19205   0.736   1.590   7.416
  688SOL    HW119206   0.685   1.630   7.486
  688SOL    HW219207   0.691   1.615   7.336
  689SOL     OW19208   0.906   0.030   6.281
  689SOL    HW119209   0.866   0.111   6.250
  689SOL    HW219210   0.840   6.439   6.338
  690SOL     OW19211   5.395   4.172   0.214
  690SOL    HW119212   5.360   4.146   0.129
  690SOL    HW219213   5.353   4.112   0.276
  691SOL     OW19214   1.875   0.314   6.118
  691SOL    HW119215   1.965   0.287   6.100
  691SOL    HW219216   1.837   0.331   6.032
  692SOL     OW19217   5.006   5.184   0.299
  692SOL    HW119218   5.009   5.144   0.386
  692SOL    HW219219   5.078   5.142   0.252
  693SOL     OW19220   4.405   1.696   7.410
  693SOL    HW119221   4.328   1.669   7.461
  693SOL    HW219222   4.413   1.790   7.427
  694SOL     OW19223   5.621   0.817   5.383
  694SOL    HW119224   5.549   0.838   5.444
  694SOL    HW219225   5.692   0.788   5.440
  695SOL     OW19226   2.024   3.426   7.154
  695SOL    HW119227   1.966   3.445   7.228
  695SOL    HW219228   2.090   3.366   7.190
  696SOL     OW19229   2.759   3.855   6.921
  696SOL    HW119230   2.715   3.826   7.001
  696SOL    HW219231   2.796   3.940   6.944
  697SOL     OW19232   2.337   4.130   7.140
  697SOL    HW119233   2.295   4.066   7.198
  697SOL    HW219234   2.280   4.133   7.063
  698SOL     OW19235   4.424   5.410   5.857
  698SOL    HW119236   4.503   5.414   5.803
  698SOL    HW219237   4.388   5.499   5.853
  699SOL     OW19238   3.256   2.573   0.657
  699SOL    HW119239   3.261   2.650   0.600
  699SOL    HW219240   3.320   2.512   0.621
  700SOL     OW19241   1.078   5.308   0.226
  700SOL    HW119242   1.158   5.318   0.278
  700SOL    HW219243   1.007   5.323   0.289
  701SOL     OW19244   5.066   2.304   7.394
  701SOL    HW119245   5.112   2.292   7.311
  701SOL    HW219246   5.129   2.348   7.451
  702SOL     OW19247   2.095   5.469   0.500
  702SOL    HW119248   2.138   5.422   0.429
  702SOL    HW219249   2.163   5.478   0.567
  703SOL     OW19250   4.021   2.469   6.392
  703SOL    HW119251   3.940   2.421   6.405
  703SOL    HW219252   4.024   2.532   6.464
  704SOL     OW19253   6.386   3.000   6.809
  704SOL    HW119254   6.391   2.947   6.889
  704SOL    HW219255   0.019   3.052   6.810
  705SOL     OW19256   1.374   3.016   1.170
  705SOL    HW119257   1.436   2.949   1.198
  705SOL    HW219258   1.428   3.092   1.147
  706SOL     OW19259   3.649   3.827   0.646
  706SOL    HW119260   3.734   3.784   0.659
  706SOL    HW219261   3.620   3.851   0.734
  707SOL     OW19262   4.413   5.841   1.335
  707SOL    HW119263   4.431   5.910   1.272
  707SOL    HW219264   4.464   5.865   1.412
  708SOL     OW19265   3.815   0.938   6.781
  708SOL    HW119266   3.785   0.960   6.693
  708SOL    HW219267   3.856   0.852   6.771
  709SOL     OW19268   2.797   5.929   5.833
  709SOL    HW119269   2.796   5.997   5.766
  709SOL    HW219270   2.793   5.846   5.784
  710SOL     OW19271   6.229   3.511   5.705
  710SOL    HW119272   6.287   3.584   5.684
  710SOL    HW219273   6.200   3.479   5.620
  711SOL     OW19274   6.203   1.217   6.903
  711SOL    HW119275   6.172   1.270   6.977
  711SOL    HW219276   6.123   1.187   6.860
  712SOL     OW19277   1.120   3.095   1.226
  712SOL    HW119278   1.064   3.035   1.177
  712SOL    HW219279   1.209   3.065   1.207
  713SOL     OW19280   3.065   2.549   1.775
  713SOL    HW119281   3.002   2.544   1.847
  713SOL    HW219282   3.150   2.558   1.818
  714SOL     OW19283   1.881   5.226   5.960
  714SOL    HW119284   1.862   5.319   5.947
  714SOL    HW219285   1.858   5.209   6.051
  715SOL     OW19286   5.111   6.435   7.388
  715SOL    HW119287   5.052   6.389   7.447
  715SOL    HW219288   5.067   0.069   7.368
  716SOL     OW19289   1.390   1.046   6.196
  716SOL    HW119290   1.297   1.067   6.205
  716SOL    HW219291   1.432   1.099   6.264
  717SOL     OW19292   4.289   2.545   0.021
  717SOL    HW119293   4.277   2.470   0.080
  717SOL    HW219294   4.335   2.508   7.748
  718SOL     OW19295   4.595   0.340   0.652
  718SOL    HW119296   4.671   0.357   0.707
  718SOL    HW219297   4.606   0.398   0.577
  719SOL     OW19298   1.072   6.087   7.436
  719SOL    HW119299   1.148   6.030   7.452
  719SOL    HW219300   1.106   6.176   7.443
  720SOL     OW19301   0.066   2.290   1.979
  720SOL    HW119302   0.123   2.227   2.021
  720SOL    HW219303   0.072   2.369   2.033
  721SOL     OW19304   5.473   0.404   5.614
  721SOL    HW119305   5.477   0.491   5.654
  721SOL    HW219306   5.454   0.421   5.521
  722SOL     OW19307   4.958   6.293   6.933
  722SOL    HW119308   4.957   6.221   6.996
  722SOL    HW219309   5.047   6.293   6.898
  723SOL     OW19310   1.963   3.778   6.669
  723SOL    HW119311   1.879   3.758   6.626
  723SOL    HW219312   1.999   3.692   6.692
  724SOL     OW19313   1.607   1.893   0.045
  724SOL    HW119314   1.581   1.967   7.793
  724SOL    HW219315   1.590   1.923   0.135
  725SOL     OW19316   5.180   2.382   0.506
  725SOL    HW119317   5.183   2.345   0.594
  725SOL    HW219318   5.090   2.369   0.477
  726SOL     OW19319   4.551   2.477   0.668
  726SOL    HW119320   4.515   2.560   0.699
  726SOL    HW219321   4.517   2.411   0.730
  727SOL     OW19322   2.533   0.176   0.971
  727SOL    HW119323   2.478   0.104   0.942
  727SOL    HW219324   2.502   0.252   0.923
  728SOL     OW19325   2.100   2.072   6.455
  728SOL    HW119326   2.144   1.990   6.475
  728SOL    HW219327   2.097   2.075   6.359
  729SOL     OW19328   4.760   4.827   2.107
  729SOL    HW119329   4.802   4.909   2.132
  729SOL    HW219330   4.831   4.762   2.111
  730SOL     OW19331   6.325   5.659   5.278
  730SOL    HW119332   6.413   5.691   5.300
  730SOL    HW219333   6.306   5.701   5.193
  731SOL     OW19334   2.998   1.067   1.349
  731SOL    HW119335   3.074   1.020   1.316
  731SOL    HW219336   2.985   1.034   1.438
  732SOL     OW19337   4.200   5.012   6.379
  732SOL    HW119338   4.154   4.968   6.451
  732SOL    HW219339   4.289   5.027   6.413
  733SOL     OW19340   1.556   4.694   7.748
  733SOL    HW119341   1.589   4.646   0.021
  733SOL    HW219342   1.492   4.755   7.784
  734SOL     OW19343   5.304   4.166   0.749
  734SOL    HW119344   5.315   4.222   0.673
  734SOL    HW219345   5.268   4.224   0.817
  735SOL     OW19346   0.110   2.182   7.365
  735SOL    HW119347   0.061   2.246   7.416
  735SOL    HW219348   0.172   2.144   7.427
  736SOL     OW19349   0.587   1.001   6.090
  736SOL    HW119350   0.545   1.061   6.028
  736SOL    HW219351   0.526   0.929   6.099
  737SOL     OW19352   0.619   4.130   6.692
  737SOL    HW119353   0.666   4.158   6.770
  737SOL    HW219354   0.675   4.158   6.619
  738SOL     OW19355   5.553   2.968   7.790
  738SOL    HW119356   5.555   3.058   7.759
  738SOL    HW219357   5.578   2.973   0.079
  739SOL     OW19358   2.266   2.956   0.306
  739SOL    HW119359   2.348   2.955   0.355
  739SOL    HW219360   2.226   2.871   0.323
  740SOL     OW19361   3.913   5.119   0.028
  740SOL    HW119362   3.918   5.097   0.121
  740SOL    HW219363   3.961   5.049   7.787
  741SOL     OW19364   5.504   3.605   7.355
  741SOL    HW119365   5.525   3.689   7.395
  741SOL    HW219366   5.419   3.581   7.392
  742SOL     OW19367   0.272   4.208   1.113
  742SOL    HW119368   0.356   4.244   1.084
  742SOL    HW219369   0.287   4.181   1.203
  743SOL     OW19370   4.206   2.733   0.616
  743SOL    HW119371   4.130   2.691   0.657
  743SOL    HW219372   4.198   2.711   0.523
  744SOL     OW19373   5.453   5.212   7.370
  744SOL    HW119374   5.362   5.237   7.386
  744SOL    HW219375   5.505   5.280   7.413
  745SOL     OW19376   3.495   4.670   7.182
  745SOL    HW119377   3.417   4.671   7.125
  745SOL    HW219378   3.477   4.737   7.248
  746SOL     OW19379   1.327   5.393   2.137
  746SOL    HW119380   1.367   5.477   2.115
  746SOL    HW219381   1.390   5.351   2.194
  747SOL     OW19382   3.684   3.967   6.041
  747SOL    HW119383   3.592   3.942   6.029
  747SOL    HW219384   3.725   3.949   5.957
  748SOL     OW19385   2.413   4.835   6.416
  748SOL    HW119386   2.485   4.896   6.428
  748SOL    HW219387   2.334   4.889   6.420
  749SOL     OW19388   0.676   3.542   2.320
  749SOL    HW119389   0.699   3.621   2.270
  749SOL    HW219390   0.747   3.480   2.301
  750SOL     OW19391   0.795   5.846   0.553
  750SOL    HW119392   0.776   5.939   0.563
  750SOL    HW219393   0.718   5.802   0.588
  751SOL     OW19394   3.340   5.701   6.905
  751SOL    HW119395   3.419   5.650   6.924
  751SOL    HW219396   3.371   5.789   6.888
  752SOL     OW19397   0.395   0.847   0.151
  752SOL    HW119398   0.435   0.882   0.071
  752SOL    HW219399   0.315   0.898   0.162
  753SOL     OW19400   4.888   0.206   1.047
  753SOL    HW119401   4.796   0.235   1.044
  753SOL    HW219402   4.899   0.155   0.967
  754SOL     OW19403   3.027   1.733   6.181
  754SOL    HW119404   3.080   1.778   6.246
  754SOL    HW219405   3.039   1.640   6.200
  755SOL     OW19406   2.174   2.057   1.274
  755SOL    HW119407   2.241   2.050   1.205
  755SOL    HW219408   2.207   2.002   1.345
  756SOL     OW19409   5.582   0.806   0.660
  756SOL    HW119410   5.576   0.714   0.686
  756SOL    HW219411   5.520   0.814   0.588
  757SOL     OW19412   2.095   5.945   6.672
  757SOL    HW119413   2.138   5.976   6.752
  757SOL    HW219414   2.043   6.020   6.643
  758SOL     OW19415   3.656   0.888   5.478
  758SOL    HW119416   3.602   0.896   5.400
  758SOL    HW219417   3.733   0.941   5.460
  759SOL     OW19418   5.497   5.634   7.692
  759SOL    HW119419   5.455   5.618   7.608
  759SOL    HW219420   5.463   5.718   7.721
  760SOL     OW19421   6.238   1.836   7.143
  760SOL    HW119422   6.176   1.909   7.143
  760SOL    HW219423   6.291   1.849   7.222
  761SOL     OW19424   0.091   5.403   6.551
  761SOL    HW119425   0.107   5.486   6.596
  761SOL    HW219426   0.116   5.336   6.615
  762SOL     OW19427   2.191   0.873   1.127
  762SOL    HW119428   2.232   0.869   1.214
  762SOL    HW219429   2.097   0.866   1.144
  763SOL     OW19430   6.125   1.376   7.114
  763SOL    HW119431   6.117   1.464   7.077
  763SOL    HW219432   6.061   1.374   7.185
  764SOL     OW19433   2.864   1.270   0.723
  764SOL    HW119434   2.909   1.192   0.692
  764SOL    HW219435   2.926   1.342   0.709
  765SOL     OW19436   3.421   2.849   1.525
  765SOL    HW119437   3.514   2.866   1.512
  765SOL    HW219438   3.413   2.831   1.619
  766SOL     OW19439   2.310   4.021   5.973
  766SOL    HW119440   2.394   3.987   6.004
  766SOL    HW219441   2.328   4.112   5.950
  767SOL     OW19442   5.609   2.934   7.429
  767SOL    HW119443   5.601   2.989   7.352
  767SOL    HW219444   5.532   2.954   7.481
  768SOL     OW19445   3.162   0.521   1.993
  768SOL    HW119446   3.130   0.563   2.073
  768SOL    HW219447   3.201   0.593   1.943
  769SOL     OW19448   2.411   5.396   6.224
  769SOL    HW119449   2.392   5.349   6.143
  769SOL    HW219450   2.452   5.477   6.197
  770SOL     OW19451   5.794   6.312   6.887
  770SOL    HW119452   5.808   6.362   6.806
  770SOL    HW219453   5.808   6.375   6.957
  771SOL     OW19454   2.922   1.620   1.090
  771SOL    HW119455   2.855   1.610   1.023
  771SOL    HW219456   2.890   1.567   1.164
  772SOL     OW19457   1.546   5.683   1.418
  772SOL    HW119458   1.565   5.713   1.329
  772SOL    HW219459   1.575   5.755   1.474
  773SOL     OW19460   5.043   2.767   0.312
  773SOL    HW119461   4.991   2.785   0.390
  773SOL    HW219462   5.041   2.849   0.263
  774SOL     OW19463   6.310   4.015   6.677
  774SOL    HW119464   6.250   4.040   6.607
  774SOL    HW219465   6.396   4.014   6.636
  775SOL     OW19466   5.419   6.323   5.654
  775SOL    HW119467   5.464   6.380   5.593
  775SOL    HW219468   5.340   6.371   5.679
  776SOL     OW19469   0.304   0.271   6.403
  776SOL    HW119470   0.216   0.308   6.407
  776SOL    HW219471   0.314   0.223   6.485
  777SOL     OW19472   2.084   5.272   1.213
  777SOL    HW119473   2.027   5.254   1.138
  777SOL    HW219474   2.025   5.269   1.289
  778SOL     OW19475   2.351   3.401   6.941
  778SOL    HW119476   2.416   3.429   6.876
  778SOL    HW219477   2.392   3.326   6.985
  779SOL     OW19478   4.864   5.915   1.459
  779SOL    HW119479   4.821   5.860   1.394
  779SOL    HW219480   4.800   5.923   1.530
  780SOL     OW19481   3.627   5.253   7.517
  780SOL    HW119482   3.659   5.326   7.571
  780SOL    HW219483   3.663   5.270   7.430
  781SOL     OW19484   5.354   0.062   0.544
  781SOL    HW119485   5.349   0.095   0.634
  781SOL    HW219486   5.374   6.417   0.553
  782SOL     OW19487   5.469   2.215   5.263
  782SOL    HW119488   5.544   2.205   5.321
  782SOL    HW219489   5.506   2.215   5.175
  783SOL     OW19490   1.621   2.260   5.921
  783SOL    HW119491   1.648   2.317   5.849
  783SOL    HW219492   1.700   2.212   5.945
  784SOL     OW19493   2.556   2.698   1.512
  784SOL    HW119494   2.581   2.632   1.578
  784SOL    HW219495   2.568   2.653   1.428
  785SOL     OW19496   6.214   2.303   7.270
  785SOL    HW119497   6.253   2.382   7.233
  785SOL    HW219498   6.233   2.309   7.364
  786SOL     OW19499   2.561   0.557   0.088
  786SOL    HW119500   2.594   0.493   0.025
  786SOL    HW219501   2.466   0.551   0.083
  787SOL     OW19502   3.741   5.923   6.051
  787SOL    HW119503   3.748   5.912   6.145
  787SOL    HW219504   3.680   5.997   6.039
  788SOL     OW19505   1.442   2.993   0.447
  788SOL    HW119506   1.426   3.041   0.528
  788SOL    HW219507   1.514   3.039   0.405
  789SOL     OW19508   3.202   0.202   0.168
  789SOL    HW119509   3.269   0.170   0.229
  789SOL    HW219510   3.249   0.258   0.107
  790SOL     OW19511   5.890   3.238   5.759
  790SOL    HW119512   5.887   3.153   5.715
  790SOL    HW219513   5.816   3.286   5.722
  791SOL     OW19514   3.968   0.424   6.950
  791SOL    HW119515   3.937   0.335   6.967
  791SOL    HW219516   3.916   0.453   6.875
  792SOL     OW19517   3.441   4.546   5.295
  792SOL    HW119518   3.463   4.453   5.289
  792SOL    HW219519   3.432   4.562   5.389
  793SOL     OW19520   3.341   1.245   6.917
  793SOL    HW119521   3.404   1.197   6.863
  793SOL    HW219522   3.392   1.315   6.958
  794SOL     OW19523   4.121   3.840   1.789
  794SOL    HW119524   4.047   3.897   1.769
  794SOL    HW219525   4.094   3.753   1.758
  795SOL     OW19526   1.192   3.593   0.210
  795SOL    HW119527   1.204   3.499   0.204
  795SOL    HW219528   1.098   3.605   0.222
  796SOL     OW19529   4.391   0.511   1.384
  796SOL    HW119530   4.403   0.579   1.449
  796SOL    HW219531   4.400   0.556   1.300
  797SOL     OW19532   5.625   2.837   0.686
  797SOL    HW119533   5.680   2.767   0.650
  797SOL    HW219534   5.582   2.797   0.762
  798SOL     OW19535   1.614   0.991   7.357
  798SOL    HW119536   1.611   1.006   7.263
  798SOL    HW219537   1.591   0.898   7.367
  799SOL     OW19538   2.018   0.877   6.080
  799SOL    HW119539   2.085   0.896   6.014
  799SOL    HW219540   1.968   0.805   6.042
  800SOL     OW19541   5.576   4.978   6.369
  800SOL    HW119542   5.638   4.990   6.298
  800SOL    HW219543   5.553   5.066   6.397
  801SOL     OW19544   5.316   3.928   6.025
  801SOL    HW119545   5.311   3.851   5.969
  801SOL    HW219546   5.348   3.998   5.968
  802SOL     OW19547   3.683   3.249   0.754
  802SOL    HW119548   3.657   3.251   0.846
  802SOL    HW219549   3.678   3.340   0.725
  803SOL     OW19550   5.841   1.489   6.742
  803SOL    HW119551   5.860   1.561   6.682
  803SOL    HW219552   5.890   1.415   6.707
  804SOL     OW19553   2.961   1.997   7.027
  804SOL    HW119554   2.973   2.046   7.108
  804SOL    HW219555   2.907   1.922   7.052
  805SOL     OW19556   5.540   1.398   1.962
  805SOL    HW119557   5.571   1.374   1.875
  805SOL    HW219558   5.511   1.315   2.001
  806SOL     OW19559   4.099   6.025   7.312
  806SOL    HW119560   4.043   5.954   7.280
  806SOL    HW219561   4.146   6.056   7.235
  807SOL     OW19562   5.889   5.451   1.139
  807SOL    HW119563   5.859   5.374   1.186
  807SOL    HW219564   5.809   5.502   1.124
  808SOL     OW19565   4.405   1.467   0.132
  808SOL    HW119566   4.404   1.527   0.057
  808SOL    HW219567   4.473   1.403   0.111
  809SOL     OW19568   4.921   3.221   5.324
  809SOL    HW119569   4.924   3.315   5.307
  809SOL    HW219570   4.828   3.199   5.323
  810SOL     OW19571   2.569   1.003   7.696
  810SOL    HW119572   2.644   1.020   7.752
  810SOL    HW219573   2.607   0.984   7.610
  811SOL     OW19574   4.554   4.104   0.249
  811SOL    HW119575   4.531   4.055   0.329
  811SOL    HW219576   4.577   4.191   0.280
  812SOL     OW19577   6.158   0.890   6.452
  812SOL    HW119578   6.205   0.957   6.502
  812SOL    HW219579   6.175   0.808   6.499
  813SOL     OW19580   1.572   4.835   2.111
  813SOL    HW119581   1.665   4.816   2.103
  813SOL    HW219582   1.529   4.768   2.057
  814SOL     OW19583   0.360   2.286   1.761
  814SOL    HW119584   0.369   2.206   1.813
  814SOL    HW219585   0.287   2.268   1.702
  815SOL     OW19586   5.627   0.446   0.457
  815SOL    HW119587   5.700   0.444   0.395
  815SOL    HW219588   5.564   0.384   0.422
  816SOL     OW19589   0.320   4.746   6.247
  816SOL    HW119590   0.322   4.653   6.226
  816SOL    HW219591   0.281   4.787   6.170
  817SOL     OW19592   3.408   1.688   0.695
  817SOL    HW119593   3.396   1.663   0.787
  817SOL    HW219594   3.502   1.677   0.680
  818SOL     OW19595   2.896   3.418   1.025
  818SOL    HW119596   2.839   3.346   0.999
  818SOL    HW219597   2.970   3.413   0.965
  819SOL     OW19598   3.344   2.982   0.970
  819SOL    HW119599   3.294   2.909   0.933
  819SOL    HW219600   3.277   3.039   1.007
  820SOL     OW19601   2.783   5.829   1.532
  820SOL    HW119602   2.838   5.884   1.588
  820SOL    HW219603   2.831   5.822   1.450
  821SOL     OW19604   1.392   2.610   1.887
  821SOL    HW119605   1.403   2.675   1.818
  821SOL    HW219606   1.482   2.585   1.910
  822SOL     OW19607   6.418   2.476   0.045
  822SOL    HW119608   6.398   2.390   0.007
  822SOL    HW219609   6.334   2.509   0.076
  823SOL     OW19610   1.164   1.195   1.785
  823SOL    HW119611   1.256   1.208   1.808
  823SOL    HW219612   1.154   1.241   1.702
  824SOL     OW19613   1.749   0.773   1.403
  824SOL    HW119614   1.771   0.712   1.333
  824SOL    HW219615   1.676   0.731   1.449
  825SOL     OW19616   1.027   6.311   7.718
  825SOL    HW119617   0.985   6.351   7.794
  825SOL    HW219618   1.037   6.384   7.656
  826SOL     OW19619   1.856   5.944   7.518
  826SOL    HW119620   1.938   5.903   7.490
  826SOL    HW219621   1.851   5.926   7.612
  827SOL     OW19622   1.061   1.472   7.088
  827SOL    HW119623   1.046   1.519   7.170
  827SOL    HW219624   0.984   1.416   7.078
  828SOL     OW19625   1.932   2.488   1.606
  828SOL    HW119626   1.878   2.412   1.584
  828SOL    HW219627   1.869   2.556   1.631
  829SOL     OW19628   2.367   3.432   1.145
  829SOL    HW119629   2.451   3.467   1.174
  829SOL    HW219630   2.384   3.340   1.127
  830SOL     OW19631   0.194   0.298   1.470
  830SOL    HW119632   0.173   0.253   1.388
  830SOL    HW219633   0.188   0.229   1.537
  831SOL     OW19634   2.000   5.079   5.495
  831SOL    HW119635   2.093   5.066   5.479
  831SOL    HW219636   1.977   5.011   5.559
  832SOL     OW19637   1.589   1.815   7.436
  832SOL    HW119638   1.670   1.765   7.443
  832SOL    HW219639   1.520   1.749   7.435
  833SOL     OW19640   2.827   1.514   6.935
  833SOL    HW119641   2.917   1.540   6.913
  833SOL    HW219642   2.802   1.453   6.866
  834SOL     OW19643   3.485   0.382   5.451
  834SOL    HW119644   3.440   0.343   5.526
  834SOL    HW219645   3.500   0.473   5.478
  835SOL     OW19646   3.902   5.792   6.962
  835SOL    HW119647   3.872   5.784   6.871
  835SOL    HW219648   3.976   5.731   6.968
  836SOL     OW19649   6.116   4.893   6.266
  836SOL    HW119650   6.174   4.932   6.201
  836SOL    HW219651   6.040   4.864   6.215
  837SOL     OW19652   1.060   2.937   7.603
  837SOL    HW119653   1.078   2.937   7.509
  837SOL    HW219654   1.129   2.993   7.640
  838SOL     OW19655   3.150   3.456   1.460
  838SOL    HW119656   3.124   3.389   1.396
  838SOL    HW219657   3.199   3.408   1.526
  839SOL     OW19658   0.708   2.522   0.387
  839SOL    HW119659   0.767   2.574   0.442
  839SOL    HW219660   0.764   2.454   0.350
  840SOL     OW19661   0.731   4.584   1.766
  840SOL    HW119662   0.705   4.613   1.679
  840SOL    HW219663   0.682   4.503   1.780
  841SOL     OW19664   2.290   2.320   0.326
  841SOL    HW119665   2.258   2.324   0.416
  841SOL    HW219666   2.213   2.295   0.275
  842SOL     OW19667   3.546   0.761   6.336
  842SOL    HW119668   3.580   0.697   6.273
  842SOL    HW219669   3.451   0.755   6.327
  843SOL     OW19670   2.206   1.323   2.424
  843SOL    HW119671   2.272   1.316   2.493
  843SOL    HW219672   2.124   1.342   2.470
  844SOL     OW19673   2.510   1.321   5.994
  844SOL    HW119674   2.583   1.264   6.019
  844SOL    HW219675   2.544   1.371   5.919
  845SOL     OW19676   2.876   5.428   5.941
  845SOL    HW119677   2.898   5.462   5.854
  845SOL    HW219678   2.784   5.451   5.954
  846SOL     OW19679   2.217   5.882   6.176
  846SOL    HW119680   2.183   5.877   6.266
  846SOL    HW219681   2.200   5.795   6.140
  847SOL     OW19682   5.574   5.726   6.005
  847SOL    HW119683   5.486   5.755   6.030
  847SOL    HW219684   5.575   5.633   6.028
  848SOL     OW19685   3.907   6.077   1.550
  848SOL    HW119686   3.873   6.134   1.620
  848SOL    HW219687   3.830   6.034   1.514
  849SOL     OW19688   1.212   3.669   7.047
  849SOL    HW119689   1.304   3.654   7.068
  849SOL    HW219690   1.165   3.654   7.130
  850SOL     OW19691   5.177   0.731   2.370
  850SOL    HW119692   5.188   0.675   2.293
  850SOL    HW219693   5.267   0.750   2.398
  851SOL     OW19694   0.085   3.772   7.614
  851SOL    HW119695   0.033   3.768   7.693
  851SOL    HW219696   0.125   3.685   7.606
  852SOL     OW19697   5.672   6.191   0.196
  852SOL    HW119698   5.680   6.222   0.105
  852SOL    HW219699   5.759   6.159   0.218
  853SOL     OW19700   3.113   4.684   6.693
  853SOL    HW119701   3.053   4.615   6.724
  853SOL    HW219702   3.084   4.763   6.739
  854SOL     OW19703   2.274   3.456   7.614
  854SOL    HW119704   2.245   3.464   7.705
  854SOL    HW219705   2.329   3.378   7.613
  855SOL     OW19706   3.365   0.080   1.180
  855SOL    HW119707   3.361   6.435   1.202
  855SOL    HW219708   3.398   0.082   1.090
  856SOL     OW19709   0.562   1.363   7.721
  856SOL    HW119710   0.509   1.355   7.800
  856SOL    HW219711   0.520   1.434   7.671
  857SOL     OW19712   3.922   2.206   1.127
  857SOL    HW119713   3.897   2.151   1.201
  857SOL    HW219714   3.975   2.148   1.071
  858SOL     OW19715   1.925   2.944   7.133
  858SOL    HW119716   1.913   3.034   7.163
  858SOL    HW219717   1.864   2.893   7.186
  859SOL     OW19718   3.032   1.848   5.673
  859SOL    HW119719   3.082   1.842   5.591
  859SOL    HW219720   3.030   1.758   5.707
  860SOL     OW19721   6.045   0.250   7.174
  860SOL    HW119722   6.131   0.248   7.134
  860SOL    HW219723   6.061   0.232   7.267
  861SOL     OW19724   2.233   4.669   0.978
  861SOL    HW119725   2.163   4.733   0.976
  861SOL    HW219726   2.275   4.680   1.063
  862SOL     OW19727   2.137   6.185   1.218
  862SOL    HW119728   2.156   6.094   1.196
  862SOL    HW219729   2.223   6.227   1.224
  863SOL     OW19730   6.064   2.075   7.248
  863SOL    HW119731   6.115   2.156   7.256
  863SOL    HW219732   6.055   2.062   7.154
  864SOL     OW19733   3.246   2.214   0.285
  864SOL    HW119734   3.286   2.300   0.270
  864SOL    HW219735   3.152   2.232   0.290
  865SOL     OW19736   3.910   6.153   7.755
  865SOL    HW119737   3.900   6.246   7.736
  865SOL    HW219738   3.897   6.110   7.671
  866SOL     OW19739   3.035   6.033   2.089
  866SOL    HW119740   2.971   5.962   2.090
  866SOL    HW219741   2.985   6.110   2.061
  867SOL     OW19742   0.228   0.183   0.997
  867SOL    HW119743   0.295   0.220   0.939
  867SOL    HW219744   0.147   0.227   0.969
  868SOL     OW19745   4.408   0.400   7.087
  868SOL    HW119746   4.499   0.411   7.059
  868SOL    HW219747   4.413   0.344   7.165
  869SOL     OW19748   3.104   3.654   0.898
  869SOL    HW119749   3.104   3.562   0.869
  869SOL    HW219750   3.136   3.651   0.988
  870SOL     OW19751   5.292   5.331   6.390
  870SOL    HW119752   5.289   5.410   6.337
  870SOL    HW219753   5.256   5.357   6.475
  871SOL     OW19754   0.564   3.446   1.439
  871SOL    HW119755   0.554   3.351   1.448
  871SOL    HW219756   0.634   3.457   1.375
  872SOL     OW19757   0.830   2.707   0.554
  872SOL    HW119758   0.751   2.739   0.597
  872SOL    HW219759   0.872   2.651   0.620
  873SOL     OW19760   2.031   5.749   1.320
  873SOL    HW119761   1.969   5.761   1.392
  873SOL    HW219762   1.984   5.694   1.257
  874SOL     OW19763   4.063   0.932   1.028
  874SOL    HW119764   3.971   0.940   1.054
  874SOL    HW219765   4.076   0.838   1.014
  875SOL     OW19766   1.136   1.685   7.730
  875SOL    HW119767   1.201   1.620   7.705
  875SOL    HW219768   1.154   1.702   0.020
  876SOL     OW19769   1.260   4.116   6.295
  876SOL    HW119770   1.271   4.209   6.312
  876SOL    HW219771   1.292   4.073   6.374
  877SOL     OW19772   3.749   2.151   0.356
  877SOL    HW119773   3.837   2.167   0.390
  877SOL    HW219774   3.706   2.100   0.426
  878SOL     OW19775   0.038   0.873   0.391
  878SOL    HW119776   0.090   0.925   0.330
  878SOL    HW219777   6.441   0.937   0.446
  879SOL     OW19778   1.699   1.054   0.723
  879SOL    HW119779   1.744   1.130   0.758
  879SOL    HW219780   1.720   1.054   0.630
  880SOL     OW19781   3.890   0.666   0.098
  880SOL    HW119782   3.923   0.659   0.188
  880SOL    HW219783   3.795   0.669   0.108
  881SOL     OW19784   1.467   3.735   1.524
  881SOL    HW119785   1.400   3.753   1.589
  881SOL    HW219786   1.443   3.790   1.449
  882SOL     OW19787   1.387   5.000   6.979
  882SOL    HW119788   1.301   5.004   6.937
  882SOL    HW219789   1.413   5.091   6.990
  883SOL     OW19790   1.489   4.089   1.153
  883SOL    HW119791   1.500   4.183   1.146
  883SOL    HW219792   1.572   4.057   1.189
  884SOL     OW19793   2.975   1.495   7.758
  884SOL    HW119794   2.910   1.425   7.750
  884SOL    HW219795   3.005   1.490   0.046
  885SOL     OW19796   6.234   3.029   1.780
  885SOL    HW119797   6.218   3.107   1.833
  885SOL    HW219798   6.317   2.994   1.812
  886SOL     OW19799   5.911   2.966   6.632
  886SOL    HW119800   5.996   2.986   6.672
  886SOL    HW219801   5.847   3.000   6.695
  887SOL     OW19802   5.111   6.055   1.814
  887SOL    HW119803   5.077   6.136   1.778
  887SOL    HW219804   5.112   6.069   1.909
  888SOL     OW19805   0.805   0.247   7.126
  888SOL    HW119806   0.877   0.306   7.153
  888SOL    HW219807   0.771   0.213   7.208
  889SOL     OW19808   5.186   6.084   0.107
  889SOL    HW119809   5.183   6.166   0.057
  889SOL    HW219810   5.266   6.092   0.160
  890SOL     OW19811   0.823   1.228   0.704
  890SOL    HW119812   0.890   1.272   0.651
  890SOL    HW219813   0.869   1.156   0.746
  891SOL     OW19814   5.605   0.997   1.597
  891SOL    HW119815   5.645   0.962   1.677
  891SOL    HW219816   5.679   1.016   1.540
  892SOL     OW19817   0.999   4.841   6.197
  892SOL    HW119818   0.909   4.873   6.198
  892SOL    HW219819   1.033   4.860   6.285
  893SOL     OW19820   2.871   0.934   7.034
  893SOL    HW119821   2.890   0.956   6.943
  893SOL    HW219822   2.956   0.934   7.078
  894SOL     OW19823   2.310   2.476   1.028
  894SOL    HW119824   2.405   2.485   1.020
  894SOL    HW219825   2.278   2.481   0.938
  895SOL     OW19826   2.703   1.867   1.309
  895SOL    HW119827   2.784   1.891   1.264
  895SOL    HW219828   2.684   1.942   1.366
  896SOL     OW19829   5.500   1.438   0.257
  896SOL    HW119830   5.455   1.523   0.260
  896SOL    HW219831   5.468   1.391   0.335
  897SOL     OW19832   1.455   6.329   1.644
  897SOL    HW119833   1.503   6.402   1.683
  897SOL    HW219834   1.518   6.257   1.645
  898SOL     OW19835   1.748   1.223   6.737
  898SOL    HW119836   1.764   1.130   6.724
  898SOL    HW219837   1.807   1.267   6.676
  899SOL     OW19838   1.868   2.653   0.004
  899SOL    HW119839   1.792   2.606   7.772
  899SOL    HW219840   1.864   2.739   7.764
  900SOL     OW19841   0.408   0.121   7.463
  900SOL    HW119842   0.456   0.054   7.512
  900SOL    HW219843   0.347   0.072   7.408
  901SOL     OW19844   3.448   6.103   0.017
  901SOL    HW119845   3.418   6.040   0.083
  901SOL    HW219846   3.536   6.127   0.045
  902SOL     OW19847   2.640   5.659   1.858
  902SOL    HW119848   2.666   5.751   1.853
  902SOL    HW219849   2.562   5.659   1.913
  903SOL     OW19850   4.991   3.816   0.678
  903SOL    HW119851   4.970   3.827   0.771
  903SOL    HW219852   4.911   3.842   0.633
  904SOL     OW19853   5.401   0.309   6.731
  904SOL    HW119854   5.410   0.386   6.788
  904SOL    HW219855   5.460   0.327   6.658
  905SOL     OW19856   0.674   2.402   7.074
  905SOL    HW119857   0.591   2.428   7.035
  905SOL    HW219858   0.736   2.469   7.045
  906SOL     OW19859   0.225   4.944   7.687
  906SOL    HW119860   0.226   4.849   7.673
  906SOL    HW219861   0.317   4.967   7.697
  907SOL     OW19862   0.932   4.965   5.643
  907SOL    HW119863   1.003   4.992   5.701
  907SOL    HW219864   0.963   4.989   5.555
  908SOL     OW19865   0.773   0.636   6.464
  908SOL    HW119866   0.786   0.622   6.370
  908SOL    HW219867   0.852   0.680   6.494
  909SOL     OW19868   4.417   5.859   7.011
  909SOL    HW119869   4.508   5.859   7.040
  909SOL    HW219870   4.377   5.784   7.055
  910SOL     OW19871   5.214   0.400   0.309
  910SOL    HW119872   5.297   0.358   0.330
  910SOL    HW219873   5.150   0.355   0.366
  911SOL     OW19874   4.923   4.627   7.325
  911SOL    HW119875   4.978   4.657   7.253
  911SOL    HW219876   4.924   4.699   7.389
  912SOL     OW19877   3.792   6.007   6.574
  912SOL    HW119878   3.718   6.066   6.565
  912SOL    HW219879   3.856   6.055   6.627
  913SOL     OW19880   0.811   3.535   2.012
  913SOL    HW119881   0.787   3.618   2.055
  913SOL    HW219882   0.838   3.478   2.083
  914SOL     OW19883   4.216   2.751   1.518
  914SOL    HW119884   4.250   2.735   1.606
  914SOL    HW219885   4.253   2.680   1.465
  915SOL     OW19886   0.543   5.522   1.268
  915SOL    HW119887   0.467   5.578   1.283
  915SOL    HW219888   0.609   5.554   1.330
  916SOL     OW19889   3.947   3.952   0.762
  916SOL    HW119890   3.909   3.864   0.763
  916SOL    HW219891   3.977   3.966   0.852
  917SOL     OW19892   2.567   6.005   1.562
  917SOL    HW119893   2.530   5.989   1.475
  917SOL    HW219894   2.641   5.944   1.568
  918SOL     OW19895   5.404   3.701   0.314
  918SOL    HW119896   5.340   3.745   0.258
  918SOL    HW219897   5.370   3.612   0.324
  919SOL     OW19898   3.374   2.573   1.465
  919SOL    HW119899   3.428   2.555   1.542
  919SOL    HW219900   3.375   2.669   1.458
  920SOL     OW19901   0.599   2.450   0.876
  920SOL    HW119902   0.681   2.454   0.927
  920SOL    HW219903   0.566   2.540   0.879
  921SOL     OW19904   5.831   2.169   6.135
  921SOL    HW119905   5.758   2.160   6.196
  921SOL    HW219906   5.791   2.158   6.048
  922SOL     OW19907   0.344   5.688   6.311
  922SOL    HW119908   0.388   5.685   6.395
  922SOL    HW219909   0.289   5.609   6.310
  923SOL     OW19910   1.682   6.271   2.205
  923SOL    HW119911   1.725   6.356   2.198
  923SOL    HW219912   1.753   6.207   2.192
  924SOL     OW19913   1.795   1.975   0.871
  924SOL    HW119914   1.887   1.999   0.881
  924SOL    HW219915   1.770   2.010   0.786
  925SOL     OW19916   0.944   4.601   7.700
  925SOL    HW119917   0.917   4.689   7.725
  925SOL    HW219918   1.026   4.586   7.748
  926SOL     OW19919   0.640   6.242   6.184
  926SOL    HW119920   0.635   6.297   6.106
  926SOL    HW219921   0.660   6.303   6.255
  927SOL     OW19922   5.227   4.768   0.865
  927SOL    HW119923   5.139   4.773   0.828
  927SOL    HW219924   5.255   4.678   0.847
  928SOL     OW19925   1.994   4.539   6.864
  928SOL    HW119926   1.933   4.465   6.873
  928SOL    HW219927   2.079   4.502   6.887
  929SOL     OW19928   1.189   1.497   5.898
  929SOL    HW119929   1.219   1.586   5.914
  929SOL    HW219930   1.254   1.442   5.941
  930SOL     OW19931   5.727   5.056   6.151
  930SOL    HW119932   5.782   4.979   6.136
  930SOL    HW219933   5.786   5.130   6.136
  931SOL     OW19934   4.295   6.019   7.518
  931SOL    HW119935   4.232   6.016   7.446
  931SOL    HW219936   4.331   5.931   7.523
  932SOL     OW19937   5.110   3.998   2.401
  932SOL    HW119938   5.130   3.991   2.495
  932SOL    HW219939   5.188   4.039   2.364
  933SOL     OW19940   4.661   5.247   1.922
  933SOL    HW119941   4.751   5.258   1.892
  933SOL    HW219942   4.608   5.256   1.843
  934SOL     OW19943   5.171   3.249   6.369
  934SOL    HW119944   5.244   3.190   6.352
  934SOL    HW219945   5.190   3.285   6.456
  935SOL     OW19946   1.045   3.649   7.272
  935SOL    HW119947   1.004   3.705   7.338
  935SOL    HW219948   0.979   3.641   7.203
  936SOL     OW19949   1.805   0.465   0.768
  936SOL    HW119950   1.857   0.539   0.737
  936SOL    HW219951   1.715   0.498   0.772
  937SOL     OW19952   6.281   6.259   7.485
  937SOL    HW119953   6.279   6.321   7.558
  937SOL    HW219954   6.189   6.237   7.469
  938SOL     OW19955   5.966   2.472   5.389
  938SOL    HW119956   5.933   2.454   5.301
  938SOL    HW219957   5.944   2.394   5.439
  939SOL     OW19958   1.151   4.980   6.836
  939SOL    HW119959   1.081   5.041   6.858
  939SOL    HW219960   1.109   4.895   6.832
  940SOL     OW19961   6.415   0.297   7.410
  940SOL    HW119962   6.391   0.209   7.380
  940SOL    HW219963   0.009   0.283   7.495
  941SOL     OW19964   0.395   0.813   6.109
  941SOL    HW119965   0.312   0.815   6.062
  941SOL    HW219966   0.398   0.726   6.150
  942SOL     OW19967   2.429   2.140   2.204
  942SOL    HW119968   2.345   2.146   2.251
  942SOL    HW219969   2.426   2.212   2.141
  943SOL     OW19970   1.699   2.036   0.616
  943SOL    HW119971   1.633   1.967   0.626
  943SOL    HW219972   1.650   2.110   0.580
  944SOL     OW19973   3.937   1.802   1.329
  944SOL    HW119974   3.899   1.718   1.303
  944SOL    HW219975   4.011   1.815   1.270
  945SOL     OW19976   5.265   2.294   7.206
  945SOL    HW119977   5.287   2.222   7.147
  945SOL    HW219978   5.343   2.349   7.208
  946SOL     OW19979   2.940   4.491   6.759
  946SOL    HW119980   2.963   4.418   6.817
  946SOL    HW219981   2.845   4.484   6.748
  947SOL     OW19982   1.894   4.704   5.899
  947SOL    HW119983   1.858   4.721   5.987
  947SOL    HW219984   1.829   4.647   5.858
  948SOL     OW19985   0.626   1.116   7.587
  948SOL    HW119986   0.541   1.099   7.548
  948SOL    HW219987   0.616   1.200   7.632
  949SOL     OW19988   4.439   2.751   7.064
  949SOL    HW119989   4.368   2.814   7.048
  949SOL    HW219990   4.404   2.692   7.130
  950SOL     OW19991   1.877   3.468   7.387
  950SOL    HW119992   1.935   3.512   7.449
  950SOL    HW219993   1.804   3.438   7.440
  951SOL     OW19994   2.669   3.413   7.108
  951SOL    HW119995   2.704   3.405   7.020
  951SOL    HW219996   2.624   3.498   7.109
  952SOL     OW19997   4.789   4.673   6.294
  952SOL    HW119998   4.836   4.656   6.212
  952SOL    HW219999   4.739   4.594   6.311
  953SOL     OW20000   1.470   1.366   7.325
  953SOL    HW120001   1.475   1.310   7.403
  953SOL    HW220002   1.435   1.308   7.257
  954SOL     OW20003   6.442   3.991   1.272
  954SOL    HW120004   0.046   3.968   1.194
  954SOL    HW220005   6.424   4.085   1.261
  955SOL     OW20006   0.388   1.960   0.735
  955SOL    HW120007   0.472   1.945   0.691
  955SOL    HW220008   0.401   2.041   0.784
  956SOL     OW20009   2.669   5.914   6.075
  956SOL    HW120010   2.602   5.982   6.077
  956SOL    HW220011   2.705   5.918   5.986
  957SOL     OW20012   5.177   5.247   7.403
  957SOL    HW120013   5.118   5.264   7.330
  957SOL    HW220014   5.127   5.192   7.463
  958SOL     OW20015   4.037   4.764   5.789
  958SOL    HW120016   3.979   4.826   5.745
  958SOL    HW220017   4.079   4.815   5.859
  959SOL     OW20018   0.587   4.913   0.942
  959SOL    HW120019   0.556   4.997   0.908
  959SOL    HW220020   0.681   4.913   0.925
  960SOL     OW20021   3.062   1.198   6.922
  960SOL    HW120022   3.156   1.207   6.910
  960SOL    HW220023   3.037   1.126   6.864
  961SOL     OW20024   2.498   1.211   5.174
  961SOL    HW120025   2.455   1.294   5.195
  961SOL    HW220026   2.428   1.157   5.137
  962SOL     OW20027   5.036   0.503   6.133
  962SOL    HW120028   5.033   0.488   6.039
  962SOL    HW220029   5.035   0.598   6.142
  963SOL     OW20030   5.674   2.651   1.777
  963SOL    HW120031   5.657   2.556   1.777
  963SOL    HW220032   5.746   2.662   1.715
  964SOL     OW20033   3.730   4.306   0.769
  964SOL    HW120034   3.757   4.296   0.678
  964SOL    HW220035   3.808   4.284   0.820
  965SOL     OW20036   0.759   0.429   1.583
  965SOL    HW120037   0.819   0.504   1.581
  965SOL    HW220038   0.808   0.358   1.541
  966SOL     OW20039   2.276   0.807   7.065
  966SOL    HW120040   2.210   0.755   7.018
  966SOL    HW220041   2.324   0.854   6.997
  967SOL     OW20042   5.293   3.853   7.670
  967SOL    HW120043   5.255   3.807   7.745
  967SOL    HW220044   5.368   3.799   7.644
  968SOL     OW20045   6.330   3.236   1.034
  968SOL    HW120046   6.293   3.152   1.007
  968SOL    HW220047   6.389   3.261   0.962
  969SOL     OW20048   5.429   4.686   6.863
  969SOL    HW120049   5.497   4.650   6.808
  969SOL    HW220050   5.349   4.641   6.836
  970SOL     OW20051   5.045   0.246   2.188
  970SOL    HW120052   5.007   0.331   2.208
  970SOL    HW220053   5.128   0.266   2.144
  971SOL     OW20054   5.842   4.325   7.643
  971SOL    HW120055   5.785   4.386   7.597
  971SOL    HW220056   5.845   4.247   7.587
  972SOL     OW20057   4.759   1.101   6.239
  972SOL    HW120058   4.750   1.143   6.154
  972SOL    HW220059   4.841   1.136   6.274
  973SOL     OW20060   5.375   0.765   0.459
  973SOL    HW120061   5.415   0.771   0.373
  973SOL    HW220062   5.364   0.672   0.475
  974SOL     OW20063   1.558   2.640   7.196
  974SOL    HW120064   1.496   2.660   7.266
  974SOL    HW220065   1.539   2.550   7.171
  975SOL     OW20066   4.529   5.899   1.576
  975SOL    HW120067   4.575   5.821   1.608
  975SOL    HW220068   4.462   5.916   1.643
  976SOL     OW20069   6.015   4.205   7.273
  976SOL    HW120070   6.091   4.166   7.317
  976SOL    HW220071   6.021   4.174   7.183
  977SOL     OW20072   6.069   0.035   0.994
  977SOL    HW120073   6.044   0.108   1.051
  977SOL    HW220074   5.992   0.021   0.939
  978SOL     OW20075   2.743   4.602   1.294
  978SOL    HW120076   2.763   4.560   1.377
  978SOL    HW220077   2.664   4.558   1.263
  979SOL     OW20078   5.077   1.846   5.939
  979SOL    HW120079   5.010   1.847   5.871
  979SOL    HW220080   5.049   1.778   6.000
  980SOL     OW20081   5.135   4.047   6.189
  980SOL    HW120082   5.112   3.970   6.241
  980SOL    HW220083   5.199   4.014   6.125
  981SOL     OW20084   3.275   5.123   2.035
  981SOL    HW120085   3.325   5.203   2.049
  981SOL    HW220086   3.269   5.083   2.122
  982SOL     OW20087   6.260   1.317   2.202
  982SOL    HW120088   6.329   1.289   2.142
  982SOL    HW220089   6.207   1.238   2.215
  983SOL     OW20090   3.431   1.628   5.444
  983SOL    HW120091   3.497   1.607   5.510
  983SOL    HW220092   3.352   1.582   5.474
  984SOL     OW20093   1.135   0.484   5.364
  984SOL    HW120094   1.055   0.453   5.320
  984SOL    HW220095   1.175   0.404   5.399
  985SOL     OW20096   0.597   3.509   6.735
  985SOL    HW120097   0.547   3.529   6.657
  985SOL    HW220098   0.684   3.546   6.719
  986SOL     OW20099   3.612   1.989   0.538
  986SOL    HW120100   3.523   1.996   0.505
  986SOL    HW220101   3.603   2.000   0.633
  987SOL     OW20102   0.724   4.014   2.594
  987SOL    HW120103   0.658   3.955   2.630
  987SOL    HW220104   0.705   4.099   2.634
  988SOL     OW20105   0.216   4.901   1.428
  988SOL    HW120106   0.179   4.953   1.499
  988SOL    HW220107   0.141   4.855   1.390
  989SOL     OW20108   4.764   6.048   1.719
  989SOL    HW120109   4.691   6.084   1.770
  989SOL    HW220110   4.790   6.120   1.661
  990SOL     OW20111   0.881   4.065   7.194
  990SOL    HW120112   0.864   4.009   7.118
  990SOL    HW220113   0.977   4.067   7.201
  991SOL     OW20114   1.350   1.524   7.679
  991SOL    HW120115   1.320   1.435   7.700
  991SOL    HW220116   1.412   1.546   7.749
  992SOL     OW20117   2.325   1.682   0.438
  992SOL    HW120118   2.327   1.633   0.520
  992SOL    HW220119   2.417   1.698   0.417
  993SOL     OW20120   4.203   6.277   0.380
  993SOL    HW120121   4.243   6.218   0.444
  993SOL    HW220122   4.252   6.262   0.300
  994SOL     OW20123   4.909   3.398   7.009
  994SOL    HW120124   4.817   3.375   6.996
  994SOL    HW220125   4.952   3.314   7.025
  995SOL     OW20126   4.142   2.254   2.482
  995SOL    HW120127   4.202   2.321   2.448
  995SOL    HW220128   4.199   2.194   2.531
  996SOL     OW20129   1.460   0.554   6.188
  996SOL    HW120130   1.518   0.618   6.148
  996SOL    HW220131   1.442   0.491   6.118
  997SOL     OW20132   5.774   5.152   6.560
  997SOL    HW120133   5.812   5.078   6.511
  997SOL    HW220134   5.702   5.182   6.505
  998SOL     OW20135   4.044   0.384   0.999
  998SOL    HW120136   3.968   0.399   1.056
  998SOL    HW220137   4.038   0.292   0.975
  999SOL     OW20138   4.855   5.797   1.811
  999SOL    HW120139   4.844   5.890   1.789
  999SOL    HW220140   4.772   5.771   1.849
 1000SOL     OW20141   2.985   5.751   0.268
 1000SOL    HW120142   3.011   5.727   0.180
 1000SOL    HW220143   3.001   5.673   0.320
 1001SOL     OW20144   3.165   6.394   0.082
 1001SOL    HW120145   3.247   6.386   0.034
 1001SOL    HW220146   3.164   0.037   0.113
 1002SOL     OW20147   4.437   3.005   5.014
 1002SOL    HW120148   4.474   3.093   5.011
 1002SOL    HW220149   4.479   2.964   5.090
 1003SOL     OW20150   3.242   0.036   1.486
 1003SOL    HW120151   3.293   0.089   1.547
 1003SOL    HW220152   3.307   0.001   1.425
 1004SOL     OW20153   0.209   4.322   7.604
 1004SOL    HW120154   0.304   4.309   7.611
 1004SOL    HW220155   0.176   4.311   7.693
 1005SOL     OW20156   0.564   5.307   6.713
 1005SOL    HW120157   0.653   5.277   6.694
 1005SOL    HW220158   0.510   5.267   6.645
 1006SOL     OW20159   4.714   5.341   0.134
 1006SOL    HW120160   4.671   5.424   0.115
 1006SOL    HW220161   4.718   5.338   0.229
 1007SOL     OW20162   1.537   6.365   5.956
 1007SOL    HW120163   1.519   6.285   5.907
 1007SOL    HW220164   1.451   6.406   5.967
 1008SOL     OW20165   2.784   3.642   7.346
 1008SOL    HW120166   2.858   3.699   7.368
 1008SOL    HW220167   2.806   3.557   7.385
 1009SOL     OW20168   2.224   4.406   6.949
 1009SOL    HW120169   2.197   4.314   6.946
 1009SOL    HW220170   2.288   4.415   6.878
 1010SOL     OW20171   1.466   0.186   5.801
 1010SOL    HW120172   1.554   0.148   5.798
 1010SOL    HW220173   1.421   0.147   5.726
 1011SOL     OW20174   5.925   4.327   1.062
 1011SOL    HW120175   5.856   4.337   1.128
 1011SOL    HW220176   5.878   4.314   0.980
 1012SOL     OW20177   3.560   1.134   6.773
 1012SOL    HW120178   3.585   1.047   6.804
 1012SOL    HW220179   3.643   1.182   6.769
 1013SOL     OW20180   6.410   1.287   6.738
 1013SOL    HW120181   6.433   1.372   6.777
 1013SOL    HW220182   6.332   1.259   6.786
 1014SOL     OW20183   0.019   1.752   6.747
 1014SOL    HW120184   0.015   1.824   6.810
 1014SOL    HW220185   0.076   1.784   6.677
 1015SOL     OW20186   4.912   6.371   6.327
 1015SOL    HW120187   4.880   6.378   6.237
 1015SOL    HW220188   4.978   6.440   6.334
 1016SOL     OW20189   0.075   1.008   1.211
 1016SOL    HW120190   0.170   0.999   1.209
 1016SOL    HW220191   0.050   0.985   1.300
 1017SOL     OW20192   1.458   0.840   1.759
 1017SOL    HW120193   1.448   0.916   1.817
 1017SOL    HW220194   1.489   0.770   1.816
 1018SOL     OW20195   2.574   0.158   1.775
 1018SOL    HW120196   2.496   0.214   1.770
 1018SOL    HW220197   2.578   0.130   1.866
 1019SOL     OW20198   1.777   0.387   6.769
 1019SOL    HW120199   1.712   0.355   6.832
 1019SOL    HW220200   1.794   0.477   6.797
 1020SOL     OW20201   1.383   4.620   6.723
 1020SOL    HW120202   1.449   4.550   6.725
 1020SOL    HW220203   1.431   4.699   6.750
 1021SOL     OW20204   1.260   1.275   7.743
 1021SOL    HW120205   1.329   1.210   7.755
 1021SOL    HW220206   1.182   1.224   7.724
 1022SOL     OW20207   1.843   1.690   7.413
 1022SOL    HW120208   1.835   1.680   7.319
 1022SOL    HW220209   1.870   1.781   7.426
 1023SOL     OW20210   3.104   4.394   0.686
 1023SOL    HW120211   3.105   4.479   0.731
 1023SOL    HW220212   3.056   4.336   0.745
 1024SOL     OW20213   5.304   4.289   1.200
 1024SOL    HW120214   5.247   4.222   1.237
 1024SOL    HW220215   5.325   4.347   1.274
 1025SOL     OW20216   4.638   3.209   1.865
 1025SOL    HW120217   4.672   3.292   1.900
 1025SOL    HW220218   4.714   3.151   1.865
 1026SOL     OW20219   2.707   0.723   7.080
 1026SOL    HW120220   2.758   0.802   7.063
 1026SOL    HW220221   2.634   0.753   7.135
 1027SOL     OW20222   1.445   6.102   0.533
 1027SOL    HW120223   1.540   6.094   0.527
 1027SOL    HW220224   1.430   6.194   0.553
 1028SOL     OW20225   2.701   2.004   6.484
 1028SOL    HW120226   2.662   2.000   6.571
 1028SOL    HW220227   2.652   2.073   6.439
 1029SOL     OW20228   4.843   0.570   7.544
 1029SOL    HW120229   4.887   0.540   7.465
 1029SOL    HW220230   4.767   0.512   7.553
 1030SOL     OW20231   2.942   4.862   1.014
 1030SOL    HW120232   2.962   4.770   1.032
 1030SOL    HW220233   2.869   4.882   1.073
 1031SOL     OW20234   2.980   4.090   2.090
 1031SOL    HW120235   2.901   4.079   2.037
 1031SOL    HW220236   3.019   4.003   2.093
 1032SOL     OW20237   1.176   3.310   0.245
 1032SOL    HW120238   1.200   3.218   0.251
 1032SOL    HW220239   1.099   3.318   0.302
 1033SOL     OW20240   4.984   1.157   5.992
 1033SOL    HW120241   4.996   1.121   5.904
 1033SOL    HW220242   4.890   1.174   5.998
 1034SOL     OW20243   4.600   0.425   5.532
 1034SOL    HW120244   4.559   0.357   5.477
 1034SOL    HW220245   4.690   0.396   5.543
 1035SOL     OW20246   5.592   1.369   6.752
 1035SOL    HW120247   5.672   1.420   6.738
 1035SOL    HW220248   5.621   1.291   6.798
 1036SOL     OW20249   4.584   4.429   7.571
 1036SOL    HW120250   4.557   4.340   7.591
 1036SOL    HW220251   4.525   4.485   7.621
 1037SOL     OW20252   0.762   3.030   6.292
 1037SOL    HW120253   0.829   3.073   6.238
 1037SOL    HW220254   0.710   2.978   6.230
 1038SOL     OW20255   6.261   5.397   0.871
 1038SOL    HW120256   6.330   5.348   0.825
 1038SOL    HW220257   6.238   5.341   0.946
 1039SOL     OW20258   2.116   1.584   6.780
 1039SOL    HW120259   2.073   1.536   6.850
 1039SOL    HW220260   2.210   1.577   6.800
 1040SOL     OW20261   3.992   2.040   5.587
 1040SOL    HW120262   3.965   1.991   5.665
 1040SOL    HW220263   4.047   2.111   5.621
 1041SOL     OW20264   5.421   1.045   0.111
 1041SOL    HW120265   5.440   0.959   0.150
 1041SOL    HW220266   5.371   1.025   0.032
 1042SOL     OW20267   0.652   0.283   0.230
 1042SOL    HW120268   0.600   0.288   0.310
 1042SOL    HW220269   0.741   0.263   0.260
 1043SOL     OW20270   3.753   0.755   7.519
 1043SOL    HW120271   3.806   0.806   7.580
 1043SOL    HW220272   3.707   0.692   7.574
 1044SOL     OW20273   2.303   1.782   2.236
 1044SOL    HW120274   2.385   1.771   2.285
 1044SOL    HW220275   2.315   1.730   2.157
 1045SOL     OW20276   5.080   3.486   6.810
 1045SOL    HW120277   5.142   3.527   6.870
 1045SOL    HW220278   5.008   3.457   6.866
 1046SOL     OW20279   4.921   4.778   7.761
 1046SOL    HW120280   4.955   4.706   0.011
 1046SOL    HW220281   4.905   4.848   0.021
 1047SOL     OW20282   2.070   1.213   0.593
 1047SOL    HW120283   1.981   1.239   0.571
 1047SOL    HW220284   2.124   1.253   0.525
 1048SOL     OW20285   5.138   1.466   7.117
 1048SOL    HW120286   5.050   1.500   7.133
 1048SOL    HW220287   5.142   1.385   7.168
 1049SOL     OW20288   4.983   6.128   1.327
 1049SOL    HW120289   4.950   6.052   1.376
 1049SOL    HW220290   5.032   6.090   1.254
 1050SOL     OW20291   5.021   5.910   0.252
 1050SOL    HW120292   5.085   5.880   0.316
 1050SOL    HW220293   5.068   5.977   0.201
 1051SOL     OW20294   5.795   0.285   0.716
 1051SOL    HW120295   5.705   0.274   0.746
 1051SOL    HW220296   5.810   0.212   0.657
 1052SOL     OW20297   0.040   1.587   6.150
 1052SOL    HW120298   0.062   1.510   6.098
 1052SOL    HW220299   0.096   1.582   6.227
 1053SOL     OW20300   5.183   2.532   1.564
 1053SOL    HW120301   5.269   2.490   1.571
 1053SOL    HW220302   5.169   2.572   1.650
 1054SOL     OW20303   4.144   4.799   7.474
 1054SOL    HW120304   4.227   4.802   7.426
 1054SOL    HW220305   4.141   4.710   7.510
 1055SOL     OW20306   0.483   1.762   1.366
 1055SOL    HW120307   0.499   1.853   1.393
 1055SOL    HW220308   0.546   1.711   1.416
 1056SOL     OW20309   5.414   6.112   0.252
 1056SOL    HW120310   5.425   6.056   0.329
 1056SOL    HW220311   5.503   6.132   0.224
 1057SOL     OW20312   1.907   2.075   1.338
 1057SOL    HW120313   1.995   2.095   1.309
 1057SOL    HW220314   1.853   2.083   1.259
 1058SOL     OW20315   0.356   1.756   7.262
 1058SOL    HW120316   0.314   1.772   7.177
 1058SOL    HW220317   0.326   1.669   7.287
 1059SOL     OW20318   4.483   3.277   6.048
 1059SOL    HW120319   4.408   3.219   6.062
 1059SOL    HW220320   4.533   3.273   6.130
 1060SOL     OW20321   3.804   6.285   6.389
 1060SOL    HW120322   3.828   6.367   6.433
 1060SOL    HW220323   3.731   6.251   6.440
 1061SOL     OW20324   1.567   1.654   6.222
 1061SOL    HW120325   1.568   1.684   6.131
 1061SOL    HW220326   1.492   1.595   6.227
 1062SOL     OW20327   1.279   0.926   0.768
 1062SOL    HW120328   1.250   0.871   0.841
 1062SOL    HW220329   1.209   0.919   0.703
 1063SOL     OW20330   4.784   1.599   1.517
 1063SOL    HW120331   4.734   1.628   1.594
 1063SOL    HW220332   4.789   1.504   1.526
 1064SOL     OW20333   2.055   2.920   6.879
 1064SOL    HW120334   2.004   2.990   6.837
 1064SOL    HW220335   2.020   2.916   6.968
 1065SOL     OW20336   3.128   5.061   0.492
 1065SOL    HW120337   3.063   4.993   0.474
 1065SOL    HW220338   3.175   5.029   0.569
 1066SOL     OW20339   3.136   6.305   6.052
 1066SOL    HW120340   3.118   6.241   6.121
 1066SOL    HW220341   3.199   6.365   6.092
 1067SOL     OW20342   2.725   1.218   5.787
 1067SOL    HW120343   2.672   1.293   5.761
 1067SOL    HW220344   2.701   1.149   5.726
 1068SOL     OW20345   2.472   0.677   7.515
 1068SOL    HW120346   2.561   0.652   7.540
 1068SOL    HW220347   2.481   0.711   7.426
 1069SOL     OW20348   5.201   1.916   0.879
 1069SOL    HW120349   5.160   1.830   0.868
 1069SOL    HW220350   5.195   1.934   0.973
 1070SOL     OW20351   3.581   4.078   7.268
 1070SOL    HW120352   3.593   4.069   7.173
 1070SOL    HW220353   3.606   3.992   7.303
 1071SOL     OW20354   1.147   3.838   0.872
 1071SOL    HW120355   1.107   3.762   0.915
 1071SOL    HW220356   1.086   3.862   0.803
 1072SOL     OW20357   0.600   5.370   0.040
 1072SOL    HW120358   0.672   5.405   7.790
 1072SOL    HW220359   0.522   5.386   7.790
 1073SOL     OW20360   0.688   0.761   1.421
 1073SOL    HW120361   0.730   0.782   1.504
 1073SOL    HW220362   0.755   0.717   1.370
 1074SOL     OW20363   3.077   0.454   6.039
 1074SOL    HW120364   3.132   0.508   5.983
 1074SOL    HW220365   3.060   0.375   5.988
 1075SOL     OW20366   0.643   1.066   6.930
 1075SOL    HW120367   0.585   1.021   6.868
 1075SOL    HW220368   0.586   1.128   6.976
 1076SOL     OW20369   3.252   4.625   7.060
 1076SOL    HW120370   3.194   4.636   6.985
 1076SOL    HW220371   3.196   4.643   7.136
 1077SOL     OW20372   0.855   2.612   7.032
 1077SOL    HW120373   0.874   2.628   7.124
 1077SOL    HW220374   0.819   2.694   6.999
 1078SOL     OW20375   3.316   0.975   1.954
 1078SOL    HW120376   3.296   1.059   1.911
 1078SOL    HW220377   3.408   0.959   1.934
 1079SOL     OW20378   1.985   5.594   7.544
 1079SOL    HW120379   1.965   5.533   7.474
 1079SOL    HW220380   2.017   5.673   7.500
 1080SOL     OW20381   3.144   5.692   0.779
 1080SOL    HW120382   3.098   5.608   0.775
 1080SOL    HW220383   3.233   5.669   0.804
 1081SOL     OW20384   0.282   3.405   1.121
 1081SOL    HW120385   0.225   3.331   1.140
 1081SOL    HW220386   0.294   3.449   1.206
 1082SOL     OW20387   4.907   3.831   6.029
 1082SOL    HW120388   4.892   3.802   5.939
 1082SOL    HW220389   4.937   3.752   6.074
 1083SOL     OW20390   0.272   0.701   0.782
 1083SOL    HW120391   0.283   0.610   0.755
 1083SOL    HW220392   0.206   0.736   0.721
 1084SOL     OW20393   0.801   1.543   0.578
 1084SOL    HW120394   0.878   1.490   0.560
 1084SOL    HW220395   0.808   1.565   0.671
 1085SOL     OW20396   2.519   2.204   1.230
 1085SOL    HW120397   2.454   2.266   1.263
 1085SOL    HW220398   2.468   2.139   1.183
 1086SOL     OW20399   2.898   4.676   0.650
 1086SOL    HW120400   2.970   4.663   0.712
 1086SOL    HW220401   2.835   4.607   0.672
 1087SOL     OW20402   4.110   1.875   5.405
 1087SOL    HW120403   4.067   1.932   5.469
 1087SOL    HW220404   4.046   1.805   5.388
 1088SOL     OW20405   2.380   5.774   0.998
 1088SOL    HW120406   2.455   5.742   1.049
 1088SOL    HW220407   2.325   5.819   1.062
 1089SOL     OW20408   5.968   5.080   0.787
 1089SOL    HW120409   5.916   5.157   0.808
 1089SOL    HW220410   5.999   5.048   0.872
 1090SOL     OW20411   5.386   3.757   1.051
 1090SOL    HW120412   5.369   3.726   0.962
 1090SOL    HW220413   5.307   3.737   1.100
 1091SOL     OW20414   2.134   3.456   0.057
 1091SOL    HW120415   2.157   3.369   0.089
 1091SOL    HW220416   2.046   3.472   0.092
 1092SOL     OW20417   0.026   1.848   1.968
 1092SOL    HW120418   0.098   1.861   2.030
 1092SOL    HW220419   0.030   1.755   1.946
 1093SOL     OW20420   4.740   6.146   7.180
 1093SOL    HW120421   4.835   6.134   7.180
 1093SOL    HW220422   4.722   6.193   7.261
 1094SOL     OW20423   4.197   1.374   7.064
 1094SOL    HW120424   4.292   1.375   7.060
 1094SOL    HW220425   4.169   1.401   6.976
 1095SOL     OW20426   2.862   3.740   0.787
 1095SOL    HW120427   2.892   3.756   0.698
 1095SOL    HW220428   2.940   3.706   0.832
 1096SOL     OW20429   0.642   3.426   7.730
 1096SOL    HW120430   0.704   3.354   7.729
 1096SOL    HW220431   0.677   3.487   7.795
 1097SOL     OW20432   2.521   5.510   1.344
 1097SOL    HW120433   2.563   5.539   1.425
 1097SOL    HW220434   2.533   5.583   1.283
 1098SOL     OW20435   0.955   2.534   7.775
 1098SOL    HW120436   0.937   2.585   0.051
 1098SOL    HW220437   0.877   2.480   7.762
 1099SOL     OW20438   4.360   4.456   0.360
 1099SOL    HW120439   4.326   4.433   0.274
 1099SOL    HW220440   4.395   4.545   0.349
 1100SOL     OW20441   5.994   4.395   0.676
 1100SOL    HW120442   5.922   4.355   0.725
 1100SOL    HW220443   5.956   4.474   0.638
 1101SOL     OW20444   2.380   3.480   7.362
 1101SOL    HW120445   2.345   3.478   7.451
 1101SOL    HW220446   2.464   3.434   7.368
 1102SOL     OW20447   2.743   0.993   0.611
 1102SOL    HW120448   2.738   1.072   0.557
 1102SOL    HW220449   2.668   1.000   0.670
 1103SOL     OW20450   5.581   0.020   5.478
 1103SOL    HW120451   5.559   0.102   5.434
 1103SOL    HW220452   5.638   6.422   5.416
 1104SOL     OW20453   5.804   1.060   1.423
 1104SOL    HW120454   5.766   1.146   1.411
 1104SOL    HW220455   5.857   1.046   1.345
 1105SOL     OW20456   2.641   3.101   0.711
 1105SOL    HW120457   2.622   3.156   0.636
 1105SOL    HW220458   2.692   3.028   0.676
 1106SOL     OW20459   3.207   3.981   7.058
 1106SOL    HW120460   3.217   4.055   6.998
 1106SOL    HW220461   3.287   3.930   7.047
 1107SOL     OW20462   0.914   5.502   7.333
 1107SOL    HW120463   0.912   5.593   7.361
 1107SOL    HW220464   1.007   5.478   7.336
 1108SOL     OW20465   2.634   2.094   1.460
 1108SOL    HW120466   2.669   2.160   1.520
 1108SOL    HW220467   2.611   2.144   1.381
 1109SOL     OW20468   5.655   4.031   7.654
 1109SOL    HW120469   5.738   4.048   7.609
 1109SOL    HW220470   5.681   4.007   7.743
 1110SOL     OW20471   5.773   3.371   1.944
 1110SOL    HW120472   5.706   3.431   1.910
 1110SOL    HW220473   5.796   3.405   2.030
 1111SOL     OW20474   5.449   3.155   1.501
 1111SOL    HW120475   5.412   3.221   1.560
 1111SOL    HW220476   5.523   3.200   1.459
 1112SOL     OW20477   1.980   2.590   2.088
 1112SOL    HW120478   1.975   2.500   2.054
 1112SOL    HW220479   2.036   2.583   2.165
 1113SOL     OW20480   2.017   1.379   6.969
 1113SOL    HW120481   1.925   1.352   6.975
 1113SOL    HW220482   2.057   1.313   6.912
 1114SOL     OW20483   6.312   1.209   0.868
 1114SOL    HW120484   6.342   1.248   0.786
 1114SOL    HW220485   6.381   1.146   0.891
 1115SOL     OW20486   2.754   0.314   7.129
 1115SOL    HW120487   2.670   0.360   7.135
 1115SOL    HW220488   2.819   0.383   7.142
 1116SOL     OW20489   6.334   5.606   7.047
 1116SOL    HW120490   6.252   5.629   7.003
 1116SOL    HW220491   6.306   5.568   7.131
 1117SOL     OW20492   3.448   3.833   5.907
 1117SOL    HW120493   3.362   3.800   5.880
 1117SOL    HW220494   3.482   3.879   5.830
 1118SOL     OW20495   5.755   0.864   7.786
 1118SOL    HW120496   5.759   0.929   7.715
 1118SOL    HW220497   5.724   0.914   0.059
 1119SOL     OW20498   0.212   3.850   7.383
 1119SOL    HW120499   0.159   3.828   7.459
 1119SOL    HW220500   0.150   3.849   7.310
 1120SOL     OW20501   3.365   6.438   6.152
 1120SOL    HW120502   3.426   0.049   6.194
 1120SOL    HW220503   3.394   6.350   6.178
 1121SOL     OW20504   3.175   3.699   0.123
 1121SOL    HW120505   3.101   3.649   0.090
 1121SOL    HW220506   3.239   3.633   0.151
 1122SOL     OW20507   3.809   0.311   5.994
 1122SOL    HW120508   3.740   0.332   5.931
 1122SOL    HW220509   3.888   0.351   5.957
 1123SOL     OW20510   4.316   0.875   6.630
 1123SOL    HW120511   4.248   0.926   6.585
 1123SOL    HW220512   4.303   0.896   6.723
 1124SOL     OW20513   5.856   1.888   2.295
 1124SOL    HW120514   5.779   1.908   2.348
 1124SOL    HW220515   5.896   1.973   2.276
 1125SOL     OW20516   5.689   6.189   7.259
 1125SOL    HW120517   5.661   6.100   7.236
 1125SOL    HW220518   5.781   6.193   7.233
 1126SOL     OW20519   4.297   0.488   7.498
 1126SOL    HW120520   4.285   0.393   7.496
 1126SOL    HW220521   4.370   0.504   7.438
 1127SOL     OW20522   5.223   6.291   6.868
 1127SOL    HW120523   5.281   6.359   6.833
 1127SOL    HW220524   5.235   6.297   6.963
 1128SOL     OW20525   1.248   2.212   6.572
 1128SOL    HW120526   1.244   2.299   6.611
 1128SOL    HW220527   1.290   2.158   6.639
 1129SOL     OW20528   4.660   4.133   2.172
 1129SOL    HW120529   4.614   4.132   2.256
 1129SOL    HW220530   4.746   4.097   2.191
 1130SOL     OW20531   3.583   2.881   0.305
 1130SOL    HW120532   3.668   2.925   0.297
 1130SOL    HW220533   3.521   2.953   0.319
 1131SOL     OW20534   0.611   2.808   0.680
 1131SOL    HW120535   0.579   2.777   0.765
 1131SOL    HW220536   0.532   2.825   0.630
 1132SOL     OW20537   6.101   2.069   7.528
 1132SOL    HW120538   6.129   1.990   7.574
 1132SOL    HW220539   6.096   2.043   7.436
 1133SOL     OW20540   5.217   1.418   0.587
 1133SOL    HW120541   5.294   1.377   0.547
 1133SOL    HW220542   5.247   1.505   0.614
 1134SOL     OW20543   5.884   0.883   0.984
 1134SOL    HW120544   5.947   0.938   0.936
 1134SOL    HW220545   5.880   0.923   1.071
 1135SOL     OW20546   0.378   4.574   7.113
 1135SOL    HW120547   0.399   4.481   7.104
 1135SOL    HW220548   0.289   4.575   7.150
 1136SOL     OW20549   3.890   5.865   7.232
 1136SOL    HW120550   3.891   5.833   7.141
 1136SOL    HW220551   3.810   5.917   7.238
 1137SOL     OW20552   1.716   6.081   0.476
 1137SOL    HW120553   1.721   6.052   0.385
 1137SOL    HW220554   1.768   6.162   0.479
 1138SOL     OW20555   4.452   2.346   0.444
 1138SOL    HW120556   4.490   2.399   0.514
 1138SOL    HW220557   4.526   2.321   0.389
 1139SOL     OW20558   6.057   2.849   5.099
 1139SOL    HW120559   5.968   2.847   5.064
 1139SOL    HW220560   6.053   2.796   5.178
 1140SOL     OW20561   3.144   6.233   0.311
 1140SOL    HW120562   3.235   6.237   0.337
 1140SOL    HW220563   3.141   6.281   0.228
 1141SOL     OW20564   0.197   2.008   5.769
 1141SOL    HW120565   0.183   2.081   5.829
 1141SOL    HW220566   0.170   1.931   5.818
 1142SOL     OW20567   3.035   2.208   6.579
 1142SOL    HW120568   3.044   2.136   6.641
 1142SOL    HW220569   2.943   2.233   6.584
 1143SOL     OW20570   0.046   3.301   7.689
 1143SOL    HW120571   0.079   3.263   7.770
 1143SOL    HW220572   0.054   3.231   7.624
 1144SOL     OW20573   4.284   1.088   1.001
 1144SOL    HW120574   4.202   1.039   1.006
 1144SOL    HW220575   4.281   1.130   0.915
 1145SOL     OW20576   3.647   2.405   5.662
 1145SOL    HW120577   3.733   2.447   5.670
 1145SOL    HW220578   3.614   2.433   5.577
 1146SOL     OW20579   1.007   4.878   0.676
 1146SOL    HW120580   1.094   4.900   0.710
 1146SOL    HW220581   0.991   4.941   0.606
 1147SOL     OW20582   4.698   6.084   0.254
 1147SOL    HW120583   4.701   6.115   0.345
 1147SOL    HW220584   4.772   6.128   0.212
 1148SOL     OW20585   4.579   0.064   6.128
 1148SOL    HW120586   4.542   0.090   6.043
 1148SOL    HW220587   4.655   0.011   6.106
 1149SOL     OW20588   2.362   2.439   0.084
 1149SOL    HW120589   2.335   2.409   0.171
 1149SOL    HW220590   2.282   2.474   0.045
 1150SOL     OW20591   5.637   3.314   6.282
 1150SOL    HW120592   5.579   3.352   6.216
 1150SOL    HW220593   5.616   3.220   6.281
 1151SOL     OW20594   3.821   5.727   5.552
 1151SOL    HW120595   3.734   5.702   5.522
 1151SOL    HW220596   3.818   5.822   5.560
 1152SOL     OW20597   2.285   1.828   7.395
 1152SOL    HW120598   2.360   1.861   7.444
 1152SOL    HW220599   2.234   1.778   7.460
 1153SOL     OW20600   3.274   4.914   5.311
 1153SOL    HW120601   3.256   4.885   5.401
 1153SOL    HW220602   3.318   4.840   5.270
 1154SOL     OW20603   4.488   0.232   1.854
 1154SOL    HW120604   4.427   0.225   1.927
 1154SOL    HW220605   4.534   0.315   1.870
 1155SOL     OW20606   4.298   1.731   0.680
 1155SOL    HW120607   4.231   1.754   0.615
 1155SOL    HW220608   4.257   1.664   0.735
 1156SOL     OW20609   2.119   0.267   7.197
 1156SOL    HW120610   2.141   0.302   7.284
 1156SOL    HW220611   2.183   0.307   7.139
 1157SOL     OW20612   0.390   1.790   1.986
 1157SOL    HW120613   0.323   1.814   2.050
 1157SOL    HW220614   0.359   1.708   1.948
 1158SOL     OW20615   6.395   3.572   7.205
 1158SOL    HW120616   6.408   3.488   7.248
 1158SOL    HW220617   0.016   3.576   7.138
 1159SOL     OW20618   0.279   1.499   7.330
 1159SOL    HW120619   0.211   1.433   7.343
 1159SOL    HW220620   0.360   1.449   7.322
 1160SOL     OW20621   0.294   4.453   0.209
 1160SOL    HW120622   0.358   4.430   0.277
 1160SOL    HW220623   0.336   4.523   0.159
 1161SOL     OW20624   1.727   3.638   7.706
 1161SOL    HW120625   1.770   3.717   7.674
 1161SOL    HW220626   1.713   3.655   7.799
 1162SOL     OW20627   3.647   5.208   1.368
 1162SOL    HW120628   3.572   5.238   1.316
 1162SOL    HW220629   3.641   5.257   1.450
 1163SOL     OW20630   4.004   2.916   0.031
 1163SOL    HW120631   4.092   2.954   0.025
 1163SOL    HW220632   3.995   2.863   7.755
 1164SOL     OW20633   5.245   3.911   6.842
 1164SOL    HW120634   5.158   3.875   6.859
 1164SOL    HW220635   5.252   3.912   6.746
 1165SOL     OW20636   3.845   0.512   0.503
 1165SOL    HW120637   3.914   0.540   0.443
 1165SOL    HW220638   3.879   0.430   0.542
 1166SOL     OW20639   4.447   1.652   7.738
 1166SOL    HW120640   4.387   1.627   7.668
 1166SOL    HW220641   4.455   1.747   7.730
 1167SOL     OW20642   3.858   0.170   6.973
 1167SOL    HW120643   3.765   0.174   6.951
 1167SOL    HW220644   3.882   0.078   6.961
 1168SOL     OW20645   2.471   6.134   5.340
 1168SOL    HW120646   2.413   6.126   5.416
 1168SOL    HW220647   2.458   6.225   5.311
 1169SOL     OW20648   0.902   3.983   6.099
 1169SOL    HW120649   0.896   3.957   6.191
 1169SOL    HW220650   0.956   3.915   6.059
 1170SOL     OW20651   3.214   4.770   1.253
 1170SOL    HW120652   3.145   4.716   1.290
 1170SOL    HW220653   3.279   4.778   1.323
 1171SOL     OW20654   5.361   4.786   1.279
 1171SOL    HW120655   5.427   4.742   1.226
 1171SOL    HW220656   5.321   4.849   1.219
 1172SOL     OW20657   0.647   1.736   6.367
 1172SOL    HW120658   0.656   1.735   6.272
 1172SOL    HW220659   0.570   1.790   6.384
 1173SOL     OW20660   3.560   3.112   2.079
 1173SOL    HW120661   3.571   3.079   1.990
 1173SOL    HW220662   3.569   3.207   2.070
 1174SOL     OW20663   0.011   2.025   0.918
 1174SOL    HW120664   6.430   2.092   0.980
 1174SOL    HW220665   0.069   1.968   0.969
 1175SOL     OW20666   4.611   3.630   6.238
 1175SOL    HW120667   4.622   3.656   6.147
 1175SOL    HW220668   4.688   3.577   6.258
 1176SOL     OW20669   4.375   3.828   0.292
 1176SOL    HW120670   4.398   3.834   0.200
 1176SOL    HW220671   4.394   3.736   0.315
 1177SOL     OW20672   6.371   2.195   1.106
 1177SOL    HW120673   6.448   2.232   1.150
 1177SOL    HW220674   6.297   2.242   1.143
 1178SOL     OW20675   2.062   4.875   7.698
 1178SOL    HW120676   1.989   4.929   7.729
 1178SOL    HW220677   2.094   4.831   7.778
 1179SOL     OW20678   0.091   4.906   1.096
 1179SOL    HW120679   0.092   4.855   1.015
 1179SOL    HW220680   0.046   4.851   1.160
 1180SOL     OW20681   2.519   3.489   6.736
 1180SOL    HW120682   2.604   3.465   6.772
 1180SOL    HW220683   2.539   3.547   6.663
 1181SOL     OW20684   5.390   3.794   5.352
 1181SOL    HW120685   5.408   3.888   5.346
 1181SOL    HW220686   5.467   3.752   5.313
 1182SOL     OW20687   4.064   5.917   0.823
 1182SOL    HW120688   4.088   5.881   0.737
 1182SOL    HW220689   4.005   5.852   0.861
 1183SOL     OW20690   2.567   4.372   0.449
 1183SOL    HW120691   2.559   4.334   0.361
 1183SOL    HW220692   2.658   4.403   0.454
 1184SOL     OW20693   2.172   2.312   6.579
 1184SOL    HW120694   2.226   2.279   6.650
 1184SOL    HW220695   2.145   2.233   6.531
 1185SOL     OW20696   4.332   3.595   6.225
 1185SOL    HW120697   4.328   3.562   6.135
 1185SOL    HW220698   4.425   3.593   6.247
 1186SOL     OW20699   5.892   2.207   7.796
 1186SOL    HW120700   5.827   2.170   7.737
 1186SOL    HW220701   5.842   2.235   0.070
 1187SOL     OW20702   4.078   4.670   6.092
 1187SOL    HW120703   4.162   4.623   6.096
 1187SOL    HW220704   4.100   4.755   6.054
 1188SOL     OW20705   0.876   6.447   6.622
 1188SOL    HW120706   0.881   6.364   6.576
 1188SOL    HW220707   0.894   6.425   6.714
 1189SOL     OW20708   2.284   3.373   1.406
 1189SOL    HW120709   2.328   3.450   1.442
 1189SOL    HW220710   2.280   3.390   1.312
 1190SOL     OW20711   2.802   1.479   1.286
 1190SOL    HW120712   2.713   1.515   1.286
 1190SOL    HW220713   2.822   1.468   1.379
 1191SOL     OW20714   5.914   1.215   2.139
 1191SOL    HW120715   5.990   1.172   2.179
 1191SOL    HW220716   5.892   1.285   2.200
 1192SOL     OW20717   2.791   5.501   1.141
 1192SOL    HW120718   2.792   5.454   1.058
 1192SOL    HW220719   2.884   5.513   1.162
 1193SOL     OW20720   0.327   1.759   6.075
 1193SOL    HW120721   0.255   1.751   6.013
 1193SOL    HW220722   0.316   1.846   6.114
 1194SOL     OW20723   5.031   0.315   0.741
 1194SOL    HW120724   4.948   0.360   0.760
 1194SOL    HW220725   5.095   0.358   0.798
 1195SOL     OW20726   6.164   0.414   1.053
 1195SOL    HW120727   6.114   0.495   1.054
 1195SOL    HW220728   6.104   0.348   1.088
 1196SOL     OW20729   4.552   1.957   2.263
 1196SOL    HW120730   4.581   1.899   2.193
 1196SOL    HW220731   4.633   1.983   2.307
 1197SOL     OW20732   4.743   6.119   6.195
 1197SOL    HW120733   4.834   6.094   6.212
 1197SOL    HW220734   4.749   6.207   6.158
 1198SOL     OW20735   2.689   3.853   1.291
 1198SOL    HW120736   2.728   3.794   1.226
 1198SOL    HW220737   2.726   3.939   1.271
 1199SOL     OW20738   4.195   1.781   1.846
 1199SOL    HW120739   4.268   1.744   1.895
 1199SOL    HW220740   4.121   1.723   1.866
 1200SOL     OW20741   4.487   5.279   1.705
 1200SOL    HW120742   4.497   5.190   1.673
 1200SOL    HW220743   4.484   5.333   1.626
 1201SOL     OW20744   2.896   3.175   6.819
 1201SOL    HW120745   2.917   3.086   6.791
 1201SOL    HW220746   2.957   3.193   6.890
 1202SOL     OW20747   5.752   5.982   1.906
 1202SOL    HW120748   5.778   6.070   1.878
 1202SOL    HW220749   5.657   5.989   1.920
 1203SOL     OW20750   3.363   3.130   1.449
 1203SOL    HW120751   3.368   3.043   1.488
 1203SOL    HW220752   3.345   3.188   1.523
 1204SOL     OW20753   6.257   3.338   1.675
 1204SOL    HW120754   6.211   3.322   1.758
 1204SOL    HW220755   6.346   3.307   1.691
 1205SOL     OW20756   5.910   0.292   1.891
 1205SOL    HW120757   5.915   0.227   1.961
 1205SOL    HW220758   5.886   0.373   1.936
 1206SOL     OW20759   1.877   0.685   2.166
 1206SOL    HW120760   1.927   0.662   2.245
 1206SOL    HW220761   1.920   0.637   2.095
 1207SOL     OW20762   5.246   3.001   1.416
 1207SOL    HW120763   5.229   3.037   1.329
 1207SOL    HW220764   5.322   3.050   1.448
 1208SOL     OW20765   0.295   6.025   6.470
 1208SOL    HW120766   0.223   6.055   6.414
 1208SOL    HW220767   0.370   6.022   6.411
 1209SOL     OW20768   5.407   1.485   5.220
 1209SOL    HW120769   5.501   1.505   5.209
 1209SOL    HW220770   5.395   1.400   5.178
 1210SOL     OW20771   3.796   1.287   6.768
 1210SOL    HW120772   3.754   1.359   6.814
 1210SOL    HW220773   3.837   1.327   6.691
 1211SOL     OW20774   2.005   4.687   7.507
 1211SOL    HW120775   2.023   4.754   7.573
 1211SOL    HW220776   2.089   4.643   7.493
 1212SOL     OW20777   4.720   5.246   1.367
 1212SOL    HW120778   4.791   5.277   1.424
 1212SOL    HW220779   4.720   5.151   1.378
 1213SOL     OW20780   5.236   5.016   7.217
 1213SOL    HW120781   5.244   5.094   7.272
 1213SOL    HW220782   5.241   4.943   7.279
 1214SOL     OW20783   0.002   2.669   0.371
 1214SOL    HW120784   0.059   2.616   0.316
 1214SOL    HW220785   6.430   2.614   0.446
 1215SOL     OW20786   0.991   6.442   6.018
 1215SOL    HW120787   0.959   6.447   6.108
 1215SOL    HW220788   0.920   0.030   5.965
 1216SOL     OW20789   4.836   3.408   2.210
 1216SOL    HW120790   4.839   3.335   2.272
 1216SOL    HW220791   4.910   3.463   2.233
 1217SOL     OW20792   5.711   2.770   5.971
 1217SOL    HW120793   5.754   2.689   5.997
 1217SOL    HW220794   5.743   2.786   5.882
 1218SOL     OW20795   1.576   0.654   7.722
 1218SOL    HW120796   1.658   0.613   7.694
 1218SOL    HW220797   1.552   0.608   7.802
 1219SOL     OW20798   1.013   3.127   6.770
 1219SOL    HW120799   0.925   3.107   6.803
 1219SOL    HW220800   1.064   3.048   6.788
 1220SOL     OW20801   0.019   2.761   6.225
 1220SOL    HW120802   0.110   2.743   6.248
 1220SOL    HW220803   0.020   2.848   6.186
 1221SOL     OW20804   1.287   3.730   6.635
 1221SOL    HW120805   1.211   3.706   6.688
 1221SOL    HW220806   1.362   3.694   6.684
 1222SOL     OW20807   4.421   0.124   1.618
 1222SOL    HW120808   4.502   0.088   1.582
 1222SOL    HW220809   4.446   0.161   1.703
 1223SOL     OW20810   2.401   4.700   1.195
 1223SOL    HW120811   2.439   4.614   1.210
 1223SOL    HW220812   2.382   4.735   1.282
 1224SOL     OW20813   6.391   4.785   1.602
 1224SOL    HW120814   6.445   4.709   1.619
 1224SOL    HW220815   6.373   4.782   1.508
 1225SOL     OW20816   5.451   6.083   7.497
 1225SOL    HW120817   5.411   6.169   7.492
 1225SOL    HW220818   5.409   6.033   7.427
 1226SOL     OW20819   5.036   4.466   6.250
 1226SOL    HW120820   4.984   4.385   6.253
 1226SOL    HW220821   4.992   4.519   6.183
 1227SOL     OW20822   2.623   2.546   0.574
 1227SOL    HW120823   2.563   2.570   0.504
 1227SOL    HW220824   2.600   2.605   0.646
 1228SOL     OW20825   3.125   5.877   7.325
 1228SOL    HW120826   3.186   5.827   7.269
 1228SOL    HW220827   3.041   5.831   7.315
 1229SOL     OW20828   5.273   1.293   1.381
 1229SOL    HW120829   5.195   1.243   1.360
 1229SOL    HW220830   5.313   1.245   1.454
 1230SOL     OW20831   4.926   4.370   0.536
 1230SOL    HW120832   4.866   4.428   0.584
 1230SOL    HW220833   4.936   4.294   0.593
 1231SOL     OW20834   0.127   3.990   1.021
 1231SOL    HW120835   0.057   4.001   0.957
 1231SOL    HW220836   0.163   4.078   1.033
 1232SOL     OW20837   0.716   4.990   7.032
 1232SOL    HW120838   0.649   5.042   6.988
 1232SOL    HW220839   0.668   4.917   7.072
 1233SOL     OW20840   4.124   1.691   0.032
 1233SOL    HW120841   4.031   1.681   0.051
 1233SOL    HW220842   4.157   1.601   0.028
 1234SOL     OW20843   4.573   2.867   5.206
 1234SOL    HW120844   4.572   2.811   5.283
 1234SOL    HW220845   4.598   2.810   5.134
 1235SOL     OW20846   3.850   3.687   0.339
 1235SOL    HW120847   3.941   3.716   0.334
 1235SOL    HW220848   3.800   3.768   0.352
 1236SOL     OW20849   3.537   4.302   1.840
 1236SOL    HW120850   3.567   4.383   1.881
 1236SOL    HW220851   3.500   4.330   1.756
 1237SOL     OW20852   3.144   3.995   6.137
 1237SOL    HW120853   3.062   3.994   6.088
 1237SOL    HW220854   3.194   4.068   6.099
 1238SOL     OW20855   3.584   2.641   6.498
 1238SOL    HW120856   3.642   2.713   6.473
 1238SOL    HW220857   3.498   2.682   6.506
 1239SOL     OW20858   3.559   2.408   1.331
 1239SOL    HW120859   3.495   2.471   1.365
 1239SOL    HW220860   3.631   2.462   1.298
 1240SOL     OW20861   1.410   5.966   0.146
 1240SOL    HW120862   1.414   6.059   0.168
 1240SOL    HW220863   1.421   5.921   0.230
 1241SOL     OW20864   1.397   5.914   1.087
 1241SOL    HW120865   1.340   5.838   1.074
 1241SOL    HW220866   1.367   5.978   1.023
 1242SOL     OW20867   1.411   1.198   7.114
 1242SOL    HW120868   1.377   1.245   7.038
 1242SOL    HW220869   1.490   1.154   7.082
 1243SOL     OW20870   5.508   0.773   7.305
 1243SOL    HW120871   5.533   0.866   7.303
 1243SOL    HW220872   5.432   0.768   7.246
 1244SOL     OW20873   0.478   2.743   0.911
 1244SOL    HW120874   0.459   2.836   0.909
 1244SOL    HW220875   0.458   2.716   1.001
 1245SOL     OW20876   0.666   2.748   6.674
 1245SOL    HW120877   0.707   2.822   6.630
 1245SOL    HW220878   0.573   2.770   6.675
 1246SOL     OW20879   2.927   4.238   1.740
 1246SOL    HW120880   2.872   4.187   1.799
 1246SOL    HW220881   2.897   4.328   1.752
 1247SOL     OW20882   4.169   4.600   1.493
 1247SOL    HW120883   4.254   4.561   1.472
 1247SOL    HW220884   4.169   4.684   1.447
 1248SOL     OW20885   5.104   2.704   7.260
 1248SOL    HW120886   5.180   2.685   7.315
 1248SOL    HW220887   5.033   2.720   7.322
 1249SOL     OW20888   5.548   0.288   0.848
 1249SOL    HW120889   5.480   0.274   0.913
 1249SOL    HW220890   5.531   0.375   0.812
 1250SOL     OW20891   5.197   3.323   6.101
 1250SOL    HW120892   5.185   3.309   6.195
 1250SOL    HW220893   5.114   3.359   6.071
 1251SOL     OW20894   4.923   0.617   0.564
 1251SOL    HW120895   4.992   0.664   0.611
 1251SOL    HW220896   4.943   0.630   0.472
 1252SOL     OW20897   1.373   0.613   5.409
 1252SOL    HW120898   1.347   0.706   5.405
 1252SOL    HW220899   1.293   0.565   5.386
 1253SOL     OW20900   4.341   2.103   2.583
 1253SOL    HW120901   4.390   2.024   2.608
 1253SOL    HW220902   4.408   2.162   2.547
 1254SOL     OW20903   2.698   5.713   6.245
 1254SOL    HW120904   2.693   5.794   6.195
 1254SOL    HW220905   2.636   5.654   6.202
 1255SOL     OW20906   3.530   0.890   1.006
 1255SOL    HW120907   3.538   0.802   0.970
 1255SOL    HW220908   3.499   0.877   1.096
 1256SOL     OW20909   1.850   5.735   1.528
 1256SOL    HW120910   1.781   5.799   1.546
 1256SOL    HW220911   1.862   5.689   1.611
 1257SOL     OW20912   3.335   6.081   0.718
 1257SOL    HW120913   3.347   6.039   0.803
 1257SOL    HW220914   3.240   6.074   0.701
 1258SOL     OW20915   3.740   0.712   5.929
 1258SOL    HW120916   3.766   0.716   5.837
 1258SOL    HW220917   3.814   0.748   5.976
 1259SOL     OW20918   2.203   0.106   1.197
 1259SOL    HW120919   2.171   0.166   1.265
 1259SOL    HW220920   2.196   0.156   1.116
 1260SOL     OW20921   0.847   1.224   6.756
 1260SOL    HW120922   0.794   1.209   6.677
 1260SOL    HW220923   0.797   1.184   6.827
 1261SOL     OW20924   5.443   0.257   0.372
 1261SOL    HW120925   5.414   0.197   0.441
 1261SOL    HW220926   5.476   0.199   0.303
 1262SOL     OW20927   2.705   1.691   7.455
 1262SOL    HW120928   2.678   1.754   7.388
 1262SOL    HW220929   2.799   1.679   7.440
 1263SOL     OW20930   1.707   4.529   5.772
 1263SOL    HW120931   1.728   4.442   5.739
 1263SOL    HW220932   1.618   4.522   5.806
 1264SOL     OW20933   3.595   6.196   6.542
 1264SOL    HW120934   3.534   6.137   6.498
 1264SOL    HW220935   3.539   6.258   6.589
 1265SOL     OW20936   0.025   3.402   5.361
 1265SOL    HW120937   6.396   3.346   5.347
 1265SOL    HW220938   0.058   3.420   5.272
 1266SOL     OW20939   3.934   4.470   1.534
 1266SOL    HW120940   3.866   4.531   1.505
 1266SOL    HW220941   4.016   4.514   1.513
 1267SOL     OW20942   0.677   4.346   5.455
 1267SOL    HW120943   0.591   4.343   5.414
 1267SOL    HW220944   0.659   4.340   5.549
 1268SOL     OW20945   2.940   1.886   6.530
 1268SOL    HW120946   2.860   1.932   6.506
 1268SOL    HW220947   2.968   1.927   6.612
 1269SOL     OW20948   0.631   1.919   0.623
 1269SOL    HW120949   0.626   1.850   0.555
 1269SOL    HW220950   0.719   1.955   0.614
 1270SOL     OW20951   3.944   4.354   5.574
 1270SOL    HW120952   3.994   4.320   5.648
 1270SOL    HW220953   4.000   4.337   5.498
 1271SOL     OW20954   0.887   6.349   6.882
 1271SOL    HW120955   0.955   6.286   6.860
 1271SOL    HW220956   0.805   6.300   6.869
 1272SOL     OW20957   3.998   1.772   6.343
 1272SOL    HW120958   4.087   1.797   6.317
 1272SOL    HW220959   4.007   1.739   6.432
 1273SOL     OW20960   3.297   0.459   7.115
 1273SOL    HW120961   3.386   0.440   7.084
 1273SOL    HW220962   3.307   0.536   7.171
 1274SOL     OW20963   6.139   5.642   0.314
 1274SOL    HW120964   6.194   5.575   0.273
 1274SOL    HW220965   6.080   5.593   0.371
 1275SOL     OW20966   3.947   2.117   1.846
 1275SOL    HW120967   3.896   2.104   1.766
 1275SOL    HW220968   3.882   2.123   1.916
 1276SOL     OW20969   1.472   3.591   6.786
 1276SOL    HW120970   1.508   3.596   6.875
 1276SOL    HW220971   1.458   3.498   6.771
 1277SOL     OW20972   1.438   3.399   7.222
 1277SOL    HW120973   1.396   3.476   7.261
 1277SOL    HW220974   1.490   3.435   7.150
 1278SOL     OW20975   3.426   2.313   7.417
 1278SOL    HW120976   3.416   2.397   7.372
 1278SOL    HW220977   3.418   2.247   7.348
 1279SOL     OW20978   0.172   2.256   1.219
 1279SOL    HW120979   0.214   2.227   1.300
 1279SOL    HW220980   0.221   2.211   1.150
 1280SOL     OW20981   0.467   5.950   7.620
 1280SOL    HW120982   0.386   5.908   7.647
 1280SOL    HW220983   0.536   5.899   7.663
 1281SOL     OW20984   4.256   5.328   0.034
 1281SOL    HW120985   4.273   5.293   0.121
 1281SOL    HW220986   4.275   5.254   7.778
 1282SOL     OW20987   0.011   2.045   1.408
 1282SOL    HW120988   0.051   2.031   1.322
 1282SOL    HW220989   6.380   2.096   1.390
 1283SOL     OW20990   5.551   0.594   2.235
 1283SOL    HW120991   5.512   0.534   2.172
 1283SOL    HW220992   5.637   0.556   2.256
 1284SOL     OW20993   4.579   2.235   7.487
 1284SOL    HW120994   4.607   2.301   7.422
 1284SOL    HW220995   4.648   2.235   7.553
 1285SOL     OW20996   2.728   1.156   6.054
 1285SOL    HW120997   2.764   1.070   6.076
 1285SOL    HW220998   2.734   1.161   5.959
 1286SOL     OW20999   6.124   4.316   7.539
 1286SOL    HW121000   6.052   4.352   7.591
 1286SOL    HW221001   6.197   4.310   7.601
 1287SOL     OW21002   2.152   3.001   6.463
 1287SOL    HW121003   2.153   2.906   6.468
 1287SOL    HW221004   2.218   3.030   6.525
 1288SOL     OW21005   0.731   1.929   7.380
 1288SOL    HW121006   0.823   1.909   7.364
 1288SOL    HW221007   0.702   1.976   7.302
 1289SOL     OW21008   0.477   4.560   7.697
 1289SOL    HW121009   0.552   4.556   7.756
 1289SOL    HW221010   0.473   4.473   7.658
 1290SOL     OW21011   1.276   0.602   1.163
 1290SOL    HW121012   1.295   0.514   1.131
 1290SOL    HW221013   1.362   0.642   1.177
 1291SOL     OW21014   2.636   6.076   0.933
 1291SOL    HW121015   2.604   6.102   1.020
 1291SOL    HW221016   2.558   6.042   0.889
 1292SOL     OW21017   4.350   0.485   0.320
 1292SOL    HW121018   4.390   0.572   0.318
 1292SOL    HW221019   4.304   0.478   0.236
 1293SOL     OW21020   1.875   1.665   2.031
 1293SOL    HW121021   1.943   1.601   2.011
 1293SOL    HW221022   1.915   1.722   2.097
 1294SOL     OW21023   0.188   5.719   2.157
 1294SOL    HW121024   0.189   5.723   2.252
 1294SOL    HW221025   0.095   5.718   2.134
 1295SOL     OW21026   5.349   0.610   6.071
 1295SOL    HW121027   5.311   0.667   6.004
 1295SOL    HW221028   5.317   0.523   6.050
 1296SOL     OW21029   5.911   1.513   6.295
 1296SOL    HW121030   5.820   1.483   6.288
 1296SOL    HW221031   5.962   1.432   6.292
 1297SOL     OW21032   0.274   0.686   6.402
 1297SOL    HW121033   0.350   0.724   6.447
 1297SOL    HW221034   0.312   0.624   6.340
 1298SOL     OW21035   1.833   0.207   0.686
 1298SOL    HW121036   1.827   0.297   0.718
 1298SOL    HW221037   1.890   0.163   0.750
 1299SOL     OW21038   0.938   4.575   6.241
 1299SOL    HW121039   0.960   4.666   6.220
 1299SOL    HW221040   0.966   4.525   6.164
 1300SOL     OW21041   4.743   0.334   1.505
 1300SOL    HW121042   4.672   0.379   1.552
 1300SOL    HW221043   4.822   0.383   1.527
 1301SOL     OW21044   2.702   2.309   0.685
 1301SOL    HW121045   2.661   2.384   0.643
 1301SOL    HW221046   2.753   2.347   0.756
 1302SOL     OW21047   4.387   5.841   0.634
 1302SOL    HW121048   4.297   5.809   0.635
 1302SOL    HW221049   4.433   5.787   0.697
 1303SOL     OW21050   2.830   3.747   1.500
 1303SOL    HW121051   2.789   3.663   1.523
 1303SOL    HW221052   2.775   3.783   1.431
 1304SOL     OW21053   3.722   5.359   7.257
 1304SOL    HW121054   3.812   5.381   7.234
 1304SOL    HW221055   3.689   5.310   7.181
 1305SOL     OW21056   5.099   5.177   1.658
 1305SOL    HW121057   5.167   5.191   1.725
 1305SOL    HW221058   5.097   5.082   1.646
 1306SOL     OW21059   3.352   2.776   6.532
 1306SOL    HW121060   3.313   2.814   6.453
 1306SOL    HW221061   3.342   2.844   6.598
 1307SOL     OW21062   3.779   1.437   6.140
 1307SOL    HW121063   3.721   1.463   6.211
 1307SOL    HW221064   3.830   1.516   6.121
 1308SOL     OW21065   1.999   6.126   0.910
 1308SOL    HW121066   1.935   6.144   0.978
 1308SOL    HW221067   2.006   6.031   0.908
 1309SOL     OW21068   2.763   5.914   6.914
 1309SOL    HW121069   2.833   5.864   6.955
 1309SOL    HW221070   2.703   5.936   6.985
 1310SOL     OW21071   1.173   4.166   7.482
 1310SOL    HW121072   1.138   4.243   7.437
 1310SOL    HW221073   1.212   4.200   7.562
 1311SOL     OW21074   5.566   3.851   7.460
 1311SOL    HW121075   5.581   3.911   7.534
 1311SOL    HW221076   5.567   3.908   7.383
 1312SOL     OW21077   0.571   5.688   0.648
 1312SOL    HW121078   0.555   5.758   0.712
 1312SOL    HW221079   0.554   5.607   0.696
 1313SOL     OW21080   6.202   1.807   1.990
 1313SOL    HW121081   6.185   1.749   1.915
 1313SOL    HW221082   6.295   1.827   1.984
 1314SOL     OW21083   2.681   0.000   6.666
 1314SOL    HW121084   2.600   0.051   6.666
 1314SOL    HW221085   2.689   6.416   6.756
 1315SOL     OW21086   4.435   2.704   0.771
 1315SOL    HW121087   4.351   2.700   0.724
 1315SOL    HW221088   4.453   2.798   0.780
 1316SOL     OW21089   5.704   4.888   0.439
 1316SOL    HW121090   5.787   4.900   0.394
 1316SOL    HW221091   5.678   4.799   0.419
 1317SOL     OW21092   2.988   2.842   7.125
 1317SOL    HW121093   2.893   2.842   7.115
 1317SOL    HW221094   3.020   2.790   7.052
 1318SOL     OW21095   4.960   2.206   0.797
 1318SOL    HW121096   4.945   2.175   0.708
 1318SOL    HW221097   5.052   2.233   0.797
 1319SOL     OW21098   5.124   3.170   0.725
 1319SOL    HW121099   5.207   3.214   0.706
 1319SOL    HW221100   5.131   3.084   0.684
 1320SOL     OW21101   1.619   4.543   0.180
 1320SOL    HW121102   1.683   4.567   0.247
 1320SOL    HW221103   1.627   4.448   0.173
 1321SOL     OW21104   1.548   1.317   5.259
 1321SOL    HW121105   1.601   1.363   5.194
 1321SOL    HW221106   1.496   1.255   5.208
 1322SOL     OW21107   1.661   0.825   2.062
 1322SOL    HW121108   1.733   0.780   2.107
 1322SOL    HW221109   1.618   0.756   2.011
 1323SOL     OW21110   5.994   1.671   1.119
 1323SOL    HW121111   6.053   1.624   1.178
 1323SOL    HW221112   5.978   1.610   1.047
 1324SOL     OW21113   1.786   5.316   1.001
 1324SOL    HW121114   1.725   5.375   1.045
 1324SOL    HW221115   1.814   5.363   0.923
 1325SOL     OW21116   3.440   1.578   0.012
 1325SOL    HW121117   3.501   1.513   7.779
 1325SOL    HW221118   3.360   1.567   7.764
 1326SOL     OW21119   0.889   2.578   7.363
 1326SOL    HW121120   0.795   2.576   7.345
 1326SOL    HW221121   0.897   2.633   7.441
 1327SOL     OW21122   2.519   5.564   6.863
 1327SOL    HW121123   2.500   5.603   6.777
 1327SOL    HW221124   2.544   5.474   6.844
 1328SOL     OW21125   5.801   2.825   7.711
 1328SOL    HW121126   5.715   2.867   7.708
 1328SOL    HW221127   5.782   2.733   7.729
 1329SOL     OW21128   3.370   3.902   7.490
 1329SOL    HW121129   3.352   3.871   7.579
 1329SOL    HW221130   3.401   3.823   7.444
 1330SOL     OW21131   2.816   5.860   2.092
 1330SOL    HW121132   2.782   5.882   2.006
 1330SOL    HW221133   2.755   5.795   2.127
 1331SOL     OW21134   4.735   0.750   0.209
 1331SOL    HW121135   4.808   0.714   0.258
 1331SOL    HW221136   4.760   0.740   0.117
 1332SOL     OW21137   5.969   0.241   1.146
 1332SOL    HW121138   5.887   0.230   1.098
 1332SOL    HW221139   5.942   0.263   1.236
 1333SOL     OW21140   4.562   1.824   1.269
 1333SOL    HW121141   4.518   1.898   1.227
 1333SOL    HW221142   4.556   1.843   1.363
 1334SOL     OW21143   3.767   3.168   1.431
 1334SOL    HW121144   3.856   3.144   1.403
 1334SOL    HW221145   3.780   3.235   1.498
 1335SOL     OW21146   2.221   0.317   6.650
 1335SOL    HW121147   2.134   0.281   6.665
 1335SOL    HW221148   2.228   0.391   6.710
 1336SOL     OW21149   4.639   4.196   0.588
 1336SOL    HW121150   4.646   4.258   0.515
 1336SOL    HW221151   4.580   4.128   0.555
 1337SOL     OW21152   0.141   4.158   6.075
 1337SOL    HW121153   0.223   4.204   6.056
 1337SOL    HW221154   0.118   4.115   5.992
 1338SOL     OW21155   6.140   5.948   6.637
 1338SOL    HW121156   6.212   5.999   6.599
 1338SOL    HW221157   6.061   5.996   6.612
 1339SOL     OW21158   4.433   1.602   6.328
 1339SOL    HW121159   4.499   1.553   6.377
 1339SOL    HW221160   4.467   1.606   6.239
 1340SOL     OW21161   2.117   5.896   0.062
 1340SOL    HW121162   2.200   5.935   0.035
 1340SOL    HW221163   2.117   5.905   0.158
 1341SOL     OW21164   0.393   2.665   7.710
 1341SOL    HW121165   0.363   2.730   7.773
 1341SOL    HW221166   0.470   2.704   7.668
 1342SOL     OW21167   6.346   4.643   6.859
 1342SOL    HW121168   6.355   4.637   6.764
 1342SOL    HW221169   6.422   4.595   6.893
 1343SOL     OW21170   5.229   4.941   7.715
 1343SOL    HW121171   5.315   4.980   7.704
 1343SOL    HW221172   5.240   4.849   7.691
 1344SOL     OW21173   6.203   4.655   1.249
 1344SOL    HW121174   6.200   4.569   1.206
 1344SOL    HW221175   6.129   4.655   1.310
 1345SOL     OW21176   2.733   2.199   6.878
 1345SOL    HW121177   2.696   2.122   6.835
 1345SOL    HW221178   2.745   2.172   6.969
 1346SOL     OW21179   0.890   5.720   2.022
 1346SOL    HW121180   0.881   5.632   2.058
 1346SOL    HW221181   0.837   5.719   1.942
 1347SOL     OW21182   2.501   5.256   1.234
 1347SOL    HW121183   2.556   5.270   1.156
 1347SOL    HW221184   2.506   5.338   1.282
 1348SOL     OW21185   5.890   4.440   7.336
 1348SOL    HW121186   5.955   4.503   7.369
 1348SOL    HW221187   5.941   4.361   7.318
 1349SOL     OW21188   0.059   3.230   1.724
 1349SOL    HW121189   0.103   3.212   1.806
 1349SOL    HW221190   0.046   3.144   1.684
 1350SOL     OW21191   1.967   0.073   0.911
 1350SOL    HW121192   1.967   0.019   0.990
 1350SOL    HW221193   2.042   0.131   0.922
 1351SOL     OW21194   1.143   3.522   0.739
 1351SOL    HW121195   1.081   3.454   0.715
 1351SOL    HW221196   1.117   3.550   0.827
 1352SOL     OW21197   2.200   0.621   7.497
 1352SOL    HW121198   2.166   0.684   7.433
 1352SOL    HW221199   2.293   0.640   7.503
 1353SOL     OW21200   6.278   4.665   7.205
 1353SOL    HW121201   6.275   4.590   7.265
 1353SOL    HW221202   6.281   4.625   7.118
 1354SOL     OW21203   3.057   1.257   1.891
 1354SOL    HW121204   3.059   1.335   1.947
 1354SOL    HW221205   3.149   1.237   1.875
 1355SOL     OW21206   1.357   4.184   7.098
 1355SOL    HW121207   1.312   4.227   7.025
 1355SOL    HW221208   1.400   4.256   7.145
 1356SOL     OW21209   5.016   1.613   0.034
 1356SOL    HW121210   5.101   1.572   0.016
 1356SOL    HW221211   5.025   1.650   0.122
 1357SOL     OW21212   3.254   1.020   1.605
 1357SOL    HW121213   3.160   1.002   1.604
 1357SOL    HW221214   3.267   1.076   1.681
 1358SOL     OW21215   5.867   4.199   6.806
 1358SOL    HW121216   5.798   4.265   6.817
 1358SOL    HW221217   5.934   4.244   6.754
 1359SOL     OW21218   3.479   4.187   5.826
 1359SOL    HW121219   3.550   4.251   5.830
 1359SOL    HW221220   3.520   4.108   5.789
 1360SOL     OW21221   1.631   3.145   0.314
 1360SOL    HW121222   1.568   3.217   0.317
 1360SOL    HW221223   1.717   3.188   0.309
 1361SOL     OW21224   5.315   3.465   5.738
 1361SOL    HW121225   5.367   3.434   5.665
 1361SOL    HW221226   5.226   3.474   5.703
 1362SOL     OW21227   6.037   6.151   1.159
 1362SOL    HW121228   6.084   6.171   1.078
 1362SOL    HW221229   6.068   6.064   1.183
 1363SOL     OW21230   5.894   4.658   0.031
 1363SOL    HW121231   5.928   4.737   7.791
 1363SOL    HW221232   5.804   4.651   0.001
 1364SOL     OW21233   2.974   5.294   1.006
 1364SOL    HW121234   2.888   5.297   0.965
 1364SOL    HW221235   2.963   5.232   1.079
 1365SOL     OW21236   3.403   3.096   0.301
 1365SOL    HW121237   3.465   3.149   0.352
 1365SOL    HW221238   3.433   3.105   0.211
 1366SOL     OW21239   0.992   3.233   6.521
 1366SOL    HW121240   1.039   3.168   6.469
 1366SOL    HW221241   0.998   3.201   6.611
 1367SOL     OW21242   2.270   4.238   1.565
 1367SOL    HW121243   2.334   4.180   1.606
 1367SOL    HW221244   2.260   4.205   1.476
 1368SOL     OW21245   2.678   3.556   7.677
 1368SOL    HW121246   2.640   3.630   7.630
 1368SOL    HW221247   2.714   3.594   7.757
 1369SOL     OW21248   3.835   4.566   7.597
 1369SOL    HW121249   3.811   4.486   7.550
 1369SOL    HW221250   3.839   4.634   7.530
 1370SOL     OW21251   0.685   3.323   5.631
 1370SOL    HW121252   0.741   3.254   5.667
 1370SOL    HW221253   0.705   3.400   5.684
 1371SOL     OW21254   5.560   4.077   0.830
 1371SOL    HW121255   5.541   4.056   0.922
 1371SOL    HW221256   5.476   4.108   0.795
 1372SOL     OW21257   5.208   6.192   6.599
 1372SOL    HW121258   5.118   6.172   6.574
 1372SOL    HW221259   5.204   6.206   6.693
 1373SOL     OW21260   5.569   2.623   7.031
 1373SOL    HW121261   5.524   2.706   7.045
 1373SOL    HW221262   5.538   2.593   6.946
 1374SOL     OW21263   6.100   2.466   1.825
 1374SOL    HW121264   6.124   2.527   1.755
 1374SOL    HW221265   6.160   2.487   1.896
 1375SOL     OW21266   2.668   5.064   6.686
 1375SOL    HW121267   2.641   5.039   6.597
 1375SOL    HW221268   2.763   5.074   6.681
 1376SOL     OW21269   6.328   0.990   7.336
 1376SOL    HW121270   6.324   1.085   7.326
 1376SOL    HW221271   6.238   0.964   7.357
 1377SOL     OW21272   1.592   3.551   7.036
 1377SOL    HW121273   1.657   3.488   7.007
 1377SOL    HW221274   1.638   3.605   7.100
 1378SOL     OW21275   1.703   0.744   0.525
 1378SOL    HW121276   1.788   0.729   0.567
 1378SOL    HW221277   1.645   0.772   0.596
 1379SOL     OW21278   5.548   1.035   7.243
 1379SOL    HW121279   5.633   1.035   7.197
 1379SOL    HW221280   5.493   1.094   7.191
 1380SOL     OW21281   1.693   2.660   2.344
 1380SOL    HW121282   1.704   2.730   2.280
 1380SOL    HW221283   1.607   2.622   2.324
 1381SOL     OW21284   1.040   0.857   0.630
 1381SOL    HW121285   1.043   0.761   0.630
 1381SOL    HW221286   0.985   0.879   0.555
 1382SOL     OW21287   5.702   3.274   1.415
 1382SOL    HW121288   5.698   3.351   1.359
 1382SOL    HW221289   5.684   3.307   1.503
 1383SOL     OW21290   0.302   1.167   6.217
 1383SOL    HW121291   0.330   1.233   6.154
 1383SOL    HW221292   0.344   1.086   6.188
 1384SOL     OW21293   5.196   3.094   5.943
 1384SOL    HW121294   5.104   3.067   5.943
 1384SOL    HW221295   5.197   3.178   5.989
 1385SOL     OW21296   4.594   1.674   6.632
 1385SOL    HW121297   4.631   1.607   6.576
 1385SOL    HW221298   4.645   1.753   6.612
 1386SOL     OW21299   6.350   4.917   6.868
 1386SOL    HW121300   6.351   4.822   6.883
 1386SOL    HW221301   6.442   4.940   6.857
 1387SOL     OW21302   4.804   2.025   2.354
 1387SOL    HW121303   4.890   2.024   2.396
 1387SOL    HW221304   4.820   1.987   2.268
 1388SOL     OW21305   2.627   3.162   1.596
 1388SOL    HW121306   2.577   3.228   1.646
 1388SOL    HW221307   2.600   3.078   1.633
 1389SOL     OW21308   4.663   1.653   1.750
 1389SOL    HW121309   4.695   1.711   1.819
 1389SOL    HW221310   4.649   1.569   1.793
 1390SOL     OW21311   1.088   2.174   1.343
 1390SOL    HW121312   1.119   2.085   1.359
 1390SOL    HW221313   1.123   2.225   1.416
 1391SOL     OW21314   0.902   3.388   2.221
 1391SOL    HW121315   0.959   3.320   2.184
 1391SOL    HW221316   0.962   3.457   2.249
 1392SOL     OW21317   6.056   0.290   0.523
 1392SOL    HW121318   6.085   0.353   0.458
 1392SOL    HW221319   6.013   0.343   0.590
 1393SOL     OW21320   4.055   0.195   7.166
 1393SOL    HW121321   4.128   0.149   7.124
 1393SOL    HW221322   3.983   0.188   7.104
 1394SOL     OW21323   6.143   2.372   0.514
 1394SOL    HW121324   6.180   2.321   0.442
 1394SOL    HW221325   6.092   2.308   0.564
 1395SOL     OW21326   4.615   1.807   5.911
 1395SOL    HW121327   4.619   1.887   5.858
 1395SOL    HW221328   4.643   1.738   5.851
 1396SOL     OW21329   3.464   4.512   6.081
 1396SOL    HW121330   3.477   4.422   6.112
 1396SOL    HW221331   3.410   4.503   6.003
 1397SOL     OW21332   3.036   5.257   6.438
 1397SOL    HW121333   3.115   5.310   6.447
 1397SOL    HW221334   2.966   5.320   6.422
 1398SOL     OW21335   6.180   3.921   1.293
 1398SOL    HW121336   6.137   3.987   1.239
 1398SOL    HW221337   6.272   3.948   1.294
 1399SOL     OW21338   1.580   4.428   6.745
 1399SOL    HW121339   1.662   4.442   6.698
 1399SOL    HW221340   1.558   4.336   6.728
 1400SOL     OW21341   4.123   4.907   6.992
 1400SOL    HW121342   4.090   4.994   6.975
 1400SOL    HW221343   4.185   4.890   6.921
 1401SOL     OW21344   3.778   2.199   0.792
 1401SOL    HW121345   3.688   2.169   0.803
 1401SOL    HW221346   3.831   2.119   0.795
 1402SOL     OW21347   2.201   1.839   6.672
 1402SOL    HW121348   2.248   1.855   6.754
 1402SOL    HW221349   2.138   1.770   6.694
 1403SOL     OW21350   4.452   3.453   7.637
 1403SOL    HW121351   4.360   3.442   7.614
 1403SOL    HW221352   4.497   3.385   7.587
 1404SOL     OW21353   2.758   2.507   5.492
 1404SOL    HW121354   2.733   2.564   5.564
 1404SOL    HW221355   2.694   2.436   5.495
 1405SOL     OW21356   1.381   0.881   5.642
 1405SOL    HW121357   1.306   0.911   5.694
 1405SOL    HW221358   1.345   0.867   5.554
 1406SOL     OW21359   4.045   0.399   1.359
 1406SOL    HW121360   4.084   0.479   1.324
 1406SOL    HW221361   4.119   0.343   1.382
 1407SOL     OW21362   3.701   3.915   0.387
 1407SOL    HW121363   3.681   3.905   0.480
 1407SOL    HW221364   3.621   3.888   0.342
 1408SOL     OW21365   0.281   4.983   6.377
 1408SOL    HW121366   0.188   4.984   6.353
 1408SOL    HW221367   0.314   4.899   6.342
 1409SOL     OW21368   5.657   5.781   5.742
 1409SOL    HW121369   5.616   5.707   5.697
 1409SOL    HW221370   5.627   5.774   5.833
 1410SOL     OW21371   5.122   1.870   7.497
 1410SOL    HW121372   5.068   1.941   7.531
 1410SOL    HW221373   5.060   1.806   7.463
 1411SOL     OW21374   5.584   6.167   6.336
 1411SOL    HW121375   5.590   6.258   6.364
 1411SOL    HW221376   5.528   6.125   6.401
 1412SOL     OW21377   4.006   1.838   6.814
 1412SOL    HW121378   3.942   1.909   6.820
 1412SOL    HW221379   4.089   1.881   6.798
 1413SOL     OW21380   2.060   4.412   1.573
 1413SOL    HW121381   2.009   4.368   1.506
 1413SOL    HW221382   2.141   4.361   1.579
 1414SOL     OW21383   3.106   3.098   6.472
 1414SOL    HW121384   3.015   3.117   6.448
 1414SOL    HW221385   3.139   3.181   6.506
 1415SOL     OW21386   0.928   0.732   1.055
 1415SOL    HW121387   0.914   0.719   1.149
 1415SOL    HW221388   0.855   0.787   1.027
 1416SOL     OW21389   2.684   4.806   0.347
 1416SOL    HW121390   2.710   4.761   0.266
 1416SOL    HW221391   2.608   4.757   0.379
 1417SOL     OW21392   5.533   2.394   0.638
 1417SOL    HW121393   5.493   2.410   0.723
 1417SOL    HW221394   5.513   2.473   0.587
 1418SOL     OW21395   1.775   4.120   0.678
 1418SOL    HW121396   1.708   4.185   0.660
 1418SOL    HW221397   1.727   4.042   0.706
 1419SOL     OW21398   6.283   5.926   2.034
 1419SOL    HW121399   6.305   5.834   2.048
 1419SOL    HW221400   6.361   5.962   1.991
 1420SOL     OW21401   3.108   5.443   6.097
 1420SOL    HW121402   3.086   5.501   6.170
 1420SOL    HW221403   3.027   5.437   6.046
 1421SOL     OW21404   2.681   5.644   7.771
 1421SOL    HW121405   2.667   5.554   7.799
 1421SOL    HW221406   2.689   5.694   0.050
 1422SOL     OW21407   6.025   1.804   6.824
 1422SOL    HW121408   6.076   1.814   6.743
 1422SOL    HW221409   5.937   1.833   6.801
 1423SOL     OW21410   2.379   0.810   7.748
 1423SOL    HW121411   2.441   0.882   7.739
 1423SOL    HW221412   2.396   0.754   7.673
 1424SOL     OW21413   4.651   3.157   1.207
 1424SOL    HW121414   4.718   3.220   1.233
 1424SOL    HW221415   4.665   3.143   1.113
 1425SOL     OW21416   6.143   4.272   0.470
 1425SOL    HW121417   6.109   4.328   0.540
 1425SOL    HW221418   6.237   4.287   0.472
 1426SOL     OW21419   4.270   3.988   1.297
 1426SOL    HW121420   4.275   4.042   1.218
 1426SOL    HW221421   4.201   4.028   1.349
 1427SOL     OW21422   2.539   2.876   6.675
 1427SOL    HW121423   2.458   2.909   6.715
 1427SOL    HW221424   2.598   2.952   6.676
 1428SOL     OW21425   5.560   1.253   7.578
 1428SOL    HW121426   5.558   1.269   7.672
 1428SOL    HW221427   5.472   1.278   7.548
 1429SOL     OW21428   0.106   4.319   0.059
 1429SOL    HW121429   0.072   4.253   0.120
 1429SOL    HW221430   0.161   4.375   0.114
 1430SOL     OW21431   3.586   2.739   1.247
 1430SOL    HW121432   3.619   2.800   1.313
 1430SOL    HW221433   3.659   2.678   1.232
 1431SOL     OW21434   5.784   2.618   0.626
 1431SOL    HW121435   5.776   2.557   0.699
 1431SOL    HW221436   5.878   2.623   0.610
 1432SOL     OW21437   2.999   3.475   6.016
 1432SOL    HW121438   2.966   3.564   6.012
 1432SOL    HW221439   2.922   3.419   6.005
 1433SOL     OW21440   0.269   0.119   0.449
 1433SOL    HW121441   0.328   0.096   0.377
 1433SOL    HW221442   0.191   0.067   0.433
 1434SOL     OW21443   5.249   0.375   5.954
 1434SOL    HW121444   5.298   0.328   5.887
 1434SOL    HW221445   5.167   0.400   5.911
 1435SOL     OW21446   1.692   3.968   1.306
 1435SOL    HW121447   1.784   3.942   1.316
 1435SOL    HW221448   1.667   3.999   1.393
 1436SOL     OW21449   5.097   1.662   0.864
 1436SOL    HW121450   5.010   1.681   0.899
 1436SOL    HW221451   5.131   1.593   0.921
 1437SOL     OW21452   6.261   3.010   7.640
 1437SOL    HW121453   6.228   2.986   7.554
 1437SOL    HW221454   6.264   2.928   7.689
 1438SOL     OW21455   0.263   4.699   6.807
 1438SOL    HW121456   0.256   4.671   6.716
 1438SOL    HW221457   0.222   4.629   6.857
 1439SOL     OW21458   4.472   0.727   0.300
 1439SOL    HW121459   4.491   0.746   0.392
 1439SOL    HW221460   4.556   0.736   0.255
 1440SOL     OW21461   0.018   5.324   1.886
 1440SOL    HW121462   6.385   5.353   1.928
 1440SOL    HW221463   0.084   5.387   1.917
 1441SOL     OW21464   2.305   2.733   1.149
 1441SOL    HW121465   2.287   2.734   1.243
 1441SOL    HW221466   2.294   2.642   1.122
 1442SOL     OW21467   3.519   3.143   6.607
 1442SOL    HW121468   3.449   3.083   6.631
 1442SOL    HW221469   3.500   3.223   6.657
 1443SOL     OW21470   3.901   1.589   7.605
 1443SOL    HW121471   3.884   1.585   7.699
 1443SOL    HW221472   3.876   1.502   7.572
 1444SOL     OW21473   2.465   0.776   0.519
 1444SOL    HW121474   2.495   0.762   0.429
 1444SOL    HW221475   2.454   0.870   0.526
 1445SOL     OW21476   3.430   5.080   0.158
 1445SOL    HW121477   3.392   5.164   0.183
 1445SOL    HW221478   3.498   5.103   0.095
 1446SOL     OW21479   4.917   0.673   6.434
 1446SOL    HW121480   4.855   0.690   6.363
 1446SOL    HW221481   4.941   0.760   6.466
 1447SOL     OW21482   1.852   0.134   1.261
 1447SOL    HW121483   1.886   0.057   1.216
 1447SOL    HW221484   1.849   0.203   1.194
 1448SOL     OW21485   0.787   5.412   0.691
 1448SOL    HW121486   0.831   5.482   0.643
 1448SOL    HW221487   0.822   5.332   0.654
 1449SOL     OW21488   3.868   5.682   1.758
 1449SOL    HW121489   3.906   5.637   1.833
 1449SOL    HW221490   3.775   5.691   1.780
 1450SOL     OW21491   4.915   2.641   0.831
 1450SOL    HW121492   4.900   2.566   0.888
 1450SOL    HW221493   4.878   2.715   0.878
 1451SOL     OW21494   0.645   1.642   2.281
 1451SOL    HW121495   0.706   1.569   2.294
 1451SOL    HW221496   0.559   1.601   2.274
 1452SOL     OW21497   6.183   2.879   6.069
 1452SOL    HW121498   6.126   2.853   6.140
 1452SOL    HW221499   6.124   2.891   5.994
 1453SOL     OW21500   2.749   2.162   0.443
 1453SOL    HW121501   2.736   2.209   0.526
 1453SOL    HW221502   2.678   2.194   0.387
 1454SOL     OW21503   4.930   1.898   5.477
 1454SOL    HW121504   5.013   1.884   5.431
 1454SOL    HW221505   4.880   1.955   5.418
 1455SOL     OW21506   0.854   1.929   6.347
 1455SOL    HW121507   0.927   1.874   6.323
 1455SOL    HW221508   0.782   1.868   6.364
 1456SOL     OW21509   1.124   4.168   0.631
 1456SOL    HW121510   1.071   4.089   0.646
 1456SOL    HW221511   1.214   4.140   0.647
 1457SOL     OW21512   4.411   2.444   7.594
 1457SOL    HW121513   4.430   2.354   7.568
 1457SOL    HW221514   4.493   2.491   7.581
 1458SOL     OW21515   5.425   0.863   5.574
 1458SOL    HW121516   5.449   0.784   5.623
 1458SOL    HW221517   5.356   0.904   5.626
 1459SOL     OW21518   5.554   0.433   7.078
 1459SOL    HW121519   5.534   0.341   7.094
 1459SOL    HW221520   5.624   0.431   7.012
 1460SOL     OW21521   3.375   2.456   0.244
 1460SOL    HW121522   3.453   2.439   0.191
 1460SOL    HW221523   3.364   2.551   0.240
 1461SOL     OW21524   5.337   5.162   1.356
 1461SOL    HW121525   5.340   5.253   1.387
 1461SOL    HW221526   5.411   5.155   1.296
 1462SOL     OW21527   4.771   2.292   7.694
 1462SOL    HW121528   4.852   2.272   7.741
 1462SOL    HW221529   4.797   2.358   7.630
 1463SOL     OW21530   4.822   6.325   6.697
 1463SOL    HW121531   4.868   6.406   6.676
 1463SOL    HW221532   4.852   6.303   6.786
 1464SOL     OW21533   4.850   2.257   5.858
 1464SOL    HW121534   4.839   2.293   5.770
 1464SOL    HW221535   4.766   2.273   5.901
 1465SOL     OW21536   1.487   3.723   6.190
 1465SOL    HW121537   1.425   3.787   6.153
 1465SOL    HW221538   1.524   3.679   6.113
 1466SOL     OW21539   0.281   2.712   6.297
 1466SOL    HW121540   0.358   2.766   6.316
 1466SOL    HW221541   0.268   2.661   6.377
 1467SOL     OW21542   4.088   5.340   7.479
 1467SOL    HW121543   4.054   5.341   7.569
 1467SOL    HW221544   4.115   5.249   7.466
 1468SOL     OW21545   0.415   5.886   1.506
 1468SOL    HW121546   0.466   5.926   1.436
 1468SOL    HW221547   0.480   5.846   1.563
 1469SOL     OW21548   1.986   6.323   0.715
 1469SOL    HW121549   1.985   6.249   0.776
 1469SOL    HW221550   1.987   6.400   0.771
 1470SOL     OW21551   4.680   4.978   1.427
 1470SOL    HW121552   4.767   4.939   1.429
 1470SOL    HW221553   4.644   4.960   1.514
 1471SOL     OW21554   5.747   2.281   0.216
 1471SOL    HW121555   5.709   2.365   0.239
 1471SOL    HW221556   5.773   2.241   0.299
 1472SOL     OW21557   2.776   4.449   6.477
 1472SOL    HW121558   2.741   4.430   6.564
 1472SOL    HW221559   2.713   4.511   6.439
 1473SOL     OW21560   1.056   0.575   0.619
 1473SOL    HW121561   0.995   0.502   0.629
 1473SOL    HW221562   1.082   0.573   0.527
 1474SOL     OW21563   5.769   4.838   7.276
 1474SOL    HW121564   5.701   4.773   7.293
 1474SOL    HW221565   5.812   4.808   7.196
 1475SOL     OW21566   6.294   0.874   0.814
 1475SOL    HW121567   6.308   0.790   0.857
 1475SOL    HW221568   6.372   0.925   0.834
 1476SOL     OW21569   1.256   4.953   0.773
 1476SOL    HW121570   1.297   4.937   0.858
 1476SOL    HW221571   1.323   4.931   0.708
 1477SOL     OW21572   5.783   0.611   1.685
 1477SOL    HW121573   5.725   0.557   1.740
 1477SOL    HW221574   5.830   0.667   1.747
 1478SOL     OW21575   2.583   2.617   7.206
 1478SOL    HW121576   2.502   2.594   7.161
 1478SOL    HW221577   2.569   2.588   7.297
 1479SOL     OW21578   4.479   1.929   1.800
 1479SOL    HW121579   4.471   1.855   1.860
 1479SOL    HW221580   4.395   1.975   1.807
 1480SOL     OW21581   1.104   3.605   6.804
 1480SOL    HW121582   1.128   3.513   6.802
 1480SOL    HW221583   1.137   3.637   6.888
 1481SOL     OW21584   5.450   1.265   6.101
 1481SOL    HW121585   5.451   1.178   6.061
 1481SOL    HW221586   5.465   1.325   6.027
 1482SOL     OW21587   2.439   3.849   7.008
 1482SOL    HW121588   2.513   3.828   7.065
 1482SOL    HW221589   2.367   3.868   7.067
 1483SOL     OW21590   1.191   2.924   6.810
 1483SOL    HW121591   1.225   2.922   6.721
 1483SOL    HW221592   1.227   2.846   6.852
 1484SOL     OW21593   4.989   3.099   7.663
 1484SOL    HW121594   4.968   3.084   7.571
 1484SOL    HW221595   5.020   3.014   7.695
 1485SOL     OW21596   0.872   1.014   5.270
 1485SOL    HW121597   0.872   1.110   5.280
 1485SOL    HW221598   0.945   0.984   5.324
 1486SOL     OW21599   1.745   4.991   6.276
 1486SOL    HW121600   1.753   5.083   6.251
 1486SOL    HW221601   1.758   4.991   6.371
 1487SOL     OW21602   5.928   6.125   0.274
 1487SOL    HW121603   5.925   6.111   0.369
 1487SOL    HW221604   5.961   6.042   0.239
 1488SOL     OW21605   0.810   1.204   1.485
 1488SOL    HW121606   0.777   1.149   1.556
 1488SOL    HW221607   0.832   1.287   1.529
 1489SOL     OW21608   0.463   0.953   1.723
 1489SOL    HW121609   0.544   1.004   1.720
 1489SOL    HW221610   0.492   0.865   1.748
 1490SOL     OW21611   4.467   2.970   0.809
 1490SOL    HW121612   4.426   2.986   0.894
 1490SOL    HW221613   4.535   3.038   0.802
 1491SOL     OW21614   3.817   2.001   6.394
 1491SOL    HW121615   3.891   2.017   6.452
 1491SOL    HW221616   3.830   1.911   6.363
 1492SOL     OW21617   0.385   0.371   7.020
 1492SOL    HW121618   0.338   0.396   7.099
 1492SOL    HW221619   0.461   0.430   7.017
 1493SOL     OW21620   6.425   3.341   7.346
 1493SOL    HW121621   0.025   3.264   7.377
 1493SOL    HW221622   6.368   3.365   7.419
 1494SOL     OW21623   0.031   2.409   1.739
 1494SOL    HW121624   0.026   2.370   1.826
 1494SOL    HW221625   0.075   2.343   1.685
 1495SOL     OW21626   3.585   0.784   6.610
 1495SOL    HW121627   3.564   0.758   6.520
 1495SOL    HW221628   3.501   0.811   6.647
 1496SOL     OW21629   2.912   3.738   5.991
 1496SOL    HW121630   2.833   3.719   6.041
 1496SOL    HW221631   2.921   3.833   5.994
 1497SOL     OW21632   0.438   0.597   5.844
 1497SOL    HW121633   0.352   0.602   5.886
 1497SOL    HW221634   0.495   0.555   5.908
 1498SOL     OW21635   6.031   1.595   2.063
 1498SOL    HW121636   6.047   1.576   1.970
 1498SOL    HW221637   6.098   1.660   2.086
 1499SOL     OW21638   3.673   5.484   2.424
 1499SOL    HW121639   3.645   5.490   2.516
 1499SOL    HW221640   3.768   5.497   2.428
 1500SOL     OW21641   0.914   4.407   2.078
 1500SOL    HW121642   0.916   4.380   1.986
 1500SOL    HW221643   0.825   4.390   2.106
 1501SOL     OW21644   6.109   3.340   5.514
 1501SOL    HW121645   6.096   3.250   5.545
 1501SOL    HW221646   6.161   3.331   5.434
 1502SOL     OW21647   1.802   6.284   6.391
 1502SOL    HW121648   1.796   6.343   6.316
 1502SOL    HW221649   1.744   6.211   6.368
 1503SOL     OW21650   1.741   4.307   1.504
 1503SOL    HW121651   1.684   4.231   1.516
 1503SOL    HW221652   1.818   4.272   1.458
 1504SOL     OW21653   2.157   1.086   7.403
 1504SOL    HW121654   2.155   1.134   7.486
 1504SOL    HW221655   2.119   1.146   7.339
 1505SOL     OW21656   4.935   0.068   0.812
 1505SOL    HW121657   4.978   0.144   0.773
 1505SOL    HW221658   5.007   0.010   0.836
 1506SOL     OW21659   4.555   6.157   1.482
 1506SOL    HW121660   4.642   6.190   1.505
 1506SOL    HW221661   4.554   6.067   1.513
 1507SOL     OW21662   2.769   0.683   7.541
 1507SOL    HW121663   2.845   0.658   7.489
 1507SOL    HW221664   2.751   0.773   7.515
 1508SOL     OW21665   4.198   3.649   5.540
 1508SOL    HW121666   4.279   3.600   5.525
 1508SOL    HW221667   4.128   3.588   5.514
 1509SOL     OW21668   5.573   5.934   2.235
 1509SOL    HW121669   5.568   6.017   2.281
 1509SOL    HW221670   5.665   5.926   2.210
 1510SOL     OW21671   1.364   5.491   0.979
 1510SOL    HW121672   1.319   5.573   1.000
 1510SOL    HW221673   1.297   5.424   0.990
 1511SOL     OW21674   1.492   2.043   1.178
 1511SOL    HW121675   1.454   2.131   1.181
 1511SOL    HW221676   1.416   1.984   1.185
 1512SOL     OW21677   5.577   2.650   7.408
 1512SOL    HW121678   5.653   2.599   7.438
 1512SOL    HW221679   5.607   2.740   7.411
 1513SOL     OW21680   4.951   2.416   1.480
 1513SOL    HW121681   4.988   2.338   1.439
 1513SOL    HW221682   5.027   2.465   1.512
 1514SOL     OW21683   2.822   2.741   0.118
 1514SOL    HW121684   2.865   2.706   0.040
 1514SOL    HW221685   2.739   2.694   0.124
 1515SOL     OW21686   3.230   2.917   7.231
 1515SOL    HW121687   3.277   2.859   7.171
 1515SOL    HW221688   3.137   2.902   7.211
 1516SOL     OW21689   3.466   6.415   7.065
 1516SOL    HW121690   3.496   6.327   7.044
 1516SOL    HW221691   3.375   6.404   7.092
 1517SOL     OW21692   0.442   4.130   2.357
 1517SOL    HW121693   0.447   4.203   2.295
 1517SOL    HW221694   0.349   4.110   2.363
 1518SOL     OW21695   0.171   4.075   2.348
 1518SOL    HW121696   0.148   3.985   2.371
 1518SOL    HW221697   0.105   4.128   2.391
 1519SOL     OW21698   0.015   3.841   1.505
 1519SOL    HW121699   0.106   3.860   1.529
 1519SOL    HW221700   0.001   3.891   1.424
 1520SOL     OW21701   3.100   1.925   5.991
 1520SOL    HW121702   3.072   1.854   6.050
 1520SOL    HW221703   3.021   1.947   5.941
 1521SOL     OW21704   4.925   4.287   1.006
 1521SOL    HW121705   4.881   4.340   1.072
 1521SOL    HW221706   4.854   4.256   0.949
 1522SOL     OW21707   4.028   5.853   1.230
 1522SOL    HW121708   4.075   5.880   1.309
 1522SOL    HW221709   4.013   5.935   1.183
 1523SOL     OW21710   6.416   1.489   5.787
 1523SOL    HW121711   0.020   1.444   5.853
 1523SOL    HW221712   6.394   1.421   5.724
 1524SOL     OW21713   6.244   0.002   0.145
 1524SOL    HW121714   6.149   6.443   0.161
 1524SOL    HW221715   6.281   6.373   0.188
 1525SOL     OW21716   4.828   2.846   6.439
 1525SOL    HW121717   4.901   2.898   6.404
 1525SOL    HW221718   4.862   2.756   6.441
 1526SOL     OW21719   4.569   1.193   2.179
 1526SOL    HW121720   4.609   1.278   2.198
 1526SOL    HW221721   4.522   1.206   2.097
 1527SOL     OW21722   1.951   3.197   1.077
 1527SOL    HW121723   1.969   3.165   1.165
 1527SOL    HW221724   1.896   3.274   1.090
 1528SOL     OW21725   2.223   1.313   0.384
 1528SOL    HW121726   2.240   1.236   0.331
 1528SOL    HW221727   2.217   1.385   0.321
 1529SOL     OW21728   0.217   1.723   1.395
 1529SOL    HW121729   0.216   1.729   1.490
 1529SOL    HW221730   0.310   1.731   1.372
 1530SOL     OW21731   2.313   6.004   0.537
 1530SOL    HW121732   2.281   6.094   0.529
 1530SOL    HW221733   2.307   5.968   0.449
 1531SOL     OW21734   2.843   3.624   5.753
 1531SOL    HW121735   2.930   3.617   5.713
 1531SOL    HW221736   2.858   3.666   5.837
 1532SOL     OW21737   6.297   0.007   7.675
 1532SOL    HW121738   6.297   6.442   7.770
 1532SOL    HW221739   6.390   0.004   7.651
 1533SOL     OW21740   2.547   4.296   0.186
 1533SOL    HW121741   2.460   4.262   0.167
 1533SOL    HW221742   2.559   4.368   0.125
 1534SOL     OW21743   3.981   6.275   1.371
 1534SOL    HW121744   3.927   6.346   1.404
 1534SOL    HW221745   3.973   6.206   1.436
 1535SOL     OW21746   5.613   3.655   7.107
 1535SOL    HW121747   5.562   3.730   7.076
 1535SOL    HW221748   5.569   3.629   7.188
 1536SOL     OW21749   0.759   3.628   0.088
 1536SOL    HW121750   0.812   3.600   0.162
 1536SOL    HW221751   0.802   3.708   0.057
 1537SOL     OW21752   0.205   5.888   6.182
 1537SOL    HW121753   0.237   5.883   6.091
 1537SOL    HW221754   0.262   5.828   6.230
 1538SOL     OW21755   2.617   3.881   0.049
 1538SOL    HW121756   2.673   3.804   0.060
 1538SOL    HW221757   2.672   3.955   0.076
 1539SOL     OW21758   5.813   0.762   5.577
 1539SOL    HW121759   5.844   0.853   5.588
 1539SOL    HW221760   5.857   0.714   5.647
 1540SOL     OW21761   0.333   2.539   1.370
 1540SOL    HW121762   0.289   2.557   1.453
 1540SOL    HW221763   0.384   2.459   1.388
 1541SOL     OW21764   6.179   1.852   7.705
 1541SOL    HW121765   6.189   1.761   7.733
 1541SOL    HW221766   6.266   1.890   7.718
 1542SOL     OW21767   4.113   1.457   6.811
 1542SOL    HW121768   4.120   1.531   6.752
 1542SOL    HW221769   4.120   1.380   6.754
 1543SOL     OW21770   5.646   0.132   5.910
 1543SOL    HW121771   5.690   0.091   5.835
 1543SOL    HW221772   5.693   0.097   5.986
 1544SOL     OW21773   2.374   2.205   7.726
 1544SOL    HW121774   2.387   2.288   7.772
 1544SOL    HW221775   2.334   2.147   7.791
 1545SOL     OW21776   5.287   4.117   7.764
 1545SOL    HW121777   5.346   4.150   7.697
 1545SOL    HW221778   5.273   4.025   7.740
 1546SOL     OW21779   2.459   2.990   0.885
 1546SOL    HW121780   2.514   3.039   0.823
 1546SOL    HW221781   2.378   3.039   0.890
 1547SOL     OW21782   3.004   2.115   7.280
 1547SOL    HW121783   3.011   2.060   7.358
 1547SOL    HW221784   2.937   2.179   7.302
 1548SOL     OW21785   4.769   3.884   0.521
 1548SOL    HW121786   4.731   3.798   0.504
 1548SOL    HW221787   4.693   3.943   0.524
 1549SOL     OW21788   5.923   3.148   1.518
 1549SOL    HW121789   5.928   3.198   1.600
 1549SOL    HW221790   5.853   3.190   1.468
 1550SOL     OW21791   5.914   6.101   6.567
 1550SOL    HW121792   5.886   6.068   6.482
 1550SOL    HW221793   5.834   6.107   6.618
 1551SOL     OW21794   3.149   5.003   1.126
 1551SOL    HW121795   3.184   4.931   1.178
 1551SOL    HW221796   3.085   4.962   1.068
 1552SOL     OW21797   3.343   5.974   1.806
 1552SOL    HW121798   3.321   5.992   1.897
 1552SOL    HW221799   3.260   5.986   1.758
 1553SOL     OW21800   5.667   4.383   6.861
 1553SOL    HW121801   5.685   4.413   6.950
 1553SOL    HW221802   5.662   4.464   6.810
 1554SOL     OW21803   2.535   0.477   7.222
 1554SOL    HW121804   2.531   0.572   7.224
 1554SOL    HW221805   2.456   0.450   7.176
 1555SOL     OW21806   6.030   3.826   6.573
 1555SOL    HW121807   6.063   3.905   6.531
 1555SOL    HW221808   5.949   3.853   6.617
 1556SOL     OW21809   2.234   0.528   6.831
 1556SOL    HW121810   2.156   0.577   6.857
 1556SOL    HW221811   2.295   0.594   6.800
 1557SOL     OW21812   1.116   0.323   6.758
 1557SOL    HW121813   1.049   0.265   6.793
 1557SOL    HW221814   1.098   0.408   6.798
 1558SOL     OW21815   1.880   2.170   5.986
 1558SOL    HW121816   1.917   2.094   5.941
 1558SOL    HW221817   1.932   2.178   6.066
 1559SOL     OW21818   4.916   0.809   7.395
 1559SOL    HW121819   4.868   0.890   7.376
 1559SOL    HW221820   4.859   0.762   7.456
 1560SOL     OW21821   2.466   4.069   0.636
 1560SOL    HW121822   2.520   4.042   0.562
 1560SOL    HW221823   2.419   3.989   0.662
 1561SOL     OW21824   3.188   6.102   1.094
 1561SOL    HW121825   3.151   6.176   1.047
 1561SOL    HW221826   3.152   6.025   1.050
 1562SOL     OW21827   5.620   2.240   7.382
 1562SOL    HW121828   5.581   2.299   7.318
 1562SOL    HW221829   5.672   2.179   7.331
 1563SOL     OW21830   2.430   5.201   0.709
 1563SOL    HW121831   2.406   5.138   0.777
 1563SOL    HW221832   2.522   5.182   0.689
 1564SOL     OW21833   4.580   4.849   6.782
 1564SOL    HW121834   4.669   4.881   6.767
 1564SOL    HW221835   4.582   4.759   6.747
 1565SOL     OW21836   2.291   4.494   7.698
 1565SOL    HW121837   2.254   4.406   7.706
 1565SOL    HW221838   2.280   4.516   7.605
 1566SOL     OW21839   3.736   1.917   7.343
 1566SOL    HW121840   3.701   1.830   7.361
 1566SOL    HW221841   3.709   1.970   7.418
 1567SOL     OW21842   2.869   1.417   6.478
 1567SOL    HW121843   2.949   1.437   6.429
 1567SOL    HW221844   2.820   1.358   6.421
 1568SOL     OW21845   5.599   2.309   7.787
 1568SOL    HW121846   5.614   2.233   7.730
 1568SOL    HW221847   5.632   2.282   0.070
 1569SOL     OW21848   2.119   4.515   6.432
 1569SOL    HW121849   2.153   4.509   6.343
 1569SOL    HW221850   2.120   4.425   6.464
 1570SOL     OW21851   0.036   2.491   1.144
 1570SOL    HW121852   0.093   2.422   1.180
 1570SOL    HW221853   0.097   2.561   1.120
 1571SOL     OW21854   0.016   3.386   1.365
 1571SOL    HW121855   0.054   3.323   1.304
 1571SOL    HW221856   6.371   3.362   1.370
 1572SOL     OW21857   0.393   1.165   7.067
 1572SOL    HW121858   0.353   1.078   7.057
 1572SOL    HW221859   0.324   1.226   7.041
 1573SOL     OW21860   5.471   1.564   6.917
 1573SOL    HW121861   5.513   1.638   6.873
 1573SOL    HW221862   5.507   1.487   6.872
 1574SOL     OW21863   0.366   1.060   7.494
 1574SOL    HW121864   0.307   1.048   7.420
 1574SOL    HW221865   0.328   1.007   7.564
 1575SOL     OW21866   6.066   3.052   0.730
 1575SOL    HW121867   6.027   3.102   0.659
 1575SOL    HW221868   5.991   3.014   0.776
 1576SOL     OW21869   2.130   0.550   5.897
 1576SOL    HW121870   2.104   0.587   5.813
 1576SOL    HW221871   2.220   0.580   5.910
 1577SOL     OW21872   6.189   3.168   7.218
 1577SOL    HW121873   6.153   3.232   7.279
 1577SOL    HW221874   6.258   3.215   7.172
 1578SOL     OW21875   0.044   0.360   6.437
 1578SOL    HW121876   0.047   0.441   6.487
 1578SOL    HW221877   6.438   0.301   6.490
 1579SOL     OW21878   5.130   0.544   0.102
 1579SOL    HW121879   5.163   0.493   0.176
 1579SOL    HW221880   5.208   0.579   0.059
 1580SOL     OW21881   3.284   2.838   5.233
 1580SOL    HW121882   3.216   2.904   5.246
 1580SOL    HW221883   3.363   2.877   5.269
 1581SOL     OW21884   4.865   3.787   6.614
 1581SOL    HW121885   4.924   3.718   6.583
 1581SOL    HW221886   4.892   3.801   6.705
 1582SOL     OW21887   4.970   4.155   0.713
 1582SOL    HW121888   4.887   4.149   0.761
 1582SOL    HW221889   5.037   4.139   0.779
 1583SOL     OW21890   0.223   3.793   0.751
 1583SOL    HW121891   0.196   3.760   0.836
 1583SOL    HW221892   0.232   3.887   0.763
 1584SOL     OW21893   3.747   1.503   1.503
 1584SOL    HW121894   3.696   1.423   1.494
 1584SOL    HW221895   3.792   1.511   1.419
 1585SOL     OW21896   6.001   3.793   0.634
 1585SOL    HW121897   5.954   3.773   0.716
 1585SOL    HW221898   5.993   3.888   0.625
 1586SOL     OW21899   0.311   4.061   0.757
 1586SOL    HW121900   0.350   4.095   0.837
 1586SOL    HW221901   0.386   4.034   0.704
 1587SOL     OW21902   5.322   1.968   7.340
 1587SOL    HW121903   5.249   1.925   7.385
 1587SOL    HW221904   5.340   2.046   7.393
 1588SOL     OW21905   5.892   2.314   1.707
 1588SOL    HW121906   5.808   2.346   1.742
 1588SOL    HW221907   5.958   2.365   1.753
 1589SOL     OW21908   1.329   4.600   6.230
 1589SOL    HW121909   1.421   4.626   6.228
 1589SOL    HW221910   1.306   4.588   6.138
 1590SOL     OW21911   5.605   2.345   6.015
 1590SOL    HW121912   5.511   2.359   6.004
 1590SOL    HW221913   5.623   2.265   5.965
 1591SOL     OW21914   3.164   5.168   5.341
 1591SOL    HW121915   3.104   5.154   5.414
 1591SOL    HW221916   3.195   5.080   5.318
 1592SOL     OW21917   1.251   3.107   5.915
 1592SOL    HW121918   1.324   3.168   5.905
 1592SOL    HW221919   1.174   3.163   5.920
 1593SOL     OW21920   1.452   1.394   0.924
 1593SOL    HW121921   1.395   1.376   0.999
 1593SOL    HW221922   1.435   1.324   0.862
 1594SOL     OW21923   2.624   3.949   0.444
 1594SOL    HW121924   2.636   3.857   0.420
 1594SOL    HW221925   2.711   3.979   0.469
 1595SOL     OW21926   1.238   5.581   7.168
 1595SOL    HW121927   1.168   5.583   7.102
 1595SOL    HW221928   1.319   5.581   7.117
 1596SOL     OW21929   2.187   2.400   7.199
 1596SOL    HW121930   2.237   2.456   7.140
 1596SOL    HW221931   2.218   2.423   7.287
 1597SOL     OW21932   0.291   2.570   6.534
 1597SOL    HW121933   0.344   2.528   6.603
 1597SOL    HW221934   0.219   2.510   6.520
 1598SOL     OW21935   0.292   4.134   1.395
 1598SOL    HW121936   0.287   4.045   1.431
 1598SOL    HW221937   0.211   4.176   1.424
 1599SOL     OW21938   4.847   3.747   1.171
 1599SOL    HW121939   4.755   3.772   1.161
 1599SOL    HW221940   4.849   3.655   1.145
 1600SOL     OW21941   2.892   4.225   6.358
 1600SOL    HW121942   2.980   4.222   6.395
 1600SOL    HW221943   2.850   4.300   6.402
 1601SOL     OW21944   0.325   5.541   7.414
 1601SOL    HW121945   0.390   5.599   7.374
 1601SOL    HW221946   0.294   5.486   7.342
 1602SOL     OW21947   5.784   4.331   0.111
 1602SOL    HW121948   5.866   4.304   0.153
 1602SOL    HW221949   5.804   4.329   0.017
 1603SOL     OW21950   2.101   2.100   6.163
 1603SOL    HW121951   2.132   2.190   6.171
 1603SOL    HW221952   2.164   2.058   6.103
 1604SOL     OW21953   6.253   2.974   5.276
 1604SOL    HW121954   6.250   2.916   5.352
 1604SOL    HW221955   6.197   2.931   5.211
 1605SOL     OW21956   3.446   4.847   7.384
 1605SOL    HW121957   3.370   4.856   7.441
 1605SOL    HW221958   3.521   4.854   7.443
 1606SOL     OW21959   1.762   5.019   0.222
 1606SOL    HW121960   1.815   4.947   0.256
 1606SOL    HW221961   1.776   5.017   0.127
 1607SOL     OW21962   3.849   1.211   1.373
 1607SOL    HW121963   3.775   1.216   1.433
 1607SOL    HW221964   3.904   1.140   1.409
 1608SOL     OW21965   0.716   3.504   0.591
 1608SOL    HW121966   0.664   3.508   0.510
 1608SOL    HW221967   0.690   3.583   0.639
 1609SOL     OW21968   2.835   2.548   1.613
 1609SOL    HW121969   2.763   2.539   1.675
 1609SOL    HW221970   2.914   2.544   1.668
 1610SOL     OW21971   1.761   6.421   5.402
 1610SOL    HW121972   1.676   0.002   5.369
 1610SOL    HW221973   1.784   6.346   5.347
 1611SOL     OW21974   0.172   1.339   7.016
 1611SOL    HW121975   0.119   1.407   6.974
 1611SOL    HW221976   0.114   1.264   7.022
 1612SOL     OW21977   0.917   5.232   1.838
 1612SOL    HW121978   0.935   5.320   1.804
 1612SOL    HW221979   0.822   5.228   1.846
 1613SOL     OW21980   3.538   6.044   5.651
 1613SOL    HW121981   3.515   6.125   5.696
 1613SOL    HW221982   3.459   6.019   5.603
 1614SOL     OW21983   1.244   1.846   7.463
 1614SOL    HW121984   1.150   1.829   7.473
 1614SOL    HW221985   1.284   1.760   7.458
 1615SOL     OW21986   2.393   0.100   6.035
 1615SOL    HW121987   2.458   0.104   6.105
 1615SOL    HW221988   2.421   0.027   5.980
 1616SOL     OW21989   2.351   6.151   7.627
 1616SOL    HW121990   2.294   6.157   7.551
 1616SOL    HW221991   2.390   6.238   7.635
 1617SOL     OW21992   5.024   6.282   1.696
 1617SOL    HW121993   4.949   6.266   1.638
 1617SOL    HW221994   5.062   6.364   1.664
 1618SOL     OW21995   3.862   3.611   1.315
 1618SOL    HW121996   3.772   3.586   1.292
 1618SOL    HW221997   3.857   3.639   1.406
 1619SOL     OW21998   5.507   3.971   6.224
 1619SOL    HW121999   5.542   4.046   6.175
 1619SOL    HW222000   5.439   3.935   6.167
 1620SOL     OW22001   2.259   5.690   0.762
 1620SOL    HW122002   2.300   5.701   0.848
 1620SOL    HW222003   2.295   5.607   0.729
 1621SOL     OW22004   2.150   2.312   0.573
 1621SOL    HW122005   2.153   2.230   0.622
 1621SOL    HW222006   2.058   2.324   0.551
 1622SOL     OW22007   1.110   5.485   1.984
 1622SOL    HW122008   1.028   5.463   2.027
 1622SOL    HW222009   1.178   5.447   2.040
 1623SOL     OW22010   5.165   1.463   1.044
 1623SOL    HW122011   5.132   1.526   1.107
 1623SOL    HW222012   5.087   1.422   1.007
 1624SOL     OW22013   5.562   3.404   0.540
 1624SOL    HW122014   5.636   3.381   0.596
 1624SOL    HW222015   5.553   3.499   0.550
 1625SOL     OW22016   2.573   1.813   1.667
 1625SOL    HW122017   2.514   1.887   1.651
 1625SOL    HW222018   2.534   1.741   1.617
 1626SOL     OW22019   1.483   1.615   1.636
 1626SOL    HW122020   1.396   1.656   1.641
 1626SOL    HW222021   1.524   1.636   1.720
 1627SOL     OW22022   2.874   2.269   5.878
 1627SOL    HW122023   2.965   2.291   5.859
 1627SOL    HW222024   2.869   2.174   5.865
 1628SOL     OW22025   3.203   0.556   7.738
 1628SOL    HW122026   3.257   0.481   7.764
 1628SOL    HW222027   3.119   0.517   7.713
 1629SOL     OW22028   1.157   4.053   7.229
 1629SOL    HW122029   1.231   4.095   7.185
 1629SOL    HW222030   1.166   4.078   7.320
 1630SOL     OW22031   2.266   2.944   0.027
 1630SOL    HW122032   2.264   2.956   0.122
 1630SOL    HW222033   2.351   2.905   0.009
 1631SOL     OW22034   5.038   3.309   0.945
 1631SOL    HW122035   5.115   3.366   0.952
 1631SOL    HW222036   5.058   3.251   0.871
 1632SOL     OW22037   5.027   5.289   7.179
 1632SOL    HW122038   4.943   5.335   7.171
 1632SOL    HW222039   5.028   5.228   7.106
 1633SOL     OW22040   4.217   4.217   0.811
 1633SOL    HW122041   4.224   4.277   0.737
 1633SOL    HW222042   4.254   4.135   0.779
 1634SOL     OW22043   2.683   3.675   6.123
 1634SOL    HW122044   2.642   3.589   6.125
 1634SOL    HW222045   2.699   3.696   6.215
 1635SOL     OW22046   3.657   2.272   1.091
 1635SOL    HW122047   3.752   2.259   1.093
 1635SOL    HW222048   3.636   2.310   1.177
 1636SOL     OW22049   5.396   6.244   0.576
 1636SOL    HW122050   5.314   6.198   0.558
 1636SOL    HW222051   5.443   6.188   0.638
 1637SOL     OW22052   0.027   1.263   1.695
 1637SOL    HW122053   0.070   1.320   1.759
 1637SOL    HW222054   0.015   1.180   1.741
 1638SOL     OW22055   1.366   1.451   6.267
 1638SOL    HW122056   1.292   1.400   6.299
 1638SOL    HW222057   1.379   1.421   6.177
 1639SOL     OW22058   4.411   1.279   6.536
 1639SOL    HW122059   4.474   1.350   6.525
 1639SOL    HW222060   4.439   1.212   6.473
 1640SOL     OW22061   0.497   5.118   0.349
 1640SOL    HW122062   0.434   5.068   0.400
 1640SOL    HW222063   0.580   5.070   0.359
 1641SOL     OW22064   4.277   2.904   5.762
 1641SOL    HW122065   4.216   2.850   5.813
 1641SOL    HW222066   4.244   2.993   5.771
 1642SOL     OW22067   2.049   6.412   5.363
 1642SOL    HW122068   2.050   6.335   5.419
 1642SOL    HW222069   1.957   6.438   5.358
 1643SOL     OW22070   6.414   6.040   6.543
 1643SOL    HW122071   6.418   5.945   6.530
 1643SOL    HW222072   6.445   6.076   6.460
 1644SOL     OW22073   4.667   4.615   6.648
 1644SOL    HW122074   4.657   4.520   6.639
 1644SOL    HW222075   4.753   4.626   6.689
 1645SOL     OW22076   4.514   6.366   2.039
 1645SOL    HW122077   4.588   6.330   2.088
 1645SOL    HW222078   4.465   6.417   2.104
 1646SOL     OW22079   2.089   3.333   6.904
 1646SOL    HW122080   2.055   3.357   6.990
 1646SOL    HW222081   2.184   3.343   6.912
 1647SOL     OW22082   2.631   4.999   6.417
 1647SOL    HW122083   2.617   5.058   6.344
 1647SOL    HW222084   2.706   4.946   6.391
 1648SOL     OW22085   5.431   3.929   6.485
 1648SOL    HW122086   5.459   3.943   6.394
 1648SOL    HW222087   5.376   4.005   6.505
 1649SOL     OW22088   0.478   4.397   0.390
 1649SOL    HW122089   0.563   4.356   0.375
 1649SOL    HW222090   0.479   4.421   0.483
 1650SOL     OW22091   6.429   5.041   7.769
 1650SOL    HW122092   0.070   5.008   7.755
 1650SOL    HW222093   6.378   4.962   7.790
 1651SOL     OW22094   4.750   1.342   1.610
 1651SOL    HW122095   4.720   1.368   1.697
 1651SOL    HW222096   4.680   1.286   1.576
 1652SOL     OW22097   2.020   0.553   1.975
 1652SOL    HW122098   2.094   0.608   1.999
 1652SOL    HW222099   2.055   0.495   1.907
 1653SOL     OW22100   4.206   1.676   5.594
 1653SOL    HW122101   4.181   1.738   5.525
 1653SOL    HW222102   4.299   1.695   5.610
 1654SOL     OW22103   5.253   4.673   0.213
 1654SOL    HW122104   5.326   4.640   0.161
 1654SOL    HW222105   5.293   4.709   0.291
 1655SOL     OW22106   5.977   5.860   1.802
 1655SOL    HW122107   5.998   5.795   1.870
 1655SOL    HW222108   5.897   5.903   1.834
 1656SOL     OW22109   3.718   5.389   5.327
 1656SOL    HW122110   3.658   5.361   5.259
 1656SOL    HW222111   3.774   5.313   5.343
 1657SOL     OW22112   1.137   4.518   6.714
 1657SOL    HW122113   1.096   4.554   6.636
 1657SOL    HW222114   1.224   4.556   6.716
 1658SOL     OW22115   6.428   2.048   5.590
 1658SOL    HW122116   0.007   1.969   5.542
 1658SOL    HW222117   0.041   2.052   5.664
 1659SOL     OW22118   2.621   5.717   1.155
 1659SOL    HW122119   2.681   5.783   1.121
 1659SOL    HW222120   2.669   5.635   1.149
 1660SOL     OW22121   0.457   1.763   1.078
 1660SOL    HW122122   0.499   1.849   1.081
 1660SOL    HW222123   0.463   1.730   1.167
 1661SOL     OW22124   3.883   1.094   7.390
 1661SOL    HW122125   3.950   1.033   7.421
 1661SOL    HW222126   3.863   1.064   7.301
 1662SOL     OW22127   6.113   0.206   7.437
 1662SOL    HW122128   6.107   0.202   7.532
 1662SOL    HW222129   6.182   0.142   7.415
 1663SOL     OW22130   2.074   3.526   2.077
 1663SOL    HW122131   2.023   3.492   2.150
 1663SOL    HW222132   2.012   3.580   2.027
 1664SOL     OW22133   1.196   1.027   7.115
 1664SOL    HW122134   1.191   1.012   7.021
 1664SOL    HW222135   1.266   1.092   7.126
 1665SOL     OW22136   0.512   5.129   6.918
 1665SOL    HW122137   0.486   5.177   6.996
 1665SOL    HW222138   0.523   5.197   6.851
 1666SOL     OW22139   4.963   3.608   6.176
 1666SOL    HW122140   4.920   3.572   6.254
 1666SOL    HW222141   4.965   3.535   6.114
 1667SOL     OW22142   2.736   1.362   6.716
 1667SOL    HW122143   2.657   1.405   6.684
 1667SOL    HW222144   2.798   1.369   6.644
 1668SOL     OW22145   2.680   0.771   1.357
 1668SOL    HW122146   2.749   0.736   1.301
 1668SOL    HW222147   2.726   0.820   1.425
 1669SOL     OW22148   6.157   2.622   1.602
 1669SOL    HW122149   6.183   2.539   1.562
 1669SOL    HW222150   6.228   2.683   1.579
 1670SOL     OW22151   1.488   2.522   6.868
 1670SOL    HW122152   1.569   2.572   6.877
 1670SOL    HW222153   1.487   2.462   6.942
 1671SOL     OW22154   0.054   1.124   7.776
 1671SOL    HW122155   0.074   1.071   7.699
 1671SOL    HW222156   6.438   1.188   7.744
 1672SOL     OW22157   5.984   1.155   7.462
 1672SOL    HW122158   6.032   1.178   7.542
 1672SOL    HW222159   5.982   1.237   7.412
 1673SOL     OW22160   5.409   1.202   7.063
 1673SOL    HW122161   5.360   1.220   6.982
 1673SOL    HW222162   5.472   1.275   7.068
 1674SOL     OW22163   2.510   1.277   7.413
 1674SOL    HW122164   2.604   1.264   7.424
 1674SOL    HW222165   2.492   1.360   7.456
 1675SOL     OW22166   5.833   5.301   0.880
 1675SOL    HW122167   5.873   5.357   0.947
 1675SOL    HW222168   5.809   5.362   0.810
 1676SOL     OW22169   2.842   3.133   6.369
 1676SOL    HW122170   2.807   3.053   6.330
 1676SOL    HW222171   2.770   3.195   6.366
 1677SOL     OW22172   0.284   2.969   1.167
 1677SOL    HW122173   0.324   2.884   1.183
 1677SOL    HW222174   0.325   3.000   1.087
 1678SOL     OW22175   6.264   4.507   6.161
 1678SOL    HW122176   6.323   4.435   6.185
 1678SOL    HW222177   6.321   4.573   6.121
 1679SOL     OW22178   2.357   6.446   6.969
 1679SOL    HW122179   2.282   0.007   6.910
 1679SOL    HW222180   2.333   0.047   7.047
 1680SOL     OW22181   5.885   3.284   1.045
 1680SOL    HW122182   5.956   3.315   1.101
 1680SOL    HW222183   5.909   3.314   0.957
 1681SOL     OW22184   4.231   1.289   7.447
 1681SOL    HW122185   4.200   1.235   7.374
 1681SOL    HW222186   4.210   1.237   7.525
 1682SOL     OW22187   4.922   4.218   7.176
 1682SOL    HW122188   4.890   4.172   7.254
 1682SOL    HW222189   5.015   4.234   7.194
 1683SOL     OW22190   1.350   5.486   1.367
 1683SOL    HW122191   1.274   5.539   1.342
 1683SOL    HW222192   1.420   5.549   1.382
 1684SOL     OW22193   2.314   2.985   6.798
 1684SOL    HW122194   2.221   2.968   6.804
 1684SOL    HW222195   2.349   2.962   6.885
 1685SOL     OW22196   1.236   5.892   6.891
 1685SOL    HW122197   1.142   5.891   6.875
 1685SOL    HW222198   1.270   5.816   6.844
 1686SOL     OW22199   5.226   5.209   0.700
 1686SOL    HW122200   5.238   5.303   0.708
 1686SOL    HW222201   5.190   5.182   0.785
 1687SOL     OW22202   2.962   1.953   0.698
 1687SOL    HW122203   2.978   2.043   0.725
 1687SOL    HW222204   3.049   1.913   0.695
 1688SOL     OW22205   5.984   1.957   0.076
 1688SOL    HW122206   6.048   1.916   0.018
 1688SOL    HW222207   5.964   2.041   0.034
 1689SOL     OW22208   4.435   5.491   1.890
 1689SOL    HW122209   4.344   5.517   1.879
 1689SOL    HW222210   4.450   5.423   1.824
 1690SOL     OW22211   2.011   3.666   0.532
 1690SOL    HW122212   2.046   3.579   0.516
 1690SOL    HW222213   2.079   3.725   0.499
 1691SOL     OW22214   5.413   0.123   7.660
 1691SOL    HW122215   5.349   0.126   7.732
 1691SOL    HW222216   5.409   0.211   7.621
 1692SOL     OW22217   1.629   4.247   0.190
 1692SOL    HW122218   1.636   4.204   0.105
 1692SOL    HW222219   1.623   4.175   0.253
 1693SOL     OW22220   5.347   3.066   0.227
 1693SOL    HW122221   5.414   3.122   0.266
 1693SOL    HW222222   5.363   2.979   0.264
 1694SOL     OW22223   0.641   2.064   7.791
 1694SOL    HW122224   0.559   2.060   0.036
 1694SOL    HW222225   0.623   2.121   7.716
 1695SOL     OW22226   1.619   0.913   1.021
 1695SOL    HW122227   1.642   0.896   0.930
 1695SOL    HW222228   1.660   0.997   1.041
 1696SOL     OW22229   4.520   6.417   0.821
 1696SOL    HW122230   4.573   6.377   0.890
 1696SOL    HW222231   4.449   6.354   0.806
 1697SOL     OW22232   0.077   0.163   1.924
 1697SOL    HW122233   0.133   0.241   1.914
 1697SOL    HW222234   0.132   0.091   1.894
 1698SOL     OW22235   1.670   5.363   6.646
 1698SOL    HW122236   1.584   5.323   6.656
 1698SOL    HW222237   1.732   5.292   6.660
 1699SOL     OW22238   3.221   1.269   6.192
 1699SOL    HW122239   3.243   1.308   6.107
 1699SOL    HW222240   3.304   1.265   6.239
 1700SOL     OW22241   5.465   4.214   7.573
 1700SOL    HW122242   5.531   4.155   7.609
 1700SOL    HW222243   5.491   4.227   7.482
 1701SOL     OW22244   6.257   6.332   6.840
 1701SOL    HW122245   6.348   6.318   6.814
 1701SOL    HW222246   6.206   6.306   6.763
 1702SOL     OW22247   0.118   3.966   6.273
 1702SOL    HW122248   0.128   3.885   6.222
 1702SOL    HW222249   0.143   4.036   6.213
 1703SOL     OW22250   2.361   0.008   0.851
 1703SOL    HW122251   2.323   6.369   0.863
 1703SOL    HW222252   2.301   0.052   0.790
 1704SOL     OW22253   3.462   1.272   6.324
 1704SOL    HW122254   3.517   1.193   6.327
 1704SOL    HW222255   3.525   1.344   6.329
 1705SOL     OW22256   3.475   0.674   5.845
 1705SOL    HW122257   3.484   0.656   5.751
 1705SOL    HW222258   3.566   0.677   5.877
 1706SOL     OW22259   2.234   1.532   0.216
 1706SOL    HW122260   2.262   1.594   0.283
 1706SOL    HW222261   2.178   1.584   0.157
 1707SOL     OW22262   4.041   3.567   0.123
 1707SOL    HW122263   3.989   3.531   0.051
 1707SOL    HW222264   4.070   3.653   0.090
 1708SOL     OW22265   2.077   2.375   1.369
 1708SOL    HW122266   2.013   2.428   1.416
 1708SOL    HW222267   2.118   2.321   1.436
 1709SOL     OW22268   5.405   5.495   5.824
 1709SOL    HW122269   5.433   5.530   5.740
 1709SOL    HW222270   5.337   5.556   5.854
 1710SOL     OW22271   0.990   1.900   7.266
 1710SOL    HW122272   1.035   1.985   7.271
 1710SOL    HW222273   0.964   1.893   7.174
 1711SOL     OW22274   1.794   3.953   0.127
 1711SOL    HW122275   1.765   3.863   0.115
 1711SOL    HW222276   1.768   3.998   0.047
 1712SOL     OW22277   3.478   0.074   0.923
 1712SOL    HW122278   3.494   0.154   0.874
 1712SOL    HW222279   3.441   0.013   0.858
 1713SOL     OW22280   2.819   5.894   1.056
 1713SOL    HW122281   2.762   5.956   1.011
 1713SOL    HW222282   2.902   5.897   1.008
 1714SOL     OW22283   5.462   2.126   1.019
 1714SOL    HW122284   5.523   2.065   1.061
 1714SOL    HW222285   5.414   2.165   1.092
 1715SOL     OW22286   3.933   2.124   7.089
 1715SOL    HW122287   3.971   2.052   7.139
 1715SOL    HW222288   3.929   2.197   7.152
 1716SOL     OW22289   0.874   5.807   7.096
 1716SOL    HW122290   0.884   5.886   7.151
 1716SOL    HW222291   0.796   5.764   7.131
 1717SOL     OW22292   5.468   2.990   0.519
 1717SOL    HW122293   5.522   2.994   0.440
 1717SOL    HW222294   5.519   2.938   0.581
 1718SOL     OW22295   2.185   3.226   0.293
 1718SOL    HW122296   2.276   3.250   0.276
 1718SOL    HW222297   2.187   3.130   0.300
 1719SOL     OW22298   4.538   1.915   1.535
 1719SOL    HW122299   4.528   1.916   1.630
 1719SOL    HW222300   4.449   1.918   1.501
 1720SOL     OW22301   6.387   3.538   6.178
 1720SOL    HW122302   6.338   3.595   6.119
 1720SOL    HW222303   6.321   3.482   6.218
 1721SOL     OW22304   4.951   1.169   1.691
 1721SOL    HW122305   4.890   1.239   1.667
 1721SOL    HW222306   4.942   1.105   1.621
 1722SOL     OW22307   1.020   1.380   0.560
 1722SOL    HW122308   1.056   1.372   0.472
 1722SOL    HW222309   1.088   1.426   0.610
 1723SOL     OW22310   5.435   4.576   1.677
 1723SOL    HW122311   5.466   4.642   1.614
 1723SOL    HW222312   5.396   4.628   1.747
 1724SOL     OW22313   3.891   3.263   0.244
 1724SOL    HW122314   3.857   3.329   0.304
 1724SOL    HW222315   3.986   3.262   0.261
 1725SOL     OW22316   0.181   1.041   7.295
 1725SOL    HW122317   0.216   1.005   7.214
 1725SOL    HW222318   0.094   1.001   7.304
 1726SOL     OW22319   1.950   6.151   6.582
 1726SOL    HW122320   1.908   6.197   6.509
 1726SOL    HW222321   1.892   6.167   6.656
 1727SOL     OW22322   3.654   3.202   5.963
 1727SOL    HW122323   3.649   3.227   5.870
 1727SOL    HW222324   3.632   3.109   5.964
 1728SOL     OW22325   5.659   5.589   1.080
 1728SOL    HW122326   5.600   5.529   1.034
 1728SOL    HW222327   5.604   5.666   1.100
 1729SOL     OW22328   5.634   3.331   1.667
 1729SOL    HW122329   5.618   3.405   1.725
 1729SOL    HW222330   5.660   3.260   1.726
 1730SOL     OW22331   6.003   5.346   7.651
 1730SOL    HW122332   6.083   5.303   7.683
 1730SOL    HW222333   5.948   5.354   7.728
 1731SOL     OW22334   1.148   3.044   6.403
 1731SOL    HW122335   1.111   2.978   6.345
 1731SOL    HW222336   1.210   2.996   6.458
 1732SOL     OW22337   3.688   2.898   1.452
 1732SOL    HW122338   3.695   2.993   1.451
 1732SOL    HW222339   3.778   2.867   1.464
 1733SOL     OW22340   0.647   0.143   6.633
 1733SOL    HW122341   0.665   0.236   6.618
 1733SOL    HW222342   0.733   0.102   6.633
 1734SOL     OW22343   3.333   0.695   7.248
 1734SOL    HW122344   3.423   0.718   7.272
 1734SOL    HW222345   3.279   0.737   7.316
 1735SOL     OW22346   1.733   4.206   7.342
 1735SOL    HW122347   1.693   4.242   7.421
 1735SOL    HW222348   1.760   4.283   7.292
 1736SOL     OW22349   1.627   5.748   7.668
 1736SOL    HW122350   1.713   5.776   7.699
 1736SOL    HW222351   1.576   5.829   7.664
 1737SOL     OW22352   3.698   5.414   6.786
 1737SOL    HW122353   3.650   5.356   6.726
 1737SOL    HW222354   3.761   5.458   6.730
 1738SOL     OW22355   1.888   5.254   1.407
 1738SOL    HW122356   1.851   5.341   1.395
 1738SOL    HW222357   1.847   5.221   1.487
 1739SOL     OW22358   5.290   3.682   6.470
 1739SOL    HW122359   5.354   3.612   6.459
 1739SOL    HW222360   5.342   3.761   6.483
 1740SOL     OW22361   2.450   2.900   5.881
 1740SOL    HW122362   2.538   2.919   5.847
 1740SOL    HW222363   2.419   2.984   5.913
 1741SOL     OW22364   5.765   1.072   7.610
 1741SOL    HW122365   5.689   1.124   7.585
 1741SOL    HW222366   5.831   1.092   7.543
 1742SOL     OW22367   0.113   2.921   0.307
 1742SOL    HW122368   0.071   2.841   0.338
 1742SOL    HW222369   0.097   2.985   0.376
 1743SOL     OW22370   0.020   4.454   0.832
 1743SOL    HW122371   0.027   4.516   0.760
 1743SOL    HW222372   6.379   4.419   0.824
 1744SOL     OW22373   6.183   3.553   1.898
 1744SOL    HW122374   6.269   3.552   1.855
 1744SOL    HW222375   6.158   3.461   1.903
 1745SOL     OW22376   1.614   4.620   6.321
 1745SOL    HW122377   1.629   4.668   6.402
 1745SOL    HW222378   1.601   4.529   6.348
 1746SOL     OW22379   4.837   0.883   5.792
 1746SOL    HW122380   4.888   0.807   5.820
 1746SOL    HW222381   4.903   0.951   5.776
 1747SOL     OW22382   4.706   5.837   2.173
 1747SOL    HW122383   4.629   5.867   2.125
 1747SOL    HW222384   4.767   5.911   2.171
 1748SOL     OW22385   4.097   3.820   0.354
 1748SOL    HW122386   4.186   3.822   0.321
 1748SOL    HW222387   4.096   3.882   0.427
 1749SOL     OW22388   2.030   5.781   1.830
 1749SOL    HW122389   1.973   5.710   1.804
 1749SOL    HW222390   2.085   5.744   1.899
 1750SOL     OW22391   4.479   5.483   1.514
 1750SOL    HW122392   4.550   5.537   1.549
 1750SOL    HW222393   4.403   5.541   1.513
 1751SOL     OW22394   5.998   2.318   7.565
 1751SOL    HW122395   6.037   2.235   7.539
 1751SOL    HW222396   5.960   2.300   7.651
 1752SOL     OW22397   5.054   5.573   6.344
 1752SOL    HW122398   5.137   5.576   6.297
 1752SOL    HW222399   5.001   5.509   6.297
 1753SOL     OW22400   2.396   4.432   6.736
 1753SOL    HW122401   2.407   4.368   6.667
 1753SOL    HW222402   2.367   4.511   6.691
 1754SOL     OW22403   2.190   3.611   7.034
 1754SOL    HW122404   2.256   3.550   7.003
 1754SOL    HW222405   2.124   3.557   7.076
 1755SOL     OW22406   4.879   0.112   2.356
 1755SOL    HW122407   4.942   0.146   2.292
 1755SOL    HW222408   4.883   0.174   2.428
 1756SOL     OW22409   4.378   0.159   6.302
 1756SOL    HW122410   4.397   0.137   6.393
 1756SOL    HW222411   4.456   0.130   6.254
 1757SOL     OW22412   3.767   2.754   0.569
 1757SOL    HW122413   3.795   2.732   0.481
 1757SOL    HW222414   3.747   2.848   0.565
 1758SOL     OW22415   3.584   0.879   7.040
 1758SOL    HW122416   3.491   0.882   7.017
 1758SOL    HW222417   3.586   0.846   7.130
 1759SOL     OW22418   3.750   3.921   1.123
 1759SOL    HW122419   3.794   4.001   1.149
 1759SOL    HW222420   3.807   3.850   1.153
 1760SOL     OW22421   2.737   2.226   1.066
 1760SOL    HW122422   2.665   2.229   1.129
 1760SOL    HW222423   2.750   2.317   1.040
 1761SOL     OW22424   3.311   3.469   7.388
 1761SOL    HW122425   3.229   3.479   7.437
 1761SOL    HW222426   3.295   3.516   7.306
 1762SOL     OW22427   0.428   3.026   0.928
 1762SOL    HW122428   0.377   3.074   0.863
 1762SOL    HW222429   0.508   3.077   0.940
 1763SOL     OW22430   5.863   3.233   7.231
 1763SOL    HW122431   5.865   3.156   7.288
 1763SOL    HW222432   5.924   3.295   7.272
 1764SOL     OW22433   0.989   2.771   6.509
 1764SOL    HW122434   0.998   2.797   6.417
 1764SOL    HW222435   0.920   2.826   6.544
 1765SOL     OW22436   6.316   1.300   6.312
 1765SOL    HW122437   6.374   1.345   6.373
 1765SOL    HW222438   6.370   1.228   6.278
 1766SOL     OW22439   5.706   2.794   6.536
 1766SOL    HW122440   5.731   2.705   6.510
 1766SOL    HW222441   5.787   2.833   6.568
 1767SOL     OW22442   5.460   2.459   1.554
 1767SOL    HW122443   5.495   2.411   1.479
 1767SOL    HW222444   5.510   2.426   1.629
 1768SOL     OW22445   2.985   1.028   7.533
 1768SOL    HW122446   3.003   1.107   7.483
 1768SOL    HW222447   3.015   1.047   7.621
 1769SOL     OW22448   5.814   2.156   0.454
 1769SOL    HW122449   5.897   2.156   0.501
 1769SOL    HW222450   5.748   2.163   0.524
 1770SOL     OW22451   6.110   3.349   5.885
 1770SOL    HW122452   6.036   3.310   5.837
 1770SOL    HW222453   6.153   3.405   5.820
 1771SOL     OW22454   5.834   0.590   1.425
 1771SOL    HW122455   5.808   0.595   1.517
 1771SOL    HW222456   5.751   0.589   1.377
 1772SOL     OW22457   4.944   1.688   7.389
 1772SOL    HW122458   4.936   1.650   7.301
 1772SOL    HW222459   4.940   1.612   7.448
 1773SOL     OW22460   5.004   6.045   6.255
 1773SOL    HW122461   5.038   5.955   6.256
 1773SOL    HW222462   4.993   6.067   6.348
 1774SOL     OW22463   0.315   0.638   7.615
 1774SOL    HW122464   0.310   0.549   7.578
 1774SOL    HW222465   0.407   0.647   7.641
 1775SOL     OW22466   2.338   3.530   6.370
 1775SOL    HW122467   2.310   3.485   6.450
 1775SOL    HW222468   2.411   3.585   6.398
 1776SOL     OW22469   3.241   2.910   6.325
 1776SOL    HW122470   3.218   2.931   6.235
 1776SOL    HW222471   3.192   2.972   6.378
 1777SOL     OW22472   0.745   5.504   7.038
 1777SOL    HW122473   0.730   5.449   7.115
 1777SOL    HW222474   0.841   5.511   7.032
 1778SOL     OW22475   6.233   2.765   7.772
 1778SOL    HW122476   6.212   2.703   0.040
 1778SOL    HW222477   6.164   2.752   7.707
 1779SOL     OW22478   2.574   2.530   7.476
 1779SOL    HW122479   2.636   2.473   7.521
 1779SOL    HW222480   2.592   2.617   7.512
 1780SOL     OW22481   3.723   4.282   6.912
 1780SOL    HW122482   3.662   4.314   6.846
 1780SOL    HW222483   3.703   4.334   6.990
 1781SOL     OW22484   2.354   0.230   1.517
 1781SOL    HW122485   2.352   0.269   1.605
 1781SOL    HW222486   2.279   0.268   1.472
 1782SOL     OW22487   1.614   1.372   0.138
 1782SOL    HW122488   1.580   1.454   0.102
 1782SOL    HW222489   1.699   1.395   0.176
 1783SOL     OW22490   1.367   0.376   7.432
 1783SOL    HW122491   1.450   0.416   7.405
 1783SOL    HW222492   1.344   0.318   7.359
 1784SOL     OW22493   0.624   1.963   6.906
 1784SOL    HW122494   0.648   1.970   6.814
 1784SOL    HW222495   0.660   1.879   6.934
 1785SOL     OW22496   0.308   4.964   0.471
 1785SOL    HW122497   0.249   5.014   0.527
 1785SOL    HW222498   0.332   4.887   0.523
 1786SOL     OW22499   2.574   2.608   0.140
 1786SOL    HW122500   2.542   2.620   0.230
 1786SOL    HW222501   2.512   2.546   0.101
 1787SOL     OW22502   3.253   5.853   7.566
 1787SOL    HW122503   3.243   5.760   7.586
 1787SOL    HW222504   3.209   5.865   7.482
 1788SOL     OW22505   4.455   1.578   0.509
 1788SOL    HW122506   4.475   1.629   0.430
 1788SOL    HW222507   4.417   1.641   0.569
 1789SOL     OW22508   2.315   6.367   5.373
 1789SOL    HW122509   2.308   6.297   5.438
 1789SOL    HW222510   2.225   6.391   5.353
 1790SOL     OW22511   0.848   3.894   0.037
 1790SOL    HW122512   0.886   3.981   0.048
 1790SOL    HW222513   0.763   3.911   7.798
 1791SOL     OW22514   2.942   5.619   6.770
 1791SOL    HW122515   2.866   5.666   6.734
 1791SOL    HW222516   2.914   5.528   6.774
 1792SOL     OW22517   5.516   5.800   0.825
 1792SOL    HW122518   5.430   5.756   0.826
 1792SOL    HW222519   5.569   5.746   0.766
 1793SOL     OW22520   6.399   6.043   7.607
 1793SOL    HW122521   6.368   6.106   7.543
 1793SOL    HW222522   6.368   6.077   7.692
 1794SOL     OW22523   6.007   6.269   7.716
 1794SOL    HW122524   6.092   6.236   7.745
 1794SOL    HW222525   6.004   6.252   7.622
 1795SOL     OW22526   4.567   6.274   6.613
 1795SOL    HW122527   4.652   6.294   6.652
 1795SOL    HW222528   4.555   6.341   6.545
 1796SOL     OW22529   5.039   0.298   0.002
 1796SOL    HW122530   5.058   0.383   0.041
 1796SOL    HW222531   4.950   0.277   0.032
 1797SOL     OW22532   2.377   5.287   5.507
 1797SOL    HW122533   2.409   5.365   5.462
 1797SOL    HW222534   2.449   5.262   5.565
 1798SOL     OW22535   1.800   5.273   5.489
 1798SOL    HW122536   1.867   5.205   5.489
 1798SOL    HW222537   1.844   5.350   5.453
 1799SOL     OW22538   4.919   2.775   7.452
 1799SOL    HW122539   4.830   2.757   7.422
 1799SOL    HW222540   4.924   2.734   7.538
 1800SOL     OW22541   5.754   0.718   6.843
 1800SOL    HW122542   5.750   0.624   6.826
 1800SOL    HW222543   5.738   0.727   6.937
 1801SOL     OW22544   1.423   4.921   0.995
 1801SOL    HW122545   1.502   4.908   0.942
 1801SOL    HW222546   1.454   4.917   1.085
 1802SOL     OW22547   0.386   3.137   7.731
 1802SOL    HW122548   0.334   3.133   7.650
 1802SOL    HW222549   0.322   3.157   7.800
 1803SOL     OW22550   5.393   3.400   6.852
 1803SOL    HW122551   5.484   3.428   6.851
 1803SOL    HW222552   5.348   3.466   6.905
 1804SOL     OW22553   6.425   2.050   1.788
 1804SOL    HW122554   6.357   2.111   1.817
 1804SOL    HW222555   6.444   1.997   1.866
 1805SOL     OW22556   2.304   5.885   0.289
 1805SOL    HW122557   2.298   5.791   0.272
 1805SOL    HW222558   2.341   5.921   0.209
 1806SOL     OW22559   0.416   1.412   6.705
 1806SOL    HW122560   0.401   1.394   6.612
 1806SOL    HW222561   0.351   1.358   6.751
 1807SOL     OW22562   2.867   4.056   0.534
 1807SOL    HW122563   2.955   4.070   0.569
 1807SOL    HW222564   2.859   4.119   0.461
 1808SOL     OW22565   2.290   3.410   6.607
 1808SOL    HW122566   2.358   3.449   6.661
 1808SOL    HW222567   2.312   3.317   6.603
 1809SOL     OW22568   2.031   3.588   7.583
 1809SOL    HW122569   2.122   3.563   7.570
 1809SOL    HW222570   2.008   3.553   7.668
 1810SOL     OW22571   5.463   2.688   6.074
 1810SOL    HW122572   5.552   2.687   6.038
 1810SOL    HW222573   5.436   2.780   6.068
 1811SOL     OW22574   0.674   3.195   1.231
 1811SOL    HW122575   0.722   3.112   1.226
 1811SOL    HW222576   0.618   3.185   1.308
 1812SOL     OW22577   1.594   2.403   1.750
 1812SOL    HW122578   1.639   2.370   1.828
 1812SOL    HW222579   1.583   2.326   1.694
 1813SOL     OW22580   2.136   1.196   1.828
 1813SOL    HW122581   2.193   1.240   1.891
 1813SOL    HW222582   2.053   1.242   1.833
 1814SOL     OW22583   2.818   2.789   1.054
 1814SOL    HW122584   2.847   2.704   1.088
 1814SOL    HW222585   2.726   2.794   1.077
 1815SOL     OW22586   2.327   6.133   1.655
 1815SOL    HW122587   2.419   6.126   1.628
 1815SOL    HW222588   2.292   6.044   1.645
 1816SOL     OW22589   5.739   2.712   0.373
 1816SOL    HW122590   5.747   2.678   0.462
 1816SOL    HW222591   5.698   2.640   0.324
 1817SOL     OW22592   2.049   4.265   1.131
 1817SOL    HW122593   1.989   4.324   1.086
 1817SOL    HW222594   2.072   4.199   1.065
 1818SOL     OW22595   2.915   3.557   6.482
 1818SOL    HW122596   2.867   3.614   6.423
 1818SOL    HW222597   2.878   3.576   6.569
 1819SOL     OW22598   5.073   1.954   0.323
 1819SOL    HW122599   5.056   1.987   0.235
 1819SOL    HW222600   5.059   1.860   0.317
 1820SOL     OW22601   2.716   5.779   0.215
 1820SOL    HW122602   2.676   5.768   0.301
 1820SOL    HW222603   2.810   5.771   0.232
 1821SOL     OW22604   5.961   1.398   7.333
 1821SOL    HW122605   5.983   1.478   7.382
 1821SOL    HW222606   5.865   1.396   7.334
 1822SOL     OW22607   3.448   2.123   6.648
 1822SOL    HW122608   3.495   2.055   6.697
 1822SOL    HW222609   3.429   2.081   6.564
 1823SOL     OW22610   4.266   5.720   6.720
 1823SOL    HW122611   4.311   5.752   6.642
 1823SOL    HW222612   4.325   5.655   6.757
 1824SOL     OW22613   2.459   4.254   6.533
 1824SOL    HW122614   2.529   4.191   6.521
 1824SOL    HW222615   2.456   4.303   6.450
 1825SOL     OW22616   2.811   5.455   1.959
 1825SOL    HW122617   2.746   5.515   1.922
 1825SOL    HW222618   2.795   5.458   2.054
 1826SOL     OW22619   3.669   4.394   5.575
 1826SOL    HW122620   3.764   4.388   5.561
 1826SOL    HW222621   3.658   4.385   5.670
 1827SOL     OW22622   4.285   2.271   6.164
 1827SOL    HW122623   4.334   2.203   6.117
 1827SOL    HW222624   4.315   2.353   6.125
 1828SOL     OW22625   3.112   5.325   1.424
 1828SOL    HW122626   3.189   5.314   1.480
 1828SOL    HW222627   3.049   5.261   1.457
 1829SOL     OW22628   3.296   5.053   1.772
 1829SOL    HW122629   3.285   5.076   1.864
 1829SOL    HW222630   3.235   4.980   1.758
 1830SOL     OW22631   2.306   6.052   2.264
 1830SOL    HW122632   2.256   5.971   2.251
 1830SOL    HW222633   2.245   6.121   2.242
 1831SOL     OW22634   1.859   3.761   6.064
 1831SOL    HW122635   1.812   3.789   5.986
 1831SOL    HW222636   1.951   3.779   6.045
 1832SOL     OW22637   4.443   5.536   6.814
 1832SOL    HW122638   4.432   5.454   6.862
 1832SOL    HW222639   4.537   5.551   6.812
 1833SOL     OW22640   0.955   3.838   6.333
 1833SOL    HW122641   0.928   3.757   6.291
 1833SOL    HW222642   1.048   3.823   6.355
 1834SOL     OW22643   0.393   1.955   1.621
 1834SOL    HW122644   0.347   1.872   1.630
 1834SOL    HW222645   0.378   2.001   1.704
 1835SOL     OW22646   4.467   3.366   0.180
 1835SOL    HW122647   4.552   3.405   0.162
 1835SOL    HW222648   4.486   3.291   0.236
 1836SOL     OW22649   1.497   2.939   6.952
 1836SOL    HW122650   1.439   2.869   6.982
 1836SOL    HW222651   1.518   2.915   6.861
 1837SOL     OW22652   0.171   1.010   0.189
 1837SOL    HW122653   0.124   1.050   0.116
 1837SOL    HW222654   0.224   1.081   0.225
 1838SOL     OW22655   0.872   4.427   5.757
 1838SOL    HW122656   0.784   4.388   5.765
 1838SOL    HW222657   0.911   4.416   5.844
 1839SOL     OW22658   5.505   3.540   1.502
 1839SOL    HW122659   5.512   3.467   1.563
 1839SOL    HW222660   5.446   3.602   1.545
 1840SOL     OW22661   3.576   3.058   1.811
 1840SOL    HW122662   3.486   3.062   1.778
 1840SOL    HW222663   3.596   2.965   1.819
 1841SOL     OW22664   6.181   1.880   6.606
 1841SOL    HW122665   6.230   1.808   6.567
 1841SOL    HW222666   6.248   1.937   6.644
 1842SOL     OW22667   3.143   5.979   6.945
 1842SOL    HW122668   3.236   5.962   6.925
 1842SOL    HW222669   3.114   6.037   6.875
 1843SOL     OW22670   4.235   1.328   2.493
 1843SOL    HW122671   4.290   1.254   2.466
 1843SOL    HW222672   4.274   1.404   2.451
 1844SOL     OW22673   0.436   1.097   6.661
 1844SOL    HW122674   0.352   1.106   6.707
 1844SOL    HW222675   0.464   1.008   6.682
 1845SOL     OW22676   5.786   1.875   6.384
 1845SOL    HW122677   5.820   1.868   6.295
 1845SOL    HW222678   5.721   1.804   6.390
 1846SOL     OW22679   2.220   5.085   2.045
 1846SOL    HW122680   2.145   5.113   1.994
 1846SOL    HW222681   2.184   5.024   2.109
 1847SOL     OW22682   5.804   6.021   6.947
 1847SOL    HW122683   5.762   6.021   6.861
 1847SOL    HW222684   5.831   6.112   6.960
 1848SOL     OW22685   3.466   3.690   1.100
 1848SOL    HW122686   3.517   3.636   1.161
 1848SOL    HW222687   3.376   3.658   1.109
 1849SOL     OW22688   4.569   3.686   7.339
 1849SOL    HW122689   4.603   3.719   7.255
 1849SOL    HW222690   4.489   3.639   7.316
 1850SOL     OW22691   4.793   0.949   0.404
 1850SOL    HW122692   4.712   0.983   0.441
 1850SOL    HW222693   4.765   0.895   0.330
 1851SOL     OW22694   5.642   6.346   7.482
 1851SOL    HW122695   5.547   6.339   7.492
 1851SOL    HW222696   5.663   6.283   7.413
 1852SOL     OW22697   0.344   2.837   0.574
 1852SOL    HW122698   0.338   2.785   0.494
 1852SOL    HW222699   0.254   2.843   0.606
 1853SOL     OW22700   3.576   5.255   1.862
 1853SOL    HW122701   3.502   5.276   1.918
 1853SOL    HW222702   3.651   5.296   1.905
 1854SOL     OW22703   1.004   4.793   1.123
 1854SOL    HW122704   1.071   4.860   1.140
 1854SOL    HW222705   1.052   4.711   1.117
 1855SOL     OW22706   4.986   0.906   7.023
 1855SOL    HW122707   5.059   0.949   7.067
 1855SOL    HW222708   4.922   0.976   7.011
 1856SOL     OW22709   2.121   3.821   6.016
 1856SOL    HW122710   2.185   3.892   6.007
 1856SOL    HW222711   2.152   3.770   6.091
 1857SOL     OW22712   5.827   0.624   7.686
 1857SOL    HW122713   5.792   0.709   7.714
 1857SOL    HW222714   5.921   0.638   7.676
 1858SOL     OW22715   5.682   3.435   0.035
 1858SOL    HW122716   5.680   3.521   0.077
 1858SOL    HW222717   5.728   3.379   0.097
 1859SOL     OW22718   5.556   1.755   6.738
 1859SOL    HW122719   5.507   1.709   6.671
 1859SOL    HW222720   5.523   1.845   6.735
 1860SOL     OW22721   1.520   0.714   1.184
 1860SOL    HW122722   1.566   0.638   1.149
 1860SOL    HW222723   1.557   0.789   1.137
 1861SOL     OW22724   5.907   4.865   6.083
 1861SOL    HW122725   5.967   4.929   6.046
 1861SOL    HW222726   5.896   4.800   6.014
 1862SOL     OW22727   2.106   2.517   7.775
 1862SOL    HW122728   2.138   2.566   7.700
 1862SOL    HW222729   2.025   2.561   7.801
 1863SOL     OW22730   2.353   4.819   1.438
 1863SOL    HW122731   2.266   4.848   1.409
 1863SOL    HW222732   2.409   4.895   1.423
 1864SOL     OW22733   5.170   1.852   5.360
 1864SOL    HW122734   5.165   1.778   5.300
 1864SOL    HW222735   5.259   1.887   5.348
 1865SOL     OW22736   3.630   1.746   1.426
 1865SOL    HW122737   3.626   1.809   1.498
 1865SOL    HW222738   3.676   1.670   1.462
 1866SOL     OW22739   4.386   0.213   0.378
 1866SOL    HW122740   4.368   0.306   0.364
 1866SOL    HW222741   4.406   0.206   0.471
 1867SOL     OW22742   4.893   1.872   5.742
 1867SOL    HW122743   4.911   1.875   5.648
 1867SOL    HW222744   4.813   1.924   5.753
 1868SOL     OW22745   5.261   5.172   1.876
 1868SOL    HW122746   5.217   5.113   1.938
 1868SOL    HW222747   5.334   5.208   1.926
 1869SOL     OW22748   3.077   4.612   0.851
 1869SOL    HW122749   3.155   4.655   0.885
 1869SOL    HW222750   3.023   4.594   0.929
 1870SOL     OW22751   1.379   3.112   0.693
 1870SOL    HW122752   1.312   3.172   0.728
 1870SOL    HW222753   1.367   3.032   0.744
 1871SOL     OW22754   6.059   3.017   7.030
 1871SOL    HW122755   6.102   3.068   7.099
 1871SOL    HW222756   5.969   3.005   7.062
 1872SOL     OW22757   1.796   2.458   0.356
 1872SOL    HW122758   1.702   2.458   0.374
 1872SOL    HW222759   1.811   2.377   0.307
 1873SOL     OW22760   3.306   2.023   1.567
 1873SOL    HW122761   3.245   2.068   1.510
 1873SOL    HW222762   3.381   2.082   1.575
 1874SOL     OW22763   3.922   5.202   0.522
 1874SOL    HW122764   3.935   5.162   0.608
 1874SOL    HW222765   3.998   5.258   0.510
 1875SOL     OW22766   3.725   4.126   6.268
 1875SOL    HW122767   3.698   4.067   6.197
 1875SOL    HW222768   3.820   4.133   6.258
 1876SOL     OW22769   0.398   3.093   0.492
 1876SOL    HW122770   0.383   3.008   0.534
 1876SOL    HW222771   0.425   3.071   0.403
 1877SOL     OW22772   2.413   2.569   6.411
 1877SOL    HW122773   2.430   2.503   6.478
 1877SOL    HW222774   2.430   2.525   6.328
 1878SOL     OW22775   2.695   2.068   0.103
 1878SOL    HW122776   2.639   2.121   0.160
 1878SOL    HW222777   2.677   1.978   0.130
 1879SOL     OW22778   4.517   4.415   7.306
 1879SOL    HW122779   4.539   4.427   7.398
 1879SOL    HW222780   4.599   4.433   7.259
 1880SOL     OW22781   4.956   3.325   7.354
 1880SOL    HW122782   4.920   3.237   7.354
 1880SOL    HW222783   4.881   3.382   7.368
 1881SOL     OW22784   4.086   5.538   0.342
 1881SOL    HW122785   4.116   5.468   0.399
 1881SOL    HW222786   3.991   5.528   0.337
 1882SOL     OW22787   1.630   0.487   7.426
 1882SOL    HW122788   1.694   0.507   7.495
 1882SOL    HW222789   1.595   0.572   7.401
 1883SOL     OW22790   3.973   6.110   1.147
 1883SOL    HW122791   3.982   6.171   1.221
 1883SOL    HW222792   3.895   6.140   1.101
 1884SOL     OW22793   2.752   2.814   1.872
 1884SOL    HW122794   2.684   2.845   1.813
 1884SOL    HW222795   2.715   2.736   1.914
 1885SOL     OW22796   2.400   5.068   1.836
 1885SOL    HW122797   2.358   5.071   1.922
 1885SOL    HW222798   2.328   5.051   1.775
 1886SOL     OW22799   2.835   4.076   7.572
 1886SOL    HW122800   2.887   4.034   7.641
 1886SOL    HW222801   2.865   4.167   7.572
 1887SOL     OW22802   3.705   5.884   0.644
 1887SOL    HW122803   3.757   5.811   0.611
 1887SOL    HW222804   3.625   5.883   0.591
 1888SOL     OW22805   1.886   3.656   1.071
 1888SOL    HW122806   1.888   3.677   0.978
 1888SOL    HW222807   1.973   3.622   1.090
 1889SOL     OW22808   6.017   4.238   6.275
 1889SOL    HW122809   6.007   4.244   6.180
 1889SOL    HW222810   6.017   4.328   6.305
 1890SOL     OW22811   1.086   1.942   0.696
 1890SOL    HW122812   1.093   2.028   0.736
 1890SOL    HW222813   1.089   1.880   0.770
 1891SOL     OW22814   3.665   4.699   6.089
 1891SOL    HW122815   3.594   4.635   6.091
 1891SOL    HW222816   3.710   4.683   6.006
 1892SOL     OW22817   0.263   5.302   1.105
 1892SOL    HW122818   0.180   5.254   1.100
 1892SOL    HW222819   0.260   5.363   1.032
 1893SOL     OW22820   3.838   4.215   5.979
 1893SOL    HW122821   3.893   4.197   6.056
 1893SOL    HW222822   3.786   4.135   5.968
 1894SOL     OW22823   6.087   5.554   7.496
 1894SOL    HW122824   6.020   5.621   7.507
 1894SOL    HW222825   6.053   5.479   7.545
 1895SOL     OW22826   1.585   4.080   1.549
 1895SOL    HW122827   1.588   4.026   1.628
 1895SOL    HW222828   1.492   4.097   1.534
 1896SOL     OW22829   5.646   1.402   6.279
 1896SOL    HW122830   5.682   1.319   6.311
 1896SOL    HW222831   5.577   1.375   6.217
 1897SOL     OW22832   5.798   3.260   0.214
 1897SOL    HW122833   5.876   3.283   0.263
 1897SOL    HW222834   5.820   3.177   0.170
 1898SOL     OW22835   6.004   6.232   0.687
 1898SOL    HW122836   6.028   6.311   0.639
 1898SOL    HW222837   5.976   6.170   0.620
 1899SOL     OW22838   2.681   5.960   5.323
 1899SOL    HW122839   2.621   6.034   5.330
 1899SOL    HW222840   2.628   5.888   5.290
 1900SOL     OW22841   3.374   3.352   0.878
 1900SOL    HW122842   3.446   3.321   0.932
 1900SOL    HW222843   3.409   3.430   0.834
 1901SOL     OW22844   2.792   0.276   0.999
 1901SOL    HW122845   2.706   0.234   0.989
 1901SOL    HW222846   2.785   0.355   0.945
 1902SOL     OW22847   6.176   2.560   0.149
 1902SOL    HW122848   6.146   2.470   0.137
 1902SOL    HW222849   6.137   2.586   0.233
 1903SOL     OW22850   3.403   4.389   1.617
 1903SOL    HW122851   3.322   4.413   1.662
 1903SOL    HW222852   3.387   4.412   1.525
 1904SOL     OW22853   5.261   4.042   0.418
 1904SOL    HW122854   5.288   3.977   0.484
 1904SOL    HW222855   5.165   4.038   0.420
 1905SOL     OW22856   4.408   4.537   1.362
 1905SOL    HW122857   4.411   4.604   1.293
 1905SOL    HW222858   4.493   4.544   1.406
 1906SOL     OW22859   2.062   5.244   6.415
 1906SOL    HW122860   2.138   5.302   6.426
 1906SOL    HW222861   1.992   5.302   6.385
 1907SOL     OW22862   0.761   4.807   1.916
 1907SOL    HW122863   0.857   4.812   1.919
 1907SOL    HW222864   0.744   4.724   1.871
 1908SOL     OW22865   1.373   6.332   7.711
 1908SOL    HW122866   1.333   6.407   7.755
 1908SOL    HW222867   1.437   6.370   7.651
 1909SOL     OW22868   5.879   1.604   1.640
 1909SOL    HW122869   5.927   1.634   1.563
 1909SOL    HW222870   5.788   1.627   1.622
 1910SOL     OW22871   3.275   4.238   5.643
 1910SOL    HW122872   3.229   4.322   5.647
 1910SOL    HW222873   3.332   4.238   5.720
 1911SOL     OW22874   0.650   5.766   7.735
 1911SOL    HW122875   0.647   5.717   7.653
 1911SOL    HW222876   0.743   5.770   7.757
 1912SOL     OW22877   6.341   0.027   1.050
 1912SOL    HW122878   6.248   0.033   1.031
 1912SOL    HW222879   6.372   0.117   1.045
 1913SOL     OW22880   0.885   3.271   7.405
 1913SOL    HW122881   0.916   3.218   7.332
 1913SOL    HW222882   0.804   3.311   7.374
 1914SOL     OW22883   0.055   1.968   6.325
 1914SOL    HW122884   6.445   1.915   6.269
 1914SOL    HW222885   6.445   2.032   6.365
 1915SOL     OW22886   6.306   4.672   2.019
 1915SOL    HW122887   6.383   4.709   2.062
 1915SOL    HW222888   6.233   4.692   2.078
 1916SOL     OW22889   3.025   5.189   5.924
 1916SOL    HW122890   2.958   5.253   5.950
 1916SOL    HW222891   3.078   5.235   5.860
 1917SOL     OW22892   1.713   5.690   0.920
 1917SOL    HW122893   1.804   5.660   0.913
 1917SOL    HW222894   1.663   5.628   0.868
 1918SOL     OW22895   1.198   1.541   0.700
 1918SOL    HW122896   1.173   1.633   0.695
 1918SOL    HW222897   1.294   1.541   0.689
 1919SOL     OW22898   0.404   5.944   0.247
 1919SOL    HW122899   0.366   5.931   0.334
 1919SOL    HW222900   0.425   5.856   0.217
 1920SOL     OW22901   0.592   0.715   1.754
 1920SOL    HW122902   0.583   0.621   1.737
 1920SOL    HW222903   0.675   0.739   1.713
 1921SOL     OW22904   0.124   2.356   6.496
 1921SOL    HW122905   0.185   2.283   6.494
 1921SOL    HW222906   0.083   2.356   6.410
 1922SOL     OW22907   3.385   2.368   6.758
 1922SOL    HW122908   3.399   2.279   6.725
 1922SOL    HW222909   3.328   2.409   6.694
 1923SOL     OW22910   5.934   5.378   1.731
 1923SOL    HW122911   5.995   5.431   1.681
 1923SOL    HW222912   5.961   5.390   1.822
 1924SOL     OW22913   1.431   4.210   5.461
 1924SOL    HW122914   1.496   4.279   5.470
 1924SOL    HW222915   1.363   4.248   5.405
 1925SOL     OW22916   0.656   0.269   7.600
 1925SOL    HW122917   0.639   0.349   7.550
 1925SOL    HW222918   0.582   0.262   7.660
 1926SOL     OW22919   3.342   2.310   5.607
 1926SOL    HW122920   3.347   2.346   5.519
 1926SOL    HW222921   3.416   2.351   5.653
 1927SOL     OW22922   4.157   0.085   0.275
 1927SOL    HW122923   4.234   0.130   0.308
 1927SOL    HW222924   4.163   6.445   0.311
 1928SOL     OW22925   3.093   3.873   6.378
 1928SOL    HW122926   3.099   3.912   6.290
 1928SOL    HW222927   3.184   3.868   6.408
 1929SOL     OW22928   1.183   2.652   0.550
 1929SOL    HW122929   1.264   2.676   0.506
 1929SOL    HW222930   1.140   2.735   0.569
 1930SOL     OW22931   4.148   4.791   0.984
 1930SOL    HW122932   4.221   4.853   0.988
 1930SOL    HW222933   4.125   4.786   0.892
 1931SOL     OW22934   1.691   3.629   5.661
 1931SOL    HW122935   1.634   3.556   5.686
 1931SOL    HW222936   1.653   3.661   5.579
 1932SOL     OW22937   6.224   2.395   6.493
 1932SOL    HW122938   6.217   2.429   6.583
 1932SOL    HW222939   6.253   2.471   6.442
 1933SOL     OW22940   0.863   3.893   6.723
 1933SOL    HW122941   0.938   3.936   6.682
 1933SOL    HW222942   0.867   3.920   6.814
 1934SOL     OW22943   5.380   5.062   2.193
 1934SOL    HW122944   5.413   5.139   2.147
 1934SOL    HW222945   5.295   5.044   2.153
 1935SOL     OW22946   6.194   2.857   2.396
 1935SOL    HW122947   6.288   2.843   2.401
 1935SOL    HW222948   6.184   2.952   2.398
 1936SOL     OW22949   0.106   6.439   6.610
 1936SOL    HW122950   0.198   0.014   6.615
 1936SOL    HW222951   0.099   6.355   6.654
 1937SOL     OW22952   2.716   5.923   1.844
 1937SOL    HW122953   2.645   5.977   1.809
 1937SOL    HW222954   2.793   5.947   1.792
 1938SOL     OW22955   3.066   6.055   0.669
 1938SOL    HW122956   2.971   6.064   0.681
 1938SOL    HW222957   3.076   6.028   0.578
 1939SOL     OW22958   1.863   5.836   7.779
 1939SOL    HW122959   1.830   5.792   0.055
 1939SOL    HW222960   1.951   5.866   0.000
 1940SOL     OW22961   0.153   4.458   5.790
 1940SOL    HW122962   0.084   4.488   5.732
 1940SOL    HW222963   0.169   4.531   5.849
 1941SOL     OW22964   2.918   5.788   1.300
 1941SOL    HW122965   2.889   5.825   1.216
 1941SOL    HW222966   2.961   5.706   1.277
 1942SOL     OW22967   0.051   2.334   6.230
 1942SOL    HW122968   0.128   2.360   6.179
 1942SOL    HW222969   0.025   2.250   6.192
 1943SOL     OW22970   3.518   5.780   6.306
 1943SOL    HW122971   3.613   5.784   6.316
 1943SOL    HW222972   3.497   5.686   6.306
 1944SOL     OW22973   5.476   4.770   6.513
 1944SOL    HW122974   5.386   4.799   6.528
 1944SOL    HW222975   5.518   4.843   6.467
 1945SOL     OW22976   2.349   0.868   5.671
 1945SOL    HW122977   2.298   0.826   5.601
 1945SOL    HW222978   2.424   0.810   5.683
 1946SOL     OW22979   2.877   2.259   0.030
 1946SOL    HW122980   2.817   2.187   0.053
 1946SOL    HW222981   2.926   2.275   0.110
 1947SOL     OW22982   5.219   5.876   2.095
 1947SOL    HW122983   5.189   5.966   2.082
 1947SOL    HW222984   5.218   5.864   2.190
 1948SOL     OW22985   5.605   2.663   2.191
 1948SOL    HW122986   5.684   2.652   2.244
 1948SOL    HW222987   5.582   2.755   2.200
 1949SOL     OW22988   0.030   4.271   6.817
 1949SOL    HW122989   6.438   4.295   6.733
 1949SOL    HW222990   6.411   4.220   6.862
 1950SOL     OW22991   4.635   0.300   1.027
 1950SOL    HW122992   4.604   0.309   1.117
 1950SOL    HW222993   4.555   0.278   0.978
 1951SOL     OW22994   3.381   4.753   1.471
 1951SOL    HW122995   3.409   4.736   1.560
 1951SOL    HW222996   3.432   4.829   1.443
 1952SOL     OW22997   4.537   5.976   6.308
 1952SOL    HW122998   4.476   5.980   6.235
 1952SOL    HW222999   4.612   6.029   6.280
 1953SOL     OW23000   3.457   4.309   0.794
 1953SOL    HW123001   3.445   4.214   0.788
 1953SOL    HW223002   3.551   4.321   0.796
 1954SOL     OW23003   6.391   0.295   0.715
 1954SOL    HW123004   0.008   0.297   0.644
 1954SOL    HW223005   6.341   0.376   0.703
 1955SOL     OW23006   3.002   4.836   7.540
 1955SOL    HW123007   3.094   4.861   7.552
 1955SOL    HW223008   2.954   4.893   7.600
 1956SOL     OW23009   0.805   0.823   6.030
 1956SOL    HW123010   0.767   0.793   5.947
 1956SOL    HW223011   0.745   0.889   6.062
 1957SOL     OW23012   0.897   3.776   7.466
 1957SOL    HW123013   0.955   3.780   7.542
 1957SOL    HW223014   0.841   3.700   7.482
 1958SOL     OW23015   1.539   0.840   0.728
 1958SOL    HW123016   1.448   0.867   0.737
 1958SOL    HW223017   1.589   0.921   0.728
 1959SOL     OW23018   2.543   2.985   7.416
 1959SOL    HW123019   2.577   3.018   7.333
 1959SOL    HW223020   2.450   3.004   7.413
 1960SOL     OW23021   3.673   4.378   7.766
 1960SOL    HW123022   3.720   4.452   7.728
 1960SOL    HW223023   3.585   4.412   7.784
 1961SOL     OW23024   1.155   0.554   0.368
 1961SOL    HW123025   1.161   0.561   0.273
 1961SOL    HW223026   1.226   0.494   0.392
 1962SOL     OW23027   6.219   2.187   1.377
 1962SOL    HW123028   6.245   2.259   1.434
 1962SOL    HW223029   6.166   2.228   1.309
 1963SOL     OW23030   1.512   2.384   7.103
 1963SOL    HW123031   1.584   2.326   7.129
 1963SOL    HW223032   1.435   2.328   7.104
 1964SOL     OW23033   4.351   3.510   5.969
 1964SOL    HW123034   4.390   3.554   5.894
 1964SOL    HW223035   4.401   3.429   5.979
 1965SOL     OW23036   6.216   1.408   1.025
 1965SOL    HW123037   6.252   1.332   0.979
 1965SOL    HW223038   6.129   1.420   0.986
 1966SOL     OW23039   5.045   1.677   0.305
 1966SOL    HW123040   5.084   1.607   0.357
 1966SOL    HW223041   4.950   1.662   0.312
 1967SOL     OW23042   4.766   3.082   6.140
 1967SOL    HW123043   4.814   3.140   6.199
 1967SOL    HW223044   4.703   3.037   6.196
 1968SOL     OW23045   5.506   0.748   6.716
 1968SOL    HW123046   5.597   0.762   6.741
 1968SOL    HW223047   5.467   0.704   6.792
 1969SOL     OW23048   4.471   4.660   0.888
 1969SOL    HW123049   4.529   4.584   0.902
 1969SOL    HW223050   4.389   4.622   0.857
 1970SOL     OW23051   3.557   2.020   1.151
 1970SOL    HW123052   3.598   2.093   1.105
 1970SOL    HW223053   3.486   2.060   1.201
 1971SOL     OW23054   1.074   5.419   6.582
 1971SOL    HW123055   1.080   5.323   6.586
 1971SOL    HW223056   1.010   5.436   6.513
 1972SOL     OW23057   3.472   0.880   1.274
 1972SOL    HW123058   3.557   0.909   1.306
 1972SOL    HW223059   3.461   0.793   1.312
 1973SOL     OW23060   1.819   4.476   6.603
 1973SOL    HW123061   1.832   4.382   6.602
 1973SOL    HW223062   1.906   4.513   6.587
 1974SOL     OW23063   3.593   0.765   7.288
 1974SOL    HW123064   3.644   0.685   7.274
 1974SOL    HW223065   3.629   0.802   7.369
 1975SOL     OW23066   3.842   1.556   1.239
 1975SOL    HW123067   3.862   1.583   1.149
 1975SOL    HW223068   3.787   1.479   1.230
 1976SOL     OW23069   4.347   5.267   6.623
 1976SOL    HW123070   4.381   5.188   6.581
 1976SOL    HW223071   4.381   5.263   6.712
 1977SOL     OW23072   0.587   1.495   0.855
 1977SOL    HW123073   0.528   1.570   0.843
 1977SOL    HW223074   0.675   1.534   0.853
 1978SOL     OW23075   2.345   3.150   1.229
 1978SOL    HW123076   2.400   3.078   1.261
 1978SOL    HW223077   2.317   3.196   1.309
 1979SOL     OW23078   6.041   2.131   0.605
 1979SOL    HW123079   6.075   2.059   0.552
 1979SOL    HW223080   6.091   2.128   0.686
 1980SOL     OW23081   3.197   2.495   6.305
 1980SOL    HW123082   3.241   2.521   6.225
 1980SOL    HW223083   3.106   2.521   6.292
 1981SOL     OW23084   4.699   0.793   1.737
 1981SOL    HW123085   4.744   0.861   1.787
 1981SOL    HW223086   4.635   0.757   1.798
 1982SOL     OW23087   6.290   3.013   6.397
 1982SOL    HW123088   6.203   3.051   6.405
 1982SOL    HW223089   6.295   2.982   6.306
 1983SOL     OW23090   3.421   6.251   0.360
 1983SOL    HW123091   3.463   6.188   0.302
 1983SOL    HW223092   3.484   6.265   0.430
 1984SOL     OW23093   0.682   1.486   1.262
 1984SOL    HW123094   0.773   1.485   1.232
 1984SOL    HW223095   0.634   1.438   1.194
 1985SOL     OW23096   4.832   3.342   1.298
 1985SOL    HW123097   4.838   3.396   1.219
 1985SOL    HW223098   4.909   3.366   1.350
 1986SOL     OW23099   5.729   2.218   0.725
 1986SOL    HW123100   5.663   2.282   0.699
 1986SOL    HW223101   5.788   2.266   0.783
 1987SOL     OW23102   5.101   1.362   2.146
 1987SOL    HW123103   5.166   1.410   2.196
 1987SOL    HW223104   5.152   1.296   2.099
 1988SOL     OW23105   0.932   3.923   0.313
 1988SOL    HW123106   1.017   3.955   0.284
 1988SOL    HW223107   0.891   3.889   0.233
 1989SOL     OW23108   0.011   4.725   0.186
 1989SOL    HW123109   0.088   4.782   0.194
 1989SOL    HW223110   0.024   4.658   0.252
 1990SOL     OW23111   2.491   0.620   2.039
 1990SOL    HW123112   2.578   0.638   2.074
 1990SOL    HW223113   2.507   0.576   1.955
 1991SOL     OW23114   6.075   3.943   2.287
 1991SOL    HW123115   6.144   4.009   2.297
 1991SOL    HW223116   6.038   3.960   2.201
 1992SOL     OW23117   1.672   3.414   7.563
 1992SOL    HW123118   1.581   3.427   7.533
 1992SOL    HW223119   1.690   3.489   7.619
 1993SOL     OW23120   5.348   3.023   1.902
 1993SOL    HW123121   5.342   2.933   1.870
 1993SOL    HW223122   5.274   3.067   1.860
 1994SOL     OW23123   5.274   5.534   6.187
 1994SOL    HW123124   5.247   5.496   6.104
 1994SOL    HW223125   5.313   5.619   6.163
 1995SOL     OW23126   4.589   1.161   0.778
 1995SOL    HW123127   4.678   1.190   0.757
 1995SOL    HW223128   4.596   1.126   0.867
 1996SOL     OW23129   5.027   0.427   1.132
 1996SOL    HW123130   5.091   0.437   1.062
 1996SOL    HW223131   4.974   0.352   1.105
 1997SOL     OW23132   4.473   4.979   2.415
 1997SOL    HW123133   4.406   4.961   2.349
 1997SOL    HW223134   4.545   4.920   2.393
 1998SOL     OW23135   3.054   5.605   6.313
 1998SOL    HW123136   3.120   5.562   6.368
 1998SOL    HW223137   2.975   5.605   6.367
 1999SOL     OW23138   5.156   4.056   5.313
 1999SOL    HW123139   5.073   4.039   5.357
 1999SOL    HW223140   5.133   4.065   5.220
 2000SOL     OW23141   5.740   1.814   7.162
 2000SOL    HW123142   5.757   1.740   7.104
 2000SOL    HW223143   5.660   1.791   7.209
 2001SOL     OW23144   3.000   0.118   0.914
 2001SOL    HW123145   2.932   0.173   0.952
 2001SOL    HW223146   2.966   0.094   0.828
 2002SOL     OW23147   0.271   6.243   0.833
 2002SOL    HW123148   0.307   6.278   0.914
 2002SOL    HW223149   0.178   6.266   0.836
 2003SOL     OW23150   0.771   2.108   6.135
 2003SOL    HW123151   0.804   2.043   6.196
 2003SOL    HW223152   0.684   2.077   6.111
 2004SOL     OW23153   1.755   3.664   7.229
 2004SOL    HW123154   1.824   3.728   7.216
 2004SOL    HW223155   1.796   3.596   7.283
 2005SOL     OW23156   0.450   0.890   1.443
 2005SOL    HW123157   0.439   0.899   1.538
 2005SOL    HW223158   0.532   0.842   1.432
 2006SOL     OW23159   1.490   4.001   5.628
 2006SOL    HW123160   1.582   4.015   5.652
 2006SOL    HW223161   1.469   4.074   5.570
 2007SOL     OW23162   4.850   1.736   0.975
 2007SOL    HW123163   4.842   1.831   0.966
 2007SOL    HW223164   4.837   1.720   1.068
 2008SOL     OW23165   1.189   6.099   7.750
 2008SOL    HW123166   1.273   6.143   7.734
 2008SOL    HW223167   1.123   6.166   7.731
 2009SOL     OW23168   0.916   5.537   0.906
 2009SOL    HW123169   0.857   5.480   0.857
 2009SOL    HW223170   1.001   5.527   0.863
 2010SOL     OW23171   1.093   0.408   7.471
 2010SOL    HW123172   1.189   0.410   7.469
 2010SOL    HW223173   1.072   0.352   7.546
 2011SOL     OW23174   4.547   4.970   1.176
 2011SOL    HW123175   4.597   4.973   1.257
 2011SOL    HW223176   4.601   5.016   1.112
 2012SOL     OW23177   2.046   3.749   5.463
 2012SOL    HW123178   2.027   3.799   5.383
 2012SOL    HW223179   2.122   3.696   5.440
 2013SOL     OW23180   2.492   5.914   1.311
 2013SOL    HW123181   2.538   5.844   1.266
 2013SOL    HW223182   2.413   5.872   1.346
 2014SOL     OW23183   3.461   4.654   1.711
 2014SOL    HW123184   3.430   4.638   1.800
 2014SOL    HW223185   3.481   4.567   1.676
 2015SOL     OW23186   2.095   2.301   1.100
 2015SOL    HW123187   2.168   2.355   1.071
 2015SOL    HW223188   2.088   2.319   1.194
 2016SOL     OW23189   0.351   6.249   6.710
 2016SOL    HW123190   0.262   6.217   6.722
 2016SOL    HW223191   0.368   6.302   6.788
 2017SOL     OW23192   4.475   4.694   0.306
 2017SOL    HW123193   4.516   4.703   0.220
 2017SOL    HW223194   4.547   4.703   0.368
 2018SOL     OW23195   1.497   1.176   7.524
 2018SOL    HW123196   1.458   1.136   7.602
 2018SOL    HW223197   1.525   1.101   7.471
 2019SOL     OW23198   3.227   0.035   6.645
 2019SOL    HW123199   3.319   0.023   6.668
 2019SOL    HW223200   3.225   0.117   6.596
 2020SOL     OW23201   1.061   4.732   7.101
 2020SOL    HW123202   1.156   4.722   7.101
 2020SOL    HW223203   1.038   4.750   7.010
 2021SOL     OW23204   0.607   5.930   7.194
 2021SOL    HW123205   0.683   5.981   7.222
 2021SOL    HW223206   0.602   5.944   7.100
 2022SOL     OW23207   3.851   3.205   6.154
 2022SOL    HW123208   3.846   3.297   6.181
 2022SOL    HW223209   3.779   3.194   6.092
 2023SOL     OW23210   3.348   1.564   6.201
 2023SOL    HW123211   3.382   1.509   6.272
 2023SOL    HW223212   3.384   1.650   6.219
 2024SOL     OW23213   2.867   4.921   7.079
 2024SOL    HW123214   2.789   4.911   7.024
 2024SOL    HW223215   2.843   4.880   7.162
 2025SOL     OW23216   1.620   0.038   0.648
 2025SOL    HW123217   1.619   0.001   0.736
 2025SOL    HW223218   1.690   0.102   0.649
 2026SOL     OW23219   2.210   3.847   7.165
 2026SOL    HW123220   2.202   3.766   7.114
 2026SOL    HW223221   2.258   3.820   7.244
 2027SOL     OW23222   4.930   0.489   6.862
 2027SOL    HW123223   4.994   0.449   6.920
 2027SOL    HW223224   4.977   0.564   6.824
 2028SOL     OW23225   2.394   1.458   5.255
 2028SOL    HW123226   2.424   1.509   5.331
 2028SOL    HW223227   2.308   1.495   5.234
 2029SOL     OW23228   3.961   4.247   0.921
 2029SOL    HW123229   4.046   4.243   0.877
 2029SOL    HW223230   3.955   4.164   0.969
 2030SOL     OW23231   5.250   1.241   6.840
 2030SOL    HW123232   5.278   1.258   6.750
 2030SOL    HW223233   5.154   1.242   6.835
 2031SOL     OW23234   5.786   2.066   7.252
 2031SOL    HW123235   5.768   1.978   7.219
 2031SOL    HW223236   5.881   2.068   7.267
 2032SOL     OW23237   1.830   0.578   7.620
 2032SOL    HW123238   1.845   0.660   7.572
 2032SOL    HW223239   1.912   0.561   7.665
 2033SOL     OW23240   5.341   2.895   7.618
 2033SOL    HW123241   5.409   2.918   7.682
 2033SOL    HW223242   5.329   2.976   7.567
 2034SOL     OW23243   0.494   1.131   0.519
 2034SOL    HW123244   0.553   1.197   0.482
 2034SOL    HW223245   0.490   1.153   0.612
 2035SOL     OW23246   4.223   4.364   1.258
 2035SOL    HW123247   4.178   4.425   1.200
 2035SOL    HW223248   4.292   4.416   1.299
 2036SOL     OW23249   4.159   5.711   0.146
 2036SOL    HW123250   4.127   5.652   0.215
 2036SOL    HW223251   4.095   5.702   0.076
 2037SOL     OW23252   4.718   4.190   0.844
 2037SOL    HW123253   4.691   4.201   0.753
 2037SOL    HW223254   4.670   4.114   0.875
 2038SOL     OW23255   0.673   6.014   0.241
 2038SOL    HW123256   0.578   6.003   0.245
 2038SOL    HW223257   0.690   6.093   0.294
 2039SOL     OW23258   5.547   1.532   2.203
 2039SOL    HW123259   5.634   1.571   2.205
 2039SOL    HW223260   5.545   1.481   2.122
 2040SOL     OW23261   1.766   5.267   6.968
 2040SOL    HW123262   1.797   5.349   6.929
 2040SOL    HW223263   1.832   5.245   7.034
 2041SOL     OW23264   1.184   5.820   7.733
 2041SOL    HW123265   1.191   5.916   7.734
 2041SOL    HW223266   1.090   5.803   7.736
 2042SOL     OW23267   0.687   3.077   7.225
 2042SOL    HW123268   0.668   3.140   7.155
 2042SOL    HW223269   0.783   3.077   7.231
 2043SOL     OW23270   6.079   3.596   0.975
 2043SOL    HW123271   6.168   3.632   0.966
 2043SOL    HW223272   6.085   3.536   1.050
 2044SOL     OW23273   3.696   2.594   7.291
 2044SOL    HW123274   3.712   2.523   7.353
 2044SOL    HW223275   3.728   2.673   7.335
 2045SOL     OW23276   3.611   1.260   1.503
 2045SOL    HW123277   3.587   1.242   1.594
 2045SOL    HW223278   3.534   1.236   1.452
 2046SOL     OW23279   2.807   6.200   7.180
 2046SOL    HW123280   2.807   6.228   7.272
 2046SOL    HW223281   2.896   6.168   7.165
 2047SOL     OW23282   4.540   5.078   0.657
 2047SOL    HW123283   4.634   5.082   0.676
 2047SOL    HW223284   4.519   4.985   0.659
 2048SOL     OW23285   4.305   4.900   2.218
 2048SOL    HW123286   4.264   4.817   2.241
 2048SOL    HW223287   4.365   4.878   2.146
 2049SOL     OW23288   0.936   2.662   5.542
 2049SOL    HW123289   0.868   2.686   5.604
 2049SOL    HW223290   0.989   2.741   5.532
 2050SOL     OW23291   2.952   0.433   0.141
 2050SOL    HW123292   2.961   0.431   0.045
 2050SOL    HW223293   2.880   0.372   0.159
 2051SOL     OW23294   1.881   3.214   1.818
 2051SOL    HW123295   1.838   3.299   1.818
 2051SOL    HW223296   1.970   3.232   1.848
 2052SOL     OW23297   4.378   4.330   6.614
 2052SOL    HW123298   4.312   4.343   6.681
 2052SOL    HW223299   4.365   4.240   6.584
 2053SOL     OW23300   0.772   4.018   7.439
 2053SOL    HW123301   0.814   4.048   7.358
 2053SOL    HW223302   0.812   3.933   7.456
 2054SOL     OW23303   3.396   5.809   2.234
 2054SOL    HW123304   3.487   5.783   2.242
 2054SOL    HW223305   3.346   5.728   2.245
 2055SOL     OW23306   4.446   0.719   1.579
 2055SOL    HW123307   4.477   0.757   1.662
 2055SOL    HW223308   4.514   0.741   1.516
 2056SOL     OW23309   0.663   6.040   5.724
 2056SOL    HW123310   0.578   6.062   5.762
 2056SOL    HW223311   0.642   5.993   5.643
 2057SOL     OW23312   3.116   5.333   5.703
 2057SOL    HW123313   3.049   5.401   5.702
 2057SOL    HW223314   3.081   5.263   5.648
 2058SOL     OW23315   3.835   2.914   5.935
 2058SOL    HW123316   3.793   2.858   5.870
 2058SOL    HW223317   3.769   2.926   6.003
 2059SOL     OW23318   4.210   2.054   1.787
 2059SOL    HW123319   4.197   1.959   1.780
 2059SOL    HW223320   4.122   2.088   1.802
 2060SOL     OW23321   5.244   3.568   7.021
 2060SOL    HW123322   5.246   3.657   7.057
 2060SOL    HW223323   5.223   3.512   7.096
 2061SOL     OW23324   0.535   6.030   6.337
 2061SOL    HW123325   0.578   5.946   6.324
 2061SOL    HW223326   0.575   6.088   6.272
 2062SOL     OW23327   6.216   4.386   7.074
 2062SOL    HW123328   6.152   4.441   7.028
 2062SOL    HW223329   6.230   4.311   7.016
 2063SOL     OW23330   3.189   0.805   0.057
 2063SOL    HW123331   3.117   0.795   0.119
 2063SOL    HW223332   3.196   0.720   0.014
 2064SOL     OW23333   3.104   6.171   5.616
 2064SOL    HW123334   3.146   6.150   5.700
 2064SOL    HW223335   3.110   6.267   5.610
 2065SOL     OW23336   2.511   6.135   6.702
 2065SOL    HW123337   2.454   6.171   6.634
 2065SOL    HW223338   2.518   6.042   6.680
 2066SOL     OW23339   1.893   2.699   2.524
 2066SOL    HW123340   1.925   2.610   2.538
 2066SOL    HW223341   1.818   2.688   2.465
 2067SOL     OW23342   3.592   2.541   6.752
 2067SOL    HW123343   3.588   2.572   6.661
 2067SOL    HW223344   3.515   2.485   6.761
 2068SOL     OW23345   3.498   0.649   5.565
 2068SOL    HW123346   3.558   0.712   5.525
 2068SOL    HW223347   3.412   0.691   5.556
 2069SOL     OW23348   2.738   0.616   6.821
 2069SOL    HW123349   2.829   0.644   6.812
 2069SOL    HW223350   2.712   0.645   6.908
 2070SOL     OW23351   3.474   0.360   6.028
 2070SOL    HW123352   3.527   0.364   5.948
 2070SOL    HW223353   3.399   0.305   6.005
 2071SOL     OW23354   4.941   2.112   1.201
 2071SOL    HW123355   4.865   2.170   1.205
 2071SOL    HW223356   5.000   2.145   1.269
 2072SOL     OW23357   1.263   0.805   7.265
 2072SOL    HW123358   1.202   0.813   7.338
 2072SOL    HW223359   1.246   0.882   7.210
 2073SOL     OW23360   0.849   1.597   0.844
 2073SOL    HW123361   0.915   1.535   0.874
 2073SOL    HW223362   0.881   1.683   0.872
 2074SOL     OW23363   2.866   3.267   0.428
 2074SOL    HW123364   2.946   3.219   0.406
 2074SOL    HW223365   2.898   3.352   0.460
 2075SOL     OW23366   5.260   4.120   1.576
 2075SOL    HW123367   5.305   4.187   1.628
 2075SOL    HW223368   5.242   4.049   1.638
 2076SOL     OW23369   1.279   2.241   7.066
 2076SOL    HW123370   1.278   2.187   6.987
 2076SOL    HW223371   1.220   2.197   7.127
 2077SOL     OW23372   2.071   3.177   6.267
 2077SOL    HW123373   2.094   3.123   6.342
 2077SOL    HW223374   2.078   3.118   6.192
 2078SOL     OW23375   0.784   2.951   1.208
 2078SOL    HW123376   0.733   2.871   1.222
 2078SOL    HW223377   0.860   2.923   1.158
 2079SOL     OW23378   3.900   4.710   6.674
 2079SOL    HW123379   3.926   4.663   6.754
 2079SOL    HW223380   3.804   4.701   6.672
 2080SOL     OW23381   2.845   5.353   6.807
 2080SOL    HW123382   2.753   5.362   6.783
 2080SOL    HW223383   2.845   5.299   6.886
 2081SOL     OW23384   4.252   0.202   7.468
 2081SOL    HW123385   4.259   0.117   7.425
 2081SOL    HW223386   4.158   0.222   7.465
 2082SOL     OW23387   4.516   1.098   6.363
 2082SOL    HW123388   4.522   1.012   6.404
 2082SOL    HW223389   4.599   1.109   6.318
 2083SOL     OW23390   5.190   6.301   7.738
 2083SOL    HW123391   5.257   6.302   7.670
 2083SOL    HW223392   5.199   6.385   7.782
 2084SOL     OW23393   1.831   0.325   1.061
 2084SOL    HW123394   1.744   0.365   1.055
 2084SOL    HW223395   1.872   0.344   0.977
 2085SOL     OW23396   4.950   5.579   1.666
 2085SOL    HW123397   4.935   5.660   1.714
 2085SOL    HW223398   5.043   5.561   1.677
 2086SOL     OW23399   0.537   4.566   6.880
 2086SOL    HW123400   0.473   4.587   6.948
 2086SOL    HW223401   0.501   4.488   6.838
 2087SOL     OW23402   4.917   5.386   6.201
 2087SOL    HW123403   4.922   5.385   6.105
 2087SOL    HW223404   4.944   5.298   6.227
 2088SOL     OW23405   1.326   3.252   7.431
 2088SOL    HW123406   1.378   3.295   7.364
 2088SOL    HW223407   1.248   3.308   7.440
 2089SOL     OW23408   0.158   5.361   0.377
 2089SOL    HW123409   0.213   5.347   0.301
 2089SOL    HW223410   0.197   5.436   0.422
 2090SOL     OW23411   5.100   4.745   7.143
 2090SOL    HW123412   5.164   4.743   7.214
 2090SOL    HW223413   5.102   4.835   7.112
 2091SOL     OW23414   2.048   1.892   7.010
 2091SOL    HW123415   2.090   1.820   7.057
 2091SOL    HW223416   1.976   1.850   6.963
 2092SOL     OW23417   4.293   4.861   0.038
 2092SOL    HW123418   4.349   4.841   7.766
 2092SOL    HW223419   4.342   4.926   0.088
 2093SOL     OW23420   3.171   1.834   6.393
 2093SOL    HW123421   3.204   1.753   6.433
 2093SOL    HW223422   3.092   1.855   6.443
 2094SOL     OW23423   2.905   5.730   7.259
 2094SOL    HW123424   2.848   5.653   7.256
 2094SOL    HW223425   2.931   5.745   7.168
 2095SOL     OW23426   4.863   2.408   0.989
 2095SOL    HW123427   4.818   2.355   1.055
 2095SOL    HW223428   4.892   2.344   0.923
 2096SOL     OW23429   6.417   5.914   1.581
 2096SOL    HW123430   6.322   5.907   1.590
 2096SOL    HW223431   6.445   5.830   1.545
 2097SOL     OW23432   4.652   3.738   7.070
 2097SOL    HW123433   4.647   3.751   6.975
 2097SOL    HW223434   4.744   3.717   7.086
 2098SOL     OW23435   1.451   5.860   0.400
 2098SOL    HW123436   1.431   5.947   0.436
 2098SOL    HW223437   1.488   5.811   0.474
 2099SOL     OW23438   3.590   3.245   1.017
 2099SOL    HW123439   3.582   3.253   1.112
 2099SOL    HW223440   3.603   3.152   1.002
 2100SOL     OW23441   2.222   3.236   1.632
 2100SOL    HW123442   2.230   3.287   1.552
 2100SOL    HW223443   2.198   3.149   1.602
 2101SOL     OW23444   5.559   4.967   7.434
 2101SOL    HW123445   5.642   4.958   7.388
 2101SOL    HW223446   5.523   5.050   7.402
 2102SOL     OW23447   0.735   2.833   6.925
 2102SOL    HW123448   0.746   2.925   6.900
 2102SOL    HW223449   0.712   2.789   6.843
 2103SOL     OW23450   4.544   1.086   1.827
 2103SOL    HW123451   4.495   1.011   1.860
 2103SOL    HW223452   4.510   1.161   1.876
 2104SOL     OW23453   2.405   1.494   6.174
 2104SOL    HW123454   2.439   1.428   6.113
 2104SOL    HW223455   2.442   1.577   6.143
 2105SOL     OW23456   5.728   0.909   1.818
 2105SOL    HW123457   5.724   0.969   1.892
 2105SOL    HW223458   5.783   0.837   1.848
 2106SOL     OW23459   3.747   3.035   0.601
 2106SOL    HW123460   3.836   3.018   0.632
 2106SOL    HW223461   3.714   3.102   0.661
 2107SOL     OW23462   4.853   0.728   1.524
 2107SOL    HW123463   4.891   0.643   1.545
 2107SOL    HW223464   4.797   0.749   1.598
 2108SOL     OW23465   3.513   1.747   1.182
 2108SOL    HW123466   3.558   1.744   1.267
 2108SOL    HW223467   3.524   1.838   1.153
 2109SOL     OW23468   2.382   1.476   7.246
 2109SOL    HW123469   2.420   1.530   7.316
 2109SOL    HW223470   2.425   1.392   7.254
 2110SOL     OW23471   4.320   4.529   2.472
 2110SOL    HW123472   4.275   4.587   2.410
 2110SOL    HW223473   4.379   4.586   2.520
 2111SOL     OW23474   4.683   4.109   6.441
 2111SOL    HW123475   4.619   4.142   6.378
 2111SOL    HW223476   4.730   4.040   6.394
 2112SOL     OW23477   5.104   1.376   6.124
 2112SOL    HW123478   5.060   1.302   6.083
 2112SOL    HW223479   5.167   1.335   6.184
 2113SOL     OW23480   2.017   2.079   2.275
 2113SOL    HW123481   2.073   2.147   2.238
 2113SOL    HW223482   1.931   2.119   2.282
 2114SOL     OW23483   3.201   2.586   5.324
 2114SOL    HW123484   3.251   2.665   5.303
 2114SOL    HW223485   3.267   2.518   5.340
 2115SOL     OW23486   4.564   0.858   6.490
 2115SOL    HW123487   4.480   0.851   6.537
 2115SOL    HW223488   4.629   0.830   6.554
 2116SOL     OW23489   0.569   1.115   0.146
 2116SOL    HW123490   0.592   1.047   0.084
 2116SOL    HW223491   0.647   1.126   0.200
 2117SOL     OW23492   0.378   4.216   1.863
 2117SOL    HW123493   0.303   4.197   1.806
 2117SOL    HW223494   0.344   4.208   1.952
 2118SOL     OW23495   5.423   4.805   2.270
 2118SOL    HW123496   5.417   4.899   2.255
 2118SOL    HW223497   5.360   4.767   2.209
 2119SOL     OW23498   5.952   4.882   0.329
 2119SOL    HW123499   5.971   4.790   0.310
 2119SOL    HW223500   6.027   4.930   0.294
 2120SOL     OW23501   0.333   2.686   0.339
 2120SOL    HW123502   0.345   2.757   0.276
 2120SOL    HW223503   0.279   2.622   0.293
 2121SOL     OW23504   1.157   1.326   1.551
 2121SOL    HW123505   1.126   1.415   1.568
 2121SOL    HW223506   1.231   1.337   1.491
 2122SOL     OW23507   4.802   0.120   0.427
 2122SOL    HW123508   4.775   0.067   0.503
 2122SOL    HW223509   4.732   0.106   0.363
 2123SOL     OW23510   0.928   4.450   5.488
 2123SOL    HW123511   0.919   4.453   5.583
 2123SOL    HW223512   0.843   4.418   5.457
 2124SOL     OW23513   0.088   3.430   6.405
 2124SOL    HW123514   0.178   3.420   6.374
 2124SOL    HW223515   0.044   3.477   6.334
 2125SOL     OW23516   6.442   0.870   7.111
 2125SOL    HW123517   6.406   0.787   7.081
 2125SOL    HW223518   6.386   0.896   7.185
 2126SOL     OW23519   1.022   4.462   7.098
 2126SOL    HW123520   0.936   4.459   7.055
 2126SOL    HW223521   1.040   4.555   7.109
 2127SOL     OW23522   1.355   2.269   6.005
 2127SOL    HW123523   1.297   2.232   5.939
 2127SOL    HW223524   1.443   2.260   5.968
 2128SOL     OW23525   0.536   3.560   0.384
 2128SOL    HW123526   0.557   3.642   0.340
 2128SOL    HW223527   0.470   3.584   0.450
 2129SOL     OW23528   2.073   5.012   7.267
 2129SOL    HW123529   1.982   5.007   7.295
 2129SOL    HW223530   2.124   5.007   7.348
 2130SOL     OW23531   2.804   0.293   0.640
 2130SOL    HW123532   2.808   0.201   0.665
 2130SOL    HW223533   2.891   0.312   0.604
 2131SOL     OW23534   6.103   5.898   1.237
 2131SOL    HW123535   6.106   5.807   1.208
 2131SOL    HW223536   6.041   5.897   1.310
 2132SOL     OW23537   5.334   2.523   5.730
 2132SOL    HW123538   5.293   2.563   5.653
 2132SOL    HW223539   5.423   2.561   5.732
 2133SOL     OW23540   4.927   5.343   1.520
 2133SOL    HW123541   4.989   5.282   1.561
 2133SOL    HW223542   4.927   5.420   1.578
 2134SOL     OW23543   1.342   2.374   7.452
 2134SOL    HW123544   1.335   2.280   7.439
 2134SOL    HW223545   1.274   2.395   7.517
 2135SOL     OW23546   1.610   3.433   0.599
 2135SOL    HW123547   1.634   3.396   0.514
 2135SOL    HW223548   1.518   3.457   0.589
 2136SOL     OW23549   1.897   3.497   0.173
 2136SOL    HW123550   1.821   3.554   0.177
 2136SOL    HW223551   1.873   3.422   0.227
 2137SOL     OW23552   4.858   1.389   2.030
 2137SOL    HW123553   4.800   1.418   2.100
 2137SOL    HW223554   4.944   1.379   2.073
 2138SOL     OW23555   4.905   6.307   1.132
 2138SOL    HW123556   4.915   6.388   1.182
 2138SOL    HW223557   4.922   6.237   1.195
 2139SOL     OW23558   1.209   0.579   7.112
 2139SOL    HW123559   1.222   0.658   7.165
 2139SOL    HW223560   1.295   0.540   7.106
 2140SOL     OW23561   3.138   3.431   0.353
 2140SOL    HW123562   3.153   3.338   0.370
 2140SOL    HW223563   3.086   3.461   0.428
 2141SOL     OW23564   2.108   4.462   0.855
 2141SOL    HW123565   2.164   4.529   0.895
 2141SOL    HW223566   2.169   4.396   0.821
 2142SOL     OW23567   1.366   0.400   0.452
 2142SOL    HW123568   1.346   0.413   0.544
 2142SOL    HW223569   1.452   0.440   0.440
 2143SOL     OW23570   4.794   2.825   5.445
 2143SOL    HW123571   4.839   2.792   5.524
 2143SOL    HW223572   4.714   2.773   5.440
 2144SOL     OW23573   5.847   3.479   2.189
 2144SOL    HW123574   5.884   3.552   2.238
 2144SOL    HW223575   5.922   3.424   2.168
 2145SOL     OW23576   1.090   2.044   0.271
 2145SOL    HW123577   1.118   2.135   0.283
 2145SOL    HW223578   1.016   2.050   0.211
 2146SOL     OW23579   1.228   0.537   0.102
 2146SOL    HW123580   1.242   0.591   0.024
 2146SOL    HW223581   1.178   0.462   0.070
 2147SOL     OW23582   4.308   6.107   0.571
 2147SOL    HW123583   4.319   6.154   0.653
 2147SOL    HW223584   4.346   6.020   0.587
 2148SOL     OW23585   2.983   3.302   1.260
 2148SOL    HW123586   2.902   3.298   1.311
 2148SOL    HW223587   2.961   3.356   1.185
 2149SOL     OW23588   1.446   3.311   6.762
 2149SOL    HW123589   1.507   3.276   6.697
 2149SOL    HW223590   1.473   3.272   6.844
 2150SOL     OW23591   0.538   3.715   7.623
 2150SOL    HW123592   0.489   3.719   7.541
 2150SOL    HW223593   0.615   3.662   7.603
 2151SOL     OW23594   1.352   0.045   5.589
 2151SOL    HW123595   1.383   6.444   5.512
 2151SOL    HW223596   1.311   6.427   5.644
 2152SOL     OW23597   6.366   6.052   7.192
 2152SOL    HW123598   6.291   5.996   7.212
 2152SOL    HW223599   6.430   6.030   7.259
 2153SOL     OW23600   5.611   5.115   1.916
 2153SOL    HW123601   5.542   5.160   1.964
 2153SOL    HW223602   5.692   5.160   1.944
 2154SOL     OW23603   5.082   5.544   5.715
 2154SOL    HW123604   4.996   5.586   5.710
 2154SOL    HW223605   5.124   5.582   5.792
 2155SOL     OW23606   3.040   5.019   6.293
 2155SOL    HW123607   3.049   5.053   6.204
 2155SOL    HW223608   3.039   5.097   6.349
 2156SOL     OW23609   0.960   4.426   1.568
 2156SOL    HW123610   1.042   4.385   1.539
 2156SOL    HW223611   0.897   4.404   1.500
 2157SOL     OW23612   1.375   3.031   7.273
 2157SOL    HW123613   1.347   3.103   7.329
 2157SOL    HW223614   1.337   2.953   7.313
 2158SOL     OW23615   4.938   3.819   0.092
 2158SOL    HW123616   4.890   3.900   0.111
 2158SOL    HW223617   4.919   3.762   0.166
 2159SOL     OW23618   3.291   3.617   7.152
 2159SOL    HW123619   3.205   3.660   7.149
 2159SOL    HW223620   3.351   3.680   7.113
 2160SOL     OW23621   4.040   3.705   1.121
 2160SOL    HW123622   3.989   3.679   1.198
 2160SOL    HW223623   4.016   3.642   1.053
 2161SOL     OW23624   3.782   5.073   1.159
 2161SOL    HW123625   3.877   5.066   1.169
 2161SOL    HW223626   3.754   5.127   1.233
 2162SOL     OW23627   1.749   4.902   7.093
 2162SOL    HW123628   1.659   4.880   7.117
 2162SOL    HW223629   1.787   4.937   7.173
 2163SOL     OW23630   4.510   4.317   5.926
 2163SOL    HW123631   4.474   4.397   5.888
 2163SOL    HW223632   4.584   4.347   5.979
 2164SOL     OW23633   0.767   2.379   1.753
 2164SOL    HW123634   0.751   2.473   1.748
 2164SOL    HW223635   0.846   2.370   1.807
 2165SOL     OW23636   4.657   5.768   7.450
 2165SOL    HW123637   4.580   5.770   7.506
 2165SOL    HW223638   4.722   5.718   7.499
 2166SOL     OW23639   5.192   4.332   0.944
 2166SOL    HW123640   5.234   4.321   1.029
 2166SOL    HW223641   5.098   4.326   0.962
 2167SOL     OW23642   4.599   5.711   1.871
 2167SOL    HW123643   4.560   5.780   1.924
 2167SOL    HW223644   4.544   5.634   1.888
 2168SOL     OW23645   4.782   3.948   6.246
 2168SOL    HW123646   4.839   3.910   6.180
 2168SOL    HW223647   4.694   3.939   6.210
 2169SOL     OW23648   1.260   2.457   6.709
 2169SOL    HW123649   1.183   2.468   6.765
 2169SOL    HW223650   1.334   2.468   6.768
 2170SOL     OW23651   0.499   2.498   1.662
 2170SOL    HW123652   0.476   2.577   1.712
 2170SOL    HW223653   0.450   2.428   1.705
 2171SOL     OW23654   2.048   2.037   0.975
 2171SOL    HW123655   2.071   1.958   1.025
 2171SOL    HW223656   2.072   2.109   1.033
 2172SOL     OW23657   2.180   1.128   1.568
 2172SOL    HW123658   2.152   1.209   1.525
 2172SOL    HW223659   2.170   1.145   1.661
 2173SOL     OW23660   4.791   0.421   0.835
 2173SOL    HW123661   4.738   0.382   0.905
 2173SOL    HW223662   4.793   0.514   0.855
 2174SOL     OW23663   4.499   4.490   5.576
 2174SOL    HW123664   4.430   4.426   5.559
 2174SOL    HW223665   4.572   4.461   5.521
 2175SOL     OW23666   5.300   4.520   0.785
 2175SOL    HW123667   5.254   4.518   0.701
 2175SOL    HW223668   5.256   4.455   0.839
 2176SOL     OW23669   3.550   2.865   7.726
 2176SOL    HW123670   3.458   2.846   7.746
 2176SOL    HW223671   3.562   2.832   7.637
 2177SOL     OW23672   0.926   2.300   7.392
 2177SOL    HW123673   0.935   2.396   7.386
 2177SOL    HW223674   0.836   2.283   7.364
 2178SOL     OW23675   2.270   2.847   6.210
 2178SOL    HW123676   2.230   2.814   6.291
 2178SOL    HW223677   2.196   2.884   6.161
 2179SOL     OW23678   4.751   5.756   1.253
 2179SOL    HW123679   4.784   5.669   1.275
 2179SOL    HW223680   4.671   5.740   1.203
 2180SOL     OW23681   4.219   3.904   5.620
 2180SOL    HW123682   4.155   3.917   5.690
 2180SOL    HW223683   4.205   3.813   5.592
 2181SOL     OW23684   2.311   2.550   1.767
 2181SOL    HW123685   2.343   2.566   1.856
 2181SOL    HW223686   2.239   2.488   1.779
 2182SOL     OW23687   3.399   1.616   0.958
 2182SOL    HW123688   3.464   1.547   0.943
 2182SOL    HW223689   3.434   1.666   1.032
 2183SOL     OW23690   3.662   3.489   7.653
 2183SOL    HW123691   3.750   3.454   7.645
 2183SOL    HW223692   3.659   3.529   7.739
 2184SOL     OW23693   4.512   4.199   6.248
 2184SOL    HW123694   4.424   4.233   6.233
 2184SOL    HW223695   4.517   4.121   6.192
 2185SOL     OW23696   4.614   3.759   6.489
 2185SOL    HW123697   4.704   3.777   6.517
 2185SOL    HW223698   4.623   3.721   6.402
 2186SOL     OW23699   0.332   1.854   6.766
 2186SOL    HW123700   0.286   1.855   6.682
 2186SOL    HW223701   0.378   1.938   6.769
 2187SOL     OW23702   4.409   4.735   1.168
 2187SOL    HW123703   4.415   4.710   1.076
 2187SOL    HW223704   4.459   4.816   1.174
 2188SOL     OW23705   2.990   4.629   6.445
 2188SOL    HW123706   3.041   4.647   6.523
 2188SOL    HW223707   2.932   4.558   6.470
 2189SOL     OW23708   0.659   4.699   1.528
 2189SOL    HW123709   0.590   4.765   1.515
 2189SOL    HW223710   0.722   4.717   1.459
 2190SOL     OW23711   2.938   6.369   0.452
 2190SOL    HW123712   2.949   0.004   0.406
 2190SOL    HW223713   2.999   6.310   0.409
 2191SOL     OW23714   5.189   5.314   5.799
 2191SOL    HW123715   5.147   5.391   5.760
 2191SOL    HW223716   5.277   5.344   5.823
 2192SOL     OW23717   4.406   1.023   7.232
 2192SOL    HW123718   4.387   0.941   7.276
 2192SOL    HW223719   4.322   1.069   7.228
 2193SOL     OW23720   2.473   2.611   6.732
 2193SOL    HW123721   2.390   2.633   6.773
 2193SOL    HW223722   2.517   2.695   6.719
 2194SOL     OW23723   5.653   3.840   6.626
 2194SOL    HW123724   5.576   3.874   6.582
 2194SOL    HW223725   5.661   3.893   6.705
 2195SOL     OW23726   3.930   3.410   7.716
 2195SOL    HW123727   3.921   3.335   7.776
 2195SOL    HW223728   4.011   3.393   7.668
 2196SOL     OW23729   5.826   2.898   1.489
 2196SOL    HW123730   5.740   2.910   1.529
 2196SOL    HW223731   5.869   2.983   1.498
 2197SOL     OW23732   2.770   0.132   7.758
 2197SOL    HW123733   2.753   0.038   7.762
 2197SOL    HW223734   2.820   0.143   7.677
 2198SOL     OW23735   5.405   6.031   6.504
 2198SOL    HW123736   5.364   5.969   6.443
 2198SOL    HW223737   5.333   6.087   6.533
 2199SOL     OW23738   0.241   1.729   1.671
 2199SOL    HW123739   0.259   1.673   1.746
 2199SOL    HW223740   0.151   1.760   1.685
 2200SOL     OW23741   1.804   6.171   7.368
 2200SOL    HW123742   1.786   6.237   7.435
 2200SOL    HW223743   1.820   6.091   7.418
 2201SOL     OW23744   5.976   6.406   5.533
 2201SOL    HW123745   5.927   6.325   5.528
 2201SOL    HW223746   6.049   6.394   5.472
 2202SOL     OW23747   4.336   4.864   2.629
 2202SOL    HW123748   4.394   4.788   2.639
 2202SOL    HW223749   4.378   4.917   2.561
 2203SOL     OW23750   4.122   4.265   7.227
 2203SOL    HW123751   4.173   4.264   7.147
 2203SOL    HW223752   4.186   4.252   7.297
 2204SOL     OW23753   3.976   2.622   0.692
 2204SOL    HW123754   3.898   2.660   0.653
 2204SOL    HW223755   3.966   2.527   0.679
 2205SOL     OW23756   3.658   4.454   7.112
 2205SOL    HW123757   3.744   4.461   7.154
 2205SOL    HW223758   3.611   4.533   7.141
 2206SOL     OW23759   1.981   5.404   0.062
 2206SOL    HW123760   1.909   5.432   0.006
 2206SOL    HW223761   1.958   5.436   0.149
 2207SOL     OW23762   1.153   4.558   1.085
 2207SOL    HW123763   1.231   4.555   1.029
 2207SOL    HW223764   1.088   4.505   1.039
 2208SOL     OW23765   0.598   3.794   0.264
 2208SOL    HW123766   0.602   3.888   0.248
 2208SOL    HW223767   0.636   3.755   0.185
 2209SOL     OW23768   1.047   0.453   6.290
 2209SOL    HW123769   1.102   0.429   6.364
 2209SOL    HW223770   0.990   0.378   6.277
 2210SOL     OW23771   6.338   2.787   7.278
 2210SOL    HW123772   6.259   2.829   7.315
 2210SOL    HW223773   6.405   2.799   7.345
 2211SOL     OW23774   3.273   0.284   1.920
 2211SOL    HW123775   3.277   0.243   2.006
 2211SOL    HW223776   3.233   0.370   1.936
 2212SOL     OW23777   4.184   4.812   1.321
 2212SOL    HW123778   4.148   4.889   1.278
 2212SOL    HW223779   4.261   4.789   1.269
 2213SOL     OW23780   1.053   3.780   7.688
 2213SOL    HW123781   1.061   3.685   7.702
 2213SOL    HW223782   0.992   3.809   7.756
 2214SOL     OW23783   5.039   3.585   6.557
 2214SOL    HW123784   5.054   3.550   6.645
 2214SOL    HW223785   5.126   3.611   6.527
 2215SOL     OW23786   3.570   5.012   1.732
 2215SOL    HW123787   3.578   5.099   1.772
 2215SOL    HW223788   3.475   4.999   1.724
 2216SOL     OW23789   6.255   3.744   6.717
 2216SOL    HW123790   6.278   3.837   6.721
 2216SOL    HW223791   6.176   3.742   6.662
 2217SOL     OW23792   5.391   1.597   6.041
 2217SOL    HW123793   5.426   1.530   5.983
 2217SOL    HW223794   5.372   1.671   5.983
 2218SOL     OW23795   6.368   5.990   1.259
 2218SOL    HW123796   6.372   6.084   1.244
 2218SOL    HW223797   6.275   5.969   1.254
 2219SOL     OW23798   1.562   4.235   5.862
 2219SOL    HW123799   1.629   4.239   5.793
 2219SOL    HW223800   1.525   4.323   5.864
 2220SOL     OW23801   5.382   0.237   1.065
 2220SOL    HW123802   5.443   0.256   1.137
 2220SOL    HW223803   5.355   0.146   1.081
 2221SOL     OW23804   0.542   5.435   0.804
 2221SOL    HW123805   0.626   5.419   0.761
 2221SOL    HW223806   0.563   5.488   0.881
 2222SOL     OW23807   3.765   2.858   6.718
 2222SOL    HW123808   3.753   2.831   6.627
 2222SOL    HW223809   3.792   2.950   6.713
 2223SOL     OW23810   4.333   1.712   6.565
 2223SOL    HW123811   4.350   1.681   6.476
 2223SOL    HW223812   4.417   1.704   6.610
 2224SOL     OW23813   1.009   0.700   5.488
 2224SOL    HW123814   1.042   0.785   5.459
 2224SOL    HW223815   1.060   0.637   5.438
 2225SOL     OW23816   2.308   4.640   6.589
 2225SOL    HW123817   2.345   4.710   6.535
 2225SOL    HW223818   2.233   4.608   6.538
 2226SOL     OW23819   5.856   4.671   6.425
 2226SOL    HW123820   5.917   4.612   6.381
 2226SOL    HW223821   5.771   4.651   6.386
 2227SOL     OW23822   2.833   6.249   6.500
 2227SOL    HW123823   2.825   6.186   6.572
 2227SOL    HW223824   2.778   6.323   6.526
 2228SOL     OW23825   1.492   4.910   6.206
 2228SOL    HW123826   1.581   4.934   6.230
 2228SOL    HW223827   1.493   4.905   6.110
 2229SOL     OW23828   0.493   2.471   6.257
 2229SOL    HW123829   0.544   2.408   6.308
 2229SOL    HW223830   0.450   2.526   6.322
 2230SOL     OW23831   2.518   0.501   1.791
 2230SOL    HW123832   2.547   0.521   1.702
 2230SOL    HW223833   2.454   0.431   1.781
 2231SOL     OW23834   5.577   6.429   6.424
 2231SOL    HW123835   5.484   6.429   6.446
 2231SOL    HW223836   5.590   0.061   6.373
 2232SOL     OW23837   0.868   2.187   6.449
 2232SOL    HW123838   0.860   2.100   6.412
 2232SOL    HW223839   0.945   2.224   6.407
 2233SOL     OW23840   0.748   4.245   6.900
 2233SOL    HW123841   0.765   4.337   6.919
 2233SOL    HW223842   0.835   4.205   6.896
 2234SOL     OW23843   6.264   2.944   1.262
 2234SOL    HW123844   6.215   2.967   1.341
 2234SOL    HW223845   6.200   2.900   1.206
 2235SOL     OW23846   2.631   1.920   5.708
 2235SOL    HW123847   2.560   1.875   5.755
 2235SOL    HW223848   2.646   1.867   5.630
 2236SOL     OW23849   3.886   4.249   6.685
 2236SOL    HW123850   3.825   4.264   6.613
 2236SOL    HW223851   3.830   4.250   6.764
 2237SOL     OW23852   3.605   1.459   7.307
 2237SOL    HW123853   3.586   1.549   7.333
 2237SOL    HW223854   3.692   1.442   7.344
 2238SOL     OW23855   4.042   0.424   6.593
 2238SOL    HW123856   4.018   0.396   6.505
 2238SOL    HW223857   3.958   0.439   6.637
 2239SOL     OW23858   4.897   3.986   1.349
 2239SOL    HW123859   4.867   3.965   1.438
 2239SOL    HW223860   4.878   3.907   1.298
 2240SOL     OW23861   5.948   1.064   1.194
 2240SOL    HW123862   5.921   1.147   1.156
 2240SOL    HW223863   6.044   1.067   1.194
 2241SOL     OW23864   4.977   2.666   1.969
 2241SOL    HW123865   5.036   2.684   1.896
 2241SOL    HW223866   5.017   2.591   2.014
 2242SOL     OW23867   6.137   2.220   2.116
 2242SOL    HW123868   6.065   2.182   2.166
 2242SOL    HW223869   6.146   2.309   2.151
 2243SOL     OW23870   3.524   2.091   5.942
 2243SOL    HW123871   3.462   2.020   5.926
 2243SOL    HW223872   3.552   2.077   6.033
 2244SOL     OW23873   4.326   1.542   2.340
 2244SOL    HW123874   4.377   1.618   2.370
 2244SOL    HW223875   4.359   1.524   2.252
 2245SOL     OW23876   4.674   5.121   6.342
 2245SOL    HW123877   4.719   5.064   6.279
 2245SOL    HW223878   4.742   5.144   6.405
 2246SOL     OW23879   3.195   2.975   6.066
 2246SOL    HW123880   3.220   2.975   5.973
 2246SOL    HW223881   3.116   3.029   6.069
 2247SOL     OW23882   0.721   1.751   6.104
 2247SOL    HW123883   0.673   1.773   6.024
 2247SOL    HW223884   0.812   1.771   6.082
 2248SOL     OW23885   3.067   1.084   0.640
 2248SOL    HW123886   3.142   1.140   0.620
 2248SOL    HW223887   3.106   1.008   0.685
 2249SOL     OW23888   3.284   1.917   5.216
 2249SOL    HW123889   3.201   1.888   5.176
 2249SOL    HW223890   3.347   1.849   5.191
 2250SOL     OW23891   0.653   6.229   1.206
 2250SOL    HW123892   0.642   6.277   1.123
 2250SOL    HW223893   0.622   6.290   1.273
 2251SOL     OW23894   0.726   3.894   7.015
 2251SOL    HW123895   0.662   3.890   6.944
 2251SOL    HW223896   0.673   3.909   7.094
 2252SOL     OW23897   2.501   6.381   7.640
 2252SOL    HW123898   2.587   6.357   7.675
 2252SOL    HW223899   2.513   6.378   7.545
 2253SOL     OW23900   1.128   1.216   6.731
 2253SOL    HW123901   1.167   1.270   6.800
 2253SOL    HW223902   1.034   1.226   6.743
 2254SOL     OW23903   0.660   2.313   7.325
 2254SOL    HW123904   0.577   2.348   7.355
 2254SOL    HW223905   0.670   2.348   7.237
 2255SOL     OW23906   3.382   5.059   6.218
 2255SOL    HW123907   3.472   5.075   6.248
 2255SOL    HW223908   3.341   5.011   6.291
 2256SOL     OW23909   2.839   4.832   6.344
 2256SOL    HW123910   2.904   4.899   6.320
 2256SOL    HW223911   2.890   4.761   6.383
 2257SOL     OW23912   1.981   1.102   1.017
 2257SOL    HW123913   1.971   1.017   1.060
 2257SOL    HW223914   2.074   1.122   1.023
 2258SOL     OW23915   6.297   1.265   7.306
 2258SOL    HW123916   6.250   1.285   7.225
 2258SOL    HW223917   6.278   1.339   7.363
 2259SOL     OW23918   5.246   3.413   1.219
 2259SOL    HW123919   5.232   3.437   1.127
 2259SOL    HW223920   5.341   3.406   1.228
 2260SOL     OW23921   1.366   3.996   0.412
 2260SOL    HW123922   1.372   4.031   0.501
 2260SOL    HW223923   1.456   4.001   0.378
 2261SOL     OW23924   5.726   3.936   0.115
 2261SOL    HW123925   5.701   3.964   0.203
 2261SOL    HW223926   5.704   3.843   0.113
 2262SOL     OW23927   5.380   3.226   0.638
 2262SOL    HW123928   5.406   3.144   0.595
 2262SOL    HW223929   5.427   3.294   0.591
 2263SOL     OW23930   4.834   5.984   7.457
 2263SOL    HW123931   4.833   5.989   7.553
 2263SOL    HW223932   4.765   5.920   7.436
 2264SOL     OW23933   6.075   3.271   0.329
 2264SOL    HW123934   6.157   3.249   0.373
 2264SOL    HW223935   6.103   3.310   0.246
 2265SOL     OW23936   1.826   3.914   6.289
 2265SOL    HW123937   1.825   3.861   6.209
 2265SOL    HW223938   1.905   3.885   6.336
 2266SOL     OW23939   0.595   0.551   7.010
 2266SOL    HW123940   0.641   0.579   7.088
 2266SOL    HW223941   0.662   0.510   6.955
 2267SOL     OW23942   0.463   5.668   2.140
 2267SOL    HW123943   0.495   5.723   2.068
 2267SOL    HW223944   0.370   5.690   2.147
 2268SOL     OW23945   0.442   5.186   1.953
 2268SOL    HW123946   0.369   5.153   2.005
 2268SOL    HW223947   0.484   5.108   1.917
 2269SOL     OW23948   2.706   4.185   0.737
 2269SOL    HW123949   2.767   4.139   0.679
 2269SOL    HW223950   2.620   4.154   0.711
 2270SOL     OW23951   3.105   3.388   0.849
 2270SOL    HW123952   3.195   3.379   0.878
 2270SOL    HW223953   3.093   3.319   0.785
 2271SOL     OW23954   5.310   5.470   0.738
 2271SOL    HW123955   5.276   5.551   0.776
 2271SOL    HW223956   5.381   5.444   0.796
 2272SOL     OW23957   1.761   6.215   1.836
 2272SOL    HW123958   1.835   6.153   1.843
 2272SOL    HW223959   1.708   6.180   1.764
 2273SOL     OW23960   0.472   5.644   6.588
 2273SOL    HW123961   0.501   5.607   6.672
 2273SOL    HW223962   0.429   5.726   6.612
 2274SOL     OW23963   5.779   0.983   7.101
 2274SOL    HW123964   5.872   0.980   7.121
 2274SOL    HW223965   5.752   0.892   7.097
 2275SOL     OW23966   6.333   3.247   0.448
 2275SOL    HW123967   6.334   3.341   0.465
 2275SOL    HW223968   6.423   3.226   0.427
 2276SOL     OW23969   1.393   6.248   6.377
 2276SOL    HW123970   1.386   6.178   6.442
 2276SOL    HW223971   1.309   6.295   6.384
 2277SOL     OW23972   4.444   1.768   2.428
 2277SOL    HW123973   4.479   1.834   2.368
 2277SOL    HW223974   4.467   1.800   2.515
 2278SOL     OW23975   1.485   1.196   6.396
 2278SOL    HW123976   1.417   1.253   6.431
 2278SOL    HW223977   1.564   1.251   6.394
 2279SOL     OW23978   3.375   1.166   1.404
 2279SOL    HW123979   3.335   1.109   1.470
 2279SOL    HW223980   3.323   1.152   1.325
 2280SOL     OW23981   1.293   0.701   7.694
 2280SOL    HW123982   1.388   0.691   7.683
 2280SOL    HW223983   1.262   0.725   7.607
 2281SOL     OW23984   3.031   3.862   1.150
 2281SOL    HW123985   3.050   3.813   1.229
 2281SOL    HW223986   3.103   3.926   1.144
 2282SOL     OW23987   3.710   5.641   1.363
 2282SOL    HW123988   3.764   5.595   1.427
 2282SOL    HW223989   3.620   5.619   1.386
 2283SOL     OW23990   6.359   2.830   6.595
 2283SOL    HW123991   6.367   2.889   6.670
 2283SOL    HW223992   6.342   2.888   6.521
 2284SOL     OW23993   2.719   1.251   6.319
 2284SOL    HW123994   2.631   1.284   6.340
 2284SOL    HW223995   2.714   1.228   6.226
 2285SOL     OW23996   3.626   2.956   6.108
 2285SOL    HW123997   3.555   2.892   6.115
 2285SOL    HW223998   3.623   3.004   6.191
 2286SOL     OW23999   2.068   0.519   6.269
 2286SOL    HW124000   1.997   0.475   6.222
 2286SOL    HW224001   2.118   0.447   6.308
 2287SOL     OW24002   3.813   2.281   6.454
 2287SOL    HW124003   3.808   2.188   6.431
 2287SOL    HW224004   3.803   2.283   6.549
 2288SOL     OW24005   0.714   2.920   0.157
 2288SOL    HW124006   0.771   2.986   0.196
 2288SOL    HW224007   0.694   2.954   0.070
 2289SOL     OW24008   4.336   5.260   0.697
 2289SOL    HW124009   4.285   5.237   0.775
 2289SOL    HW224010   4.399   5.189   0.690
 2290SOL     OW24011   4.222   0.758   7.042
 2290SOL    HW124012   4.222   0.681   6.985
 2290SOL    HW224013   4.202   0.831   6.983
 2291SOL     OW24014   0.377   1.530   6.216
 2291SOL    HW124015   0.381   1.459   6.151
 2291SOL    HW224016   0.369   1.610   6.164
 2292SOL     OW24017   3.910   0.138   6.175
 2292SOL    HW124018   3.876   0.050   6.156
 2292SOL    HW224019   3.866   0.195   6.112
 2293SOL     OW24020   6.019   6.191   7.456
 2293SOL    HW124021   5.988   6.207   7.367
 2293SOL    HW224022   6.025   6.095   7.463
 2294SOL     OW24023   1.163   2.773   1.653
 2294SOL    HW124024   1.149   2.751   1.560
 2294SOL    HW224025   1.258   2.776   1.662
 2295SOL     OW24026   4.638   1.456   2.187
 2295SOL    HW124027   4.551   1.470   2.149
 2295SOL    HW224028   4.665   1.542   2.219
 2296SOL     OW24029   6.029   4.623   6.641
 2296SOL    HW124030   5.957   4.641   6.581
 2296SOL    HW224031   6.077   4.706   6.646
 2297SOL     OW24032   1.534   4.162   6.696
 2297SOL    HW124033   1.461   4.137   6.639
 2297SOL    HW224034   1.570   4.079   6.727
 2298SOL     OW24035   5.292   2.837   0.946
 2298SOL    HW124036   5.330   2.919   0.976
 2298SOL    HW224037   5.228   2.814   1.014
 2299SOL     OW24038   4.662   3.120   5.323
 2299SOL    HW124039   4.649   3.032   5.289
 2299SOL    HW224040   4.574   3.158   5.325
 2300SOL     OW24041   2.683   3.418   5.662
 2300SOL    HW124042   2.683   3.338   5.716
 2300SOL    HW224043   2.739   3.479   5.710
 2301SOL     OW24044   5.296   1.007   0.874
 2301SOL    HW124045   5.243   1.065   0.820
 2301SOL    HW224046   5.386   1.022   0.844
 2302SOL     OW24047   2.505   1.723   6.068
 2302SOL    HW124048   2.594   1.749   6.091
 2302SOL    HW224049   2.492   1.757   5.980
 2303SOL     OW24050   2.457   6.419   0.507
 2303SOL    HW124051   2.426   0.061   0.496
 2303SOL    HW224052   2.378   6.371   0.534
 2304SOL     OW24053   2.902   1.308   7.114
 2304SOL    HW124054   2.867   1.386   7.070
 2304SOL    HW224055   2.960   1.269   7.049
 2305SOL     OW24056   0.606   0.908   7.769
 2305SOL    HW124057   0.628   0.969   7.699
 2305SOL    HW224058   0.604   0.822   7.726
 2306SOL     OW24059   4.046   1.917   1.550
 2306SOL    HW124060   4.001   1.871   1.479
 2306SOL    HW224061   3.979   1.975   1.587
 2307SOL     OW24062   4.246   4.152   1.082
 2307SOL    HW124063   4.241   4.230   1.138
 2307SOL    HW224064   4.249   4.187   0.993
 2308SOL     OW24065   2.407   1.867   7.778
 2308SOL    HW124066   2.426   1.909   7.695
 2308SOL    HW224067   2.343   1.924   0.018
 2309SOL     OW24068   3.879   2.657   0.318
 2309SOL    HW124069   3.833   2.692   0.241
 2309SOL    HW224070   3.874   2.562   0.308
 2310SOL     OW24071   5.134   2.940   1.651
 2310SOL    HW124072   5.175   2.961   1.566
 2310SOL    HW224073   5.139   3.022   1.700
 2311SOL     OW24074   5.256   2.745   6.472
 2311SOL    HW124075   5.223   2.763   6.385
 2311SOL    HW224076   5.336   2.694   6.457
 2312SOL     OW24077   4.763   0.278   6.812
 2312SOL    HW124078   4.724   0.277   6.724
 2312SOL    HW224079   4.818   0.356   6.814
 2313SOL     OW24080   0.947   4.083   1.945
 2313SOL    HW124081   0.935   4.162   1.892
 2313SOL    HW224082   0.881   4.090   2.013
 2314SOL     OW24083   3.204   2.877   7.505
 2314SOL    HW124084   3.116   2.914   7.508
 2314SOL    HW224085   3.232   2.890   7.414
 2315SOL     OW24086   3.874   2.594   7.725
 2315SOL    HW124087   3.789   2.574   7.686
 2315SOL    HW224088   3.853   2.639   0.004
 2316SOL     OW24089   3.813   5.519   0.328
 2316SOL    HW124090   3.785   5.582   0.261
 2316SOL    HW224091   3.770   5.437   0.304
 2317SOL     OW24092   4.454   4.368   2.298
 2317SOL    HW124093   4.494   4.290   2.336
 2317SOL    HW224094   4.407   4.409   2.370
 2318SOL     OW24095   3.170   1.805   5.444
 2318SOL    HW124096   3.129   1.725   5.412
 2318SOL    HW224097   3.215   1.841   5.368
 2319SOL     OW24098   0.123   1.367   5.990
 2319SOL    HW124099   0.217   1.374   6.005
 2319SOL    HW224100   0.107   1.273   5.988
 2320SOL     OW24101   0.431   0.539   6.222
 2320SOL    HW124102   0.486   0.536   6.144
 2320SOL    HW224103   0.474   0.480   6.284
 2321SOL     OW24104   0.424   2.409   6.721
 2321SOL    HW124105   0.516   2.428   6.702
 2321SOL    HW224106   0.416   2.419   6.816
 2322SOL     OW24107   0.621   0.108   6.942
 2322SOL    HW124108   0.669   0.165   7.002
 2322SOL    HW224109   0.649   0.137   6.855
 2323SOL     OW24110   1.315   2.723   6.948
 2323SOL    HW124111   1.378   2.663   6.909
 2323SOL    HW224112   1.263   2.668   7.008
 2324SOL     OW24113   0.857   6.181   6.544
 2324SOL    HW124114   0.879   6.127   6.468
 2324SOL    HW224115   0.762   6.170   6.554
 2325SOL     OW24116   2.224   6.127   1.910
 2325SOL    HW124117   2.263   6.151   1.826
 2325SOL    HW224118   2.272   6.048   1.937
 2326SOL     OW24119   2.702   6.387   6.976
 2326SOL    HW124120   2.739   6.310   7.020
 2326SOL    HW224121   2.650   6.430   7.044
 2327SOL     OW24122   3.847   5.498   1.556
 2327SOL    HW124123   3.864   5.563   1.624
 2327SOL    HW224124   3.934   5.479   1.520
 2328SOL     OW24125   3.898   5.747   2.124
 2328SOL    HW124126   3.919   5.675   2.064
 2328SOL    HW224127   3.817   5.719   2.167
 2329SOL     OW24128   4.016   2.769   6.137
 2329SOL    HW124129   4.047   2.781   6.047
 2329SOL    HW224130   3.936   2.717   6.128
 2330SOL     OW24131   4.974   0.774   6.110
 2330SOL    HW124132   4.958   0.744   6.020
 2330SOL    HW224133   4.887   0.794   6.144
 2331SOL     OW24134   0.872   6.222   0.324
 2331SOL    HW124135   0.946   6.177   0.284
 2331SOL    HW224136   0.866   6.305   0.278
 2332SOL     OW24137   5.810   3.934   7.106
 2332SOL    HW124138   5.837   3.851   7.144
 2332SOL    HW224139   5.740   3.965   7.163
 2333SOL     OW24140   5.883   5.920   7.190
 2333SOL    HW124141   5.868   5.958   7.104
 2333SOL    HW224142   5.795   5.907   7.226
 2334SOL     OW24143   4.583   3.849   1.124
 2334SOL    HW124144   4.582   3.902   1.044
 2334SOL    HW224145   4.495   3.811   1.129
 2335SOL     OW24146   6.087   3.164   7.784
 2335SOL    HW124147   6.133   3.236   0.023
 2335SOL    HW224148   6.155   3.117   7.736
 2336SOL     OW24149   2.192   5.207   2.510
 2336SOL    HW124150   2.277   5.241   2.538
 2336SOL    HW224151   2.147   5.283   2.473
 2337SOL     OW24152   0.006   6.306   0.863
 2337SOL    HW124153   6.421   6.358   0.935
 2337SOL    HW224154   6.422   6.217   0.879
 2338SOL     OW24155   1.697   4.264   2.196
 2338SOL    HW124156   1.778   4.268   2.247
 2338SOL    HW224157   1.692   4.349   2.153
 2339SOL     OW24158   1.133   4.289   0.381
 2339SOL    HW124159   1.131   4.246   0.466
 2339SOL    HW224160   1.204   4.245   0.334
 2340SOL     OW24161   2.799   1.055   0.036
 2340SOL    HW124162   2.892   1.040   0.021
 2340SOL    HW224163   2.783   1.019   0.123
 2341SOL     OW24164   5.254   5.599   5.506
 2341SOL    HW124165   5.235   5.545   5.429
 2341SOL    HW224166   5.187   5.574   5.570
 2342SOL     OW24167   1.131   3.580   1.380
 2342SOL    HW124168   1.074   3.504   1.383
 2342SOL    HW224169   1.144   3.603   1.472
 2343SOL     OW24170   6.361   0.184   6.599
 2343SOL    HW124171   6.420   0.109   6.598
 2343SOL    HW224172   6.373   0.224   6.686
 2344SOL     OW24173   2.158   5.371   5.668
 2344SOL    HW124174   2.137   5.292   5.719
 2344SOL    HW224175   2.205   5.338   5.591
 2345SOL     OW24176   5.571   0.351   6.527
 2345SOL    HW124177   5.630   0.424   6.508
 2345SOL    HW224178   5.574   0.296   6.448
 2346SOL     OW24179   0.159   3.566   0.925
 2346SOL    HW124180   0.214   3.527   0.858
 2346SOL    HW224181   0.192   3.529   1.007
 2347SOL     OW24182   2.413   3.213   5.748
 2347SOL    HW124183   2.382   3.191   5.835
 2347SOL    HW224184   2.508   3.212   5.755
 2348SOL     OW24185   0.787   4.819   1.299
 2348SOL    HW124186   0.859   4.806   1.237
 2348SOL    HW224187   0.739   4.894   1.264
 2349SOL     OW24188   1.360   0.204   6.814
 2349SOL    HW124189   1.350   0.118   6.774
 2349SOL    HW224190   1.277   0.248   6.798
 2350SOL     OW24191   1.419   1.772   6.618
 2350SOL    HW124192   1.326   1.782   6.637
 2350SOL    HW224193   1.426   1.685   6.578
 2351SOL     OW24194   4.926   0.930   1.126
 2351SOL    HW124195   4.968   0.906   1.043
 2351SOL    HW224196   4.911   0.846   1.169
 2352SOL     OW24197   3.787   2.644   5.415
 2352SOL    HW124198   3.828   2.619   5.498
 2352SOL    HW224199   3.705   2.594   5.413
 2353SOL     OW24200   2.082   1.496   1.964
 2353SOL    HW124201   2.018   1.440   1.919
 2353SOL    HW224202   2.156   1.439   1.981
 2354SOL     OW24203   0.733   3.138   0.406
 2354SOL    HW124204   0.690   3.200   0.346
 2354SOL    HW224205   0.667   3.119   0.472
 2355SOL     OW24206   1.207   1.312   6.479
 2355SOL    HW124207   1.193   1.266   6.561
 2355SOL    HW224208   1.164   1.397   6.491
 2356SOL     OW24209   1.237   0.018   1.104
 2356SOL    HW124210   1.145   0.028   1.131
 2356SOL    HW224211   1.286   0.070   1.167
 2357SOL     OW24212   2.482   1.362   6.401
 2357SOL    HW124213   2.442   1.411   6.329
 2357SOL    HW224214   2.500   1.427   6.469
 2358SOL     OW24215   2.376   4.818   6.926
 2358SOL    HW124216   2.308   4.818   6.859
 2358SOL    HW224217   2.350   4.887   6.987
 2359SOL     OW24218   2.138   2.056   7.337
 2359SOL    HW124219   2.184   1.973   7.340
 2359SOL    HW224220   2.196   2.117   7.383
 2360SOL     OW24221   1.109   2.717   1.391
 2360SOL    HW124222   1.065   2.792   1.351
 2360SOL    HW224223   1.128   2.658   1.318
 2361SOL     OW24224   4.885   5.079   6.903
 2361SOL    HW124225   4.978   5.071   6.925
 2361SOL    HW224226   4.867   5.004   6.846
 2362SOL     OW24227   6.412   1.323   0.639
 2362SOL    HW124228   0.034   1.384   0.660
 2362SOL    HW224229   6.353   1.373   0.583
 2363SOL     OW24230   5.099   6.033   1.094
 2363SOL    HW124231   5.048   5.952   1.092
 2363SOL    HW224232   5.100   6.063   1.003
 2364SOL     OW24233   3.605   2.075   6.217
 2364SOL    HW124234   3.673   2.049   6.279
 2364SOL    HW224235   3.524   2.071   6.267
 2365SOL     OW24236   5.737   0.180   1.015
 2365SOL    HW124237   5.769   0.103   0.968
 2365SOL    HW224238   5.678   0.224   0.954
 2366SOL     OW24239   1.634   3.208   0.755
 2366SOL    HW124240   1.547   3.174   0.735
 2366SOL    HW224241   1.636   3.294   0.714
 2367SOL     OW24242   3.427   2.695   7.510
 2367SOL    HW124243   3.418   2.648   7.427
 2367SOL    HW224244   3.348   2.748   7.516
 2368SOL     OW24245   1.608   5.004   1.804
 2368SOL    HW124246   1.660   4.925   1.790
 2368SOL    HW224247   1.521   4.973   1.828
 2369SOL     OW24248   5.790   4.722   1.589
 2369SOL    HW124249   5.766   4.651   1.649
 2369SOL    HW224250   5.706   4.757   1.560
 2370SOL     OW24251   0.917   0.180   6.891
 2370SOL    HW124252   0.913   0.084   6.886
 2370SOL    HW224253   0.890   0.200   6.981
 2371SOL     OW24254   1.658   4.844   0.833
 2371SOL    HW124255   1.654   4.766   0.889
 2371SOL    HW224256   1.742   4.836   0.787
 2372SOL     OW24257   1.689   6.307   0.220
 2372SOL    HW124258   1.760   6.336   0.162
 2372SOL    HW224259   1.717   6.221   0.250
 2373SOL     OW24260   0.115   5.154   0.562
 2373SOL    HW124261   0.129   5.226   0.500
 2373SOL    HW224262   0.079   5.196   0.640
 2374SOL     OW24263   3.511   4.961   1.356
 2374SOL    HW124264   3.512   4.959   1.260
 2374SOL    HW224265   3.570   5.033   1.379
 2375SOL     OW24266   1.368   1.348   1.371
 2375SOL    HW124267   1.336   1.328   1.283
 2375SOL    HW224268   1.457   1.311   1.373
 2376SOL     OW24269   1.916   0.872   0.069
 2376SOL    HW124270   1.930   0.956   0.025
 2376SOL    HW224271   1.821   0.864   0.075
 2377SOL     OW24272   4.812   1.877   1.555
 2377SOL    HW124273   4.719   1.899   1.551
 2377SOL    HW224274   4.815   1.784   1.535
 2378SOL     OW24275   0.594   2.831   7.162
 2378SOL    HW124276   0.624   2.916   7.194
 2378SOL    HW224277   0.634   2.822   7.076
 2379SOL     OW24278   1.887   5.496   0.312
 2379SOL    HW124279   1.841   5.415   0.334
 2379SOL    HW224280   1.955   5.504   0.380
 2380SOL     OW24281   4.918   5.699   0.021
 2380SOL    HW124282   4.877   5.714   0.106
 2380SOL    HW224283   5.002   5.657   0.042
 2381SOL     OW24284   6.238   4.620   7.652
 2381SOL    HW124285   6.326   4.594   7.624
 2381SOL    HW224286   6.252   4.695   7.710
 2382SOL     OW24287   4.204   6.066   1.003
 2382SOL    HW124288   4.130   6.093   1.058
 2382SOL    HW224289   4.166   6.004   0.940
 2383SOL     OW24290   1.427   3.738   0.161
 2383SOL    HW124291   1.347   3.686   0.157
 2383SOL    HW224292   1.405   3.820   0.116
 2384SOL     OW24293   3.650   0.998   7.758
 2384SOL    HW124294   3.589   0.947   0.008
 2384SOL    HW224295   3.729   0.945   7.755
 2385SOL     OW24296   2.358   1.818   6.907
 2385SOL    HW124297   2.322   1.791   6.991
 2385SOL    HW224298   2.391   1.738   6.867
 2386SOL     OW24299   0.067   1.371   6.494
 2386SOL    HW124300   0.025   1.339   6.574
 2386SOL    HW224301   0.151   1.324   6.491
 2387SOL     OW24302   1.669   4.575   1.483
 2387SOL    HW124303   1.699   4.484   1.488
 2387SOL    HW224304   1.613   4.586   1.560
 2388SOL     OW24305   3.384   2.762   1.783
 2388SOL    HW124306   3.353   2.685   1.831
 2388SOL    HW224307   3.345   2.837   1.828
 2389SOL     OW24308   1.693   1.487   1.015
 2389SOL    HW124309   1.611   1.446   0.988
 2389SOL    HW224310   1.697   1.569   0.965
 2390SOL     OW24311   4.035   3.117   1.363
 2390SOL    HW124312   4.040   3.208   1.334
 2390SOL    HW224313   4.093   3.113   1.439
 2391SOL     OW24314   1.044   0.556   6.891
 2391SOL    HW124315   1.017   0.646   6.874
 2391SOL    HW224316   1.101   0.562   6.967
 2392SOL     OW24317   0.279   2.404   6.095
 2392SOL    HW124318   0.310   2.432   6.009
 2392SOL    HW224319   0.353   2.418   6.153
 2393SOL     OW24320   4.511   5.351   2.118
 2393SOL    HW124321   4.574   5.297   2.070
 2393SOL    HW224322   4.476   5.412   2.053
 2394SOL     OW24323   0.740   3.562   7.512
 2394SOL    HW124324   0.726   3.505   7.588
 2394SOL    HW224325   0.717   3.509   7.437
 2395SOL     OW24326   4.061   2.621   6.621
 2395SOL    HW124327   4.002   2.609   6.695
 2395SOL    HW224328   4.131   2.557   6.635
 2396SOL     OW24329   5.813   1.580   7.010
 2396SOL    HW124330   5.905   1.594   7.030
 2396SOL    HW224331   5.812   1.557   6.917
 2397SOL     OW24332   5.051   4.217   2.048
 2397SOL    HW124333   5.060   4.238   1.955
 2397SOL    HW224334   5.062   4.301   2.093
 2398SOL     OW24335   0.739   0.646   7.234
 2398SOL    HW124336   0.758   0.728   7.190
 2398SOL    HW224337   0.804   0.640   7.304
 2399SOL     OW24338   4.384   5.995   6.088
 2399SOL    HW124339   4.344   5.943   6.018
 2399SOL    HW224340   4.438   6.059   6.042
 2400SOL     OW24341   3.679   3.486   6.844
 2400SOL    HW124342   3.728   3.534   6.912
 2400SOL    HW224343   3.692   3.394   6.867
 2401SOL     OW24344   5.905   4.943   6.440
 2401SOL    HW124345   5.985   4.936   6.388
 2401SOL    HW224346   5.870   4.854   6.442
 2402SOL     OW24347   3.658   3.510   0.674
 2402SOL    HW124348   3.574   3.549   0.699
 2402SOL    HW224349   3.723   3.575   0.702
 2403SOL     OW24350   2.397   1.669   1.498
 2403SOL    HW124351   2.453   1.643   1.425
 2403SOL    HW224352   2.368   1.587   1.537
 2404SOL     OW24353   3.476   3.028   5.622
 2404SOL    HW124354   3.480   2.991   5.534
 2404SOL    HW224355   3.459   3.121   5.609
 2405SOL     OW24356   1.291   4.708   1.561
 2405SOL    HW124357   1.279   4.653   1.484
 2405SOL    HW224358   1.203   4.721   1.596
 2406SOL     OW24359   4.939   0.488   7.284
 2406SOL    HW124360   4.901   0.564   7.239
 2406SOL    HW224361   4.982   0.438   7.215
 2407SOL     OW24362   5.122   5.121   6.668
 2407SOL    HW124363   5.159   5.208   6.658
 2407SOL    HW224364   5.132   5.100   6.761
 2408SOL     OW24365   0.128   0.063   1.608
 2408SOL    HW124366   0.173   0.037   1.689
 2408SOL    HW224367   0.144   6.438   1.548
 2409SOL     OW24368   0.108   6.413   7.585
 2409SOL    HW124369   0.141   6.323   7.577
 2409SOL    HW224370   0.171   0.008   7.642
 2410SOL     OW24371   1.433   1.239   1.825
 2410SOL    HW124372   1.450   1.160   1.876
 2410SOL    HW224373   1.518   1.284   1.823
 2411SOL     OW24374   2.958   0.801   0.213
 2411SOL    HW124375   2.890   0.855   0.253
 2411SOL    HW224376   2.913   0.755   0.141
 2412SOL     OW24377   0.864   6.306   7.159
 2412SOL    HW124378   0.776   6.325   7.193
 2412SOL    HW224379   0.860   6.333   7.068
 2413SOL     OW24380   5.055   2.322   7.736
 2413SOL    HW124381   5.098   2.335   0.018
 2413SOL    HW224382   5.111   2.370   7.674
 2414SOL     OW24383   1.995   1.522   0.753
 2414SOL    HW124384   1.986   1.536   0.847
 2414SOL    HW224385   2.090   1.514   0.739
 2415SOL     OW24386   4.191   6.416   1.653
 2415SOL    HW124387   4.214   6.333   1.612
 2415SOL    HW224388   4.269   0.023   1.640
 2416SOL     OW24389   4.356   1.674   1.154
 2416SOL    HW124390   4.386   1.610   1.090
 2416SOL    HW224391   4.437   1.714   1.188
 2417SOL     OW24392   1.076   4.391   7.358
 2417SOL    HW124393   0.995   4.408   7.405
 2417SOL    HW224394   1.054   4.401   7.265
 2418SOL     OW24395   3.027   1.569   5.370
 2418SOL    HW124396   3.010   1.523   5.288
 2418SOL    HW224397   2.961   1.637   5.375
 2419SOL     OW24398   4.500   3.188   6.347
 2419SOL    HW124399   4.534   3.099   6.335
 2419SOL    HW224400   4.407   3.176   6.365
 2420SOL     OW24401   1.179   6.427   6.367
 2420SOL    HW124402   1.219   0.044   6.309
 2420SOL    HW224403   1.085   6.436   6.353
 2421SOL     OW24404   2.704   1.139   1.493
 2421SOL    HW124405   2.775   1.189   1.533
 2421SOL    HW224406   2.729   1.048   1.505
 2422SOL     OW24407   3.599   4.720   0.711
 2422SOL    HW124408   3.544   4.653   0.671
 2422SOL    HW224409   3.572   4.722   0.803
 2423SOL     OW24410   5.383   4.334   2.480
 2423SOL    HW124411   5.440   4.396   2.435
 2423SOL    HW224412   5.318   4.390   2.524
 2424SOL     OW24413   1.816   4.584   0.375
 2424SOL    HW124414   1.835   4.576   0.469
 2424SOL    HW224415   1.856   4.667   0.349
 2425SOL     OW24416   5.367   0.632   7.791
 2425SOL    HW124417   5.444   0.576   7.782
 2425SOL    HW224418   5.358   0.674   7.706
 2426SOL     OW24419   5.652   3.492   6.888
 2426SOL    HW124420   5.718   3.428   6.913
 2426SOL    HW224421   5.642   3.549   6.965
 2427SOL     OW24422   3.145   3.139   1.095
 2427SOL    HW124423   3.091   3.124   1.017
 2427SOL    HW224424   3.086   3.182   1.157
 2428SOL     OW24425   5.082   3.523   5.597
 2428SOL    HW124426   5.055   3.612   5.577
 2428SOL    HW224427   5.128   3.494   5.518
 2429SOL     OW24428   2.294   4.196   0.143
 2429SOL    HW124429   2.267   4.194   0.051
 2429SOL    HW224430   2.332   4.110   0.159
 2430SOL     OW24431   2.029   0.664   5.671
 2430SOL    HW124432   1.961   0.624   5.617
 2430SOL    HW224433   2.097   0.690   5.609
 2431SOL     OW24434   2.317   3.848   6.770
 2431SOL    HW124435   2.355   3.847   6.859
 2431SOL    HW224436   2.240   3.791   6.776
 2432SOL     OW24437   2.420   3.904   1.241
 2432SOL    HW124438   2.426   3.887   1.147
 2432SOL    HW224439   2.508   3.887   1.274
 2433SOL     OW24440   6.112   5.529   1.593
 2433SOL    HW124441   6.180   5.510   1.529
 2433SOL    HW224442   6.159   5.566   1.668
 2434SOL     OW24443   0.730   2.067   1.344
 2434SOL    HW124444   0.756   2.149   1.387
 2434SOL    HW224445   0.806   2.010   1.353
 2435SOL     OW24446   5.613   5.145   0.917
 2435SOL    HW124447   5.608   5.092   0.838
 2435SOL    HW224448   5.698   5.189   0.912
 2436SOL     OW24449   0.058   4.945   6.220
 2436SOL    HW124450   0.118   4.921   6.150
 2436SOL    HW224451   6.425   4.969   6.175
 2437SOL     OW24452   6.184   6.201   6.333
 2437SOL    HW124453   6.247   6.225   6.265
 2437SOL    HW224454   6.190   6.106   6.339
 2438SOL     OW24455   1.621   3.909   6.763
 2438SOL    HW124456   1.591   3.820   6.747
 2438SOL    HW224457   1.668   3.905   6.846
 2439SOL     OW24458   0.937   1.890   1.368
 2439SOL    HW124459   1.024   1.903   1.405
 2439SOL    HW224460   0.925   1.795   1.367
 2440SOL     OW24461   5.100   4.300   1.797
 2440SOL    HW124462   5.059   4.274   1.714
 2440SOL    HW224463   5.194   4.298   1.779
 2441SOL     OW24464   2.575   2.296   5.468
 2441SOL    HW124465   2.564   2.223   5.407
 2441SOL    HW224466   2.497   2.350   5.454
 2442SOL     OW24467   4.548   5.191   5.957
 2442SOL    HW124468   4.497   5.265   5.923
 2442SOL    HW224469   4.631   5.195   5.908
 2443SOL     OW24470   1.672   4.096   6.415
 2443SOL    HW124471   1.728   4.032   6.370
 2443SOL    HW224472   1.601   4.044   6.452
 2444SOL     OW24473   5.379   0.035   6.746
 2444SOL    HW124474   5.381   0.130   6.752
 2444SOL    HW224475   5.363   0.018   6.653
 2445SOL     OW24476   0.451   3.113   6.368
 2445SOL    HW124477   0.473   3.020   6.361
 2445SOL    HW224478   0.535   3.158   6.372
 2446SOL     OW24479   5.144   4.903   1.674
 2446SOL    HW124480   5.144   4.836   1.606
 2446SOL    HW224481   5.092   4.865   1.745
 2447SOL     OW24482   5.856   1.395   2.335
 2447SOL    HW124483   5.821   1.478   2.301
 2447SOL    HW224484   5.794   1.370   2.404
 2448SOL     OW24485   5.411   4.755   0.429
 2448SOL    HW124486   5.411   4.777   0.522
 2448SOL    HW224487   5.487   4.699   0.417
 2449SOL     OW24488   3.037   1.999   6.761
 2449SOL    HW124489   3.003   2.010   6.850
 2449SOL    HW224490   3.111   1.939   6.771
 2450SOL     OW24491   5.529   4.378   6.521
 2450SOL    HW124492   5.522   4.350   6.430
 2450SOL    HW224493   5.471   4.318   6.569
 2451SOL     OW24494   5.759   3.302   0.702
 2451SOL    HW124495   5.834   3.345   0.744
 2451SOL    HW224496   5.799   3.241   0.640
 2452SOL     OW24497   2.656   1.177   4.947
 2452SOL    HW124498   2.597   1.223   4.887
 2452SOL    HW224499   2.612   1.182   5.032
 2453SOL     OW24500   6.413   4.694   6.034
 2453SOL    HW124501   0.054   4.685   6.001
 2453SOL    HW224502   6.399   4.788   6.042
 2454SOL     OW24503   6.404   3.707   5.636
 2454SOL    HW124504   0.039   3.668   5.608
 2454SOL    HW224505   6.418   3.801   5.631
 2455SOL     OW24506   0.320   2.847   7.156
 2455SOL    HW124507   0.300   2.799   7.075
 2455SOL    HW224508   0.415   2.837   7.167
 2456SOL     OW24509   6.044   0.659   1.045
 2456SOL    HW124510   5.984   0.727   1.016
 2456SOL    HW224511   6.092   0.699   1.118
 2457SOL     OW24512   4.657   6.289   1.017
 2457SOL    HW124513   4.746   6.301   1.049
 2457SOL    HW224514   4.603   6.291   1.097
 2458SOL     OW24515   3.787   2.806   7.445
 2458SOL    HW124516   3.769   2.901   7.446
 2458SOL    HW224517   3.872   2.797   7.488
 2459SOL     OW24518   0.645   2.057   7.163
 2459SOL    HW124519   0.641   2.152   7.167
 2459SOL    HW224520   0.633   2.037   7.070
 2460SOL     OW24521   3.994   0.329   6.340
 2460SOL    HW124522   3.964   0.256   6.285
 2460SOL    HW224523   4.076   0.358   6.299
 2461SOL     OW24524   1.494   4.865   7.188
 2461SOL    HW124525   1.452   4.921   7.124
 2461SOL    HW224526   1.481   4.909   7.272
 2462SOL     OW24527   4.960   2.602   6.386
 2462SOL    HW124528   4.947   2.608   6.291
 2462SOL    HW224529   5.046   2.560   6.396
 2463SOL     OW24530   2.302   1.669   1.976
 2463SOL    HW124531   2.216   1.628   1.973
 2463SOL    HW224532   2.359   1.608   1.929
 2464SOL     OW24533   1.998   0.418   0.384
 2464SOL    HW124534   1.911   0.379   0.391
 2464SOL    HW224535   1.990   0.484   0.314
 2465SOL     OW24536   1.410   0.353   6.012
 2465SOL    HW124537   1.377   0.287   6.073
 2465SOL    HW224538   1.432   0.304   5.933
 2466SOL     OW24539   0.139   2.191   1.622
 2466SOL    HW124540   0.088   2.138   1.684
 2466SOL    HW224541   0.124   2.149   1.537
 2467SOL     OW24542   0.645   0.929   5.393
 2467SOL    HW124543   0.718   0.947   5.334
 2467SOL    HW224544   0.662   0.841   5.427
 2468SOL     OW24545   2.749   4.103   0.144
 2468SOL    HW124546   2.806   4.140   0.212
 2468SOL    HW224547   2.675   4.164   0.140
 2469SOL     OW24548   1.528   5.855   7.109
 2469SOL    HW124549   1.448   5.904   7.132
 2469SOL    HW224550   1.578   5.852   7.190
 2470SOL     OW24551   6.060   4.430   1.580
 2470SOL    HW124552   6.064   4.452   1.672
 2470SOL    HW224553   6.136   4.374   1.565
 2471SOL     OW24554   4.675   0.542   0.480
 2471SOL    HW124555   4.626   0.621   0.504
 2471SOL    HW224556   4.763   0.557   0.514
 2472SOL     OW24557   4.639   1.444   7.762
 2472SOL    HW124558   4.596   1.528   7.747
 2472SOL    HW224559   4.651   1.408   7.674
 2473SOL     OW24560   4.825   5.847   6.460
 2473SOL    HW124561   4.772   5.773   6.489
 2473SOL    HW224562   4.785   5.924   6.502
 2474SOL     OW24563   5.604   4.593   6.674
 2474SOL    HW124564   5.591   4.512   6.625
 2474SOL    HW224565   5.564   4.660   6.619
 2475SOL     OW24566   0.091   3.117   7.489
 2475SOL    HW124567   0.052   3.031   7.508
 2475SOL    HW224568   0.151   3.100   7.416
 2476SOL     OW24569   3.188   6.361   7.129
 2476SOL    HW124570   3.154   6.381   7.042
 2476SOL    HW224571   3.154   6.274   7.149
 2477SOL     OW24572   1.854   1.261   0.817
 2477SOL    HW124573   1.919   1.213   0.868
 2477SOL    HW224574   1.903   1.332   0.777
 2478SOL     OW24575   2.961   2.149   1.209
 2478SOL    HW124576   2.888   2.185   1.160
 2478SOL    HW224577   2.967   2.058   1.180
 2479SOL     OW24578   5.035   0.918   0.055
 2479SOL    HW124579   5.063   0.906   0.146
 2479SOL    HW224580   4.984   0.839   0.035
 2480SOL     OW24581   0.030   5.667   1.468
 2480SOL    HW124582   6.422   5.592   1.448
 2480SOL    HW224583   0.059   5.700   1.383
 2481SOL     OW24584   5.027   4.804   1.906
 2481SOL    HW124585   5.010   4.895   1.931
 2481SOL    HW224586   5.008   4.754   1.985
 2482SOL     OW24587   2.443   3.243   7.568
 2482SOL    HW124588   2.389   3.172   7.534
 2482SOL    HW224589   2.508   3.259   7.500
 2483SOL     OW24590   0.953   5.125   1.057
 2483SOL    HW124591   1.029   5.079   1.092
 2483SOL    HW224592   0.910   5.062   1.000
 2484SOL     OW24593   1.029   3.603   0.979
 2484SOL    HW124594   1.050   3.528   1.034
 2484SOL    HW224595   0.946   3.636   1.014
 2485SOL     OW24596   0.883   0.644   7.724
 2485SOL    HW124597   0.941   0.710   7.762
 2485SOL    HW224598   0.833   0.610   7.799
 2486SOL     OW24599   6.374   0.136   1.435
 2486SOL    HW124600   6.424   0.140   1.353
 2486SOL    HW224601   6.439   0.116   1.502
 2487SOL     OW24602   0.678   2.473   6.654
 2487SOL    HW124603   0.760   2.433   6.682
 2487SOL    HW224604   0.693   2.567   6.664
 2488SOL     OW24605   0.657   1.722   0.432
 2488SOL    HW124606   0.713   1.756   0.362
 2488SOL    HW224607   0.711   1.658   0.477
 2489SOL     OW24608   2.855   0.030   0.698
 2489SOL    HW124609   2.793   6.424   0.747
 2489SOL    HW224610   2.876   6.425   0.621
 2490SOL     OW24611   3.876   6.416   7.686
 2490SOL    HW124612   3.870   6.426   7.591
 2490SOL    HW224613   3.956   0.015   7.710
 2491SOL     OW24614   0.257   5.222   6.213
 2491SOL    HW124615   0.274   5.141   6.260
 2491SOL    HW224616   0.252   5.197   6.121
 2492SOL     OW24617   5.973   4.891   7.708
 2492SOL    HW124618   5.967   4.914   7.616
 2492SOL    HW224619   6.067   4.895   7.727
 2493SOL     OW24620   4.547   6.175   1.842
 2493SOL    HW124621   4.537   6.247   1.905
 2493SOL    HW224622   4.467   6.123   1.851
 2494SOL     OW24623   3.830   4.615   1.858
 2494SOL    HW124624   3.800   4.676   1.791
 2494SOL    HW224625   3.750   4.579   1.896
 2495SOL     OW24626   3.078   0.032   7.366
 2495SOL    HW124627   3.110   0.006   7.280
 2495SOL    HW224628   3.155   0.031   7.422
 2496SOL     OW24629   3.751   2.866   5.257
 2496SOL    HW124630   3.771   2.793   5.315
 2496SOL    HW224631   3.803   2.849   5.178
 2497SOL     OW24632   3.377   4.262   7.659
 2497SOL    HW124633   3.429   4.275   7.580
 2497SOL    HW224634   3.381   4.346   7.705
 2498SOL     OW24635   3.597   0.428   6.573
 2498SOL    HW124636   3.631   0.412   6.485
 2498SOL    HW224637   3.513   0.472   6.558
 2499SOL     OW24638   3.803   4.785   7.763
 2499SOL    HW124639   3.822   4.698   7.727
 2499SOL    HW224640   3.888   4.829   7.766
 2500SOL     OW24641   2.983   0.775   6.393
 2500SOL    HW124642   2.921   0.846   6.411
 2500SOL    HW224643   2.955   0.740   6.309
 2501SOL     OW24644   5.692   3.573   6.629
 2501SOL    HW124645   5.674   3.548   6.719
 2501SOL    HW224646   5.682   3.668   6.627
 2502SOL     OW24647   5.051   2.975   6.341
 2502SOL    HW124648   5.092   3.054   6.306
 2502SOL    HW224649   5.095   2.903   6.295
 2503SOL     OW24650   1.902   1.767   6.589
 2503SOL    HW124651   1.973   1.758   6.525
 2503SOL    HW224652   1.828   1.720   6.550
 2504SOL     OW24653   4.817   5.635   0.706
 2504SOL    HW124654   4.849   5.723   0.728
 2504SOL    HW224655   4.838   5.626   0.613
 2505SOL     OW24656   5.566   2.346   6.413
 2505SOL    HW124657   5.589   2.265   6.367
 2505SOL    HW224658   5.507   2.317   6.483
 2506SOL     OW24659   3.254   4.286   0.987
 2506SOL    HW124660   3.173   4.279   0.937
 2506SOL    HW224661   3.321   4.304   0.922
 2507SOL     OW24662   2.541   5.717   7.255
 2507SOL    HW124663   2.586   5.797   7.228
 2507SOL    HW224664   2.556   5.711   7.349
 2508SOL     OW24665   6.064   4.506   6.346
 2508SOL    HW124666   6.110   4.523   6.428
 2508SOL    HW224667   6.131   4.515   6.279
 2509SOL     OW24668   0.902   6.096   5.836
 2509SOL    HW124669   0.967   6.096   5.765
 2509SOL    HW224670   0.819   6.079   5.792
 2510SOL     OW24671   0.530   0.767   6.490
 2510SOL    HW124672   0.606   0.711   6.477
 2510SOL    HW224673   0.551   0.848   6.443
 2511SOL     OW24674   6.284   0.090   2.045
 2511SOL    HW124675   6.234   0.171   2.061
 2511SOL    HW224676   6.366   0.120   2.005
 2512SOL     OW24677   1.580   0.288   6.942
 2512SOL    HW124678   1.612   0.205   6.977
 2512SOL    HW224679   1.502   0.265   6.891
 2513SOL     OW24680   2.645   4.913   6.922
 2513SOL    HW124681   2.647   4.963   6.840
 2513SOL    HW224682   2.560   4.869   6.921
 2514SOL     OW24683   4.789   4.545   0.703
 2514SOL    HW124684   4.733   4.516   0.775
 2514SOL    HW224685   4.850   4.607   0.743
 2515SOL     OW24686   0.998   2.230   1.089
 2515SOL    HW124687   1.013   2.214   1.182
 2515SOL    HW224688   1.072   2.188   1.045
 2516SOL     OW24689   0.243   2.872   1.694
 2516SOL    HW124690   0.169   2.902   1.748
 2516SOL    HW224691   0.251   2.939   1.626
 2517SOL     OW24692   6.308   0.035   7.325
 2517SOL    HW124693   6.320   6.407   7.382
 2517SOL    HW224694   6.281   6.446   7.241
 2518SOL     OW24695   0.215   3.455   5.806
 2518SOL    HW124696   0.290   3.402   5.781
 2518SOL    HW224697   0.187   3.496   5.725
 2519SOL     OW24698   4.078   4.923   6.616
 2519SOL    HW124699   4.152   4.903   6.674
 2519SOL    HW224700   4.014   4.855   6.636
 2520SOL     OW24701   2.481   6.119   5.710
 2520SOL    HW124702   2.537   6.052   5.670
 2520SOL    HW224703   2.415   6.138   5.644
 2521SOL     OW24704   4.384   4.817   7.348
 2521SOL    HW124705   4.442   4.882   7.308
 2521SOL    HW224706   4.381   4.745   7.284
 2522SOL     OW24707   4.473   2.206   2.201
 2522SOL    HW124708   4.433   2.208   2.113
 2522SOL    HW224709   4.494   2.113   2.215
 2523SOL     OW24710   1.187   0.970   5.810
 2523SOL    HW124711   1.154   0.923   5.886
 2523SOL    HW224712   1.108   0.989   5.758
 2524SOL     OW24713   5.340   4.769   1.855
 2524SOL    HW124714   5.307   4.748   1.943
 2524SOL    HW224715   5.281   4.836   1.822
 2525SOL     OW24716   5.283   3.855   5.605
 2525SOL    HW124717   5.315   3.944   5.619
 2525SOL    HW224718   5.315   3.832   5.518
 2526SOL     OW24719   1.244   5.237   1.291
 2526SOL    HW124720   1.176   5.223   1.358
 2526SOL    HW224721   1.287   5.319   1.318
 2527SOL     OW24722   0.983   1.028   5.638
 2527SOL    HW124723   0.888   1.033   5.625
 2527SOL    HW224724   1.017   0.992   5.556
 2528SOL     OW24725   2.660   2.262   1.681
 2528SOL    HW124726   2.646   2.355   1.696
 2528SOL    HW224727   2.611   2.219   1.751
 2529SOL     OW24728   6.220   1.941   5.767
 2529SOL    HW124729   6.251   2.008   5.706
 2529SOL    HW224730   6.282   1.870   5.758
 2530SOL     OW24731   5.785   0.469   2.265
 2530SOL    HW124732   5.818   0.385   2.295
 2530SOL    HW224733   5.822   0.479   2.177
 2531SOL     OW24734   0.621   2.781   7.603
 2531SOL    HW124735   0.621   2.870   7.638
 2531SOL    HW224736   0.713   2.758   7.595
 2532SOL     OW24737   3.610   3.213   0.435
 2532SOL    HW124738   3.661   3.149   0.485
 2532SOL    HW224739   3.672   3.284   0.417
 2533SOL     OW24740   4.632   0.394   7.544
 2533SOL    HW124741   4.652   0.303   7.523
 2533SOL    HW224742   4.580   0.389   7.625
 2534SOL     OW24743   4.370   2.277   7.130
 2534SOL    HW124744   4.314   2.223   7.185
 2534SOL    HW224745   4.453   2.230   7.127
 2535SOL     OW24746   4.328   4.288   2.066
 2535SOL    HW124747   4.312   4.364   2.009
 2535SOL    HW224748   4.366   4.326   2.146
 2536SOL     OW24749   2.500   2.557   5.214
 2536SOL    HW124750   2.581   2.511   5.193
 2536SOL    HW224751   2.529   2.643   5.245
 2537SOL     OW24752   3.200   3.895   0.814
 2537SOL    HW124753   3.124   3.952   0.820
 2537SOL    HW224754   3.168   3.809   0.841
 2538SOL     OW24755   3.893   3.035   0.963
 2538SOL    HW124756   3.798   3.020   0.960
 2538SOL    HW224757   3.921   3.027   0.872
 2539SOL     OW24758   5.510   3.382   1.146
 2539SOL    HW124759   5.545   3.349   1.063
 2539SOL    HW224760   5.582   3.432   1.183
 2540SOL     OW24761   6.092   2.823   1.080
 2540SOL    HW124762   6.060   2.776   1.003
 2540SOL    HW224763   6.013   2.842   1.131
 2541SOL     OW24764   0.353   0.960   1.200
 2541SOL    HW124765   0.383   0.929   1.286
 2541SOL    HW224766   0.335   0.880   1.151
 2542SOL     OW24767   5.931   1.096   0.508
 2542SOL    HW124768   5.951   1.089   0.414
 2542SOL    HW224769   5.983   1.027   0.548
 2543SOL     OW24770   1.928   1.290   6.543
 2543SOL    HW124771   1.975   1.210   6.520
 2543SOL    HW224772   1.992   1.360   6.533
 2544SOL     OW24773   6.157   4.897   7.271
 2544SOL    HW124774   6.156   4.950   7.191
 2544SOL    HW224775   6.208   4.820   7.248
 2545SOL     OW24776   0.174   0.871   7.615
 2545SOL    HW124777   0.231   0.795   7.624
 2545SOL    HW224778   0.093   0.838   7.576
 2546SOL     OW24779   2.466   4.033   6.290
 2546SOL    HW124780   2.506   4.005   6.208
 2546SOL    HW224781   2.538   4.039   6.352
 2547SOL     OW24782   1.568   4.347   6.349
 2547SOL    HW124783   1.579   4.350   6.254
 2547SOL    HW224784   1.606   4.263   6.374
 2548SOL     OW24785   4.589   3.179   0.627
 2548SOL    HW124786   4.683   3.189   0.638
 2548SOL    HW224787   4.551   3.254   0.672
 2549SOL     OW24788   2.409   5.978   0.813
 2549SOL    HW124789   2.379   5.957   0.725
 2549SOL    HW224790   2.394   5.897   0.863
 2550SOL     OW24791   1.173   4.281   1.470
 2550SOL    HW124792   1.188   4.256   1.379
 2550SOL    HW224793   1.215   4.212   1.521
 2551SOL     OW24794   0.536   2.566   6.003
 2551SOL    HW124795   0.618   2.615   5.993
 2551SOL    HW224796   0.539   2.532   6.092
 2552SOL     OW24797   5.028   2.474   5.876
 2552SOL    HW124798   5.037   2.492   5.783
 2552SOL    HW224799   4.979   2.392   5.880
 2553SOL     OW24800   2.670   6.272   0.430
 2553SOL    HW124801   2.607   6.335   0.464
 2553SOL    HW224802   2.755   6.313   0.443
 2554SOL     OW24803   0.729   4.271   0.339
 2554SOL    HW124804   0.694   4.205   0.280
 2554SOL    HW224805   0.799   4.314   0.290
 2555SOL     OW24806   0.565   0.335   6.355
 2555SOL    HW124807   0.603   0.355   6.441
 2555SOL    HW224808   0.477   0.304   6.375
 2556SOL     OW24809   1.440   3.340   0.355
 2556SOL    HW124810   1.365   3.325   0.297
 2556SOL    HW224811   1.407   3.395   0.425
 2557SOL     OW24812   2.599   0.037   2.026
 2557SOL    HW124813   2.563   0.047   2.114
 2557SOL    HW224814   2.694   0.039   2.038
 2558SOL     OW24815   2.138   4.075   0.954
 2558SOL    HW124816   2.105   4.090   0.865
 2558SOL    HW224817   2.144   3.980   0.961
 2559SOL     OW24818   5.394   1.696   0.293
 2559SOL    HW124819   5.308   1.713   0.255
 2559SOL    HW224820   5.437   1.782   0.295
 2560SOL     OW24821   3.675   0.266   1.796
 2560SOL    HW124822   3.667   0.227   1.710
 2560SOL    HW224823   3.680   0.192   1.856
 2561SOL     OW24824   0.364   6.230   1.681
 2561SOL    HW124825   0.449   6.214   1.642
 2561SOL    HW224826   0.304   6.171   1.635
 2562SOL     OW24827   4.446   2.060   1.180
 2562SOL    HW124828   4.497   2.114   1.241
 2562SOL    HW224829   4.486   2.075   1.095
 2563SOL     OW24830   3.311   0.038   7.511
 2563SOL    HW124831   3.354   0.123   7.508
 2563SOL    HW224832   3.339   6.447   7.594
 2564SOL     OW24833   4.850   1.216   0.716
 2564SOL    HW124834   4.888   1.130   0.697
 2564SOL    HW224835   4.870   1.268   0.638
 2565SOL     OW24836   1.746   3.659   6.530
 2565SOL    HW124837   1.783   3.624   6.450
 2565SOL    HW224838   1.743   3.585   6.590
 2566SOL     OW24839   1.733   5.581   7.177
 2566SOL    HW124840   1.725   5.663   7.226
 2566SOL    HW224841   1.645   5.563   7.144
 2567SOL     OW24842   2.650   5.262   7.196
 2567SOL    HW124843   2.685   5.230   7.113
 2567SOL    HW224844   2.555   5.250   7.188
 2568SOL     OW24845   3.382   3.334   0.529
 2568SOL    HW124846   3.408   3.420   0.561
 2568SOL    HW224847   3.464   3.293   0.500
 2569SOL     OW24848   1.468   4.999   7.427
 2569SOL    HW124849   1.465   5.087   7.391
 2569SOL    HW224850   1.402   4.999   7.497
 2570SOL     OW24851   5.075   6.077   0.817
 2570SOL    HW124852   5.108   6.084   0.728
 2570SOL    HW224853   4.999   6.020   0.810
 2571SOL     OW24854   0.613   6.133   7.483
 2571SOL    HW124855   0.554   6.069   7.522
 2571SOL    HW224856   0.700   6.097   7.497
 2572SOL     OW24857   5.776   2.534   6.099
 2572SOL    HW124858   5.720   2.464   6.067
 2572SOL    HW224859   5.785   2.517   6.193
 2573SOL     OW24860   0.174   4.950   6.840
 2573SOL    HW124861   0.211   4.969   6.926
 2573SOL    HW224862   0.207   4.863   6.819
 2574SOL     OW24863   4.011   1.947   7.293
 2574SOL    HW124864   4.036   1.860   7.324
 2574SOL    HW224865   3.917   1.953   7.310
 2575SOL     OW24866   5.367   6.032   1.721
 2575SOL    HW124867   5.416   6.019   1.802
 2575SOL    HW224868   5.277   6.044   1.750
 2576SOL     OW24869   3.276   0.731   6.310
 2576SOL    HW124870   3.189   0.763   6.333
 2576SOL    HW224871   3.288   0.757   6.218
 2577SOL     OW24872   0.463   3.819   6.427
 2577SOL    HW124873   0.417   3.896   6.459
 2577SOL    HW224874   0.556   3.838   6.445
 2578SOL     OW24875   2.566   2.222   6.380
 2578SOL    HW124876   2.520   2.257   6.304
 2578SOL    HW224877   2.536   2.276   6.453
 2579SOL     OW24878   4.654   3.301   6.973
 2579SOL    HW124879   4.569   3.331   7.004
 2579SOL    HW224880   4.636   3.264   6.887
 2580SOL     OW24881   5.533   0.046   0.220
 2580SOL    HW124882   5.576   0.003   0.294
 2580SOL    HW224883   5.483   6.423   0.178
 2581SOL     OW24884   6.244   4.226   5.947
 2581SOL    HW124885   6.153   4.235   5.974
 2581SOL    HW224886   6.279   4.315   5.948
 2582SOL     OW24887   0.886   2.660   2.052
 2582SOL    HW124888   0.969   2.637   2.010
 2582SOL    HW224889   0.864   2.746   2.016
 2583SOL     OW24890   5.952   1.428   2.641
 2583SOL    HW124891   6.002   1.417   2.560
 2583SOL    HW224892   5.868   1.387   2.623
 2584SOL     OW24893   1.830   2.330   1.041
 2584SOL    HW124894   1.925   2.325   1.048
 2584SOL    HW224895   1.800   2.241   1.061
 2585SOL     OW24896   2.376   1.176   7.800
 2585SOL    HW124897   2.436   1.119   7.753
 2585SOL    HW224898   2.307   1.196   7.736
 2586SOL     OW24899   5.280   1.532   2.269
 2586SOL    HW124900   5.375   1.522   2.256
 2586SOL    HW224901   5.258   1.611   2.220
 2587SOL     OW24902   3.299   5.988   5.526
 2587SOL    HW124903   3.229   6.050   5.545
 2587SOL    HW224904   3.264   5.932   5.457
 2588SOL     OW24905   4.010   2.214   0.417
 2588SOL    HW124906   4.061   2.134   0.401
 2588SOL    HW224907   4.068   2.285   0.390
 2589SOL     OW24908   2.789   0.186   1.593
 2589SOL    HW124909   2.718   0.182   1.657
 2589SOL    HW224910   2.759   0.248   1.527
 2590SOL     OW24911   5.680   3.881   0.681
 2590SOL    HW124912   5.637   3.951   0.730
 2590SOL    HW224913   5.733   3.835   0.746
 2591SOL     OW24914   0.940   1.862   7.001
 2591SOL    HW124915   1.015   1.808   6.978
 2591SOL    HW224916   0.864   1.808   6.980
 2592SOL     OW24917   0.718   5.314   7.293
 2592SOL    HW124918   0.775   5.387   7.317
 2592SOL    HW224919   0.774   5.237   7.296
 2593SOL     OW24920   1.162   5.300   7.603
 2593SOL    HW124921   1.089   5.238   7.594
 2593SOL    HW224922   1.179   5.329   7.514
 2594SOL     OW24923   3.860   4.501   0.199
 2594SOL    HW124924   3.772   4.539   0.207
 2594SOL    HW224925   3.899   4.512   0.286
 2595SOL     OW24926   0.672   1.491   6.515
 2595SOL    HW124927   0.656   1.574   6.469
 2595SOL    HW224928   0.735   1.515   6.584
 2596SOL     OW24929   1.535   4.840   6.799
 2596SOL    HW124930   1.611   4.898   6.796
 2596SOL    HW224931   1.477   4.878   6.865
 2597SOL     OW24932   4.092   4.778   0.716
 2597SOL    HW124933   4.129   4.836   0.649
 2597SOL    HW224934   4.000   4.804   0.721
 2598SOL     OW24935   3.063   0.578   0.340
 2598SOL    HW124936   3.034   0.516   0.272
 2598SOL    HW224937   3.038   0.664   0.306
 2599SOL     OW24938   0.017   4.040   7.610
 2599SOL    HW124939   6.404   4.046   7.536
 2599SOL    HW224940   0.039   3.947   7.615
 2600SOL     OW24941   3.942   1.657   6.101
 2600SOL    HW124942   3.947   1.697   6.188
 2600SOL    HW224943   3.996   1.714   6.046
 2601SOL     OW24944   3.152   4.717   7.313
 2601SOL    HW124945   3.091   4.733   7.385
 2601SOL    HW224946   3.212   4.650   7.347
 2602SOL     OW24947   0.873   1.415   1.914
 2602SOL    HW124948   0.932   1.441   1.984
 2602SOL    HW224949   0.884   1.320   1.908
 2603SOL     OW24950   0.907   6.018   6.335
 2603SOL    HW124951   0.914   5.922   6.340
 2603SOL    HW224952   0.870   6.035   6.249
 2604SOL     OW24953   0.992   1.627   7.304
 2604SOL    HW124954   0.989   1.722   7.296
 2604SOL    HW224955   0.913   1.605   7.354
 2605SOL     OW24956   5.916   1.255   6.537
 2605SOL    HW124957   5.848   1.221   6.479
 2605SOL    HW224958   5.990   1.273   6.479
 2606SOL     OW24959   3.167   3.614   1.969
 2606SOL    HW124960   3.245   3.576   1.929
 2606SOL    HW224961   3.120   3.538   2.005
 2607SOL     OW24962   1.949   4.673   2.368
 2607SOL    HW124963   1.901   4.750   2.340
 2607SOL    HW224964   2.016   4.660   2.301
 2608SOL     OW24965   0.891   3.108   1.527
 2608SOL    HW124966   0.942   3.066   1.597
 2608SOL    HW224967   0.812   3.054   1.519
 2609SOL     OW24968   1.720   2.698   1.416
 2609SOL    HW124969   1.744   2.626   1.357
 2609SOL    HW224970   1.649   2.663   1.469
 2610SOL     OW24971   2.174   4.681   0.084
 2610SOL    HW124972   2.231   4.654   0.012
 2610SOL    HW224973   2.139   4.600   0.119
 2611SOL     OW24974   3.454   1.482   1.239
 2611SOL    HW124975   3.476   1.572   1.217
 2611SOL    HW224976   3.537   1.435   1.235
 2612SOL     OW24977   2.138   4.887   1.267
 2612SOL    HW124978   2.193   4.950   1.221
 2612SOL    HW224979   2.053   4.931   1.276
 2613SOL     OW24980   1.072   3.372   1.130
 2613SOL    HW124981   1.052   3.310   1.200
 2613SOL    HW224982   1.165   3.361   1.114
 2614SOL     OW24983   4.956   0.082   1.277
 2614SOL    HW124984   4.938   0.138   1.201
 2614SOL    HW224985   5.051   0.090   1.291
 2615SOL     OW24986   1.723   5.247   7.414
 2615SOL    HW124987   1.790   5.314   7.400
 2615SOL    HW224988   1.707   5.248   7.508
 2616SOL     OW24989   3.687   0.856   0.670
 2616SOL    HW124990   3.600   0.876   0.705
 2616SOL    HW224991   3.677   0.864   0.575
 2617SOL     OW24992   4.120   4.378   6.440
 2617SOL    HW124993   4.080   4.464   6.427
 2617SOL    HW224994   4.152   4.379   6.530
 2618SOL     OW24995   2.619   3.757   5.638
 2618SOL    HW124996   2.586   3.690   5.577
 2618SOL    HW224997   2.690   3.714   5.685
 2619SOL     OW24998   3.074   1.056   6.287
 2619SOL    HW124999   3.124   1.133   6.262
 2619SOL    HW225000   3.056   1.010   6.205
 2620SOL     OW25001   0.146   3.448   1.590
 2620SOL    HW125002   0.096   3.435   1.509
 2620SOL    HW225003   0.128   3.370   1.642
 2621SOL     OW25004   4.861   5.703   5.712
 2621SOL    HW125005   4.767   5.694   5.697
 2621SOL    HW225006   4.886   5.778   5.658
 2622SOL     OW25007   4.231   0.365   6.201
 2622SOL    HW125008   4.281   0.297   6.247
 2622SOL    HW225009   4.239   0.341   6.109
 2623SOL     OW25010   0.548   5.547   6.846
 2623SOL    HW125011   0.549   5.462   6.803
 2623SOL    HW225012   0.618   5.542   6.911
 2624SOL     OW25013   4.904   5.191   6.511
 2624SOL    HW125014   4.940   5.175   6.424
 2624SOL    HW225015   4.971   5.159   6.571
 2625SOL     OW25016   6.356   3.659   0.971
 2625SOL    HW125017   6.448   3.634   0.961
 2625SOL    HW225018   6.343   3.667   1.066
 2626SOL     OW25019   5.532   1.799   7.759
 2626SOL    HW125020   5.454   1.855   7.752
 2626SOL    HW225021   5.584   1.820   7.681
 2627SOL     OW25022   3.602   4.644   0.269
 2627SOL    HW125023   3.586   4.687   0.184
 2627SOL    HW225024   3.628   4.716   0.327
 2628SOL     OW25025   2.117   3.955   7.772
 2628SOL    HW125026   2.200   3.910   7.760
 2628SOL    HW225027   2.092   3.936   0.060
 2629SOL     OW25028   1.346   3.636   7.312
 2629SOL    HW125029   1.410   3.705   7.328
 2629SOL    HW225030   1.264   3.672   7.347
 2630SOL     OW25031   2.052   1.689   0.517
 2630SOL    HW125032   2.043   1.643   0.601
 2630SOL    HW225033   2.144   1.677   0.493
 2631SOL     OW25034   1.352   3.507   0.558
 2631SOL    HW125035   1.332   3.590   0.515
 2631SOL    HW225036   1.287   3.499   0.627
 2632SOL     OW25037   3.950   2.352   0.648
 2632SOL    HW125038   3.964   2.304   0.567
 2632SOL    HW225039   3.883   2.301   0.695
 2633SOL     OW25040   0.656   5.507   2.255
 2633SOL    HW125041   0.619   5.476   2.338
 2633SOL    HW225042   0.589   5.564   2.219
 2634SOL     OW25043   0.045   4.328   2.020
 2634SOL    HW125044   0.041   4.387   2.095
 2634SOL    HW225045   0.117   4.269   2.039
 2635SOL     OW25046   2.001   1.944   5.878
 2635SOL    HW125047   2.076   1.884   5.875
 2635SOL    HW225048   1.928   1.890   5.906
 2636SOL     OW25049   4.737   6.414   0.647
 2636SOL    HW125050   4.655   6.419   0.696
 2636SOL    HW225051   4.803   6.448   0.708
 2637SOL     OW25052   1.337   2.102   7.442
 2637SOL    HW125053   1.427   2.098   7.474
 2637SOL    HW225054   1.306   2.011   7.445
 2638SOL     OW25055   0.599   0.492   7.442
 2638SOL    HW125056   0.641   0.536   7.368
 2638SOL    HW225057   0.510   0.474   7.412
 2639SOL     OW25058   2.764   3.423   6.844
 2639SOL    HW125059   2.815   3.344   6.827
 2639SOL    HW225060   2.815   3.494   6.805
 2640SOL     OW25061   0.785   2.957   6.549
 2640SOL    HW125062   0.799   3.038   6.599
 2640SOL    HW225063   0.778   2.986   6.458
 2641SOL     OW25064   6.169   1.948   0.443
 2641SOL    HW125065   6.245   1.919   0.494
 2641SOL    HW225066   6.197   2.030   0.403
 2642SOL     OW25067   6.008   5.758   6.324
 2642SOL    HW125068   6.005   5.745   6.229
 2642SOL    HW225069   6.074   5.826   6.337
 2643SOL     OW25070   1.938   5.255   6.667
 2643SOL    HW125071   1.951   5.350   6.674
 2643SOL    HW225072   1.971   5.233   6.580
 2644SOL     OW25073   0.031   6.236   5.877
 2644SOL    HW125074   6.421   6.224   5.802
 2644SOL    HW225075   0.115   6.262   5.838
 2645SOL     OW25076   1.973   6.049   1.835
 2645SOL    HW125077   1.983   5.954   1.826
 2645SOL    HW225078   2.059   6.078   1.866
 2646SOL     OW25079   4.387   5.642   0.290
 2646SOL    HW125080   4.318   5.677   0.235
 2646SOL    HW225081   4.343   5.583   0.350
 2647SOL     OW25082   2.827   2.308   7.358
 2647SOL    HW125083   2.813   2.332   7.449
 2647SOL    HW225084   2.836   2.391   7.311
 2648SOL     OW25085   1.910   5.445   0.763
 2648SOL    HW125086   1.938   5.500   0.690
 2648SOL    HW225087   1.907   5.356   0.726
 2649SOL     OW25088   2.607   4.261   5.755
 2649SOL    HW125089   2.521   4.268   5.797
 2649SOL    HW225090   2.655   4.197   5.808
 2650SOL     OW25091   3.007   0.054   6.281
 2650SOL    HW125092   2.922   0.060   6.324
 2650SOL    HW225093   3.051   6.429   6.326
 2651SOL     OW25094   5.850   5.299   7.203
 2651SOL    HW125095   5.848   5.276   7.296
 2651SOL    HW225096   5.772   5.257   7.166
 2652SOL     OW25097   4.289   5.705   2.099
 2652SOL    HW125098   4.326   5.645   2.163
 2652SOL    HW225099   4.254   5.648   2.030
 2653SOL     OW25100   1.125   5.037   5.826
 2653SOL    HW125101   1.138   4.956   5.876
 2653SOL    HW225102   1.213   5.065   5.803
 2654SOL     OW25103   0.270   6.066   0.047
 2654SOL    HW125104   0.244   5.990   7.799
 2654SOL    HW225105   0.314   6.031   0.124
 2655SOL     OW25106   6.251   0.882   6.833
 2655SOL    HW125107   6.258   0.787   6.827
 2655SOL    HW225108   6.158   0.899   6.848
 2656SOL     OW25109   3.229   1.507   7.647
 2656SOL    HW125110   3.252   1.417   7.622
 2656SOL    HW225111   3.139   1.499   7.681
 2657SOL     OW25112   4.563   1.040   0.528
 2657SOL    HW125113   4.522   1.101   0.468
 2657SOL    HW225114   4.566   1.086   0.612
 2658SOL     OW25115   3.419   3.637   5.028
 2658SOL    HW125116   3.441   3.547   5.053
 2658SOL    HW225117   3.402   3.632   4.934
 2659SOL     OW25118   5.307   6.419   1.099
 2659SOL    HW125119   5.245   6.388   1.033
 2659SOL    HW225120   5.384   6.363   1.088
 2660SOL     OW25121   5.256   4.939   1.075
 2660SOL    HW125122   5.260   4.886   0.996
 2660SOL    HW225123   5.237   5.028   1.044
 2661SOL     OW25124   3.075   0.484   6.962
 2661SOL    HW125125   3.158   0.468   7.006
 2661SOL    HW225126   3.013   0.499   7.033
 2662SOL     OW25127   1.557   0.659   1.572
 2662SOL    HW125128   1.561   0.587   1.635
 2662SOL    HW225129   1.525   0.733   1.623
 2663SOL     OW25130   2.032   5.857   0.916
 2663SOL    HW125131   2.022   5.765   0.939
 2663SOL    HW225132   2.047   5.858   0.822
 2664SOL     OW25133   0.601   4.794   7.595
 2664SOL    HW125134   0.557   4.712   7.615
 2664SOL    HW225135   0.623   4.788   7.502
 2665SOL     OW25136   6.251   5.230   7.699
 2665SOL    HW125137   6.318   5.169   7.730
 2665SOL    HW225138   6.257   5.227   7.603
 2666SOL     OW25139   3.619   1.748   0.138
 2666SOL    HW125140   3.599   1.840   0.122
 2666SOL    HW225141   3.551   1.700   0.091
 2667SOL     OW25142   0.014   5.993   6.942
 2667SOL    HW125143   6.441   6.024   7.030
 2667SOL    HW225144   6.380   5.955   6.910
 2668SOL     OW25145   1.469   5.246   7.304
 2668SOL    HW125146   1.558   5.258   7.337
 2668SOL    HW225147   1.478   5.246   7.209
 2669SOL     OW25148   0.606   1.076   1.115
 2669SOL    HW125149   0.589   1.166   1.089
 2669SOL    HW225150   0.520   1.040   1.136
 2670SOL     OW25151   6.446   1.516   6.884
 2670SOL    HW125152   6.366   1.537   6.932
 2670SOL    HW225153   0.014   1.594   6.830
 2671SOL     OW25154   4.074   4.224   0.378
 2671SOL    HW125155   3.988   4.197   0.345
 2671SOL    HW225156   4.123   4.248   0.300
 2672SOL     OW25157   5.686   4.525   7.498
 2672SOL    HW125158   5.757   4.500   7.439
 2672SOL    HW225159   5.627   4.578   7.443
 2673SOL     OW25160   2.036   1.820   2.193
 2673SOL    HW125161   2.126   1.800   2.218
 2673SOL    HW225162   2.021   1.909   2.226
 2674SOL     OW25163   1.086   3.239   1.844
 2674SOL    HW125164   1.074   3.222   1.937
 2674SOL    HW225165   1.070   3.155   1.802
 2675SOL     OW25166   0.781   5.817   1.250
 2675SOL    HW125167   0.819   5.892   1.204
 2675SOL    HW225168   0.827   5.741   1.214
 2676SOL     OW25169   4.287   5.635   7.137
 2676SOL    HW125170   4.219   5.623   7.203
 2676SOL    HW225171   4.348   5.562   7.152
 2677SOL     OW25172   4.873   5.635   7.564
 2677SOL    HW125173   4.884   5.659   7.656
 2677SOL    HW225174   4.960   5.610   7.534
 2678SOL     OW25175   5.019   0.184   6.111
 2678SOL    HW125176   5.050   0.265   6.070
 2678SOL    HW225177   4.961   0.144   6.046
 2679SOL     OW25178   3.597   0.257   0.109
 2679SOL    HW125179   3.604   0.162   0.098
 2679SOL    HW225180   3.687   0.289   0.109
 2680SOL     OW25181   5.869   3.044   7.435
 2680SOL    HW125182   5.788   2.995   7.449
 2680SOL    HW225183   5.868   3.112   7.503
 2681SOL     OW25184   5.691   2.684   1.125
 2681SOL    HW125185   5.613   2.676   1.180
 2681SOL    HW225186   5.656   2.694   1.036
 2682SOL     OW25187   0.119   5.754   5.371
 2682SOL    HW125188   0.198   5.807   5.376
 2682SOL    HW225189   0.085   5.751   5.460
 2683SOL     OW25190   0.093   0.841   6.262
 2683SOL    HW125191   0.158   0.791   6.312
 2683SOL    HW225192   0.123   0.835   6.171
 2684SOL     OW25193   4.717   5.553   6.795
 2684SOL    HW125194   4.784   5.591   6.851
 2684SOL    HW225195   4.746   5.463   6.781
 2685SOL     OW25196   4.467   1.758   5.626
 2685SOL    HW125197   4.540   1.702   5.654
 2685SOL    HW225198   4.507   1.820   5.565
 2686SOL     OW25199   4.772   5.925   0.573
 2686SOL    HW125200   4.703   5.887   0.518
 2686SOL    HW225201   4.779   6.016   0.543
 2687SOL     OW25202   4.947   0.486   1.607
 2687SOL    HW125203   4.959   0.506   1.700
 2687SOL    HW225204   5.035   0.464   1.577
 2688SOL     OW25205   0.160   6.101   5.586
 2688SOL    HW125206   0.201   6.170   5.639
 2688SOL    HW225207   0.066   6.113   5.598
 2689SOL     OW25208   6.219   2.212   1.859
 2689SOL    HW125209   6.184   2.296   1.830
 2689SOL    HW225210   6.200   2.209   1.953
 2690SOL     OW25211   1.372   2.294   1.170
 2690SOL    HW125212   1.410   2.315   1.256
 2690SOL    HW225213   1.386   2.374   1.118
 2691SOL     OW25214   0.860   0.467   1.014
 2691SOL    HW125215   0.910   0.428   1.086
 2691SOL    HW225216   0.895   0.556   1.006
 2692SOL     OW25217   1.360   4.011   6.530
 2692SOL    HW125218   1.419   3.938   6.514
 2692SOL    HW225219   1.288   3.974   6.581
 2693SOL     OW25220   3.639   0.663   6.866
 2693SOL    HW125221   3.611   0.699   6.782
 2693SOL    HW225222   3.632   0.737   6.927
 2694SOL     OW25223   5.037   0.252   0.463
 2694SOL    HW125224   5.035   0.281   0.555
 2694SOL    HW225225   4.950   0.216   0.448
 2695SOL     OW25226   4.451   1.998   6.269
 2695SOL    HW125227   4.447   2.041   6.184
 2695SOL    HW225228   4.472   2.069   6.330
 2696SOL     OW25229   6.080   3.883   1.548
 2696SOL    HW125230   6.123   3.799   1.565
 2696SOL    HW225231   6.103   3.904   1.457
 2697SOL     OW25232   2.949   4.663   7.776
 2697SOL    HW125233   2.961   4.701   7.689
 2697SOL    HW225234   2.974   4.732   0.033
 2698SOL     OW25235   5.160   0.315   7.551
 2698SOL    HW125236   5.247   0.353   7.564
 2698SOL    HW225237   5.122   0.313   7.639
 2699SOL     OW25238   4.639   5.104   0.016
 2699SOL    HW125239   4.558   5.081   0.061
 2699SOL    HW225240   4.662   5.190   0.050
 2700SOL     OW25241   4.824   5.935   6.832
 2700SOL    HW125242   4.764   5.959   6.762
 2700SOL    HW225243   4.768   5.904   6.903
 2701SOL     OW25244   3.677   5.376   6.404
 2701SOL    HW125245   3.643   5.324   6.477
 2701SOL    HW225246   3.730   5.314   6.353
 2702SOL     OW25247   5.811   5.741   0.688
 2702SOL    HW125248   5.815   5.709   0.778
 2702SOL    HW225249   5.898   5.777   0.672
 2703SOL     OW25250   1.206   5.712   1.842
 2703SOL    HW125251   1.178   5.639   1.898
 2703SOL    HW225252   1.161   5.788   1.879
 2704SOL     OW25253   1.223   5.319   6.904
 2704SOL    HW125254   1.169   5.393   6.876
 2704SOL    HW225255   1.175   5.282   6.979
 2705SOL     OW25256   2.085   1.742   6.374
 2705SOL    HW125257   2.171   1.761   6.335
 2705SOL    HW225258   2.022   1.782   6.314
 2706SOL     OW25259   2.082   5.123   5.804
 2706SOL    HW125260   2.014   5.158   5.860
 2706SOL    HW225261   2.039   5.051   5.756
 2707SOL     OW25262   5.284   0.777   7.151
 2707SOL    HW125263   5.228   0.738   7.218
 2707SOL    HW225264   5.254   0.868   7.144
 2708SOL     OW25265   3.996   5.177   6.952
 2708SOL    HW125266   3.978   5.249   7.012
 2708SOL    HW225267   4.060   5.213   6.890
 2709SOL     OW25268   3.962   3.696   6.915
 2709SOL    HW125269   3.965   3.604   6.943
 2709SOL    HW225270   4.017   3.698   6.836
 2710SOL     OW25271   6.139   5.548   5.439
 2710SOL    HW125272   6.202   5.582   5.375
 2710SOL    HW225273   6.144   5.610   5.511
 2711SOL     OW25274   1.274   0.287   5.488
 2711SOL    HW125275   1.333   0.341   5.542
 2711SOL    HW225276   1.290   0.197   5.519
 2712SOL     OW25277   3.238   1.904   0.699
 2712SOL    HW125278   3.273   1.957   0.628
 2712SOL    HW225279   3.291   1.824   0.697
 2713SOL     OW25280   3.170   0.861   0.784
 2713SOL    HW125281   3.087   0.828   0.751
 2713SOL    HW225282   3.186   0.811   0.864
 2714SOL     OW25283   5.050   0.348   7.077
 2714SOL    HW125284   5.130   0.333   7.127
 2714SOL    HW225285   5.013   0.260   7.063
 2715SOL     OW25286   3.591   1.421   0.898
 2715SOL    HW125287   3.623   1.393   0.812
 2715SOL    HW225288   3.567   1.339   0.942
 2716SOL     OW25289   2.066   6.406   6.185
 2716SOL    HW125290   1.973   6.420   6.202
 2716SOL    HW225291   2.100   0.045   6.163
 2717SOL     OW25292   4.604   2.141   0.048
 2717SOL    HW125293   4.655   2.197   7.792
 2717SOL    HW225294   4.608   2.185   0.133
 2718SOL     OW25295   4.687   1.062   1.099
 2718SOL    HW125296   4.714   1.152   1.116
 2718SOL    HW225297   4.769   1.012   1.099
 2719SOL     OW25298   4.245   2.940   1.966
 2719SOL    HW125299   4.216   2.985   2.046
 2719SOL    HW225300   4.172   2.950   1.905
 2720SOL     OW25301   5.194   5.694   1.148
 2720SOL    HW125302   5.221   5.728   1.233
 2720SOL    HW225303   5.108   5.733   1.133
 2721SOL     OW25304   3.548   0.955   1.810
 2721SOL    HW125305   3.535   1.045   1.781
 2721SOL    HW225306   3.510   0.901   1.741
 2722SOL     OW25307   0.834   2.668   1.745
 2722SOL    HW125308   0.817   2.747   1.797
 2722SOL    HW225309   0.918   2.635   1.777
 2723SOL     OW25310   4.021   4.430   1.791
 2723SOL    HW125311   4.001   4.435   1.698
 2723SOL    HW225312   3.959   4.491   1.832
 2724SOL     OW25313   5.903   0.204   0.107
 2724SOL    HW125314   5.918   0.115   0.140
 2724SOL    HW225315   5.814   0.200   0.070
 2725SOL     OW25316   3.321   2.482   7.014
 2725SOL    HW125317   3.257   2.423   7.054
 2725SOL    HW225318   3.341   2.441   6.929
 2726SOL     OW25319   2.129   6.437   0.180
 2726SOL    HW125320   2.127   0.046   0.257
 2726SOL    HW225321   2.221   6.433   0.154
 2727SOL     OW25322   2.913   3.887   6.572
 2727SOL    HW125323   2.955   3.950   6.630
 2727SOL    HW225324   2.975   3.877   6.499
 2728SOL     OW25325   2.904   2.859   2.105
 2728SOL    HW125326   2.979   2.805   2.082
 2728SOL    HW225327   2.845   2.852   2.030
 2729SOL     OW25328   4.349   1.102   1.369
 2729SOL    HW125329   4.412   1.131   1.435
 2729SOL    HW225330   4.365   1.160   1.294
 2730SOL     OW25331   3.736   0.893   1.350
 2730SOL    HW125332   3.773   0.918   1.434
 2730SOL    HW225333   3.765   0.803   1.337
 2731SOL     OW25334   4.756   5.388   7.543
 2731SOL    HW125335   4.811   5.341   7.605
 2731SOL    HW225336   4.792   5.477   7.541
 2732SOL     OW25337   5.565   4.376   0.260
 2732SOL    HW125338   5.511   4.299   0.247
 2732SOL    HW225339   5.646   4.357   0.213
 2733SOL     OW25340   0.640   3.211   0.962
 2733SOL    HW125341   0.730   3.215   0.931
 2733SOL    HW225342   0.648   3.204   1.057
 2734SOL     OW25343   2.936   2.917   6.737
 2734SOL    HW125344   2.892   2.853   6.793
 2734SOL    HW225345   2.943   2.874   6.652
 2735SOL     OW25346   1.840   1.791   5.635
 2735SOL    HW125347   1.807   1.702   5.647
 2735SOL    HW225348   1.776   1.846   5.680
 2736SOL     OW25349   4.953   1.847   0.614
 2736SOL    HW125350   5.049   1.845   0.609
 2736SOL    HW225351   4.929   1.938   0.597
 2737SOL     OW25352   6.358   6.258   6.122
 2737SOL    HW125353   6.327   6.348   6.117
 2737SOL    HW225354   6.398   6.241   6.036
 2738SOL     OW25355   1.724   0.059   5.821
 2738SOL    HW125356   1.668   0.003   5.876
 2738SOL    HW225357   1.768   6.446   5.762
 2739SOL     OW25358   1.178   1.983   6.411
 2739SOL    HW125359   1.196   2.057   6.469
 2739SOL    HW225360   1.178   2.020   6.323
 2740SOL     OW25361   4.119   4.378   6.740
 2740SOL    HW125362   4.087   4.458   6.783
 2740SOL    HW225363   4.040   4.331   6.715
 2741SOL     OW25364   2.069   5.812   7.397
 2741SOL    HW125365   2.034   5.828   7.309
 2741SOL    HW225366   2.161   5.835   7.391
 2742SOL     OW25367   1.830   2.228   0.204
 2742SOL    HW125368   1.755   2.240   0.146
 2742SOL    HW225369   1.826   2.136   0.230
 2743SOL     OW25370   2.636   5.388   0.071
 2743SOL    HW125371   2.686   5.307   0.061
 2743SOL    HW225372   2.641   5.407   0.165
 2744SOL     OW25373   1.756   3.014   6.605
 2744SOL    HW125374   1.714   3.098   6.585
 2744SOL    HW225375   1.834   3.038   6.655
 2745SOL     OW25376   1.837   2.088   7.666
 2745SOL    HW125377   1.883   2.171   7.653
 2745SOL    HW225378   1.844   2.070   7.759
 2746SOL     OW25379   0.891   1.056   7.486
 2746SOL    HW125380   0.802   1.079   7.512
 2746SOL    HW225381   0.896   1.080   7.394
 2747SOL     OW25382   5.612   1.669   1.591
 2747SOL    HW125383   5.586   1.662   1.683
 2747SOL    HW225384   5.548   1.615   1.544
 2748SOL     OW25385   5.251   4.307   6.196
 2748SOL    HW125386   5.178   4.364   6.219
 2748SOL    HW225387   5.216   4.218   6.205
 2749SOL     OW25388   4.533   5.934   5.757
 2749SOL    HW125389   4.561   5.850   5.721
 2749SOL    HW225390   4.448   5.916   5.797
 2750SOL     OW25391   1.782   2.693   1.740
 2750SOL    HW125392   1.716   2.762   1.741
 2750SOL    HW225393   1.764   2.641   1.818
 2751SOL     OW25394   1.128   2.315   0.306
 2751SOL    HW125395   1.042   2.357   0.304
 2751SOL    HW225396   1.156   2.320   0.397
 2752SOL     OW25397   3.210   4.478   0.442
 2752SOL    HW125398   3.157   4.450   0.517
 2752SOL    HW225399   3.185   4.418   0.372
 2753SOL     OW25400   6.083   4.751   1.015
 2753SOL    HW125401   6.125   4.718   1.094
 2753SOL    HW225402   6.153   4.756   0.950
 2754SOL     OW25403   3.636   4.123   1.416
 2754SOL    HW125404   3.608   4.041   1.458
 2754SOL    HW225405   3.561   4.149   1.362
 2755SOL     OW25406   0.846   2.441   1.000
 2755SOL    HW125407   0.834   2.487   1.083
 2755SOL    HW225408   0.902   2.367   1.022
 2756SOL     OW25409   4.857   5.899   0.824
 2756SOL    HW125410   4.788   5.937   0.878
 2756SOL    HW225411   4.826   5.912   0.734
 2757SOL     OW25412   4.455   5.162   1.419
 2757SOL    HW125413   4.497   5.079   1.440
 2757SOL    HW225414   4.526   5.221   1.396
 2758SOL     OW25415   1.709   2.206   7.168
 2758SOL    HW125416   1.803   2.206   7.154
 2758SOL    HW225417   1.685   2.114   7.178
 2759SOL     OW25418   1.520   2.814   5.805
 2759SOL    HW125419   1.577   2.741   5.829
 2759SOL    HW225420   1.503   2.802   5.712
 2760SOL     OW25421   1.806   5.011   7.746
 2760SOL    HW125422   1.769   5.098   7.727
 2760SOL    HW225423   1.764   4.953   7.681
 2761SOL     OW25424   0.457   2.975   0.251
 2761SOL    HW125425   0.546   2.950   0.224
 2761SOL    HW225426   0.402   2.955   0.175
 2762SOL     OW25427   1.292   6.092   0.901
 2762SOL    HW125428   1.377   6.134   0.893
 2762SOL    HW225429   1.259   6.083   0.812
 2763SOL     OW25430   0.528   2.015   6.055
 2763SOL    HW125431   0.441   2.021   6.094
 2763SOL    HW225432   0.528   1.931   6.009
 2764SOL     OW25433   2.226   4.959   7.491
 2764SOL    HW125434   2.271   4.877   7.472
 2764SOL    HW225435   2.175   4.940   7.570
 2765SOL     OW25436   0.848   2.681   0.177
 2765SOL    HW125437   0.797   2.632   0.242
 2765SOL    HW225438   0.800   2.763   0.166
 2766SOL     OW25439   5.467   0.635   1.485
 2766SOL    HW125440   5.442   0.724   1.463
 2766SOL    HW225441   5.512   0.603   1.407
 2767SOL     OW25442   4.539   5.648   1.076
 2767SOL    HW125443   4.548   5.568   1.128
 2767SOL    HW225444   4.447   5.674   1.088
 2768SOL     OW25445   1.295   4.048   1.564
 2768SOL    HW125446   1.291   3.975   1.627
 2768SOL    HW225447   1.310   4.006   1.480
 2769SOL     OW25448   0.694   4.771   0.207
 2769SOL    HW125449   0.701   4.847   0.265
 2769SOL    HW225450   0.601   4.762   0.191
 2770SOL     OW25451   3.015   2.444   0.703
 2770SOL    HW125452   3.098   2.491   0.692
 2770SOL    HW225453   3.041   2.355   0.727
 2771SOL     OW25454   4.340   4.009   7.086
 2771SOL    HW125455   4.409   4.056   7.132
 2771SOL    HW225456   4.301   4.074   7.027
 2772SOL     OW25457   0.339   5.688   1.333
 2772SOL    HW125458   0.258   5.718   1.290
 2772SOL    HW225459   0.357   5.755   1.398
 2773SOL     OW25460   3.325   2.987   2.150
 2773SOL    HW125461   3.298   2.970   2.060
 2773SOL    HW225462   3.410   3.030   2.142
 2774SOL     OW25463   4.557   2.668   1.016
 2774SOL    HW125464   4.627   2.732   1.009
 2774SOL    HW225465   4.509   2.675   0.934
 2775SOL     OW25466   2.810   2.849   5.998
 2775SOL    HW125467   2.757   2.894   5.931
 2775SOL    HW225468   2.780   2.885   6.081
 2776SOL     OW25469   3.359   5.640   5.327
 2776SOL    HW125470   3.290   5.707   5.323
 2776SOL    HW225471   3.323   5.567   5.276
 2777SOL     OW25472   2.091   1.503   6.517
 2777SOL    HW125473   2.100   1.532   6.607
 2777SOL    HW225474   2.097   1.584   6.465
 2778SOL     OW25475   4.100   5.459   1.454
 2778SOL    HW125476   4.158   5.529   1.482
 2778SOL    HW225477   4.136   5.430   1.370
 2779SOL     OW25478   3.418   3.770   0.514
 2779SOL    HW125479   3.498   3.789   0.563
 2779SOL    HW225480   3.447   3.765   0.423
 2780SOL     OW25481   4.565   2.303   5.905
 2780SOL    HW125482   4.561   2.314   5.810
 2780SOL    HW225483   4.518   2.379   5.939
 2781SOL     OW25484   4.527   3.935   6.143
 2781SOL    HW125485   4.546   3.868   6.077
 2781SOL    HW225486   4.455   3.898   6.195
 2782SOL     OW25487   4.730   6.269   2.167
 2782SOL    HW125488   4.781   6.187   2.168
 2782SOL    HW225489   4.720   6.292   2.260
 2783SOL     OW25490   3.020   4.401   0.011
 2783SOL    HW125491   2.981   4.361   7.736
 2783SOL    HW225492   3.001   4.494   0.003
 2784SOL     OW25493   4.070   5.114   6.164
 2784SOL    HW125494   4.113   5.200   6.158
 2784SOL    HW225495   4.112   5.073   6.239
 2785SOL     OW25496   2.645   4.056   6.507
 2785SOL    HW125497   2.630   3.987   6.573
 2785SOL    HW225498   2.739   4.050   6.488
 2786SOL     OW25499   0.337   3.377   6.308
 2786SOL    HW125500   0.370   3.288   6.320
 2786SOL    HW225501   0.299   3.378   6.220
 2787SOL     OW25502   4.802   5.430   7.111
 2787SOL    HW125503   4.742   5.486   7.161
 2787SOL    HW225504   4.846   5.489   7.051
 2788SOL     OW25505   5.010   0.748   6.795
 2788SOL    HW125506   5.011   0.807   6.870
 2788SOL    HW225507   5.089   0.769   6.745
 2789SOL     OW25508   1.955   0.915   5.749
 2789SOL    HW125509   2.033   0.938   5.798
 2789SOL    HW225510   1.968   0.823   5.725
 2790SOL     OW25511   3.603   2.222   1.851
 2790SOL    HW125512   3.566   2.304   1.882
 2790SOL    HW225513   3.667   2.198   1.918
 2791SOL     OW25514   0.605   5.595   1.007
 2791SOL    HW125515   0.664   5.669   1.014
 2791SOL    HW225516   0.586   5.571   1.098
 2792SOL     OW25517   2.459   3.254   0.241
 2792SOL    HW125518   2.475   3.308   0.164
 2792SOL    HW225519   2.495   3.168   0.218
 2793SOL     OW25520   0.740   0.129   7.366
 2793SOL    HW125521   0.702   0.170   7.444
 2793SOL    HW225522   0.686   0.052   7.350
 2794SOL     OW25523   3.777   3.439   0.428
 2794SOL    HW125524   3.806   3.524   0.395
 2794SOL    HW225525   3.739   3.458   0.514
 2795SOL     OW25526   4.972   3.039   7.393
 2795SOL    HW125527   5.039   3.030   7.325
 2795SOL    HW225528   4.943   2.949   7.411
 2796SOL     OW25529   5.641   0.911   6.012
 2796SOL    HW125530   5.555   0.939   5.983
 2796SOL    HW225531   5.657   0.829   5.965
 2797SOL     OW25532   4.619   3.769   6.803
 2797SOL    HW125533   4.646   3.715   6.729
 2797SOL    HW225534   4.592   3.852   6.765
 2798SOL     OW25535   4.798   1.102   6.978
 2798SOL    HW125536   4.733   1.069   6.917
 2798SOL    HW225537   4.747   1.135   7.052
 2799SOL     OW25538   4.143   3.184   0.564
 2799SOL    HW125539   4.138   3.208   0.471
 2799SOL    HW225540   4.216   3.122   0.569
 2800SOL     OW25541   6.054   2.625   0.592
 2800SOL    HW125542   6.085   2.537   0.571
 2800SOL    HW225543   6.106   2.683   0.536
 2801SOL     OW25544   6.409   5.770   6.484
 2801SOL    HW125545   6.331   5.729   6.522
 2801SOL    HW225546   0.034   5.726   6.526
 2802SOL     OW25547   4.354   2.746   4.958
 2802SOL    HW125548   4.442   2.707   4.959
 2802SOL    HW225549   4.369   2.840   4.965
 2803SOL     OW25550   4.447   2.486   6.446
 2803SOL    HW125551   4.443   2.581   6.442
 2803SOL    HW225552   4.381   2.462   6.511
 2804SOL     OW25553   4.313   5.965   1.740
 2804SOL    HW125554   4.250   5.894   1.731
 2804SOL    HW225555   4.295   6.002   1.826
 2805SOL     OW25556   6.001   4.863   0.608
 2805SOL    HW125557   5.985   4.928   0.677
 2805SOL    HW225558   5.977   4.908   0.527
 2806SOL     OW25559   1.311   2.900   0.856
 2806SOL    HW125560   1.403   2.894   0.881
 2806SOL    HW225561   1.270   2.824   0.898
 2807SOL     OW25562   0.400   2.191   6.544
 2807SOL    HW125563   0.473   2.226   6.493
 2807SOL    HW225564   0.391   2.251   6.618
 2808SOL     OW25565   4.409   3.565   0.360
 2808SOL    HW125566   4.436   3.500   0.294
 2808SOL    HW225567   4.315   3.548   0.372
 2809SOL     OW25568   4.831   3.501   6.393
 2809SOL    HW125569   4.759   3.465   6.444
 2809SOL    HW225570   4.896   3.527   6.458
 2810SOL     OW25571   0.736   4.453   0.566
 2810SOL    HW125572   0.752   4.391   0.496
 2810SOL    HW225573   0.808   4.516   0.560
 2811SOL     OW25574   0.194   3.523   7.621
 2811SOL    HW125575   0.270   3.478   7.586
 2811SOL    HW225576   0.133   3.453   7.645
 2812SOL     OW25577   3.719   1.273   0.696
 2812SOL    HW125578   3.768   1.214   0.754
 2812SOL    HW225579   3.782   1.299   0.629
 2813SOL     OW25580   4.274   5.665   1.510
 2813SOL    HW125581   4.228   5.710   1.581
 2813SOL    HW225582   4.303   5.735   1.452
 2814SOL     OW25583   0.421   2.474   6.992
 2814SOL    HW125584   0.367   2.436   7.062
 2814SOL    HW225585   0.383   2.560   6.977
 2815SOL     OW25586   5.258   0.297   1.589
 2815SOL    HW125587   5.226   0.348   1.515
 2815SOL    HW225588   5.343   0.334   1.610
 2816SOL     OW25589   1.166   3.346   6.821
 2816SOL    HW125590   1.258   3.323   6.806
 2816SOL    HW225591   1.118   3.266   6.802
 2817SOL     OW25592   5.338   4.116   2.320
 2817SOL    HW125593   5.361   4.190   2.377
 2817SOL    HW225594   5.371   4.141   2.234
 2818SOL     OW25595   0.215   4.905   0.224
 2818SOL    HW125596   0.241   4.983   0.174
 2818SOL    HW225597   0.252   4.919   0.311
 2819SOL     OW25598   4.108   1.777   0.494
 2819SOL    HW125599   4.034   1.739   0.447
 2819SOL    HW225600   4.126   1.859   0.447
 2820SOL     OW25601   6.006   3.065   6.389
 2820SOL    HW125602   5.964   3.037   6.471
 2820SOL    HW225603   6.003   2.986   6.333
 2821SOL     OW25604   2.980   1.874   1.164
 2821SOL    HW125605   3.045   1.897   1.098
 2821SOL    HW225606   2.953   1.786   1.142
 2822SOL     OW25607   3.933   1.682   0.758
 2822SOL    HW125608   4.016   1.638   0.745
 2822SOL    HW225609   3.898   1.643   0.839
 2823SOL     OW25610   3.159   0.856   7.415
 2823SOL    HW125611   3.088   0.906   7.456
 2823SOL    HW225612   3.239   0.890   7.456
 2824SOL     OW25613   0.308   3.515   1.371
 2824SOL    HW125614   0.400   3.503   1.394
 2824SOL    HW225615   0.260   3.494   1.451
 2825SOL     OW25616   6.041   0.994   6.233
 2825SOL    HW125617   6.080   0.958   6.313
 2825SOL    HW225618   5.951   0.961   6.234
 2826SOL     OW25619   4.334   6.254   0.144
 2826SOL    HW125620   4.282   6.204   0.082
 2826SOL    HW225621   4.407   6.288   0.092
 2827SOL     OW25622   4.417   4.594   2.158
 2827SOL    HW125623   4.444   4.514   2.205
 2827SOL    HW225624   4.332   4.616   2.197
 2828SOL     OW25625   4.798   6.430   7.782
 2828SOL    HW125626   4.703   6.415   7.783
 2828SOL    HW225627   4.807   0.073   0.008
 2829SOL     OW25628   1.353   1.024   0.228
 2829SOL    HW125629   1.260   1.004   0.244
 2829SOL    HW225630   1.400   0.949   0.266
 2830SOL     OW25631   4.086   4.164   1.399
 2830SOL    HW125632   4.047   4.191   1.482
 2830SOL    HW225633   4.126   4.244   1.365
 2831SOL     OW25634   3.045   4.351   1.512
 2831SOL    HW125635   3.022   4.306   1.594
 2831SOL    HW225636   3.046   4.282   1.446
 2832SOL     OW25637   0.882   0.208   0.383
 2832SOL    HW125638   0.962   0.162   0.359
 2832SOL    HW225639   0.822   0.139   0.411
 2833SOL     OW25640   3.509   2.933   5.362
 2833SOL    HW125641   3.493   2.852   5.409
 2833SOL    HW225642   3.596   2.923   5.325
 2834SOL     OW25643   1.473   1.869   0.640
 2834SOL    HW125644   1.472   1.774   0.650
 2834SOL    HW225645   1.407   1.886   0.573
 2835SOL     OW25646   5.990   4.996   6.814
 2835SOL    HW125647   6.044   4.951   6.749
 2835SOL    HW225648   5.909   4.945   6.816
 2836SOL     OW25649   0.619   2.874   6.124
 2836SOL    HW125650   0.551   2.911   6.067
 2836SOL    HW225651   0.673   2.821   6.066
 2837SOL     OW25652   4.410   3.812   7.539
 2837SOL    HW125653   4.483   3.770   7.495
 2837SOL    HW225654   4.369   3.866   7.472
 2838SOL     OW25655   0.235   5.833   7.709
 2838SOL    HW125656   0.236   5.759   7.770
 2838SOL    HW225657   0.190   5.799   7.631
 2839SOL     OW25658   3.427   4.522   0.618
 2839SOL    HW125659   3.345   4.515   0.570
 2839SOL    HW225660   3.423   4.452   0.683
 2840SOL     OW25661   1.253   5.232   0.779
 2840SOL    HW125662   1.241   5.137   0.771
 2840SOL    HW225663   1.229   5.252   0.869
 2841SOL     OW25664   1.555   2.858   6.695
 2841SOL    HW125665   1.632   2.906   6.664
 2841SOL    HW225666   1.570   2.768   6.668
 2842SOL     OW25667   3.584   3.093   0.086
 2842SOL    HW125668   3.567   3.024   0.021
 2842SOL    HW225669   3.665   3.065   0.129
 2843SOL     OW25670   1.215   2.673   0.991
 2843SOL    HW125671   1.160   2.627   1.054
 2843SOL    HW225672   1.302   2.636   1.004
 2844SOL     OW25673   0.551   3.793   1.944
 2844SOL    HW125674   0.484   3.725   1.947
 2844SOL    HW225675   0.608   3.774   2.019
 2845SOL     OW25676   1.456   1.524   6.522
 2845SOL    HW125677   1.424   1.497   6.435
 2845SOL    HW225678   1.456   1.443   6.573
 2846SOL     OW25679   4.620   3.620   7.775
 2846SOL    HW125680   4.656   3.566   0.043
 2846SOL    HW225681   4.565   3.559   7.725
 2847SOL     OW25682   2.644   1.030   5.612
 2847SOL    HW125683   2.661   0.939   5.638
 2847SOL    HW225684   2.599   1.022   5.527
 2848SOL     OW25685   2.772   4.583   7.245
 2848SOL    HW125686   2.760   4.670   7.282
 2848SOL    HW225687   2.686   4.542   7.252
 2849SOL     OW25688   4.782   1.616   0.317
 2849SOL    HW125689   4.703   1.663   0.291
 2849SOL    HW225690   4.751   1.531   0.348
 2850SOL     OW25691   3.143   5.823   5.354
 2850SOL    HW125692   3.077   5.776   5.405
 2850SOL    HW225693   3.093   5.891   5.308
 2851SOL     OW25694   2.602   3.254   0.484
 2851SOL    HW125695   2.550   3.253   0.403
 2851SOL    HW225696   2.693   3.254   0.453
 2852SOL     OW25697   6.317   1.348   7.686
 2852SOL    HW125698   6.243   1.290   7.702
 2852SOL    HW225699   6.297   1.388   7.601
 2853SOL     OW25700   4.116   4.549   7.595
 2853SOL    HW125701   4.117   4.455   7.578
 2853SOL    HW225702   4.025   4.568   7.616
 2854SOL     OW25703   5.823   6.186   5.550
 2854SOL    HW125704   5.820   6.094   5.526
 2854SOL    HW225705   5.752   6.196   5.614
 2855SOL     OW25706   3.214   1.437   6.705
 2855SOL    HW125707   3.247   1.354   6.739
 2855SOL    HW225708   3.160   1.472   6.775
 2856SOL     OW25709   4.640   1.446   6.471
 2856SOL    HW125710   4.697   1.384   6.518
 2856SOL    HW225711   4.687   1.465   6.390
 2857SOL     OW25712   3.047   5.488   7.431
 2857SOL    HW125713   3.006   5.410   7.467
 2857SOL    HW225714   2.987   5.559   7.453
 2858SOL     OW25715   6.272   4.128   6.934
 2858SOL    HW125716   6.279   4.082   6.850
 2858SOL    HW225717   6.184   4.109   6.965
 2859SOL     OW25718   3.438   3.365   6.755
 2859SOL    HW125719   3.389   3.365   6.837
 2859SOL    HW225720   3.515   3.419   6.773
 2860SOL     OW25721   2.710   0.372   1.406
 2860SOL    HW125722   2.664   0.444   1.449
 2860SOL    HW225723   2.647   0.336   1.344
 2861SOL     OW25724   0.778   4.045   0.499
 2861SOL    HW125725   0.762   4.131   0.459
 2861SOL    HW225726   0.824   3.996   0.431
 2862SOL     OW25727   3.717   5.446   7.688
 2862SOL    HW125728   3.809   5.436   7.715
 2862SOL    HW225729   3.713   5.534   7.652
 2863SOL     OW25730   1.692   5.967   0.879
 2863SOL    HW125731   1.678   5.877   0.908
 2863SOL    HW225732   1.735   5.958   0.794
 2864SOL     OW25733   4.236   0.856   1.419
 2864SOL    HW125734   4.297   0.819   1.483
 2864SOL    HW225735   4.278   0.938   1.391
 2865SOL     OW25736   1.635   3.088   7.343
 2865SOL    HW125737   1.550   3.070   7.301
 2865SOL    HW225738   1.637   3.030   7.418
 2866SOL     OW25739   0.615   0.993   6.372
 2866SOL    HW125740   0.616   1.014   6.278
 2866SOL    HW225741   0.643   1.073   6.415
 2867SOL     OW25742   4.935   3.488   5.260
 2867SOL    HW125743   5.015   3.538   5.273
 2867SOL    HW225744   4.879   3.545   5.208
 2868SOL     OW25745   0.916   1.141   1.879
 2868SOL    HW125746   0.931   1.137   1.973
 2868SOL    HW225747   1.003   1.154   1.841
 2869SOL     OW25748   0.906   0.624   1.317
 2869SOL    HW125749   0.922   0.623   1.411
 2869SOL    HW225750   0.944   0.542   1.285
 2870SOL     OW25751   3.064   2.429   6.752
 2870SOL    HW125752   3.123   2.485   6.702
 2870SOL    HW225753   3.057   2.349   6.700
 2871SOL     OW25754   0.920   2.531   0.746
 2871SOL    HW125755   0.895   2.508   0.835
 2871SOL    HW225756   1.008   2.495   0.736
 2872SOL     OW25757   5.800   4.341   1.530
 2872SOL    HW125758   5.893   4.360   1.537
 2872SOL    HW225759   5.759   4.393   1.599
 2873SOL     OW25760   2.602   1.499   1.675
 2873SOL    HW125761   2.684   1.537   1.707
 2873SOL    HW225762   2.546   1.495   1.752
 2874SOL     OW25763   5.342   1.671   6.298
 2874SOL    HW125764   5.267   1.626   6.337
 2874SOL    HW225765   5.350   1.633   6.210
 2875SOL     OW25766   1.267   1.891   1.201
 2875SOL    HW125767   1.247   1.805   1.164
 2875SOL    HW225768   1.237   1.885   1.292
 2876SOL     OW25769   3.602   1.516   6.346
 2876SOL    HW125770   3.621   1.522   6.440
 2876SOL    HW225771   3.576   1.605   6.321
 2877SOL     OW25772   5.839   5.958   2.162
 2877SOL    HW125773   5.924   6.002   2.167
 2877SOL    HW225774   5.816   5.961   2.069
 2878SOL     OW25775   1.563   0.858   6.325
 2878SOL    HW125776   1.599   0.810   6.250
 2878SOL    HW225777   1.497   0.916   6.287
 2879SOL     OW25778   2.183   2.954   0.675
 2879SOL    HW125779   2.183   2.909   0.759
 2879SOL    HW225780   2.128   2.901   0.618
 2880SOL     OW25781   6.410   3.011   6.106
 2880SOL    HW125782   6.378   3.101   6.098
 2880SOL    HW225783   6.333   2.957   6.089
 2881SOL     OW25784   4.322   4.550   6.084
 2881SOL    HW125785   4.379   4.615   6.127
 2881SOL    HW225786   4.353   4.546   5.994
 2882SOL     OW25787   5.606   1.345   1.699
 2882SOL    HW125788   5.533   1.297   1.659
 2882SOL    HW225789   5.644   1.395   1.627
 2883SOL     OW25790   6.287   5.217   7.429
 2883SOL    HW125791   6.361   5.267   7.394
 2883SOL    HW225792   6.224   5.212   7.358
 2884SOL     OW25793   3.064   1.469   0.209
 2884SOL    HW125794   3.152   1.500   0.231
 2884SOL    HW225795   3.041   1.409   0.279
 2885SOL     OW25796   1.000   1.173   2.136
 2885SOL    HW125797   1.045   1.090   2.151
 2885SOL    HW225798   1.068   1.240   2.149
 2886SOL     OW25799   5.145   4.105   1.325
 2886SOL    HW125800   5.060   4.065   1.341
 2886SOL    HW225801   5.186   4.109   1.412
 2887SOL     OW25802   5.063   2.397   6.809
 2887SOL    HW125803   5.018   2.327   6.858
 2887SOL    HW225804   5.082   2.464   6.875
 2888SOL     OW25805   4.675   5.635   1.621
 2888SOL    HW125806   4.767   5.612   1.621
 2888SOL    HW225807   4.655   5.656   1.713
 2889SOL     OW25808   5.764   5.629   7.786
 2889SOL    HW125809   5.673   5.626   7.757
 2889SOL    HW225810   5.786   5.538   0.004
 2890SOL     OW25811   3.469   1.744   6.653
 2890SOL    HW125812   3.535   1.679   6.630
 2890SOL    HW225813   3.517   1.812   6.699
 2891SOL     OW25814   5.517   3.290   0.866
 2891SOL    HW125815   5.606   3.296   0.830
 2891SOL    HW225816   5.463   3.269   0.790
 2892SOL     OW25817   0.591   3.239   6.653
 2892SOL    HW125818   0.587   3.326   6.695
 2892SOL    HW225819   0.608   3.258   6.561
 2893SOL     OW25820   5.156   0.883   0.318
 2893SOL    HW125821   5.174   0.976   0.326
 2893SOL    HW225822   5.230   0.841   0.363
 2894SOL     OW25823   5.140   2.155   1.670
 2894SOL    HW125824   5.161   2.095   1.741
 2894SOL    HW225825   5.154   2.242   1.707
 2895SOL     OW25826   0.107   5.323   7.591
 2895SOL    HW125827   0.093   5.368   7.508
 2895SOL    HW225828   0.106   5.230   7.568
 2896SOL     OW25829   6.408   3.965   0.567
 2896SOL    HW125830   0.036   3.949   0.510
 2896SOL    HW225831   6.397   4.061   0.566
 2897SOL     OW25832   4.666   0.072   6.978
 2897SOL    HW125833   4.693   0.124   6.903
 2897SOL    HW225834   4.663   6.430   6.945
 2898SOL     OW25835   3.542   0.186   6.232
 2898SOL    HW125836   3.519   0.247   6.163
 2898SOL    HW225837   3.609   0.231   6.283
 2899SOL     OW25838   1.744   3.832   5.830
 2899SOL    HW125839   1.741   3.916   5.785
 2899SOL    HW225840   1.734   3.767   5.760
 2900SOL     OW25841   0.781   1.697   5.696
 2900SOL    HW125842   0.798   1.759   5.626
 2900SOL    HW225843   0.860   1.643   5.701
 2901SOL     OW25844   4.180   3.149   1.591
 2901SOL    HW125845   4.150   3.239   1.604
 2901SOL    HW225846   4.272   3.150   1.614
 2902SOL     OW25847   1.447   1.740   0.309
 2902SOL    HW125848   1.496   1.820   0.327
 2902SOL    HW225849   1.359   1.771   0.286
 2903SOL     OW25850   6.240   5.694   2.340
 2903SOL    HW125851   6.151   5.720   2.315
 2903SOL    HW225852   6.236   5.681   2.434
 2904SOL     OW25853   3.268   4.874   0.078
 2904SOL    HW125854   3.288   4.798   0.132
 2904SOL    HW225855   3.322   4.944   0.115
 2905SOL     OW25856   0.587   3.177   5.919
 2905SOL    HW125857   0.535   3.099   5.935
 2905SOL    HW225858   0.666   3.145   5.875
 2906SOL     OW25859   6.173   5.256   0.160
 2906SOL    HW125860   6.199   5.253   0.068
 2906SOL    HW225861   6.237   5.316   0.200
 2907SOL     OW25862   2.685   3.994   7.357
 2907SOL    HW125863   2.656   4.071   7.309
 2907SOL    HW225864   2.744   4.028   7.424
 2908SOL     OW25865   6.200   2.784   0.422
 2908SOL    HW125866   6.279   2.746   0.385
 2908SOL    HW225867   6.230   2.863   0.468
 2909SOL     OW25868   5.282   2.717   6.826
 2909SOL    HW125869   5.234   2.674   6.897
 2909SOL    HW225870   5.213   2.745   6.766
 2910SOL     OW25871   5.134   0.327   1.848
 2910SOL    HW125872   5.191   0.303   1.775
 2910SOL    HW225873   5.189   0.316   1.926
 2911SOL     OW25874   3.371   1.877   7.037
 2911SOL    HW125875   3.455   1.918   7.058
 2911SOL    HW225876   3.316   1.895   7.113
 2912SOL     OW25877   1.627   3.737   1.155
 2912SOL    HW125878   1.715   3.710   1.128
 2912SOL    HW225879   1.643   3.814   1.211
 2913SOL     OW25880   5.250   4.165   6.959
 2913SOL    HW125881   5.163   4.192   6.930
 2913SOL    HW225882   5.259   4.075   6.928
 2914SOL     OW25883   2.504   2.338   6.970
 2914SOL    HW125884   2.485   2.289   7.050
 2914SOL    HW225885   2.591   2.308   6.943
 2915SOL     OW25886   2.977   4.287   6.938
 2915SOL    HW125887   2.925   4.212   6.968
 2915SOL    HW225888   2.980   4.346   7.013
 2916SOL     OW25889   0.613   0.496   6.026
 2916SOL    HW125890   0.687   0.520   6.082
 2916SOL    HW225891   0.635   0.409   5.993
 2917SOL     OW25892   5.733   4.477   7.116
 2917SOL    HW125893   5.764   4.563   7.087
 2917SOL    HW225894   5.790   4.455   7.190
 2918SOL     OW25895   3.614   2.240   7.013
 2918SOL    HW125896   3.618   2.235   6.918
 2918SOL    HW225897   3.673   2.313   7.036
 2919SOL     OW25898   2.243   1.889   1.485
 2919SOL    HW125899   2.293   1.807   1.483
 2919SOL    HW225900   2.299   1.949   1.534
 2920SOL     OW25901   0.234   3.850   0.148
 2920SOL    HW125902   0.277   3.773   0.110
 2920SOL    HW225903   0.242   3.917   0.080
 2921SOL     OW25904   1.047   5.585   6.142
 2921SOL    HW125905   1.026   5.568   6.050
 2921SOL    HW225906   1.139   5.612   6.141
 2922SOL     OW25907   5.238   1.446   0.047
 2922SOL    HW125908   5.204   1.412   0.130
 2922SOL    HW225909   5.227   1.374   7.788
 2923SOL     OW25910   1.527   1.326   0.532
 2923SOL    HW125911   1.480   1.316   0.450
 2923SOL    HW225912   1.499   1.411   0.566
 2924SOL     OW25913   2.590   2.526   1.746
 2924SOL    HW125914   2.611   2.550   1.836
 2924SOL    HW225915   2.494   2.528   1.743
 2925SOL     OW25916   5.397   4.326   6.788
 2925SOL    HW125917   5.357   4.267   6.851
 2925SOL    HW225918   5.489   4.331   6.814
 2926SOL     OW25919   3.450   2.709   5.496
 2926SOL    HW125920   3.418   2.698   5.586
 2926SOL    HW225921   3.491   2.625   5.475
 2927SOL     OW25922   4.923   1.569   0.651
 2927SOL    HW125923   4.993   1.551   0.713
 2927SOL    HW225924   4.932   1.662   0.631
 2928SOL     OW25925   2.085   5.859   0.645
 2928SOL    HW125926   2.143   5.918   0.597
 2928SOL    HW225927   2.142   5.787   0.673
 2929SOL     OW25928   4.109   5.797   0.580
 2929SOL    HW125929   4.028   5.747   0.568
 2929SOL    HW225930   4.124   5.839   0.495
 2930SOL     OW25931   2.170   1.192   6.826
 2930SOL    HW125932   2.238   1.239   6.874
 2930SOL    HW225933   2.210   1.173   6.741
 2931SOL     OW25934   3.359   1.170   6.578
 2931SOL    HW125935   3.435   1.157   6.634
 2931SOL    HW225936   3.394   1.213   6.500
 2932SOL     OW25937   0.242   5.616   0.075
 2932SOL    HW125938   0.331   5.636   0.103
 2932SOL    HW225939   0.240   5.521   0.066
 2933SOL     OW25940   6.062   2.722   5.334
 2933SOL    HW125941   6.031   2.638   5.369
 2933SOL    HW225942   6.115   2.759   5.404
 2934SOL     OW25943   4.379   3.735   7.034
 2934SOL    HW125944   4.351   3.827   7.034
 2934SOL    HW225945   4.474   3.738   7.036
 2935SOL     OW25946   3.191   2.178   6.052
 2935SOL    HW125947   3.165   2.087   6.037
 2935SOL    HW225948   3.189   2.189   6.147
 2936SOL     OW25949   3.888   0.063   6.517
 2936SOL    HW125950   3.966   0.051   6.571
 2936SOL    HW225951   3.902   0.146   6.472
 2937SOL     OW25952   2.551   0.993   0.814
 2937SOL    HW125953   2.599   1.056   0.867
 2937SOL    HW225954   2.459   1.015   0.828
 2938SOL     OW25955   4.198   2.115   7.598
 2938SOL    HW125956   4.194   2.019   7.601
 2938SOL    HW225957   4.212   2.135   7.505
 2939SOL     OW25958   5.995   0.501   6.496
 2939SOL    HW125959   5.905   0.523   6.471
 2939SOL    HW225960   5.986   0.420   6.546
 2940SOL     OW25961   0.478   2.248   0.311
 2940SOL    HW125962   0.558   2.218   0.355
 2940SOL    HW225963   0.495   2.341   0.293
 2941SOL     OW25964   5.014   3.801   5.577
 2941SOL    HW125965   5.106   3.823   5.589
 2941SOL    HW225966   4.980   3.871   5.522
 2942SOL     OW25967   6.234   4.386   2.192
 2942SOL    HW125968   6.311   4.443   2.194
 2942SOL    HW225969   6.170   4.429   2.249
 2943SOL     OW25970   1.007   6.281   0.718
 2943SOL    HW125971   1.075   6.222   0.686
 2943SOL    HW225972   0.928   6.257   0.668
 2944SOL     OW25973   2.938   5.128   6.671
 2944SOL    HW125974   2.918   5.210   6.716
 2944SOL    HW225975   2.984   5.155   6.591
 2945SOL     OW25976   6.289   0.422   0.216
 2945SOL    HW125977   6.342   0.343   0.228
 2945SOL    HW225978   6.300   0.444   0.123
 2946SOL     OW25979   1.196   2.504   7.072
 2946SOL    HW125980   1.133   2.496   7.000
 2946SOL    HW225981   1.233   2.416   7.081
 2947SOL     OW25982   0.306   2.713   6.914
 2947SOL    HW125983   0.218   2.700   6.879
 2947SOL    HW225984   0.355   2.750   6.841
 2948SOL     OW25985   4.882   1.562   7.150
 2948SOL    HW125986   4.871   1.539   7.058
 2948SOL    HW225987   4.793   1.578   7.181
 2949SOL     OW25988   5.257   1.137   0.315
 2949SOL    HW125989   5.310   1.121   0.236
 2949SOL    HW225990   5.196   1.206   0.289
 2950SOL     OW25991   2.235   0.659   0.614
 2950SOL    HW125992   2.229   0.701   0.699
 2950SOL    HW225993   2.317   0.692   0.577
 2951SOL     OW25994   6.084   0.020   0.561
 2951SOL    HW125995   6.175   0.013   0.592
 2951SOL    HW225996   6.074   0.113   0.541
 2952SOL     OW25997   1.260   5.720   0.663
 2952SOL    HW125998   1.352   5.745   0.654
 2952SOL    HW225999   1.231   5.702   0.574
 2953SOL     OW26000   0.189   1.597   6.400
 2953SOL    HW126001   0.264   1.564   6.350
 2953SOL    HW226002   0.147   1.518   6.434
 2954SOL     OW26003   2.916   1.091   4.926
 2954SOL    HW126004   2.830   1.134   4.919
 2954SOL    HW226005   2.897   1.005   4.963
 2955SOL     OW26006   5.871   4.090   7.482
 2955SOL    HW126007   5.912   4.006   7.462
 2955SOL    HW226008   5.898   4.147   7.409
 2956SOL     OW26009   0.624   5.361   0.316
 2956SOL    HW126010   0.614   5.372   0.221
 2956SOL    HW226011   0.573   5.283   0.336
 2957SOL     OW26012   2.471   5.297   5.965
 2957SOL    HW126013   2.485   5.233   5.895
 2957SOL    HW226014   2.497   5.381   5.928
 2958SOL     OW26015   5.913   5.904   1.432
 2958SOL    HW126016   5.836   5.905   1.375
 2958SOL    HW226017   5.893   5.965   1.502
 2959SOL     OW26018   0.361   2.043   1.889
 2959SOL    HW126019   0.302   2.076   1.957
 2959SOL    HW226020   0.378   1.952   1.913
 2960SOL     OW26021   1.984   1.029   6.452
 2960SOL    HW126022   2.012   0.940   6.430
 2960SOL    HW226023   1.955   1.066   6.369
 2961SOL     OW26024   4.068   0.628   7.449
 2961SOL    HW126025   4.049   0.608   7.358
 2961SOL    HW226026   4.150   0.582   7.467
 2962SOL     OW26027   2.144   5.424   6.959
 2962SOL    HW126028   2.206   5.487   6.995
 2962SOL    HW226029   2.189   5.388   6.882
 2963SOL     OW26030   1.317   5.031   6.618
 2963SOL    HW126031   1.275   4.994   6.696
 2963SOL    HW226032   1.348   4.955   6.569
 2964SOL     OW26033   3.086   1.596   6.896
 2964SOL    HW126034   3.116   1.674   6.851
 2964SOL    HW226035   3.145   1.588   6.971
 2965SOL     OW26036   6.415   2.662   0.793
 2965SOL    HW126037   6.401   2.605   0.717
 2965SOL    HW226038   6.355   2.629   0.860
 2966SOL     OW26039   0.445   1.585   0.550
 2966SOL    HW126040   0.518   1.640   0.519
 2966SOL    HW226041   0.433   1.612   0.641
 2967SOL     OW26042   5.422   2.953   6.813
 2967SOL    HW126043   5.474   2.957   6.733
 2967SOL    HW226044   5.375   2.870   6.807
 2968SOL     OW26045   5.053   4.778   0.545
 2968SOL    HW126046   5.109   4.700   0.538
 2968SOL    HW226047   5.000   4.775   0.465
 2969SOL     OW26048   1.656   3.268   6.563
 2969SOL    HW126049   1.704   3.270   6.480
 2969SOL    HW226050   1.700   3.332   6.618
 2970SOL     OW26051   0.841   3.152   5.783
 2970SOL    HW126052   0.842   3.063   5.819
 2970SOL    HW226053   0.914   3.196   5.828
 2971SOL     OW26054   4.252   3.013   7.755
 2971SOL    HW126055   4.258   3.103   7.786
 2971SOL    HW226056   4.279   3.018   7.663
 2972SOL     OW26057   5.556   5.104   1.185
 2972SOL    HW126058   5.569   5.119   1.092
 2972SOL    HW226059   5.553   5.008   1.194
 2973SOL     OW26060   2.201   4.057   6.350
 2973SOL    HW126061   2.193   4.141   6.395
 2973SOL    HW226062   2.294   4.053   6.325
 2974SOL     OW26063   2.422   5.628   6.608
 2974SOL    HW126064   2.411   5.548   6.556
 2974SOL    HW226065   2.334   5.649   6.639
 2975SOL     OW26066   1.722   2.590   1.989
 2975SOL    HW126067   1.809   2.599   2.029
 2975SOL    HW226068   1.710   2.495   1.981
 2976SOL     OW26069   2.618   5.544   5.816
 2976SOL    HW126070   2.540   5.551   5.761
 2976SOL    HW226071   2.683   5.599   5.772
 2977SOL     OW26072   2.478   4.633   0.408
 2977SOL    HW126073   2.387   4.609   0.391
 2977SOL    HW226074   2.524   4.549   0.419
 2978SOL     OW26075   0.638   3.031   7.723
 2978SOL    HW126076   0.699   3.100   7.699
 2978SOL    HW226077   0.552   3.074   7.724
 2979SOL     OW26078   2.883   1.440   1.540
 2979SOL    HW126079   2.898   1.354   1.580
 2979SOL    HW226080   2.866   1.498   1.615
 2980SOL     OW26081   6.174   1.521   1.270
 2980SOL    HW126082   6.189   1.467   1.191
 2980SOL    HW226083   6.262   1.537   1.304
 2981SOL     OW26084   3.263   0.472   0.497
 2981SOL    HW126085   3.334   0.448   0.438
 2981SOL    HW226086   3.201   0.520   0.442
 2982SOL     OW26087   2.466   2.450   6.171
 2982SOL    HW126088   2.545   2.412   6.134
 2982SOL    HW226089   2.451   2.530   6.120
 2983SOL     OW26090   3.300   2.782   0.489
 2983SOL    HW126091   3.375   2.838   0.509
 2983SOL    HW226092   3.311   2.759   0.396
 2984SOL     OW26093   1.147   2.644   7.297
 2984SOL    HW126094   1.060   2.613   7.321
 2984SOL    HW226095   1.171   2.592   7.220
 2985SOL     OW26096   4.395   5.513   6.489
 2985SOL    HW126097   4.386   5.431   6.538
 2985SOL    HW226098   4.481   5.547   6.513
 2986SOL     OW26099   0.127   2.361   0.690
 2986SOL    HW126100   0.181   2.430   0.729
 2986SOL    HW226101   0.190   2.302   0.648
 2987SOL     OW26102   3.438   2.415   0.511
 2987SOL    HW126103   3.408   2.423   0.421
 2987SOL    HW226104   3.533   2.420   0.506
 2988SOL     OW26105   4.593   3.924   1.741
 2988SOL    HW126106   4.504   3.949   1.718
 2988SOL    HW226107   4.589   3.899   1.833
 2989SOL     OW26108   3.630   1.079   7.500
 2989SOL    HW126109   3.641   1.056   7.592
 2989SOL    HW226110   3.719   1.079   7.464
 2990SOL     OW26111   5.879   5.680   0.945
 2990SOL    HW126112   5.939   5.710   1.013
 2990SOL    HW226113   5.800   5.655   0.993
 2991SOL     OW26114   6.101   3.571   7.130
 2991SOL    HW126115   6.180   3.563   7.183
 2991SOL    HW226116   6.131   3.559   7.040
 2992SOL     OW26117   5.638   0.201   0.021
 2992SOL    HW126118   5.606   0.153   0.097
 2992SOL    HW226119   5.588   0.164   7.750
 2993SOL     OW26120   5.196   0.384   6.319
 2993SOL    HW126121   5.139   0.423   6.253
 2993SOL    HW226122   5.203   0.450   6.388
 2994SOL     OW26123   1.483   1.021   1.978
 2994SOL    HW126124   1.455   1.077   2.050
 2994SOL    HW226125   1.551   0.965   2.015
 2995SOL     OW26126   6.086   1.035   0.884
 2995SOL    HW126127   6.131   1.119   0.880
 2995SOL    HW226128   6.153   0.970   0.863
 2996SOL     OW26129   3.095   5.970   0.406
 2996SOL    HW126130   3.045   5.912   0.348
 2996SOL    HW226131   3.099   6.053   0.359
 2997SOL     OW26132   4.920   5.263   1.849
 2997SOL    HW126133   4.980   5.249   1.775
 2997SOL    HW226134   4.930   5.184   1.903
 2998SOL     OW26135   6.079   0.201   5.950
 2998SOL    HW126136   6.019   0.273   5.932
 2998SOL    HW226137   6.093   0.160   5.865
 2999SOL     OW26138   1.686   6.424   0.912
 2999SOL    HW126139   1.771   0.020   0.919
 2999SOL    HW226140   1.657   6.414   1.002
 3000SOL     OW26141   6.348   2.225   7.743
 3000SOL    HW126142   6.372   2.255   7.655
 3000SOL    HW226143   6.376   2.134   7.746
 3001SOL     OW26144   1.134   5.492   0.759
 3001SOL    HW126145   1.189   5.563   0.727
 3001SOL    HW226146   1.187   5.413   0.746
 3002SOL     OW26147   4.198   5.107   0.330
 3002SOL    HW126148   4.215   5.047   0.403
 3002SOL    HW226149   4.109   5.086   0.303
 3003SOL     OW26150   5.938   3.296   1.745
 3003SOL    HW126151   5.870   3.316   1.810
 3003SOL    HW226152   6.018   3.286   1.796
 3004SOL     OW26153   1.018   4.711   1.637
 3004SOL    HW126154   1.006   4.720   1.732
 3004SOL    HW226155   0.985   4.623   1.617
 3005SOL     OW26156   4.857   4.976   0.146
 3005SOL    HW126157   4.782   5.013   0.099
 3005SOL    HW226158   4.897   5.050   0.190
 3006SOL     OW26159   1.435   6.347   5.376
 3006SOL    HW126160   1.408   6.261   5.344
 3006SOL    HW226161   1.472   6.390   5.299
 3007SOL     OW26162   3.967   1.114   6.910
 3007SOL    HW126163   3.932   1.196   6.877
 3007SOL    HW226164   3.916   1.046   6.865
 3008SOL     OW26165   2.852   0.596   0.523
 3008SOL    HW126166   2.933   0.581   0.473
 3008SOL    HW226167   2.783   0.562   0.466
 3009SOL     OW26168   2.952   3.974   0.001
 3009SOL    HW126169   2.880   4.017   0.047
 3009SOL    HW226170   3.029   3.990   0.056
 3010SOL     OW26171   3.211   4.130   7.471
 3010SOL    HW126172   3.261   4.049   7.463
 3010SOL    HW226173   3.248   4.174   7.547
 3011SOL     OW26174   0.431   4.746   0.124
 3011SOL    HW126175   0.414   4.713   0.035
 3011SOL    HW226176   0.350   4.792   0.148
 3012SOL     OW26177   2.287   4.870   0.264
 3012SOL    HW126178   2.258   4.796   0.210
 3012SOL    HW226179   2.296   4.833   0.351
 3013SOL     OW26180   2.256   1.138   1.053
 3013SOL    HW126181   2.259   1.045   1.076
 3013SOL    HW226182   2.305   1.182   1.123
 3014SOL     OW26183   2.936   2.544   6.259
 3014SOL    HW126184   2.896   2.457   6.271
 3014SOL    HW226185   2.917   2.566   6.168
 3015SOL     OW26186   4.645   1.396   0.422
 3015SOL    HW126187   4.590   1.326   0.386
 3015SOL    HW226188   4.582   1.455   0.465
 3016SOL     OW26189   3.518   5.046   7.206
 3016SOL    HW126190   3.608   5.028   7.179
 3016SOL    HW226191   3.496   4.975   7.266
 3017SOL     OW26192   2.366   5.119   0.379
 3017SOL    HW126193   2.460   5.109   0.396
 3017SOL    HW226194   2.341   5.040   0.332
 3018SOL     OW26195   4.410   1.180   6.797
 3018SOL    HW126196   4.408   1.217   6.709
 3018SOL    HW226197   4.483   1.119   6.796
 3019SOL     OW26198   4.655   1.403   1.855
 3019SOL    HW126199   4.727   1.394   1.917
 3019SOL    HW226200   4.581   1.362   1.898
 3020SOL     OW26201   5.447   4.801   7.112
 3020SOL    HW126202   5.449   4.750   7.031
 3020SOL    HW226203   5.399   4.880   7.090
 3021SOL     OW26204   0.091   0.327   7.661
 3021SOL    HW126205   0.140   0.318   7.743
 3021SOL    HW226206   0.008   0.367   7.686
 3022SOL     OW26207   6.262   4.140   2.297
 3022SOL    HW126208   6.326   4.165   2.364
 3022SOL    HW226209   6.246   4.220   2.248
 3023SOL     OW26210   6.104   4.124   1.127
 3023SOL    HW126211   6.037   4.192   1.122
 3023SOL    HW226212   6.127   4.106   1.036
 3024SOL     OW26213   4.735   0.824   6.267
 3024SOL    HW126214   4.746   0.918   6.248
 3024SOL    HW226215   4.672   0.821   6.339
 3025SOL     OW26216   3.819   0.635   1.324
 3025SOL    HW126217   3.820   0.570   1.254
 3025SOL    HW226218   3.776   0.592   1.398
 3026SOL     OW26219   6.407   0.298   0.988
 3026SOL    HW126220   6.325   0.339   1.016
 3026SOL    HW226221   6.402   0.298   0.892
 3027SOL     OW26222   4.499   5.357   7.474
 3027SOL    HW126223   4.593   5.372   7.490
 3027SOL    HW226224   4.455   5.407   7.543
 3028SOL     OW26225   0.782   5.297   6.173
 3028SOL    HW126226   0.769   5.266   6.083
 3028SOL    HW226227   0.708   5.261   6.221
 3029SOL     OW26228   3.367   0.181   1.682
 3029SOL    HW126229   3.339   0.226   1.762
 3029SOL    HW226230   3.427   0.113   1.712
 3030SOL     OW26231   6.346   3.452   0.756
 3030SOL    HW126232   6.349   3.514   0.828
 3030SOL    HW226233   6.407   3.382   0.780
 3031SOL     OW26234   2.922   0.286   1.244
 3031SOL    HW126235   2.881   0.288   1.157
 3031SOL    HW226236   2.855   0.320   1.303
 3032SOL     OW26237   5.729   6.278   7.744
 3032SOL    HW126238   5.824   6.273   7.732
 3032SOL    HW226239   5.695   6.303   7.658
 3033SOL     OW26240   1.495   2.935   7.775
 3033SOL    HW126241   1.432   2.875   0.013
 3033SOL    HW226242   1.570   2.936   0.032
 3034SOL     OW26243   1.939   3.811   1.586
 3034SOL    HW126244   1.862   3.757   1.600
 3034SOL    HW226245   1.943   3.824   1.491
 3035SOL     OW26246   5.760   6.162   0.823
 3035SOL    HW126247   5.847   6.163   0.783
 3035SOL    HW226248   5.776   6.133   0.913
 3036SOL     OW26249   3.561   2.628   5.948
 3036SOL    HW126250   3.540   2.534   5.951
 3036SOL    HW226251   3.507   2.667   6.016
 3037SOL     OW26252   5.308   3.449   0.320
 3037SOL    HW126253   5.239   3.432   0.256
 3037SOL    HW226254   5.371   3.379   0.308
 3038SOL     OW26255   5.624   1.916   1.117
 3038SOL    HW126256   5.637   1.872   1.032
 3038SOL    HW226257   5.711   1.921   1.155
 3039SOL     OW26258   2.657   3.798   7.167
 3039SOL    HW126259   2.659   3.874   7.225
 3039SOL    HW226260   2.696   3.727   7.218
 3040SOL     OW26261   1.551   3.818   7.326
 3040SOL    HW126262   1.557   3.895   7.269
 3040SOL    HW226263   1.622   3.761   7.296
 3041SOL     OW26264   0.534   5.216   7.506
 3041SOL    HW126265   0.501   5.291   7.555
 3041SOL    HW226266   0.604   5.252   7.451
 3042SOL     OW26267   5.206   5.382   6.653
 3042SOL    HW126268   5.141   5.453   6.647
 3042SOL    HW226269   5.270   5.414   6.716
 3043SOL     OW26270   4.063   1.003   6.589
 3043SOL    HW126271   4.048   0.941   6.660
 3043SOL    HW226272   3.983   0.999   6.536
 3044SOL     OW26273   5.626   2.377   1.775
 3044SOL    HW126274   5.606   2.396   1.866
 3044SOL    HW226275   5.585   2.291   1.759
 3045SOL     OW26276   5.170   1.166   0.697
 3045SOL    HW126277   5.172   1.255   0.661
 3045SOL    HW226278   5.099   1.123   0.650
 3046SOL     OW26279   5.538   4.403   1.097
 3046SOL    HW126280   5.607   4.374   1.157
 3046SOL    HW226281   5.459   4.359   1.128
 3047SOL     OW26282   0.387   1.516   7.037
 3047SOL    HW126283   0.318   1.450   7.042
 3047SOL    HW226284   0.341   1.598   7.020
 3048SOL     OW26285   1.642   4.121   7.744
 3048SOL    HW126286   1.661   4.198   7.691
 3048SOL    HW226287   1.611   4.056   7.681
 3049SOL     OW26288   6.439   1.855   1.606
 3049SOL    HW126289   0.001   1.906   1.526
 3049SOL    HW226290   6.427   1.920   1.675
 3050SOL     OW26291   2.212   0.296   6.370
 3050SOL    HW126292   2.273   0.222   6.369
 3050SOL    HW226293   2.209   0.323   6.462
 3051SOL     OW26294   5.352   2.278   2.082
 3051SOL    HW126295   5.258   2.269   2.098
 3051SOL    HW226296   5.379   2.195   2.044
 3052SOL     OW26297   1.517   1.623   0.074
 3052SOL    HW126298   1.553   1.705   0.040
 3052SOL    HW226299   1.490   1.644   0.163
 3053SOL     OW26300   5.524   3.675   0.571
 3053SOL    HW126301   5.577   3.749   0.600
 3053SOL    HW226302   5.487   3.702   0.488
 3054SOL     OW26303   3.658   5.250   7.010
 3054SOL    HW126304   3.563   5.245   7.002
 3054SOL    HW226305   3.686   5.301   6.934
 3055SOL     OW26306   3.423   0.604   1.144
 3055SOL    HW126307   3.479   0.594   1.068
 3055SOL    HW226308   3.339   0.633   1.108
 3056SOL     OW26309   0.755   1.818   7.770
 3056SOL    HW126310   0.712   1.903   7.777
 3056SOL    HW226311   0.694   1.765   7.719
 3057SOL     OW26312   6.069   3.749   0.273
 3057SOL    HW126313   6.052   3.839   0.245
 3057SOL    HW226314   6.138   3.756   0.339
 3058SOL     OW26315   2.507   5.888   6.583
 3058SOL    HW126316   2.471   5.800   6.583
 3058SOL    HW226317   2.451   5.937   6.523
 3059SOL     OW26318   3.605   4.889   6.844
 3059SOL    HW126319   3.524   4.938   6.858
 3059SOL    HW226320   3.670   4.955   6.823
 3060SOL     OW26321   0.387   1.810   5.683
 3060SOL    HW126322   0.326   1.881   5.698
 3060SOL    HW226323   0.358   1.771   5.600
 3061SOL     OW26324   0.148   5.929   0.986
 3061SOL    HW126325   0.065   5.977   0.980
 3061SOL    HW226326   0.194   5.952   0.905
 3062SOL     OW26327   4.619   3.375   6.508
 3062SOL    HW126328   4.578   3.315   6.446
 3062SOL    HW226329   4.545   3.420   6.550
 3063SOL     OW26330   2.076   4.782   7.102
 3063SOL    HW126331   2.063   4.853   7.164
 3063SOL    HW226332   2.134   4.721   7.146
 3064SOL     OW26333   4.539   0.770   0.559
 3064SOL    HW126334   4.547   0.865   0.551
 3064SOL    HW226335   4.536   0.755   0.654
 3065SOL     OW26336   1.254   1.929   0.480
 3065SOL    HW126337   1.195   1.934   0.556
 3065SOL    HW226338   1.205   1.971   0.409
 3066SOL     OW26339   5.763   1.158   6.318
 3066SOL    HW126340   5.756   1.064   6.334
 3066SOL    HW226341   5.787   1.166   6.226
 3067SOL     OW26342   0.964   3.354   1.427
 3067SOL    HW126343   0.960   3.388   1.516
 3067SOL    HW226344   0.945   3.261   1.436
 3068SOL     OW26345   3.954   4.677   1.248
 3068SOL    HW126346   4.032   4.723   1.278
 3068SOL    HW226347   3.987   4.604   1.195
 3069SOL     OW26348   0.407   4.362   5.406
 3069SOL    HW126349   0.361   4.445   5.391
 3069SOL    HW226350   0.374   4.331   5.490
 3070SOL     OW26351   0.601   3.953   7.734
 3070SOL    HW126352   0.558   4.012   7.672
 3070SOL    HW226353   0.575   3.865   7.705
 3071SOL     OW26354   0.591   3.615   7.168
 3071SOL    HW126355   0.529   3.633   7.238
 3071SOL    HW226356   0.538   3.622   7.088
 3072SOL     OW26357   3.685   5.977   0.328
 3072SOL    HW126358   3.601   5.953   0.367
 3072SOL    HW226359   3.743   5.990   0.404
 3073SOL     OW26360   5.825   3.770   2.528
 3073SOL    HW126361   5.890   3.733   2.468
 3073SOL    HW226362   5.858   3.858   2.547
 3074SOL     OW26363   2.279   3.615   5.403
 3074SOL    HW126364   2.369   3.611   5.436
 3074SOL    HW226365   2.258   3.526   5.377
 3075SOL     OW26366   0.582   0.652   7.669
 3075SOL    HW126367   0.607   0.602   7.590
 3075SOL    HW226368   0.625   0.606   7.741
 3076SOL     OW26369   3.979   0.227   7.424
 3076SOL    HW126370   4.005   0.238   7.332
 3076SOL    HW226371   3.936   0.141   7.427
 3077SOL     OW26372   1.456   4.377   1.146
 3077SOL    HW126373   1.432   4.420   1.064
 3077SOL    HW226374   1.491   4.448   1.200
 3078SOL     OW26375   2.443   4.284   7.466
 3078SOL    HW126376   2.356   4.249   7.448
 3078SOL    HW226377   2.483   4.221   7.526
 3079SOL     OW26378   1.062   3.510   7.688
 3079SOL    HW126379   1.060   3.427   7.735
 3079SOL    HW226380   1.085   3.487   7.598
 3080SOL     OW26381   1.881   5.527   6.941
 3080SOL    HW126382   1.972   5.502   6.955
 3080SOL    HW226383   1.851   5.554   7.028
 3081SOL     OW26384   5.472   4.014   1.086
 3081SOL    HW126385   5.395   4.061   1.117
 3081SOL    HW226386   5.442   3.923   1.077
 3082SOL     OW26387   0.508   5.026   7.704
 3082SOL    HW126388   0.542   4.944   7.668
 3082SOL    HW226389   0.521   5.091   7.635
 3083SOL     OW26390   2.722   5.320   0.909
 3083SOL    HW126391   2.711   5.260   0.835
 3083SOL    HW226392   2.640   5.369   0.913
 3084SOL     OW26393   2.685   3.114   6.646
 3084SOL    HW126394   2.743   3.141   6.717
 3084SOL    HW226395   2.740   3.115   6.568
 3085SOL     OW26396   3.249   4.980   0.727
 3085SOL    HW126397   3.252   4.894   0.769
 3085SOL    HW226398   3.281   5.041   0.794
 3086SOL     OW26399   5.953   4.960   7.440
 3086SOL    HW126400   6.034   4.949   7.390
 3086SOL    HW226401   5.887   4.914   7.390
 3087SOL     OW26402   2.797   6.019   7.539
 3087SOL    HW126403   2.850   6.002   7.616
 3087SOL    HW226404   2.840   6.092   7.495
 3088SOL     OW26405   0.370   2.703   1.164
 3088SOL    HW126406   0.292   2.696   1.109
 3088SOL    HW226407   0.354   2.642   1.237
 3089SOL     OW26408   0.617   5.629   0.378
 3089SOL    HW126409   0.603   5.647   0.471
 3089SOL    HW226410   0.621   5.533   0.373
 3090SOL     OW26411   1.168   2.316   5.613
 3090SOL    HW126412   1.240   2.286   5.557
 3090SOL    HW226413   1.178   2.265   5.694
 3091SOL     OW26414   4.392   5.006   6.088
 3091SOL    HW126415   4.453   5.053   6.032
 3091SOL    HW226416   4.371   5.067   6.158
 3092SOL     OW26417   0.000   1.123   7.000
 3092SOL    HW126418   6.440   1.032   7.030
 3092SOL    HW226419   6.361   1.146   6.967
 3093SOL     OW26420   0.927   3.580   0.303
 3093SOL    HW126421   0.925   3.490   0.335
 3093SOL    HW226422   0.929   3.634   0.383
 3094SOL     OW26423   5.503   2.444   7.235
 3094SOL    HW126424   5.529   2.481   7.151
 3094SOL    HW226425   5.517   2.515   7.298
 3095SOL     OW26426   3.112   0.946   7.156
 3095SOL    HW126427   3.125   0.907   7.242
 3095SOL    HW226428   3.151   1.033   7.164
 3096SOL     OW26429   2.804   4.500   0.399
 3096SOL    HW126430   2.848   4.565   0.454
 3096SOL    HW226431   2.791   4.545   0.315
 3097SOL     OW26432   4.834   3.866   2.012
 3097SOL    HW126433   4.739   3.856   2.004
 3097SOL    HW226434   4.846   3.932   2.079
 3098SOL     OW26435   5.809   2.434   1.464
 3098SOL    HW126436   5.827   2.516   1.510
 3098SOL    HW226437   5.842   2.366   1.523
 3099SOL     OW26438   6.175   4.429   1.102
 3099SOL    HW126439   6.083   4.401   1.095
 3099SOL    HW226440   6.209   4.420   1.014
 3100SOL     OW26441   1.724   1.175   6.056
 3100SOL    HW126442   1.632   1.178   6.084
 3100SOL    HW226443   1.720   1.142   5.966
 3101SOL     OW26444   5.492   5.563   6.953
 3101SOL    HW126445   5.410   5.610   6.941
 3101SOL    HW226446   5.558   5.631   6.960
 3102SOL     OW26447   3.435   0.949   0.755
 3102SOL    HW126448   3.347   0.912   0.749
 3102SOL    HW226449   3.461   0.935   0.846
 3103SOL     OW26450   4.716   3.481   0.193
 3103SOL    HW126451   4.746   3.393   0.218
 3103SOL    HW226452   4.784   3.540   0.225
 3104SOL     OW26453   5.452   4.537   0.065
 3104SOL    HW126454   5.488   4.482   0.135
 3104SOL    HW226455   5.400   4.477   0.012
 3105SOL     OW26456   5.258   5.131   6.206
 3105SOL    HW126457   5.264   5.192   6.280
 3105SOL    HW226458   5.337   5.148   6.154
 3106SOL     OW26459   4.252   3.282   0.022
 3106SOL    HW126460   4.332   3.322   0.056
 3106SOL    HW226461   4.234   3.329   7.743
 3107SOL     OW26462   1.572   3.356   6.094
 3107SOL    HW126463   1.581   3.446   6.062
 3107SOL    HW226464   1.526   3.310   6.024
 3108SOL     OW26465   0.114   5.249   7.005
 3108SOL    HW126466   0.020   5.260   7.017
 3108SOL    HW226467   0.154   5.319   7.057
 3109SOL     OW26468   5.428   1.284   0.473
 3109SOL    HW126469   5.500   1.235   0.512
 3109SOL    HW226470   5.372   1.217   0.434
 3110SOL     OW26471   0.487   5.702   0.148
 3110SOL    HW126472   0.549   5.720   0.077
 3110SOL    HW226473   0.543   5.674   0.221
 3111SOL     OW26474   4.318   3.754   1.170
 3111SOL    HW126475   4.306   3.831   1.225
 3111SOL    HW226476   4.229   3.727   1.147
 3112SOL     OW26477   5.490   0.420   1.654
 3112SOL    HW126478   5.550   0.442   1.725
 3112SOL    HW226479   5.490   0.497   1.597
 3113SOL     OW26480   0.446   3.635   6.931
 3113SOL    HW126481   0.462   3.725   6.902
 3113SOL    HW226482   0.492   3.581   6.866
 3114SOL     OW26483   4.588   5.097   7.533
 3114SOL    HW126484   4.630   5.109   7.619
 3114SOL    HW226485   4.551   5.183   7.513
 3115SOL     OW26486   3.126   4.309   0.242
 3115SOL    HW126487   3.146   4.217   0.222
 3115SOL    HW226488   3.095   4.345   0.159
 3116SOL     OW26489   3.349   0.851   6.722
 3116SOL    HW126490   3.273   0.892   6.681
 3116SOL    HW226491   3.324   0.841   6.814
 3117SOL     OW26492   2.565   0.580   1.518
 3117SOL    HW126493   2.609   0.646   1.463
 3117SOL    HW226494   2.472   0.597   1.505
 3118SOL     OW26495   2.603   3.770   7.506
 3118SOL    HW126496   2.659   3.717   7.449
 3118SOL    HW226497   2.618   3.860   7.478
 3119SOL     OW26498   6.305   0.556   0.672
 3119SOL    HW126499   6.317   0.590   0.761
 3119SOL    HW226500   6.211   0.565   0.656
 3120SOL     OW26501   2.911   1.062   1.078
 3120SOL    HW126502   2.918   1.063   1.173
 3120SOL    HW226503   3.000   1.075   1.047
 3121SOL     OW26504   0.854   5.448   2.085
 3121SOL    HW126505   0.800   5.408   2.016
 3121SOL    HW226506   0.792   5.468   2.154
 3122SOL     OW26507   2.745   4.617   0.155
 3122SOL    HW126508   2.813   4.627   0.089
 3122SOL    HW226509   2.670   4.581   0.108
 3123SOL     OW26510   2.801   0.694   0.015
 3123SOL    HW126511   2.791   0.698   7.723
 3123SOL    HW226512   2.721   0.651   0.046
 3124SOL     OW26513   4.989   0.206   5.750
 3124SOL    HW126514   4.944   0.151   5.814
 3124SOL    HW226515   5.003   0.289   5.795
 3125SOL     OW26516   3.395   3.491   1.868
 3125SOL    HW126517   3.444   3.567   1.836
 3125SOL    HW226518   3.460   3.439   1.916
 3126SOL     OW26519   6.030   5.518   0.770
 3126SOL    HW126520   6.105   5.475   0.812
 3126SOL    HW226521   5.992   5.573   0.838
 3127SOL     OW26522   1.549   5.748   0.625
 3127SOL    HW126523   1.553   5.667   0.676
 3127SOL    HW226524   1.635   5.789   0.637
 3128SOL     OW26525   5.075   1.334   0.257
 3128SOL    HW126526   5.003   1.335   0.193
 3128SOL    HW226527   5.031   1.336   0.342
 3129SOL     OW26528   5.497   0.173   7.179
 3129SOL    HW126529   5.481   0.085   7.144
 3129SOL    HW226530   5.573   0.163   7.236
 3130SOL     OW26531   5.044   5.596   6.616
 3130SOL    HW126532   5.060   5.690   6.624
 3130SOL    HW226533   5.034   5.582   6.522
 3131SOL     OW26534   1.231   4.545   1.354
 3131SOL    HW126535   1.202   4.459   1.384
 3131SOL    HW226536   1.202   4.551   1.263
 3132SOL     OW26537   6.275   3.762   7.363
 3132SOL    HW126538   6.314   3.690   7.314
 3132SOL    HW226539   6.266   3.727   7.452
 3133SOL     OW26540   2.780   0.119   6.436
 3133SOL    HW126541   2.749   0.083   6.519
 3133SOL    HW226542   2.827   0.199   6.460
 3134SOL     OW26543   6.207   0.605   6.844
 3134SOL    HW126544   6.134   0.546   6.859
 3134SOL    HW226545   6.264   0.593   6.920
 3135SOL     OW26546   1.997   5.150   1.893
 3135SOL    HW126547   1.962   5.228   1.850
 3135SOL    HW226548   1.924   5.116   1.944
 3136SOL     OW26549   3.375   4.051   0.518
 3136SOL    HW126550   3.367   3.956   0.507
 3136SOL    HW226551   3.406   4.061   0.608
 3137SOL     OW26552   1.869   6.352   5.640
 3137SOL    HW126553   1.940   6.298   5.604
 3137SOL    HW226554   1.823   6.385   5.563
 3138SOL     OW26555   0.410   2.973   5.973
 3138SOL    HW126556   0.353   3.022   6.032
 3138SOL    HW226557   0.372   2.885   5.970
 3139SOL     OW26558   4.332   0.617   6.248
 3139SOL    HW126559   4.307   0.525   6.239
 3139SOL    HW226560   4.308   0.640   6.338
 3140SOL     OW26561   0.672   0.748   5.792
 3140SOL    HW126562   0.598   0.690   5.809
 3140SOL    HW226563   0.632   0.834   5.777
 3141SOL     OW26564   4.885   5.518   2.496
 3141SOL    HW126565   4.806   5.555   2.456
 3141SOL    HW226566   4.875   5.424   2.485
 3142SOL     OW26567   0.150   4.436   6.359
 3142SOL    HW126568   0.078   4.382   6.328
 3142SOL    HW226569   0.198   4.459   6.280
 3143SOL     OW26570   2.730   0.947   7.469
 3143SOL    HW126571   2.816   0.978   7.496
 3143SOL    HW226572   2.708   1.002   7.393
 3144SOL     OW26573   3.346   2.031   0.102
 3144SOL    HW126574   3.315   2.101   0.160
 3144SOL    HW226575   3.442   2.035   0.111
 3145SOL     OW26576   2.459   3.341   1.732
 3145SOL    HW126577   2.442   3.433   1.752
 3145SOL    HW226578   2.376   3.309   1.697
 3146SOL     OW26579   1.256   1.351   6.937
 3146SOL    HW126580   1.192   1.393   6.994
 3146SOL    HW226581   1.322   1.419   6.922
 3147SOL     OW26582   3.607   5.359   1.603
 3147SOL    HW126583   3.691   5.404   1.597
 3147SOL    HW226584   3.604   5.328   1.694
 3148SOL     OW26585   1.168   3.016   7.079
 3148SOL    HW126586   1.182   2.987   6.989
 3148SOL    HW226587   1.256   3.024   7.116
 3149SOL     OW26588   1.638   1.402   1.585
 3149SOL    HW126589   1.645   1.368   1.674
 3149SOL    HW226590   1.569   1.468   1.589
 3150SOL     OW26591   5.351   0.825   6.254
 3150SOL    HW126592   5.294   0.880   6.200
 3150SOL    HW226593   5.358   0.742   6.206
 3151SOL     OW26594   4.423   0.099   6.563
 3151SOL    HW126595   4.507   0.141   6.581
 3151SOL    HW226596   4.359   0.154   6.609
 3152SOL     OW26597   3.220   1.831   7.271
 3152SOL    HW126598   3.140   1.883   7.277
 3152SOL    HW226599   3.241   1.808   7.361
 3153SOL     OW26600   5.672   1.840   7.526
 3153SOL    HW126601   5.620   1.834   7.446
 3153SOL    HW226602   5.704   1.751   7.540
 3154SOL     OW26603   4.382   2.754   6.384
 3154SOL    HW126604   4.335   2.705   6.316
 3154SOL    HW226605   4.313   2.801   6.431
 3155SOL     OW26606   6.323   3.969   5.960
 3155SOL    HW126607   6.287   4.057   5.950
 3155SOL    HW226608   6.408   3.973   5.915
 3156SOL     OW26609   2.560   3.510   0.582
 3156SOL    HW126610   2.475   3.525   0.541
 3156SOL    HW226611   2.579   3.418   0.565
 3157SOL     OW26612   3.605   5.032   5.886
 3157SOL    HW126613   3.645   4.962   5.835
 3157SOL    HW226614   3.528   4.992   5.925
 3158SOL     OW26615   1.584   4.042   7.172
 3158SOL    HW126616   1.626   4.105   7.232
 3158SOL    HW226617   1.505   4.086   7.143
 3159SOL     OW26618   4.432   0.230   0.839
 3159SOL    HW126619   4.481   0.272   0.768
 3159SOL    HW226620   4.459   0.138   0.836
 3160SOL     OW26621   5.829   1.487   5.432
 3160SOL    HW126622   5.791   1.406   5.467
 3160SOL    HW226623   5.816   1.552   5.501
 3161SOL     OW26624   3.152   2.568   5.888
 3161SOL    HW126625   3.068   2.584   5.932
 3161SOL    HW226626   3.150   2.474   5.867
 3162SOL     OW26627   2.709   5.107   7.417
 3162SOL    HW126628   2.700   5.167   7.343
 3162SOL    HW226629   2.623   5.110   7.460
 3163SOL     OW26630   2.140   0.914   2.180
 3163SOL    HW126631   2.059   0.911   2.231
 3163SOL    HW226632   2.167   1.005   2.183
 3164SOL     OW26633   4.375   4.550   7.719
 3164SOL    HW126634   4.295   4.566   7.669
 3164SOL    HW226635   4.346   4.498   7.794
 3165SOL     OW26636   5.872   3.027   0.088
 3165SOL    HW126637   5.954   3.067   0.060
 3165SOL    HW226638   5.859   2.954   0.028
 3166SOL     OW26639   2.141   0.017   6.797
 3166SOL    HW126640   2.174   6.440   6.711
 3166SOL    HW226641   2.080   0.089   6.780
 3167SOL     OW26642   6.214   6.367   5.400
 3167SOL    HW126643   6.280   6.400   5.461
 3167SOL    HW226644   6.227   6.273   5.398
 3168SOL     OW26645   1.669   6.262   1.425
 3168SOL    HW126646   1.653   6.216   1.507
 3168SOL    HW226647   1.663   6.354   1.448
 3169SOL     OW26648   3.473   3.378   5.095
 3169SOL    HW126649   3.469   3.324   5.174
 3169SOL    HW226650   3.501   3.318   5.026
 3170SOL     OW26651   1.439   0.456   5.621
 3170SOL    HW126652   1.432   0.523   5.553
 3170SOL    HW226653   1.533   0.439   5.628
 3171SOL     OW26654   5.091   1.977   6.988
 3171SOL    HW126655   5.087   1.892   7.032
 3171SOL    HW226656   5.178   2.011   7.009
 3172SOL     OW26657   5.217   2.916   5.204
 3172SOL    HW126658   5.224   2.820   5.202
 3172SOL    HW226659   5.138   2.932   5.256
 3173SOL     OW26660   1.291   6.138   6.762
 3173SOL    HW126661   1.303   6.067   6.825
 3173SOL    HW226662   1.196   6.150   6.757
 3174SOL     OW26663   2.515   3.366   7.802
 3174SOL    HW126664   2.572   3.433   7.765
 3174SOL    HW226665   2.494   3.308   7.729
 3175SOL     OW26666   5.471   3.895   7.002
 3175SOL    HW126667   5.540   3.925   6.943
 3175SOL    HW226668   5.393   3.890   6.947
 3176SOL     OW26669   1.084   6.094   0.206
 3176SOL    HW126670   1.135   6.080   0.126
 3176SOL    HW226671   1.140   6.147   0.262
 3177SOL     OW26672   6.180   0.794   1.239
 3177SOL    HW126673   6.204   0.770   1.328
 3177SOL    HW226674   6.191   0.889   1.235
 3178SOL     OW26675   0.608   1.386   6.920
 3178SOL    HW126676   0.538   1.425   6.972
 3178SOL    HW226677   0.574   1.384   6.831
 3179SOL     OW26678   5.210   2.729   1.369
 3179SOL    HW126679   5.197   2.670   1.443
 3179SOL    HW226680   5.228   2.815   1.409
 3180SOL     OW26681   0.119   4.502   6.930
 3180SOL    HW126682   0.128   4.489   7.025
 3180SOL    HW226683   0.103   4.415   6.895
 3181SOL     OW26684   4.068   2.041   0.952
 3181SOL    HW126685   4.116   2.110   0.906
 3181SOL    HW226686   4.014   1.999   0.885
 3182SOL     OW26687   0.943   1.910   6.632
 3182SOL    HW126688   0.955   1.938   6.541
 3182SOL    HW226689   0.849   1.893   6.640
 3183SOL     OW26690   1.092   2.820   0.228
 3183SOL    HW126691   1.029   2.758   0.192
 3183SOL    HW226692   1.045   2.865   0.298
 3184SOL     OW26693   4.049   4.900   7.723
 3184SOL    HW126694   4.073   4.879   7.633
 3184SOL    HW226695   4.131   4.890   7.772
 3185SOL     OW26696   1.934   5.909   7.159
 3185SOL    HW126697   1.998   5.863   7.104
 3185SOL    HW226698   1.972   5.996   7.172
 3186SOL     OW26699   4.097   5.365   6.536
 3186SOL    HW126700   4.181   5.336   6.572
 3186SOL    HW226701   4.121   5.424   6.465
 3187SOL     OW26702   4.422   5.055   0.185
 3187SOL    HW126703   4.488   5.075   0.252
 3187SOL    HW226704   4.339   5.075   0.226
 3188SOL     OW26705   0.188   5.681   0.750
 3188SOL    HW126706   0.211   5.771   0.774
 3188SOL    HW226707   0.094   5.675   0.769
 3189SOL     OW26708   4.864   3.199   0.639
 3189SOL    HW126709   4.948   3.204   0.685
 3189SOL    HW226710   4.884   3.153   0.558
 3190SOL     OW26711   5.477   5.049   7.684
 3190SOL    HW126712   5.503   5.021   7.596
 3190SOL    HW226713   5.553   5.028   7.739
 3191SOL     OW26714   4.638   5.631   7.214
 3191SOL    HW126715   4.645   5.704   7.151
 3191SOL    HW226716   4.643   5.673   7.300
 3192SOL     OW26717   0.432   4.455   1.340
 3192SOL    HW126718   0.483   4.524   1.298
 3192SOL    HW226719   0.480   4.375   1.319
 3193SOL     OW26720   3.215   1.483   5.554
 3193SOL    HW126721   3.150   1.503   5.487
 3193SOL    HW226722   3.223   1.388   5.554
 3194SOL     OW26723   0.552   4.198   1.332
 3194SOL    HW126724   0.465   4.181   1.369
 3194SOL    HW226725   0.561   4.132   1.262
 3195SOL     OW26726   1.049   1.088   7.711
 3195SOL    HW126727   0.997   1.089   7.631
 3195SOL    HW226728   1.055   0.996   7.736
 3196SOL     OW26729   2.690   2.689   5.699
 3196SOL    HW126730   2.599   2.672   5.673
 3196SOL    HW226731   2.687   2.775   5.741
 3197SOL     OW26732   2.886   0.199   7.513
 3197SOL    HW126733   2.809   0.222   7.461
 3197SOL    HW226734   2.935   0.138   7.458
 3198SOL     OW26735   3.231   3.181   0.702
 3198SOL    HW126736   3.295   3.205   0.769
 3198SOL    HW226737   3.267   3.219   0.621
 3199SOL     OW26738   2.429   4.721   0.802
 3199SOL    HW126739   2.356   4.699   0.860
 3199SOL    HW226740   2.451   4.638   0.759
 3200SOL     OW26741   0.166   1.665   2.276
 3200SOL    HW126742   0.180   1.747   2.227
 3200SOL    HW226743   0.082   1.633   2.243
 3201SOL     OW26744   3.313   1.582   0.262
 3201SOL    HW126745   3.296   1.676   0.270
 3201SOL    HW226746   3.369   1.575   0.184
 3202SOL     OW26747   5.301   5.493   0.448
 3202SOL    HW126748   5.311   5.480   0.543
 3202SOL    HW226749   5.380   5.454   0.411
 3203SOL     OW26750   4.841   2.015   0.964
 3203SOL    HW126751   4.885   2.072   0.901
 3203SOL    HW226752   4.877   2.042   1.049
 3204SOL     OW26753   3.952   4.121   6.961
 3204SOL    HW126754   3.887   4.190   6.951
 3204SOL    HW226755   4.036   4.166   6.956
 3205SOL     OW26756   1.830   3.197   1.546
 3205SOL    HW126757   1.795   3.109   1.535
 3205SOL    HW226758   1.855   3.203   1.638
 3206SOL     OW26759   3.211   0.950   1.233
 3206SOL    HW126760   3.303   0.927   1.246
 3206SOL    HW226761   3.209   0.990   1.146
 3207SOL     OW26762   0.930   5.125   6.926
 3207SOL    HW126763   0.862   5.070   6.966
 3207SOL    HW226764   0.972   5.169   7.000
 3208SOL     OW26765   1.065   5.474   0.005
 3208SOL    HW126766   1.104   5.424   7.736
 3208SOL    HW226767   1.063   5.412   0.078
 3209SOL     OW26768   2.783   0.499   0.827
 3209SOL    HW126769   2.732   0.576   0.799
 3209SOL    HW226770   2.793   0.447   0.748
 3210SOL     OW26771   6.366   1.064   0.541
 3210SOL    HW126772   6.273   1.057   0.560
 3210SOL    HW226773   6.391   1.151   0.573
 3211SOL     OW26774   1.012   2.457   1.483
 3211SOL    HW126775   1.084   2.405   1.520
 3211SOL    HW226776   1.048   2.545   1.476
 3212SOL     OW26777   2.927   5.271   7.533
 3212SOL    HW126778   2.962   5.240   7.617
 3212SOL    HW226779   2.860   5.207   7.510
 3213SOL     OW26780   4.518   4.144   7.252
 3213SOL    HW126781   4.589   4.124   7.313
 3213SOL    HW226782   4.495   4.235   7.271
 3214SOL     OW26783   4.956   0.113   6.683
 3214SOL    HW126784   5.028   0.170   6.655
 3214SOL    HW226785   4.909   0.163   6.748
 3215SOL     OW26786   3.134   6.116   6.254
 3215SOL    HW126787   3.083   6.037   6.270
 3215SOL    HW226788   3.122   6.169   6.333
 3216SOL     OW26789   4.087   3.605   0.610
 3216SOL    HW126790   4.105   3.584   0.518
 3216SOL    HW226791   4.168   3.648   0.640
 3217SOL     OW26792   4.576   5.139   0.388
 3217SOL    HW126793   4.622   5.222   0.393
 3217SOL    HW226794   4.559   5.115   0.479
 3218SOL     OW26795   0.205   3.481   0.468
 3218SOL    HW126796   0.265   3.534   0.520
 3218SOL    HW226797   0.118   3.516   0.489
 3219SOL     OW26798   3.797   0.493   5.648
 3219SOL    HW126799   3.854   0.473   5.573
 3219SOL    HW226800   3.804   0.588   5.658
 3220SOL     OW26801   0.848   4.438   7.504
 3220SOL    HW126802   0.880   4.497   7.572
 3220SOL    HW226803   0.815   4.362   7.552
 3221SOL     OW26804   5.041   5.063   0.548
 3221SOL    HW126805   5.115   5.105   0.592
 3221SOL    HW226806   5.063   4.970   0.548
 3222SOL     OW26807   5.331   3.722   5.841
 3222SOL    HW126808   5.317   3.630   5.820
 3222SOL    HW226809   5.306   3.769   5.762
 3223SOL     OW26810   5.589   2.948   1.610
 3223SOL    HW126811   5.539   3.022   1.573
 3223SOL    HW226812   5.535   2.871   1.592
 3224SOL     OW26813   1.633   6.169   6.127
 3224SOL    HW126814   1.602   6.253   6.092
 3224SOL    HW226815   1.645   6.114   6.050
 3225SOL     OW26816   2.968   1.758   0.322
 3225SOL    HW126817   2.905   1.802   0.379
 3225SOL    HW226818   2.958   1.665   0.343
 3226SOL     OW26819   5.697   1.553   5.204
 3226SOL    HW126820   5.751   1.553   5.283
 3226SOL    HW226821   5.693   1.461   5.178
 3227SOL     OW26822   5.686   2.155   5.102
 3227SOL    HW126823   5.725   2.075   5.066
 3227SOL    HW226824   5.711   2.154   5.194
 3228SOL     OW26825   3.123   3.857   2.086
 3228SOL    HW126826   3.132   3.771   2.044
 3228SOL    HW226827   3.190   3.857   2.154
 3229SOL     OW26828   2.004   2.777   0.549
 3229SOL    HW126829   1.932   2.771   0.486
 3229SOL    HW226830   1.960   2.783   0.634
 3230SOL     OW26831   1.069   1.547   6.532
 3230SOL    HW126832   0.991   1.526   6.582
 3230SOL    HW226833   1.115   1.613   6.584
 3231SOL     OW26834   4.017   3.293   6.537
 3231SOL    HW126835   4.055   3.310   6.623
 3231SOL    HW226836   4.055   3.359   6.479
 3232SOL     OW26837   1.408   1.370   6.007
 3232SOL    HW126838   1.483   1.413   5.966
 3232SOL    HW226839   1.415   1.279   5.978
 3233SOL     OW26840   4.714   1.829   7.475
 3233SOL    HW126841   4.735   1.808   7.566
 3233SOL    HW226842   4.788   1.794   7.425
 3234SOL     OW26843   2.003   0.979   6.895
 3234SOL    HW126844   2.063   1.051   6.879
 3234SOL    HW226845   1.943   0.981   6.820
 3235SOL     OW26846   2.601   1.986   6.754
 3235SOL    HW126847   2.631   1.900   6.785
 3235SOL    HW226848   2.506   1.985   6.767
 3236SOL     OW26849   2.797   0.459   6.294
 3236SOL    HW126850   2.711   0.479   6.330
 3236SOL    HW226851   2.843   0.413   6.364
 3237SOL     OW26852   5.315   3.322   1.678
 3237SOL    HW126853   5.251   3.265   1.720
 3237SOL    HW226854   5.331   3.391   1.741
 3238SOL     OW26855   2.080   4.898   0.535
 3238SOL    HW126856   2.097   4.991   0.549
 3238SOL    HW226857   2.167   4.857   0.543
 3239SOL     OW26858   0.859   4.906   0.912
 3239SOL    HW126859   0.906   4.851   0.975
 3239SOL    HW226860   0.903   4.889   0.828
 3240SOL     OW26861   5.197   3.719   0.088
 3240SOL    HW126862   5.175   3.626   0.088
 3240SOL    HW226863   5.112   3.764   0.090
 3241SOL     OW26864   5.888   4.620   0.549
 3241SOL    HW126865   5.923   4.609   0.461
 3241SOL    HW226866   5.927   4.702   0.580
 3242SOL     OW26867   2.482   0.775   7.248
 3242SOL    HW126868   2.410   0.775   7.185
 3242SOL    HW226869   2.477   0.862   7.289
 3243SOL     OW26870   1.207   3.753   1.190
 3243SOL    HW126871   1.264   3.701   1.134
 3243SOL    HW226872   1.175   3.691   1.256
 3244SOL     OW26873   3.562   6.120   5.985
 3244SOL    HW126874   3.503   6.143   6.057
 3244SOL    HW226875   3.530   6.171   5.911
 3245SOL     OW26876   2.579   6.368   1.641
 3245SOL    HW126877   2.586   6.305   1.713
 3245SOL    HW226878   2.584   0.006   1.683
 3246SOL     OW26879   4.876   5.588   0.435
 3246SOL    HW126880   4.845   5.656   0.376
 3246SOL    HW226881   4.951   5.549   0.389
 3247SOL     OW26882   5.988   4.647   1.421
 3247SOL    HW126883   5.918   4.681   1.477
 3247SOL    HW226884   6.016   4.566   1.464
 3248SOL     OW26885   1.940   4.527   0.642
 3248SOL    HW126886   1.974   4.460   0.583
 3248SOL    HW226887   1.984   4.510   0.726
 3249SOL     OW26888   0.723   1.331   7.317
 3249SOL    HW126889   0.630   1.311   7.328
 3249SOL    HW226890   0.736   1.412   7.367
 3250SOL     OW26891   1.162   2.387   7.670
 3250SOL    HW126892   1.110   2.309   7.653
 3250SOL    HW226893   1.101   2.449   7.710
 3251SOL     OW26894   4.312   6.239   0.816
 3251SOL    HW126895   4.241   6.304   0.814
 3251SOL    HW226896   4.288   6.179   0.887
 3252SOL     OW26897   2.652   5.105   1.742
 3252SOL    HW126898   2.564   5.095   1.778
 3252SOL    HW226899   2.650   5.190   1.696
 3253SOL     OW26900   6.063   4.625   7.435
 3253SOL    HW126901   6.118   4.619   7.513
 3253SOL    HW226902   6.091   4.706   7.392
 3254SOL     OW26903   2.124   0.165   0.395
 3254SOL    HW126904   2.215   0.190   0.412
 3254SOL    HW226905   2.079   0.248   0.384
 3255SOL     OW26906   0.965   3.934   0.667
 3255SOL    HW126907   0.982   3.853   0.619
 3255SOL    HW226908   0.897   3.979   0.616
 3256SOL     OW26909   5.904   2.513   1.215
 3256SOL    HW126910   5.836   2.570   1.179
 3256SOL    HW226911   5.871   2.488   1.302
 3257SOL     OW26912   6.193   2.510   7.541
 3257SOL    HW126913   6.149   2.595   7.546
 3257SOL    HW226914   6.122   2.446   7.550
 3258SOL     OW26915   3.740   2.913   2.166
 3258SOL    HW126916   3.676   2.984   2.162
 3258SOL    HW226917   3.717   2.865   2.245
 3259SOL     OW26918   3.059   3.765   7.134
 3259SOL    HW126919   3.104   3.845   7.104
 3259SOL    HW226920   2.984   3.757   7.076
 3260SOL     OW26921   1.995   5.262   7.132
 3260SOL    HW126922   2.059   5.304   7.075
 3260SOL    HW226923   2.040   5.183   7.163
 3261SOL     OW26924   0.388   3.639   0.605
 3261SOL    HW126925   0.470   3.657   0.650
 3261SOL    HW226926   0.324   3.696   0.647
 3262SOL     OW26927   0.950   1.625   1.382
 3262SOL    HW126928   1.003   1.594   1.456
 3262SOL    HW226929   0.959   1.557   1.316
 3263SOL     OW26930   1.747   4.841   1.453
 3263SOL    HW126931   1.664   4.879   1.481
 3263SOL    HW226932   1.733   4.746   1.458
 3264SOL     OW26933   0.273   3.072   1.464
 3264SOL    HW126934   0.271   3.039   1.374
 3264SOL    HW226935   0.181   3.084   1.487
 3265SOL     OW26936   6.112   0.708   7.581
 3265SOL    HW126937   6.089   0.778   7.520
 3265SOL    HW226938   6.103   0.628   7.530
 3266SOL     OW26939   1.835   4.329   6.946
 3266SOL    HW126940   1.815   4.335   7.039
 3266SOL    HW226941   1.768   4.270   6.910
 3267SOL     OW26942   4.794   6.188   0.497
 3267SOL    HW126943   4.877   6.215   0.457
 3267SOL    HW226944   4.767   6.263   0.550
 3268SOL     OW26945   0.891   2.728   7.591
 3268SOL    HW126946   0.924   2.667   7.657
 3268SOL    HW226947   0.945   2.806   7.600
 3269SOL     OW26948   3.059   5.917   0.913
 3269SOL    HW126949   3.087   5.832   0.881
 3269SOL    HW226950   3.054   5.972   0.835
 3270SOL     OW26951   0.725   0.888   0.959
 3270SOL    HW126952   0.689   0.955   1.016
 3270SOL    HW226953   0.654   0.866   0.899
 3271SOL     OW26954   5.309   2.117   6.543
 3271SOL    HW126955   5.258   2.114   6.463
 3271SOL    HW226956   5.292   2.204   6.579
 3272SOL     OW26957   4.525   6.383   7.781
 3272SOL    HW126958   4.465   0.004   7.752
 3272SOL    HW226959   4.522   6.318   7.710
 3273SOL     OW26960   2.751   0.241   0.203
 3273SOL    HW126961   2.760   0.197   0.119
 3273SOL    HW226962   2.821   0.204   0.257
 3274SOL     OW26963   2.117   0.295   1.385
 3274SOL    HW126964   2.044   0.311   1.446
 3274SOL    HW226965   2.106   0.361   1.316
 3275SOL     OW26966   1.976   0.102   7.374
 3275SOL    HW126967   2.027   0.145   7.306
 3275SOL    HW226968   1.887   0.136   7.363
 3276SOL     OW26969   4.885   1.120   7.736
 3276SOL    HW126970   4.886   1.196   7.794
 3276SOL    HW226971   4.936   1.054   7.783
 3277SOL     OW26972   3.002   2.596   5.140
 3277SOL    HW126973   3.052   2.632   5.067
 3277SOL    HW226974   3.066   2.586   5.211
 3278SOL     OW26975   4.982   3.816   5.148
 3278SOL    HW126976   4.903   3.761   5.137
 3278SOL    HW226977   5.041   3.762   5.200
 3279SOL     OW26978   2.492   1.963   7.531
 3279SOL    HW126979   2.584   1.974   7.554
 3279SOL    HW226980   2.464   2.049   7.500
 3280SOL     OW26981   0.094   1.818   5.937
 3280SOL    HW126982   0.043   1.784   5.863
 3280SOL    HW226983   0.035   1.811   6.012
 3281SOL     OW26984   2.808   2.688   6.832
 3281SOL    HW126985   2.823   2.601   6.868
 3281SOL    HW226986   2.817   2.677   6.737
 3282SOL     OW26987   3.843   1.511   0.338
 3282SOL    HW126988   3.788   1.580   0.373
 3282SOL    HW226989   3.853   1.449   0.411
 3283SOL     OW26990   5.307   2.681   7.445
 3283SOL    HW126991   5.309   2.754   7.507
 3283SOL    HW226992   5.399   2.666   7.424
 3284SOL     OW26993   2.274   1.561   0.701
 3284SOL    HW126994   2.349   1.619   0.717
 3284SOL    HW226995   2.289   1.486   0.758
 3285SOL     OW26996   4.810   3.458   0.551
 3285SOL    HW126997   4.826   3.370   0.585
 3285SOL    HW226998   4.897   3.498   0.546
 3286SOL     OW26999   1.790   5.506   1.389
 3286SOL    HW127000   1.814   5.584   1.438
 3286SOL    HW227001   1.703   5.525   1.355
 3287SOL     OW27002   5.830   1.302   1.107
 3287SOL    HW127003   5.881   1.363   1.053
 3287SOL    HW227004   5.751   1.284   1.055
 3288SOL     OW27005   1.890   1.485   1.641
 3288SOL    HW127006   1.801   1.463   1.613
 3288SOL    HW227007   1.902   1.437   1.723
 3289SOL     OW27008   5.342   2.275   1.234
 3289SOL    HW127009   5.426   2.304   1.271
 3289SOL    HW227010   5.310   2.352   1.187
 3290SOL     OW27011   1.628   2.269   0.033
 3290SOL    HW127012   1.536   2.249   0.014
 3290SOL    HW227013   1.643   2.355   7.795
 3291SOL     OW27014   2.345   0.648   6.268
 3291SOL    HW127015   2.263   0.622   6.226
 3291SOL    HW227016   2.363   0.735   6.232
 3292SOL     OW27017   3.741   0.484   0.764
 3292SOL    HW127018   3.809   0.417   0.766
 3292SOL    HW227019   3.754   0.530   0.681
 3293SOL     OW27020   4.516   1.686   0.261
 3293SOL    HW127021   4.512   1.753   0.192
 3293SOL    HW227022   4.475   1.609   0.221
 3294SOL     OW27023   4.559   3.862   2.003
 3294SOL    HW127024   4.500   3.928   2.040
 3294SOL    HW227025   4.539   3.782   2.052
 3295SOL     OW27026   5.675   1.187   0.582
 3295SOL    HW127027   5.758   1.146   0.557
 3295SOL    HW227028   5.691   1.281   0.573
 3296SOL     OW27029   2.975   1.702   7.450
 3296SOL    HW127030   3.060   1.661   7.469
 3296SOL    HW227031   2.990   1.795   7.467
 3297SOL     OW27032   1.607   1.221   1.309
 3297SOL    HW127033   1.632   1.199   1.219
 3297SOL    HW227034   1.690   1.224   1.357
 3298SOL     OW27035   3.652   2.045   7.568
 3298SOL    HW127036   3.580   2.041   7.631
 3298SOL    HW227037   3.716   2.103   7.608
 3299SOL     OW27038   0.364   2.272   0.570
 3299SOL    HW127039   0.391   2.227   0.491
 3299SOL    HW227040   0.393   2.363   0.557
 3300SOL     OW27041   1.088   0.829   6.018
 3300SOL    HW127042   0.995   0.840   6.040
 3300SOL    HW227043   1.128   0.792   6.096
 3301SOL     OW27044   1.480   0.951   6.890
 3301SOL    HW127045   1.387   0.931   6.900
 3301SOL    HW227046   1.490   0.970   6.797
 3302SOL     OW27047   6.143   0.080   5.711
 3302SOL    HW127048   6.228   0.045   5.683
 3302SOL    HW227049   6.080   0.042   5.650
 3303SOL     OW27050   2.150   3.600   1.118
 3303SOL    HW127051   2.218   3.533   1.113
 3303SOL    HW227052   2.169   3.648   1.198
 3304SOL     OW27053   2.452   2.650   0.383
 3304SOL    HW127054   2.475   2.743   0.396
 3304SOL    HW227055   2.357   2.650   0.376
 3305SOL     OW27056   0.053   4.506   2.229
 3305SOL    HW127057   0.054   4.601   2.219
 3305SOL    HW227058   0.124   4.488   2.291
 3306SOL     OW27059   1.829   3.146   2.265
 3306SOL    HW127060   1.861   3.087   2.197
 3306SOL    HW227061   1.842   3.098   2.347
 3307SOL     OW27062   1.734   5.803   6.044
 3307SOL    HW127063   1.654   5.756   6.067
 3307SOL    HW227064   1.704   5.883   6.002
 3308SOL     OW27065   0.109   0.329   0.504
 3308SOL    HW127066   0.087   0.369   0.420
 3308SOL    HW227067   0.168   0.256   0.481
 3309SOL     OW27068   2.689   1.735   6.828
 3309SOL    HW127069   2.728   1.721   6.741
 3309SOL    HW227070   2.708   1.654   6.875
 3310SOL     OW27071   4.409   2.074   0.487
 3310SOL    HW127072   4.424   2.049   0.579
 3310SOL    HW227073   4.415   2.169   0.487
 3311SOL     OW27074   2.862   5.193   7.021
 3311SOL    HW127075   2.915   5.241   7.084
 3311SOL    HW227076   2.873   5.101   7.046
 3312SOL     OW27077   3.375   0.077   0.333
 3312SOL    HW127078   3.389   6.430   0.337
 3312SOL    HW227079   3.429   0.112   0.404
 3313SOL     OW27080   2.194   0.847   0.146
 3313SOL    HW127081   2.243   0.832   0.066
 3313SOL    HW227082   2.103   0.853   0.118
 3314SOL     OW27083   2.802   1.778   7.083
 3314SOL    HW127084   2.827   1.686   7.078
 3314SOL    HW227085   2.746   1.793   7.006
 3315SOL     OW27086   0.270   5.443   0.862
 3315SOL    HW127087   0.243   5.530   0.833
 3315SOL    HW227088   0.363   5.438   0.838
 3316SOL     OW27089   0.592   1.635   7.183
 3316SOL    HW127090   0.533   1.704   7.213
 3316SOL    HW227091   0.534   1.572   7.139
 3317SOL     OW27092   4.391   0.699   7.664
 3317SOL    HW127093   4.430   0.645   7.733
 3317SOL    HW227094   4.350   0.635   7.605
 3318SOL     OW27095   5.099   2.603   6.997
 3318SOL    HW127096   5.101   2.624   7.091
 3318SOL    HW227097   5.018   2.644   6.966
 3319SOL     OW27098   2.112   4.409   7.237
 3319SOL    HW127099   2.017   4.418   7.231
 3319SOL    HW227100   2.140   4.398   7.146
 3320SOL     OW27101   0.374   0.706   6.915
 3320SOL    HW127102   0.423   0.758   6.851
 3320SOL    HW227103   0.439   0.648   6.954
 3321SOL     OW27104   1.242   3.053   0.266
 3321SOL    HW127105   1.195   2.974   0.240
 3321SOL    HW227106   1.312   3.022   0.324
 3322SOL     OW27107   5.543   4.278   7.289
 3322SOL    HW127108   5.609   4.325   7.238
 3322SOL    HW227109   5.476   4.343   7.308
 3323SOL     OW27110   0.029   5.168   1.053
 3323SOL    HW127111   6.384   5.178   1.072
 3323SOL    HW227112   0.048   5.077   1.072
 3324SOL     OW27113   2.097   2.353   5.372
 3324SOL    HW127114   2.095   2.273   5.320
 3324SOL    HW227115   2.022   2.346   5.431
 3325SOL     OW27116   3.362   2.677   5.758
 3325SOL    HW127117   3.288   2.634   5.803
 3325SOL    HW227118   3.438   2.656   5.812
 3326SOL     OW27119   4.747   3.338   7.614
 3326SOL    HW127120   4.770   3.416   7.563
 3326SOL    HW227121   4.806   3.341   7.690
 3327SOL     OW27122   3.845   1.374   7.418
 3327SOL    HW127123   3.863   1.280   7.417
 3327SOL    HW227124   3.906   1.411   7.354
 3328SOL     OW27125   5.522   2.696   0.896
 3328SOL    HW127126   5.442   2.745   0.916
 3328SOL    HW227127   5.494   2.605   0.887
 3329SOL     OW27128   1.323   2.899   6.559
 3329SOL    HW127129   1.300   2.810   6.535
 3329SOL    HW227130   1.406   2.891   6.606
 3330SOL     OW27131   0.713   3.307   6.126
 3330SOL    HW127132   0.665   3.259   6.057
 3330SOL    HW227133   0.787   3.347   6.080
 3331SOL     OW27134   1.306   0.469   0.712
 3331SOL    HW127135   1.283   0.390   0.761
 3331SOL    HW227136   1.223   0.515   0.700
 3332SOL     OW27137   2.548   4.496   0.003
 3332SOL    HW127138   2.457   4.506   7.778
 3332SOL    HW227139   2.596   4.482   7.724
 3333SOL     OW27140   3.909   5.702   0.910
 3333SOL    HW127141   3.918   5.664   0.998
 3333SOL    HW227142   3.920   5.627   0.851
 3334SOL     OW27143   5.887   4.861   1.259
 3334SOL    HW127144   5.921   4.785   1.308
 3334SOL    HW227145   5.843   4.822   1.183
 3335SOL     OW27146   2.472   4.058   1.618
 3335SOL    HW127147   2.549   4.091   1.572
 3335SOL    HW227148   2.473   3.964   1.602
 3336SOL     OW27149   3.872   4.748   7.397
 3336SOL    HW127150   3.842   4.743   7.306
 3336SOL    HW227151   3.964   4.773   7.391
 3337SOL     OW27152   3.383   3.860   6.160
 3337SOL    HW127153   3.298   3.903   6.159
 3337SOL    HW227154   3.406   3.849   6.067
 3338SOL     OW27155   3.492   3.783   0.257
 3338SOL    HW127156   3.530   3.811   0.174
 3338SOL    HW227157   3.451   3.699   0.239
 3339SOL     OW27158   5.648   3.668   0.189
 3339SOL    HW127159   5.713   3.662   0.259
 3339SOL    HW227160   5.565   3.684   0.234
 3340SOL     OW27161   1.582   1.984   0.308
 3340SOL    HW127162   1.551   2.056   0.363
 3340SOL    HW227163   1.677   1.983   0.319
 3341SOL     OW27164   4.951   6.171   6.503
 3341SOL    HW127165   4.937   6.239   6.437
 3341SOL    HW227166   4.898   6.198   6.578
 3342SOL     OW27167   6.232   1.076   1.234
 3342SOL    HW127168   6.252   1.142   1.299
 3342SOL    HW227169   6.316   1.059   1.190
 3343SOL     OW27170   4.871   5.516   1.302
 3343SOL    HW127171   4.963   5.503   1.279
 3343SOL    HW227172   4.859   5.466   1.382
 3344SOL     OW27173   5.037   0.518   2.488
 3344SOL    HW127174   5.002   0.499   2.401
 3344SOL    HW227175   5.089   0.598   2.477
 3345SOL     OW27176   1.441   2.529   1.031
 3345SOL    HW127177   1.463   2.475   0.954
 3345SOL    HW227178   1.520   2.580   1.048
 3346SOL     OW27179   1.719   5.827   7.302
 3346SOL    HW127180   1.735   5.855   7.392
 3346SOL    HW227181   1.794   5.859   7.253
 3347SOL     OW27182   0.907   4.741   2.401
 3347SOL    HW127183   0.927   4.660   2.447
 3347SOL    HW227184   0.913   4.718   2.308
 3348SOL     OW27185   0.918   2.619   6.145
 3348SOL    HW127186   0.908   2.523   6.144
 3348SOL    HW227187   0.852   2.650   6.084
 3349SOL     OW27188   5.587   4.469   1.994
 3349SOL    HW127189   5.598   4.377   1.969
 3349SOL    HW227190   5.502   4.472   2.039
 3350SOL     OW27191   1.222   1.831   0.163
 3350SOL    HW127192   1.258   1.874   0.085
 3350SOL    HW227193   1.174   1.901   0.208
 3351SOL     OW27194   1.758   3.765   0.453
 3351SOL    HW127195   1.848   3.736   0.466
 3351SOL    HW227196   1.714   3.742   0.535
 3352SOL     OW27197   3.146   0.386   7.447
 3352SOL    HW127198   3.117   0.314   7.391
 3352SOL    HW227199   3.091   0.378   7.525
 3353SOL     OW27200   1.969   1.374   0.010
 3353SOL    HW127201   1.926   1.443   7.762
 3353SOL    HW227202   1.946   1.394   0.101
 3354SOL     OW27203   1.326   4.727   0.477
 3354SOL    HW127204   1.391   4.777   0.526
 3354SOL    HW227205   1.265   4.794   0.444
 3355SOL     OW27206   0.274   1.598   0.340
 3355SOL    HW127207   0.186   1.610   0.376
 3355SOL    HW227208   0.329   1.583   0.417
 3356SOL     OW27209   0.060   1.647   7.440
 3356SOL    HW127210   0.078   1.600   7.521
 3356SOL    HW227211   0.131   1.624   7.381
 3357SOL     OW27212   5.641   1.378   7.104
 3357SOL    HW127213   5.649   1.382   7.199
 3357SOL    HW227214   5.689   1.455   7.073
 3358SOL     OW27215   1.733   5.245   2.432
 3358SOL    HW127216   1.767   5.325   2.471
 3358SOL    HW227217   1.811   5.195   2.408
 3359SOL     OW27218   0.531   0.978   5.756
 3359SOL    HW127219   0.489   1.036   5.819
 3359SOL    HW227220   0.460   0.925   5.721
 3360SOL     OW27221   4.457   1.211   0.340
 3360SOL    HW127222   4.458   1.152   0.265
 3360SOL    HW227223   4.372   1.254   0.336
 3361SOL     OW27224   1.362   2.228   7.784
 3361SOL    HW127225   1.332   2.138   7.770
 3361SOL    HW227226   1.297   2.282   7.738
 3362SOL     OW27227   0.803   0.110   0.975
 3362SOL    HW127228   0.738   0.040   0.971
 3362SOL    HW227229   0.765   0.182   0.926
 3363SOL     OW27230   5.118   0.060   1.580
 3363SOL    HW127231   5.149   0.023   1.497
 3363SOL    HW227232   5.159   0.147   1.584
 3364SOL     OW27233   5.758   1.818   0.539
 3364SOL    HW127234   5.680   1.762   0.544
 3364SOL    HW227235   5.755   1.857   0.452
 3365SOL     OW27236   4.817   3.774   7.651
 3365SOL    HW127237   4.872   3.784   7.728
 3365SOL    HW227238   4.745   3.717   7.679
 3366SOL     OW27239   2.568   4.824   1.022
 3366SOL    HW127240   2.504   4.781   1.079
 3366SOL    HW227241   2.551   4.788   0.935
 3367SOL     OW27242   5.453   5.096   5.827
 3367SOL    HW127243   5.510   5.133   5.759
 3367SOL    HW227244   5.376   5.065   5.778
 3368SOL     OW27245   5.328   1.955   7.670
 3368SOL    HW127246   5.256   1.915   7.622
 3368SOL    HW227247   5.343   2.039   7.627
 3369SOL     OW27248   4.786   3.224   0.266
 3369SOL    HW127249   4.847   3.178   0.324
 3369SOL    HW227250   4.700   3.196   0.295
 3370SOL     OW27251   3.284   3.001   6.671
 3370SOL    HW127252   3.240   3.003   6.756
 3370SOL    HW227253   3.218   3.034   6.610
 3371SOL     OW27254   3.036   1.321   1.248
 3371SOL    HW127255   2.953   1.370   1.247
 3371SOL    HW227256   3.014   1.238   1.289
 3372SOL     OW27257   3.801   0.075   0.494
 3372SOL    HW127258   3.858   6.447   0.494
 3372SOL    HW227259   3.826   0.124   0.416
 3373SOL     OW27260   0.015   0.304   6.837
 3373SOL    HW127261   0.044   0.395   6.837
 3373SOL    HW227262   0.096   0.253   6.844
 3374SOL     OW27263   5.090   5.949   6.775
 3374SOL    HW127264   5.095   5.925   6.682
 3374SOL    HW227265   4.997   5.946   6.796
 3375SOL     OW27266   2.095   0.513   0.907
 3375SOL    HW127267   2.087   0.476   0.819
 3375SOL    HW227268   2.125   0.602   0.894
 3376SOL     OW27269   4.261   3.456   0.904
 3376SOL    HW127270   4.184   3.416   0.863
 3376SOL    HW227271   4.255   3.428   0.996
 3377SOL     OW27272   4.690   0.135   7.440
 3377SOL    HW127273   4.782   0.159   7.427
 3377SOL    HW227274   4.689   0.039   7.434
 3378SOL     OW27275   0.939   1.085   7.208
 3378SOL    HW127276   1.031   1.072   7.185
 3378SOL    HW227277   0.915   1.166   7.164
 3379SOL     OW27278   1.708   3.654   1.621
 3379SOL    HW127279   1.705   3.695   1.707
 3379SOL    HW227280   1.626   3.680   1.579
 3380SOL     OW27281   3.812   6.260   1.726
 3380SOL    HW127282   3.843   6.323   1.790
 3380SOL    HW227283   3.749   6.309   1.672
 3381SOL     OW27284   1.778   3.401   1.151
 3381SOL    HW127285   1.799   3.486   1.114
 3381SOL    HW227286   1.775   3.415   1.246
 3382SOL     OW27287   5.803   0.040   0.586
 3382SOL    HW127288   5.744   6.440   0.529
 3382SOL    HW227289   5.890   0.026   0.549
 3383SOL     OW27290   0.985   3.444   1.680
 3383SOL    HW127291   1.051   3.513   1.672
 3383SOL    HW227292   1.020   3.384   1.746
 3384SOL     OW27293   4.087   0.111   0.008
 3384SOL    HW127294   4.026   0.184   0.013
 3384SOL    HW227295   4.109   0.091   0.099
 3385SOL     OW27296   1.765   5.084   2.019
 3385SOL    HW127297   1.717   5.066   2.100
 3385SOL    HW227298   1.704   5.059   1.949
 3386SOL     OW27299   5.461   5.950   0.473
 3386SOL    HW127300   5.471   5.993   0.558
 3386SOL    HW227301   5.547   5.910   0.457
 3387SOL     OW27302   1.681   0.601   5.799
 3387SOL    HW127303   1.647   0.536   5.860
 3387SOL    HW227304   1.698   0.552   5.719
 3388SOL     OW27305   5.916   5.234   6.065
 3388SOL    HW127306   5.912   5.284   5.983
 3388SOL    HW227307   5.979   5.164   6.047
 3389SOL     OW27308   4.970   2.620   6.094
 3389SOL    HW127309   4.910   2.681   6.051
 3389SOL    HW227310   5.006   2.566   6.023
 3390SOL     OW27311   0.065   5.271   0.804
 3390SOL    HW127312   0.134   5.335   0.821
 3390SOL    HW227313   0.052   5.227   0.888
 3391SOL     OW27314   1.748   1.530   5.636
 3391SOL    HW127315   1.778   1.443   5.661
 3391SOL    HW227316   1.767   1.536   5.543
 3392SOL     OW27317   3.862   4.114   7.468
 3392SOL    HW127318   3.880   4.069   7.386
 3392SOL    HW227319   3.788   4.067   7.506
 3393SOL     OW27320   0.193   2.638   5.576
 3393SOL    HW127321   0.099   2.631   5.563
 3393SOL    HW227322   0.211   2.732   5.571
 3394SOL     OW27323   3.185   6.066   7.719
 3394SOL    HW127324   3.269   6.089   7.758
 3394SOL    HW227325   3.204   5.992   7.662
 3395SOL     OW27326   6.377   1.578   2.166
 3395SOL    HW127327   6.332   1.495   2.184
 3395SOL    HW227328   6.383   1.581   2.070
 3396SOL     OW27329   1.285   1.278   1.120
 3396SOL    HW127330   1.333   1.198   1.099
 3396SOL    HW227331   1.195   1.260   1.091
 3397SOL     OW27332   2.875   2.756   0.392
 3397SOL    HW127333   2.860   2.761   0.297
 3397SOL    HW227334   2.886   2.662   0.409
 3398SOL     OW27335   0.133   1.542   0.718
 3398SOL    HW127336   0.078   1.555   0.795
 3398SOL    HW227337   0.221   1.567   0.747
 3399SOL     OW27338   1.734   1.289   7.593
 3399SOL    HW127339   1.644   1.261   7.579
 3399SOL    HW227340   1.771   1.222   7.651
 3400SOL     OW27341   5.454   4.801   0.700
 3400SOL    HW127342   5.527   4.751   0.737
 3400SOL    HW227343   5.384   4.793   0.765
 3401SOL     OW27344   6.091   2.315   1.172
 3401SOL    HW127345   6.031   2.385   1.196
 3401SOL    HW227346   6.083   2.308   1.077
 3402SOL     OW27347   5.606   1.662   6.378
 3402SOL    HW127348   5.511   1.669   6.379
 3402SOL    HW227349   5.624   1.569   6.369
 3403SOL     OW27350   5.177   2.301   6.152
 3403SOL    HW127351   5.236   2.353   6.097
 3403SOL    HW227352   5.128   2.247   6.091
 3404SOL     OW27353   5.198   2.367   1.843
 3404SOL    HW127354   5.156   2.409   1.918
 3404SOL    HW227355   5.283   2.339   1.876
 3405SOL     OW27356   3.773   1.805   1.841
 3405SOL    HW127357   3.850   1.753   1.866
 3405SOL    HW227358   3.745   1.847   1.923
 3406SOL     OW27359   2.045   1.278   7.235
 3406SOL    HW127360   2.037   1.315   7.147
 3406SOL    HW227361   1.955   1.252   7.257
 3407SOL     OW27362   4.941   3.869   0.937
 3407SOL    HW127363   4.998   3.936   0.976
 3407SOL    HW227364   4.906   3.821   1.012
 3408SOL     OW27365   3.535   0.298   0.772
 3408SOL    HW127366   3.613   0.353   0.779
 3408SOL    HW227367   3.462   0.359   0.771
 3409SOL     OW27368   2.177   5.914   1.143
 3409SOL    HW127369   2.124   5.902   1.064
 3409SOL    HW227370   2.130   5.865   1.210
 3410SOL     OW27371   1.003   4.751   6.831
 3410SOL    HW127372   1.025   4.665   6.798
 3410SOL    HW227373   0.919   4.772   6.788
 3411SOL     OW27374   0.433   1.816   0.268
 3411SOL    HW127375   0.370   1.746   0.281
 3411SOL    HW227376   0.511   1.788   0.315
 3412SOL     OW27377   6.378   4.257   1.235
 3412SOL    HW127378   6.430   4.319   1.185
 3412SOL    HW227379   6.288   4.275   1.211
 3413SOL     OW27380   2.702   2.172   7.148
 3413SOL    HW127381   2.610   2.159   7.170
 3413SOL    HW227382   2.740   2.213   7.226
 3414SOL     OW27383   2.710   1.592   0.921
 3414SOL    HW127384   2.691   1.540   0.843
 3414SOL    HW227385   2.713   1.682   0.889
 3415SOL     OW27386   4.225   6.380   6.981
 3415SOL    HW127387   4.298   6.426   7.022
 3415SOL    HW227388   4.258   6.357   6.894
 3416SOL     OW27389   1.355   4.311   0.164
 3416SOL    HW127390   1.340   4.398   0.201
 3416SOL    HW227391   1.447   4.293   0.182
 3417SOL     OW27392   6.063   2.161   6.743
 3417SOL    HW127393   6.020   2.126   6.665
 3417SOL    HW227394   6.155   2.135   6.733
 3418SOL     OW27395   5.980   4.610   0.289
 3418SOL    HW127396   6.056   4.558   0.262
 3418SOL    HW227397   5.930   4.621   0.208
 3419SOL     OW27398   0.494   4.914   1.451
 3419SOL    HW127399   0.399   4.905   1.447
 3419SOL    HW227400   0.519   4.939   1.363
 3420SOL     OW27401   1.339   6.412   0.858
 3420SOL    HW127402   1.299   6.424   0.944
 3420SOL    HW227403   1.407   6.346   0.872
 3421SOL     OW27404   1.987   2.640   7.338
 3421SOL    HW127405   1.909   2.695   7.326
 3421SOL    HW227406   1.952   2.551   7.343
 3422SOL     OW27407   1.531   3.935   1.777
 3422SOL    HW127408   1.594   3.869   1.807
 3422SOL    HW227409   1.453   3.884   1.753
 3423SOL     OW27410   0.716   4.428   6.306
 3423SOL    HW127411   0.743   4.367   6.374
 3423SOL    HW227412   0.795   4.479   6.287
 3424SOL     OW27413   0.990   5.069   0.468
 3424SOL    HW127414   0.980   5.164   0.461
 3424SOL    HW227415   1.080   5.052   0.440
 3425SOL     OW27416   2.944   3.979   0.912
 3425SOL    HW127417   2.965   3.942   0.998
 3425SOL    HW227418   2.890   3.912   0.870
 3426SOL     OW27419   2.355   1.133   6.483
 3426SOL    HW127420   2.423   1.066   6.493
 3426SOL    HW227421   2.403   1.213   6.463
 3427SOL     OW27422   0.232   4.681   7.646
 3427SOL    HW127423   0.307   4.622   7.649
 3427SOL    HW227424   0.163   4.629   7.604
 3428SOL     OW27425   4.184   4.638   5.595
 3428SOL    HW127426   4.239   4.572   5.638
 3428SOL    HW227427   4.131   4.675   5.666
 3429SOL     OW27428   0.120   5.707   7.493
 3429SOL    HW127429   0.045   5.650   7.510
 3429SOL    HW227430   0.190   5.647   7.466
 3430SOL     OW27431   3.825   3.803   6.224
 3430SOL    HW127432   3.801   3.871   6.161
 3430SOL    HW227433   3.745   3.753   6.238
 3431SOL     OW27434   3.533   5.830   7.263
 3431SOL    HW127435   3.556   5.743   7.295
 3431SOL    HW227436   3.444   5.820   7.228
 3432SOL     OW27437   5.712   1.080   2.023
 3432SOL    HW127438   5.627   1.120   2.041
 3432SOL    HW227439   5.776   1.138   2.065
 3433SOL     OW27440   2.210   3.754   1.332
 3433SOL    HW127441   2.275   3.819   1.302
 3433SOL    HW227442   2.258   3.698   1.393
 3434SOL     OW27443   6.274   4.813   0.580
 3434SOL    HW127444   6.179   4.829   0.582
 3434SOL    HW227445   6.307   4.876   0.516
 3435SOL     OW27446   3.133   4.966   7.176
 3435SOL    HW127447   3.048   4.951   7.136
 3435SOL    HW227448   3.153   4.884   7.222
 3436SOL     OW27449   5.859   2.476   0.867
 3436SOL    HW127450   5.937   2.421   0.878
 3436SOL    HW227451   5.892   2.566   0.879
 3437SOL     OW27452   2.701   6.384   6.040
 3437SOL    HW127453   2.634   6.355   5.978
 3437SOL    HW227454   2.715   6.308   6.096
 3438SOL     OW27455   0.724   3.876   6.483
 3438SOL    HW127456   0.757   3.888   6.572
 3438SOL    HW227457   0.803   3.866   6.429
 3439SOL     OW27458   0.347   4.822   1.190
 3439SOL    HW127459   0.283   4.859   1.129
 3439SOL    HW227460   0.309   4.836   1.276
 3440SOL     OW27461   1.878   3.171   0.576
 3440SOL    HW127462   1.812   3.142   0.639
 3440SOL    HW227463   1.957   3.185   0.629
 3441SOL     OW27464   3.205   4.474   1.782
 3441SOL    HW127465   3.266   4.508   1.847
 3441SOL    HW227466   3.125   4.525   1.794
 3442SOL     OW27467   2.529   5.915   2.365
 3442SOL    HW127468   2.599   5.979   2.352
 3442SOL    HW227469   2.449   5.963   2.347
 3443SOL     OW27470   0.242   1.762   7.009
 3443SOL    HW127471   0.280   1.794   6.927
 3443SOL    HW227472   0.155   1.801   7.011
 3444SOL     OW27473   2.794   1.700   7.718
 3444SOL    HW127474   2.756   1.690   7.631
 3444SOL    HW227475   2.856   1.628   7.727
 3445SOL     OW27476   2.418   1.024   7.356
 3445SOL    HW127477   2.461   1.105   7.385
 3445SOL    HW227478   2.326   1.035   7.381
 3446SOL     OW27479   0.592   4.078   0.890
 3446SOL    HW127480   0.573   4.056   0.799
 3446SOL    HW227481   0.681   4.047   0.905
 3447SOL     OW27482   1.096   2.296   6.348
 3447SOL    HW127483   1.130   2.381   6.318
 3447SOL    HW227484   1.154   2.271   6.420
 3448SOL     OW27485   0.225   2.469   7.617
 3448SOL    HW127486   0.278   2.543   7.647
 3448SOL    HW227487   0.243   2.399   7.680
 3449SOL     OW27488   2.551   1.387   1.033
 3449SOL    HW127489   2.604   1.313   1.005
 3449SOL    HW227490   2.606   1.464   1.018
 3450SOL     OW27491   1.106   6.093   5.648
 3450SOL    HW127492   1.063   6.133   5.572
 3450SOL    HW227493   1.104   5.999   5.631
 3451SOL     OW27494   5.474   2.530   6.780
 3451SOL    HW127495   5.413   2.603   6.785
 3451SOL    HW227496   5.425   2.461   6.735
 3452SOL     OW27497   3.614   0.070   7.282
 3452SOL    HW127498   3.609   0.165   7.285
 3452SOL    HW227499   3.568   0.046   7.201
 3453SOL     OW27500   1.787   4.751   6.146
 3453SOL    HW127501   1.786   4.840   6.182
 3453SOL    HW227502   1.734   4.700   6.208
 3454SOL     OW27503   3.306   2.938   5.820
 3454SOL    HW127504   3.326   2.846   5.802
 3454SOL    HW227505   3.364   2.987   5.762
 3455SOL     OW27506   0.377   6.289   7.182
 3455SOL    HW127507   0.311   6.338   7.231
 3455SOL    HW227508   0.347   6.198   7.188
 3456SOL     OW27509   1.307   4.541   7.371
 3456SOL    HW127510   1.227   4.489   7.373
 3456SOL    HW227511   1.299   4.594   7.291
 3457SOL     OW27512   1.647   0.033   7.038
 3457SOL    HW127513   1.650   6.393   7.077
 3457SOL    HW227514   1.734   0.069   7.053
 3458SOL     OW27515   2.278   4.108   6.683
 3458SOL    HW127516   2.351   4.144   6.632
 3458SOL    HW227517   2.300   4.016   6.695
 3459SOL     OW27518   3.506   3.054   6.965
 3459SOL    HW127519   3.514   2.961   6.944
 3459SOL    HW227520   3.444   3.057   7.037
 3460SOL     OW27521   3.174   1.086   0.998
 3460SOL    HW127522   3.211   1.171   1.025
 3460SOL    HW227523   3.188   1.083   0.904
 3461SOL     OW27524   5.323   5.250   0.000
 3461SOL    HW127525   5.279   5.196   0.066
 3461SOL    HW227526   5.373   5.188   7.750
 3462SOL     OW27527   5.419   1.522   1.457
 3462SOL    HW127528   5.358   1.593   1.438
 3462SOL    HW227529   5.375   1.443   1.425
 3463SOL     OW27530   3.892   1.035   0.466
 3463SOL    HW127531   3.816   0.989   0.429
 3463SOL    HW227532   3.920   0.981   0.540
 3464SOL     OW27533   1.426   4.004   5.894
 3464SOL    HW127534   1.473   4.087   5.902
 3464SOL    HW227535   1.442   3.976   5.804
 3465SOL     OW27536   4.671   0.233   6.549
 3465SOL    HW127537   4.750   0.283   6.528
 3465SOL    HW227538   4.681   0.152   6.498
 3466SOL     OW27539   0.291   5.981   6.931
 3466SOL    HW127540   0.307   5.998   7.024
 3466SOL    HW227541   0.196   5.990   6.921
 3467SOL     OW27542   1.865   2.407   6.267
 3467SOL    HW127543   1.797   2.432   6.206
 3467SOL    HW227544   1.938   2.467   6.249
 3468SOL     OW27545   1.268   0.821   6.634
 3468SOL    HW127546   1.313   0.738   6.621
 3468SOL    HW227547   1.333   0.888   6.611
 3469SOL     OW27548   1.332   5.968   7.468
 3469SOL    HW127549   1.372   6.038   7.416
 3469SOL    HW227550   1.382   5.966   7.549
 3470SOL     OW27551   2.261   0.766   6.507
 3470SOL    HW127552   2.178   0.788   6.466
 3470SOL    HW227553   2.309   0.718   6.440
 3471SOL     OW27554   3.322   2.823   1.225
 3471SOL    HW127555   3.413   2.802   1.243
 3471SOL    HW227556   3.325   2.913   1.191
 3472SOL     OW27557   4.467   3.401   0.733
 3472SOL    HW127558   4.436   3.445   0.654
 3472SOL    HW227559   4.394   3.409   0.795
 3473SOL     OW27560   2.752   1.797   6.167
 3473SOL    HW127561   2.746   1.849   6.247
 3473SOL    HW227562   2.844   1.772   6.161
 3474SOL     OW27563   2.529   2.176   5.709
 3474SOL    HW127564   2.555   2.218   5.627
 3474SOL    HW227565   2.573   2.090   5.706
 3475SOL     OW27566   5.183   0.554   2.163
 3475SOL    HW127567   5.094   0.527   2.189
 3475SOL    HW227568   5.223   0.473   2.130
 3476SOL     OW27569   5.833   2.602   2.330
 3476SOL    HW127570   5.852   2.512   2.302
 3476SOL    HW227571   5.905   2.625   2.388
 3477SOL     OW27572   2.595   6.033   0.534
 3477SOL    HW127573   2.499   6.035   0.540
 3477SOL    HW227574   2.618   6.115   0.491
 3478SOL     OW27575   2.846   1.592   1.760
 3478SOL    HW127576   2.849   1.587   1.856
 3478SOL    HW227577   2.857   1.686   1.741
 3479SOL     OW27578   5.356   5.876   7.333
 3479SOL    HW127579   5.262   5.894   7.334
 3479SOL    HW227580   5.365   5.793   7.379
 3480SOL     OW27581   3.031   5.438   0.765
 3480SOL    HW127582   3.087   5.394   0.702
 3480SOL    HW227583   3.031   5.380   0.841
 3481SOL     OW27584   6.377   2.502   0.574
 3481SOL    HW127585   6.299   2.450   0.560
 3481SOL    HW227586   6.441   2.440   0.611
 3482SOL     OW27587   2.163   2.859   0.939
 3482SOL    HW127588   2.174   2.951   0.963
 3482SOL    HW227589   2.209   2.810   1.006
 3483SOL     OW27590   1.952   0.403   1.610
 3483SOL    HW127591   2.019   0.401   1.679
 3483SOL    HW227592   1.978   0.476   1.554
 3484SOL     OW27593   4.410   2.715   1.248
 3484SOL    HW127594   4.471   2.692   1.177
 3484SOL    HW227595   4.417   2.641   1.309
 3485SOL     OW27596   2.340   2.233   6.783
 3485SOL    HW127597   2.396   2.282   6.843
 3485SOL    HW227598   2.293   2.171   6.838
 3486SOL     OW27599   6.084   4.592   6.918
 3486SOL    HW127600   6.046   4.587   6.831
 3486SOL    HW227601   6.175   4.617   6.904
 3487SOL     OW27602   2.312   2.471   7.435
 3487SOL    HW127603   2.403   2.494   7.451
 3487SOL    HW227604   2.262   2.541   7.478
 3488SOL     OW27605   4.278   3.116   6.122
 3488SOL    HW127606   4.194   3.099   6.078
 3488SOL    HW227607   4.257   3.114   6.215
 3489SOL     OW27608   0.471   1.908   7.459
 3489SOL    HW127609   0.431   1.866   7.384
 3489SOL    HW227610   0.561   1.926   7.432
 3490SOL     OW27611   6.282   3.245   6.067
 3490SOL    HW127612   6.220   3.278   6.002
 3490SOL    HW227613   6.255   3.287   6.149
 3491SOL     OW27614   1.231   2.102   1.018
 3491SOL    HW127615   1.280   2.168   1.066
 3491SOL    HW227616   1.233   2.024   1.074
 3492SOL     OW27617   5.994   3.396   0.810
 3492SOL    HW127618   6.073   3.371   0.763
 3492SOL    HW227619   6.018   3.474   0.860
 3493SOL     OW27620   4.987   1.189   6.363
 3493SOL    HW127621   5.078   1.218   6.354
 3493SOL    HW227622   4.950   1.246   6.431
 3494SOL     OW27623   4.242   1.928   0.108
 3494SOL    HW127624   4.316   1.934   0.048
 3494SOL    HW227625   4.202   1.844   0.089
 3495SOL     OW27626   6.066   3.328   6.759
 3495SOL    HW127627   6.080   3.234   6.760
 3495SOL    HW227628   5.990   3.341   6.702
 3496SOL     OW27629   1.656   5.120   0.691
 3496SOL    HW127630   1.744   5.151   0.669
 3496SOL    HW227631   1.670   5.059   0.764
 3497SOL     OW27632   3.497   2.216   1.596
 3497SOL    HW127633   3.539   2.217   1.682
 3497SOL    HW227634   3.539   2.288   1.548
 3498SOL     OW27635   5.722   1.190   6.926
 3498SOL    HW127636   5.696   1.256   6.989
 3498SOL    HW227637   5.734   1.110   6.977
 3499SOL     OW27638   4.338   4.854   1.815
 3499SOL    HW127639   4.394   4.841   1.891
 3499SOL    HW227640   4.254   4.815   1.840
 3500SOL     OW27641   0.897   2.310   6.700
 3500SOL    HW127642   0.919   2.238   6.758
 3500SOL    HW227643   0.888   2.270   6.614
 3501SOL     OW27644   5.892   3.253   7.614
 3501SOL    HW127645   5.840   3.320   7.659
 3501SOL    HW227646   5.957   3.225   7.679
 3502SOL     OW27647   5.502   2.142   1.738
 3502SOL    HW127648   5.494   2.071   1.675
 3502SOL    HW227649   5.468   2.104   1.820
 3503SOL     OW27650   0.063   5.113   2.667
 3503SOL    HW127651   0.000   5.182   2.687
 3503SOL    HW227652   0.053   5.098   2.573
 3504SOL     OW27653   4.878   3.422   5.754
 3504SOL    HW127654   4.951   3.450   5.699
 3504SOL    HW227655   4.804   3.477   5.726
 3505SOL     OW27656   4.670   2.228   0.310
 3505SOL    HW127657   4.754   2.268   0.334
 3505SOL    HW227658   4.675   2.138   0.342
 3506SOL     OW27659   1.651   1.606   1.868
 3506SOL    HW127660   1.722   1.630   1.927
 3506SOL    HW227661   1.662   1.512   1.855
 3507SOL     OW27662   5.842   0.439   0.265
 3507SOL    HW127663   5.926   0.472   0.297
 3507SOL    HW227664   5.865   0.361   0.215
 3508SOL     OW27665   4.970   4.754   6.500
 3508SOL    HW127666   4.909   4.733   6.429
 3508SOL    HW227667   5.019   4.673   6.514
 3509SOL     OW27668   1.905   5.213   0.616
 3509SOL    HW127669   1.871   5.230   0.528
 3509SOL    HW227670   1.998   5.195   0.603
 3510SOL     OW27671   0.781   2.107   0.973
 3510SOL    HW127672   0.852   2.157   1.014
 3510SOL    HW227673   0.770   2.149   0.887
 3511SOL     OW27674   4.425   5.770   7.605
 3511SOL    HW127675   4.401   5.812   7.688
 3511SOL    HW227676   4.414   5.676   7.621
 3512SOL     OW27677   1.793   3.049   0.903
 3512SOL    HW127678   1.741   3.116   0.858
 3512SOL    HW227679   1.849   3.099   0.962
 3513SOL     OW27680   3.170   4.500   5.631
 3513SOL    HW127681   3.245   4.529   5.579
 3513SOL    HW227682   3.095   4.545   5.591
 3514SOL     OW27683   1.606   5.181   1.194
 3514SOL    HW127684   1.673   5.196   1.127
 3514SOL    HW227685   1.569   5.267   1.211
 3515SOL     OW27686   3.290   5.185   7.254
 3515SOL    HW127687   3.224   5.121   7.227
 3515SOL    HW227688   3.372   5.149   7.222
 3516SOL     OW27689   5.226   4.539   6.758
 3516SOL    HW127690   5.190   4.536   6.669
 3516SOL    HW227691   5.280   4.460   6.764
 3517SOL     OW27692   4.158   2.690   1.139
 3517SOL    HW127693   4.248   2.702   1.170
 3517SOL    HW227694   4.124   2.779   1.129
 3518SOL     OW27695   0.196   1.134   6.782
 3518SOL    HW127696   0.121   1.184   6.752
 3518SOL    HW227697   0.166   1.091   6.862
 3519SOL     OW27698   4.215   0.990   6.876
 3519SOL    HW127699   4.279   1.060   6.864
 3519SOL    HW227700   4.133   1.035   6.893
 3520SOL     OW27701   3.467   1.227   7.338
 3520SOL    HW127702   3.529   1.168   7.381
 3520SOL    HW227703   3.518   1.306   7.320
 3521SOL     OW27704   3.046   5.536   1.254
 3521SOL    HW127705   3.055   5.457   1.309
 3521SOL    HW227706   3.136   5.566   1.242
 3522SOL     OW27707   4.845   5.954   7.736
 3522SOL    HW127708   4.755   5.974   7.764
 3522SOL    HW227709   4.863   5.867   7.771
 3523SOL     OW27710   5.517   6.240   1.099
 3523SOL    HW127711   5.466   6.160   1.108
 3523SOL    HW227712   5.603   6.209   1.068
 3524SOL     OW27713   4.062   1.012   0.097
 3524SOL    HW127714   4.019   1.070   0.160
 3524SOL    HW227715   4.117   0.954   0.151
 3525SOL     OW27716   2.552   6.239   0.185
 3525SOL    HW127717   2.590   6.251   0.272
 3525SOL    HW227718   2.582   6.152   0.158
 3526SOL     OW27719   5.805   4.740   1.017
 3526SOL    HW127720   5.770   4.730   0.928
 3526SOL    HW227721   5.900   4.735   1.007
 3527SOL     OW27722   4.160   1.150   7.216
 3527SOL    HW127723   4.167   1.225   7.158
 3527SOL    HW227724   4.077   1.108   7.191
 3528SOL     OW27725   3.513   1.771   6.284
 3528SOL    HW127726   3.548   1.788   6.196
 3528SOL    HW227727   3.483   1.857   6.315
 3529SOL     OW27728   4.166   3.234   0.278
 3529SOL    HW127729   4.186   3.261   0.188
 3529SOL    HW227730   4.214   3.152   0.290
 3530SOL     OW27731   6.015   6.360   1.335
 3530SOL    HW127732   6.024   6.288   1.272
 3530SOL    HW227733   6.072   6.429   1.300
 3531SOL     OW27734   3.369   2.022   6.366
 3531SOL    HW127735   3.315   2.100   6.352
 3531SOL    HW227736   3.306   1.951   6.376
 3532SOL     OW27737   3.975   0.736   6.397
 3532SOL    HW127738   4.064   0.706   6.416
 3532SOL    HW227739   3.965   0.724   6.303
 3533SOL     OW27740   4.437   2.298   0.842
 3533SOL    HW127741   4.476   2.214   0.867
 3533SOL    HW227742   4.344   2.277   0.828
 3534SOL     OW27743   3.482   1.440   7.059
 3534SOL    HW127744   3.408   1.500   7.071
 3534SOL    HW227745   3.526   1.439   7.144
 3535SOL     OW27746   3.097   2.196   0.787
 3535SOL    HW127747   3.111   2.184   0.881
 3535SOL    HW227748   3.184   2.199   0.749
 3536SOL     OW27749   1.639   4.004   0.343
 3536SOL    HW127750   1.669   3.938   0.406
 3536SOL    HW227751   1.693   3.990   0.266
 3537SOL     OW27752   3.565   1.375   7.670
 3537SOL    HW127753   3.620   1.368   7.592
 3537SOL    HW227754   3.485   1.328   7.646
 3538SOL     OW27755   4.905   0.287   2.559
 3538SOL    HW127756   4.941   0.374   2.546
 3538SOL    HW227757   4.967   0.243   2.617
 3539SOL     OW27758   3.788   4.639   5.850
 3539SOL    HW127759   3.742   4.707   5.801
 3539SOL    HW227760   3.881   4.660   5.839
 3540SOL     OW27761   2.371   4.775   7.300
 3540SOL    HW127762   2.365   4.860   7.257
 3540SOL    HW227763   2.375   4.712   7.228
 3541SOL     OW27764   2.282   5.791   1.428
 3541SOL    HW127765   2.269   5.818   1.518
 3541SOL    HW227766   2.194   5.777   1.394
 3542SOL     OW27767   4.178   1.840   7.598
 3542SOL    HW127768   4.134   1.793   7.527
 3542SOL    HW227769   4.164   1.785   7.675
 3543SOL     OW27770   5.995   3.995   0.181
 3543SOL    HW127771   5.907   3.978   0.148
 3543SOL    HW227772   5.998   4.089   0.195
 3544SOL     OW27773   2.191   0.954   5.881
 3544SOL    HW127774   2.230   1.036   5.912
 3544SOL    HW227775   2.256   0.917   5.821
 3545SOL     OW27776   0.985   2.367   1.906
 3545SOL    HW127777   1.037   2.445   1.889
 3545SOL    HW227778   1.042   2.311   1.959
 3546SOL     OW27779   5.741   0.434   6.859
 3546SOL    HW127780   5.726   0.351   6.812
 3546SOL    HW227781   5.836   0.438   6.869
 3547SOL     OW27782   0.833   1.808   0.246
 3547SOL    HW127783   0.906   1.748   0.254
 3547SOL    HW227784   0.813   1.810   0.152
 3548SOL     OW27785   4.587   5.663   5.707
 3548SOL    HW127786   4.500   5.662   5.748
 3548SOL    HW227787   4.612   5.571   5.702
 3549SOL     OW27788   0.295   2.393   5.654
 3549SOL    HW127789   0.289   2.344   5.571
 3549SOL    HW227790   0.281   2.484   5.628
 3550SOL     OW27791   5.704   1.953   5.601
 3550SOL    HW127792   5.772   2.011   5.636
 3550SOL    HW227793   5.660   1.919   5.679
 3551SOL     OW27794   3.343   0.539   6.507
 3551SOL    HW127795   3.336   0.594   6.429
 3551SOL    HW227796   3.264   0.559   6.557
 3552SOL     OW27797   2.410   1.046   0.502
 3552SOL    HW127798   2.374   1.056   0.414
 3552SOL    HW227799   2.442   1.132   0.526
 3553SOL     OW27800   0.025   1.100   6.214
 3553SOL    HW127801   0.114   1.135   6.211
 3553SOL    HW227802   0.035   1.010   6.245
 3554SOL     OW27803   3.364   2.730   0.225
 3554SOL    HW127804   3.447   2.777   0.241
 3554SOL    HW227805   3.331   2.767   0.143
 3555SOL     OW27806   6.190   3.384   0.105
 3555SOL    HW127807   6.269   3.431   0.131
 3555SOL    HW227808   6.128   3.453   0.081
 3556SOL     OW27809   2.426   3.853   0.966
 3556SOL    HW127810   2.483   3.800   0.911
 3556SOL    HW227811   2.337   3.828   0.941
 3557SOL     OW27812   3.413   1.007   0.346
 3557SOL    HW127813   3.318   1.009   0.354
 3557SOL    HW227814   3.444   1.066   0.415
 3558SOL     OW27815   5.367   1.291   1.123
 3558SOL    HW127816   5.341   1.300   1.214
 3558SOL    HW227817   5.305   1.346   1.074
 3559SOL     OW27818   3.622   2.030   0.135
 3559SOL    HW127819   3.704   2.010   0.091
 3559SOL    HW227820   3.647   2.080   0.213
 3560SOL     OW27821   4.214   4.771   0.290
 3560SOL    HW127822   4.302   4.737   0.302
 3560SOL    HW227823   4.210   4.796   0.198
 3561SOL     OW27824   1.177   5.298   1.033
 3561SOL    HW127825   1.205   5.278   1.122
 3561SOL    HW227826   1.085   5.272   1.031
 3562SOL     OW27827   3.544   4.748   0.024
 3562SOL    HW127828   3.635   4.768   0.001
 3562SOL    HW227829   3.493   4.817   7.785
 3563SOL     OW27830   2.642   5.070   0.411
 3563SOL    HW127831   2.698   5.115   0.347
 3563SOL    HW227832   2.653   4.977   0.390
 3564SOL     OW27833   2.474   0.193   6.631
 3564SOL    HW127834   2.390   0.237   6.644
 3564SOL    HW227835   2.539   0.260   6.652
 3565SOL     OW27836   3.094   3.630   5.643
 3565SOL    HW127837   3.076   3.658   5.554
 3565SOL    HW227838   3.164   3.565   5.634
 3566SOL     OW27839   1.409   5.278   6.702
 3566SOL    HW127840   1.390   5.192   6.665
 3566SOL    HW227841   1.346   5.287   6.774
 3567SOL     OW27842   0.970   4.189   1.159
 3567SOL    HW127843   0.961   4.094   1.151
 3567SOL    HW227844   1.063   4.204   1.176
 3568SOL     OW27845   3.616   4.657   6.705
 3568SOL    HW127846   3.618   4.732   6.765
 3568SOL    HW227847   3.532   4.664   6.660
 3569SOL     OW27848   2.283   5.298   6.727
 3569SOL    HW127849   2.276   5.337   6.640
 3569SOL    HW227850   2.241   5.213   6.719
 3570SOL     OW27851   1.230   2.649   6.515
 3570SOL    HW127852   1.242   2.578   6.578
 3570SOL    HW227853   1.140   2.679   6.530
 3571SOL     OW27854   2.894   4.341   7.573
 3571SOL    HW127855   2.814   4.393   7.560
 3571SOL    HW227856   2.953   4.370   7.503
 3572SOL     OW27857   3.288   5.716   7.177
 3572SOL    HW127858   3.288   5.708   7.082
 3572SOL    HW227859   3.290   5.626   7.209
 3573SOL     OW27860   0.614   5.518   6.392
 3573SOL    HW127861   0.580   5.430   6.377
 3573SOL    HW227862   0.562   5.552   6.465
 3574SOL     OW27863   5.770   5.259   1.282
 3574SOL    HW127864   5.778   5.242   1.376
 3574SOL    HW227865   5.696   5.205   1.254
 3575SOL     OW27866   3.319   3.384   7.001
 3575SOL    HW127867   3.333   3.317   7.068
 3575SOL    HW227868   3.314   3.466   7.049
 3576SOL     OW27869   1.725   6.147   7.756
 3576SOL    HW127870   1.718   6.199   7.677
 3576SOL    HW227871   1.795   6.189   0.004
 3577SOL     OW27872   3.492   5.676   0.182
 3577SOL    HW127873   3.585   5.696   0.171
 3577SOL    HW227874   3.476   5.603   0.122
 3578SOL     OW27875   5.613   0.281   1.234
 3578SOL    HW127876   5.680   0.282   1.303
 3578SOL    HW227877   5.656   0.237   1.160
 3579SOL     OW27878   4.725   2.691   1.875
 3579SOL    HW127879   4.692   2.759   1.934
 3579SOL    HW227880   4.814   2.674   1.905
 3580SOL     OW27881   1.212   1.633   1.119
 3580SOL    HW127882   1.220   1.614   1.213
 3580SOL    HW227883   1.181   1.551   1.081
 3581SOL     OW27884   4.484   0.368   7.778
 3581SOL    HW127885   4.449   0.279   7.775
 3581SOL    HW227886   4.536   0.371   0.056
 3582SOL     OW27887   1.341   6.403   6.695
 3582SOL    HW127888   1.324   6.313   6.723
 3582SOL    HW227889   1.294   6.410   6.612
 3583SOL     OW27890   3.023   1.234   7.348
 3583SOL    HW127891   3.110   1.218   7.312
 3583SOL    HW227892   2.972   1.267   7.275
 3584SOL     OW27893   0.362   1.431   0.140
 3584SOL    HW127894   0.336   1.492   0.209
 3584SOL    HW227895   0.353   1.344   0.181
 3585SOL     OW27896   5.737   5.513   0.425
 3585SOL    HW127897   5.671   5.456   0.387
 3585SOL    HW227898   5.755   5.579   0.358
 3586SOL     OW27899   1.916   5.439   7.325
 3586SOL    HW127900   1.948   5.374   7.263
 3586SOL    HW227901   1.853   5.490   7.276
 3587SOL     OW27902   6.358   3.920   0.841
 3587SOL    HW127903   6.387   3.914   0.750
 3587SOL    HW227904   6.359   3.830   0.873
 3588SOL     OW27905   0.028   2.927   1.875
 3588SOL    HW127906   0.030   2.832   1.875
 3588SOL    HW227907   0.054   2.952   1.963
 3589SOL     OW27908   4.679   4.696   0.492
 3589SOL    HW127909   4.753   4.720   0.437
 3589SOL    HW227910   4.716   4.636   0.557
 3590SOL     OW27911   5.651   2.945   0.250
 3590SOL    HW127912   5.674   2.864   0.294
 3590SOL    HW227913   5.734   2.980   0.219
 3591SOL     OW27914   0.318   6.021   7.203
 3591SOL    HW127915   0.250   5.998   7.265
 3591SOL    HW227916   0.398   5.981   7.238
 3592SOL     OW27917   3.547   0.183   0.521
 3592SOL    HW127918   3.636   0.147   0.517
 3592SOL    HW227919   3.539   0.215   0.611
 3593SOL     OW27920   5.002   4.567   1.769
 3593SOL    HW127921   5.028   4.640   1.826
 3593SOL    HW227922   5.036   4.489   1.813
 3594SOL     OW27923   4.318   2.975   0.579
 3594SOL    HW127924   4.382   2.987   0.649
 3594SOL    HW227925   4.281   2.888   0.595
 3595SOL     OW27926   0.231   6.388   1.850
 3595SOL    HW127927   0.249   6.342   1.933
 3595SOL    HW227928   0.282   6.340   1.785
 3596SOL     OW27929   1.173   4.019   0.215
 3596SOL    HW127930   1.234   4.011   0.142
 3596SOL    HW227931   1.229   4.014   0.293
 3597SOL     OW27932   5.750   2.431   5.636
 3597SOL    HW127933   5.822   2.489   5.661
 3597SOL    HW227934   5.793   2.357   5.593
 3598SOL     OW27935   3.858   5.667   0.557
 3598SOL    HW127936   3.836   5.618   0.478
 3598SOL    HW227937   3.876   5.600   0.623
 3599SOL     OW27938   6.213   1.586   0.015
 3599SOL    HW127939   6.243   1.509   7.771
 3599SOL    HW227940   6.257   1.583   0.100
 3600SOL     OW27941   4.579   1.569   6.881
 3600SOL    HW127942   4.592   1.648   6.934
 3600SOL    HW227943   4.573   1.602   6.791
 3601SOL     OW27944   1.794   4.637   7.032
 3601SOL    HW127945   1.867   4.623   6.972
 3601SOL    HW227946   1.794   4.731   7.049
 3602SOL     OW27947   1.457   2.559   2.252
 3602SOL    HW127948   1.384   2.612   2.219
 3602SOL    HW227949   1.458   2.483   2.195
 3603SOL     OW27950   1.608   0.511   0.407
 3603SOL    HW127951   1.670   0.439   0.416
 3603SOL    HW227952   1.651   0.585   0.449
 3604SOL     OW27953   4.408   1.048   0.133
 3604SOL    HW127954   4.410   1.025   0.040
 3604SOL    HW227955   4.343   0.989   0.171
 3605SOL     OW27956   1.646   1.939   7.192
 3605SOL    HW127957   1.618   1.913   7.280
 3605SOL    HW227958   1.706   1.869   7.166
 3606SOL     OW27959   1.894   4.791   0.705
 3606SOL    HW127960   1.952   4.836   0.644
 3606SOL    HW227961   1.903   4.698   0.683
 3607SOL     OW27962   6.360   5.788   7.727
 3607SOL    HW127963   6.362   5.713   7.668
 3607SOL    HW227964   6.391   5.861   7.673
 3608SOL     OW27965   5.615   2.092   6.306
 3608SOL    HW127966   5.668   2.025   6.349
 3608SOL    HW227967   5.538   2.045   6.274
 3609SOL     OW27968   1.080   4.835   7.534
 3609SOL    HW127969   1.075   4.745   7.568
 3609SOL    HW227970   1.030   4.832   7.452
 3610SOL     OW27971   1.551   0.572   0.791
 3610SOL    HW127972   1.468   0.534   0.762
 3610SOL    HW227973   1.543   0.665   0.773
 3611SOL     OW27974   3.389   4.381   7.020
 3611SOL    HW127975   3.476   4.395   7.055
 3611SOL    HW227976   3.343   4.464   7.037
 3612SOL     OW27977   0.508   4.303   1.020
 3612SOL    HW127978   0.545   4.230   0.970
 3612SOL    HW227979   0.573   4.372   1.013
 3613SOL     OW27980   5.636   4.677   7.725
 3613SOL    HW127981   5.578   4.625   7.781
 3613SOL    HW227982   5.655   4.620   7.651
 3614SOL     OW27983   6.036   0.862   7.135
 3614SOL    HW127984   6.069   0.773   7.148
 3614SOL    HW227985   6.025   0.870   7.041
 3615SOL     OW27986   5.641   5.475   6.307
 3615SOL    HW127987   5.632   5.473   6.212
 3615SOL    HW227988   5.734   5.489   6.322
 3616SOL     OW27989   5.485   2.012   6.724
 3616SOL    HW127990   5.426   2.053   6.661
 3616SOL    HW227991   5.547   2.081   6.748
 3617SOL     OW27992   1.187   0.974   6.844
 3617SOL    HW127993   1.212   0.915   6.772
 3617SOL    HW227994   1.171   1.058   6.801
 3618SOL     OW27995   5.432   2.730   1.578
 3618SOL    HW127996   5.445   2.636   1.564
 3618SOL    HW227997   5.420   2.739   1.673
 3619SOL     OW27998   1.085   5.844   0.849
 3619SOL    HW127999   1.136   5.794   0.784
 3619SOL    HW228000   1.103   5.935   0.829
 3620SOL     OW28001   2.108   2.930   7.612
 3620SOL    HW128002   2.163   2.942   7.690
 3620SOL    HW228003   2.018   2.932   7.646
 3621SOL     OW28004   3.312   5.937   1.464
 3621SOL    HW128005   3.244   5.962   1.527
 3621SOL    HW228006   3.270   5.949   1.379
 3622SOL     OW28007   5.671   5.601   7.350
 3622SOL    HW128008   5.657   5.681   7.401
 3622SOL    HW228009   5.665   5.531   7.414
 3623SOL     OW28010   2.871   2.441   6.941
 3623SOL    HW128011   2.827   2.358   6.925
 3623SOL    HW228012   2.948   2.439   6.884
 3624SOL     OW28013   4.292   6.174   1.561
 3624SOL    HW128014   4.382   6.182   1.530
 3624SOL    HW228015   4.296   6.108   1.630
 3625SOL     OW28016   3.055   0.234   5.881
 3625SOL    HW128017   3.144   0.209   5.903
 3625SOL    HW228018   3.006   0.152   5.881
 3626SOL     OW28019   1.487   4.382   7.226
 3626SOL    HW128020   1.512   4.440   7.154
 3626SOL    HW228021   1.440   4.438   7.287
 3627SOL     OW28022   3.844   4.116   0.276
 3627SOL    HW128023   3.804   4.130   0.190
 3627SOL    HW228024   3.794   4.044   0.314
 3628SOL     OW28025   2.228   2.680   6.842
 3628SOL    HW128026   2.175   2.638   6.774
 3628SOL    HW228027   2.174   2.754   6.871
 3629SOL     OW28028   2.447   2.635   5.587
 3629SOL    HW128029   2.383   2.698   5.554
 3629SOL    HW228030   2.433   2.557   5.533
 3630SOL     OW28031   2.380   0.233   0.443
 3630SOL    HW128032   2.417   0.247   0.356
 3630SOL    HW228033   2.432   0.289   0.500
 3631SOL     OW28034   4.612   5.215   2.348
 3631SOL    HW128035   4.549   5.149   2.377
 3631SOL    HW228036   4.569   5.259   2.276
 3632SOL     OW28037   2.154   1.593   5.245
 3632SOL    HW128038   2.084   1.541   5.207
 3632SOL    HW228039   2.119   1.626   5.327
 3633SOL     OW28040   0.107   5.799   1.230
 3633SOL    HW128041   0.043   5.865   1.255
 3633SOL    HW228042   0.128   5.819   1.139
 3634SOL     OW28043   5.983   2.199   5.199
 3634SOL    HW128044   6.048   2.225   5.265
 3634SOL    HW228045   5.942   2.281   5.172
 3635SOL     OW28046   0.130   4.490   7.204
 3635SOL    HW128047   0.053   4.515   7.256
 3635SOL    HW228048   0.159   4.407   7.242
 3636SOL     OW28049   5.860   3.110   6.001
 3636SOL    HW128050   5.880   3.167   5.926
 3636SOL    HW228051   5.918   3.035   5.992
 3637SOL     OW28052   2.198   5.229   0.042
 3637SOL    HW128053   2.263   5.269   7.787
 3637SOL    HW228054   2.119   5.282   0.030
 3638SOL     OW28055   3.396   6.165   6.200
 3638SOL    HW128056   3.432   6.119   6.276
 3638SOL    HW228057   3.302   6.149   6.205
 3639SOL     OW28058   4.689   4.162   7.045
 3639SOL    HW128059   4.625   4.144   7.114
 3639SOL    HW228060   4.770   4.182   7.092
 3640SOL     OW28061   3.036   1.490   2.040
 3640SOL    HW128062   3.078   1.552   2.101
 3640SOL    HW228063   2.943   1.510   2.046
 3641SOL     OW28064   2.389   0.648   5.906
 3641SOL    HW128065   2.431   0.649   5.820
 3641SOL    HW228066   2.445   0.705   5.960
 3642SOL     OW28067   3.704   3.590   0.108
 3642SOL    HW128068   3.767   3.598   0.180
 3642SOL    HW228069   3.684   3.680   0.083
 3643SOL     OW28070   5.601   3.102   7.210
 3643SOL    HW128071   5.674   3.165   7.208
 3643SOL    HW228072   5.523   3.157   7.211
 3644SOL     OW28073   0.146   0.141   1.255
 3644SOL    HW128074   0.217   0.084   1.284
 3644SOL    HW228075   0.163   0.156   1.162
 3645SOL     OW28076   3.793   0.964   1.080
 3645SOL    HW128077   3.708   0.938   1.045
 3645SOL    HW228078   3.783   0.957   1.175
 3646SOL     OW28079   4.573   4.559   7.006
 3646SOL    HW128080   4.647   4.528   7.059
 3646SOL    HW228081   4.574   4.654   7.017
 3647SOL     OW28082   1.231   0.191   7.249
 3647SOL    HW128083   1.167   0.124   7.274
 3647SOL    HW228084   1.179   0.259   7.205
 3648SOL     OW28085   6.095   0.821   0.331
 3648SOL    HW128086   6.116   0.844   0.422
 3648SOL    HW228087   6.069   0.904   0.291
 3649SOL     OW28088   5.381   4.303   1.752
 3649SOL    HW128089   5.401   4.393   1.729
 3649SOL    HW228090   5.447   4.279   1.817
 3650SOL     OW28091   5.685   4.498   5.981
 3650SOL    HW128092   5.718   4.414   5.951
 3650SOL    HW228093   5.665   4.485   6.074
 3651SOL     OW28094   6.173   5.721   5.646
 3651SOL    HW128095   6.225   5.800   5.635
 3651SOL    HW228096   6.162   5.712   5.740
 3652SOL     OW28097   0.441   0.055   0.255
 3652SOL    HW128098   0.442   6.418   0.210
 3652SOL    HW228099   0.515   0.103   0.218
 3653SOL     OW28100   5.870   3.688   7.223
 3653SOL    HW128101   5.795   3.653   7.177
 3653SOL    HW228102   5.945   3.639   7.189
 3654SOL     OW28103   2.301   0.520   5.604
 3654SOL    HW128104   2.384   0.554   5.639
 3654SOL    HW228105   2.261   0.595   5.561
 3655SOL     OW28106   0.379   5.184   6.539
 3655SOL    HW128107   0.341   5.111   6.489
 3655SOL    HW228108   0.313   5.205   6.605
 3656SOL     OW28109   1.542   5.595   6.362
 3656SOL    HW128110   1.543   5.616   6.269
 3656SOL    HW228111   1.632   5.567   6.381
 3657SOL     OW28112   5.581   1.263   0.058
 3657SOL    HW128113   5.550   1.331   0.119
 3657SOL    HW228114   5.527   1.187   0.079
 3658SOL     OW28115   4.240   0.476   0.077
 3658SOL    HW128116   4.310   0.443   0.020
 3658SOL    HW228117   4.169   0.498   0.017
 3659SOL     OW28118   4.218   4.244   6.960
 3659SOL    HW128119   4.311   4.267   6.961
 3659SOL    HW228120   4.183   4.289   6.883
 3660SOL     OW28121   4.642   3.506   0.920
 3660SOL    HW128122   4.594   3.451   0.857
 3660SOL    HW228123   4.584   3.512   0.996
 3661SOL     OW28124   1.145   5.741   1.568
 3661SOL    HW128125   1.185   5.726   1.654
 3661SOL    HW228126   1.059   5.778   1.588
 3662SOL     OW28127   4.470   4.761   6.181
 3662SOL    HW128128   4.491   4.769   6.274
 3662SOL    HW228129   4.438   4.847   6.157
 3663SOL     OW28130   2.172   5.681   6.676
 3663SOL    HW128131   2.093   5.627   6.673
 3663SOL    HW228132   2.139   5.771   6.682
 3664SOL     OW28133   2.095   2.371   1.792
 3664SOL    HW128134   2.037   2.416   1.730
 3664SOL    HW228135   2.042   2.360   1.871
 3665SOL     OW28136   2.185   2.718   6.444
 3665SOL    HW128137   2.140   2.674   6.516
 3665SOL    HW228138   2.270   2.673   6.437
 3666SOL     OW28139   2.758   3.773   6.375
 3666SOL    HW128140   2.768   3.846   6.315
 3666SOL    HW228141   2.800   3.803   6.456
 3667SOL     OW28142   6.437   0.185   0.219
 3667SOL    HW128143   6.368   0.136   0.174
 3667SOL    HW228144   0.011   0.132   0.295
 3668SOL     OW28145   0.863   1.503   6.719
 3668SOL    HW128146   0.858   1.411   6.745
 3668SOL    HW228147   0.840   1.551   6.799
 3669SOL     OW28148   1.315   5.545   6.657
 3669SOL    HW128149   1.228   5.519   6.626
 3669SOL    HW228150   1.364   5.463   6.662
 3670SOL     OW28151   4.682   1.790   0.613
 3670SOL    HW128152   4.777   1.802   0.614
 3670SOL    HW228153   4.668   1.708   0.659
 3671SOL     OW28154   1.528   3.202   7.006
 3671SOL    HW128155   1.485   3.221   7.090
 3671SOL    HW228156   1.521   3.108   6.996
 3672SOL     OW28157   0.886   1.283   5.317
 3672SOL    HW128158   0.818   1.320   5.372
 3672SOL    HW228159   0.945   1.356   5.299
 3673SOL     OW28160   6.027   1.096   5.877
 3673SOL    HW128161   6.104   1.095   5.935
 3673SOL    HW228162   6.038   1.019   5.821
 3674SOL     OW28163   1.029   3.696   0.555
 3674SOL    HW128164   1.056   3.629   0.617
 3674SOL    HW228165   1.109   3.717   0.506
 3675SOL     OW28166   3.097   4.931   5.892
 3675SOL    HW128167   3.032   4.898   5.830
 3675SOL    HW228168   3.069   5.021   5.910
 3676SOL     OW28169   3.662   0.882   0.400
 3676SOL    HW128170   3.647   0.789   0.385
 3676SOL    HW228171   3.582   0.925   0.370
 3677SOL     OW28172   1.917   2.969   2.458
 3677SOL    HW128173   1.996   2.965   2.405
 3677SOL    HW228174   1.908   2.881   2.495
 3678SOL     OW28175   3.189   2.551   7.764
 3678SOL    HW128176   3.204   2.482   7.700
 3678SOL    HW228177   3.206   2.509   0.046
 3679SOL     OW28178   0.514   0.282   0.467
 3679SOL    HW128179   0.509   0.374   0.494
 3679SOL    HW228180   0.426   0.248   0.482
 3680SOL     OW28181   4.222   3.312   5.504
 3680SOL    HW128182   4.217   3.285   5.596
 3680SOL    HW228183   4.147   3.370   5.492
 3681SOL     OW28184   2.190   0.218   7.702
 3681SOL    HW128185   2.212   0.283   7.768
 3681SOL    HW228186   2.251   0.146   7.718
 3682SOL     OW28187   1.240   4.219   1.214
 3682SOL    HW128188   1.294   4.141   1.202
 3682SOL    HW228189   1.297   4.292   1.190
 3683SOL     OW28190   5.594   1.250   0.971
 3683SOL    HW128191   5.511   1.269   1.014
 3683SOL    HW228192   5.574   1.178   0.910
 3684SOL     OW28193   5.218   5.832   0.432
 3684SOL    HW128194   5.306   5.869   0.440
 3684SOL    HW228195   5.230   5.738   0.434
 3685SOL     OW28196   5.709   5.849   0.463
 3685SOL    HW128197   5.736   5.795   0.538
 3685SOL    HW228198   5.734   5.797   0.386
 3686SOL     OW28199   3.749   1.705   5.821
 3686SOL    HW128200   3.692   1.662   5.757
 3686SOL    HW228201   3.830   1.653   5.821
 3687SOL     OW28202   0.649   6.159   0.809
 3687SOL    HW128203   0.621   6.069   0.825
 3687SOL    HW228204   0.694   6.155   0.725
 3688SOL     OW28205   2.842   3.421   7.491
 3688SOL    HW128206   2.792   3.451   7.567
 3688SOL    HW228207   2.933   3.421   7.521
 3689SOL     OW28208   3.464   0.636   1.409
 3689SOL    HW128209   3.537   0.583   1.441
 3689SOL    HW228210   3.449   0.606   1.320
 3690SOL     OW28211   5.763   5.918   5.529
 3690SOL    HW128212   5.676   5.943   5.496
 3690SOL    HW228213   5.745   5.868   5.608
 3691SOL     OW28214   4.728   1.912   0.132
 3691SOL    HW128215   4.709   1.914   0.226
 3691SOL    HW228216   4.679   1.985   0.095
 3692SOL     OW28217   1.022   6.143   6.755
 3692SOL    HW128218   0.966   6.156   6.679
 3692SOL    HW228219   0.993   6.060   6.793
 3693SOL     OW28220   1.853   1.433   0.257
 3693SOL    HW128221   1.853   1.377   0.336
 3693SOL    HW228222   1.845   1.522   0.291
 3694SOL     OW28223   4.094   4.744   1.900
 3694SOL    HW128224   4.017   4.704   1.860
 3694SOL    HW228225   4.076   4.744   1.994
 3695SOL     OW28226   3.831   3.656   1.580
 3695SOL    HW128227   3.785   3.723   1.631
 3695SOL    HW228228   3.914   3.644   1.627
 3696SOL     OW28229   3.483   1.978   1.889
 3696SOL    HW128230   3.510   2.068   1.874
 3696SOL    HW228231   3.546   1.944   1.953
 3697SOL     OW28232   1.581   2.605   6.612
 3697SOL    HW128233   1.533   2.554   6.678
 3697SOL    HW228234   1.644   2.544   6.575
 3698SOL     OW28235   0.766   4.820   6.690
 3698SOL    HW128236   0.763   4.879   6.614
 3698SOL    HW228237   0.686   4.839   6.738
 3699SOL     OW28238   1.920   2.825   0.805
 3699SOL    HW128239   1.870   2.900   0.837
 3699SOL    HW228240   1.998   2.822   0.861
 3700SOL     OW28241   1.469   2.367   0.812
 3700SOL    HW128242   1.387   2.404   0.779
 3700SOL    HW228243   1.458   2.273   0.802
 3701SOL     OW28244   6.415   5.647   5.863
 3701SOL    HW128245   0.009   5.641   5.948
 3701SOL    HW228246   6.325   5.674   5.882
 3702SOL     OW28247   1.740   4.771   1.771
 3702SOL    HW128248   1.667   4.715   1.744
 3702SOL    HW228249   1.818   4.726   1.737
 3703SOL     OW28250   5.642   1.827   5.209
 3703SOL    HW128251   5.656   1.732   5.199
 3703SOL    HW228252   5.728   1.865   5.190
 3704SOL     OW28253   5.980   0.892   6.870
 3704SOL    HW128254   5.906   0.838   6.841
 3704SOL    HW228255   5.963   0.978   6.833
 3705SOL     OW28256   0.666   2.675   1.529
 3705SOL    HW128257   0.599   2.616   1.563
 3705SOL    HW228258   0.734   2.676   1.596
 3706SOL     OW28259   2.803   3.997   6.234
 3706SOL    HW128260   2.830   4.080   6.273
 3706SOL    HW228261   2.840   3.998   6.146
 3707SOL     OW28262   3.158   4.207   6.444
 3707SOL    HW128263   3.221   4.279   6.444
 3707SOL    HW228264   3.200   4.138   6.393
 3708SOL     OW28265   1.973   4.638   1.706
 3708SOL    HW128266   2.004   4.558   1.663
 3708SOL    HW228267   1.995   4.625   1.798
 3709SOL     OW28268   3.450   5.037   5.131
 3709SOL    HW128269   3.489   4.952   5.114
 3709SOL    HW228270   3.372   5.018   5.182
 3710SOL     OW28271   0.669   3.262   7.027
 3710SOL    HW128272   0.736   3.330   7.022
 3710SOL    HW228273   0.587   3.309   7.035
 3711SOL     OW28274   5.772   2.520   6.470
 3711SOL    HW128275   5.846   2.460   6.463
 3711SOL    HW228276   5.696   2.467   6.447
 3712SOL     OW28277   4.215   0.650   6.496
 3712SOL    HW128278   4.194   0.574   6.550
 3712SOL    HW228279   4.261   0.709   6.554
 3713SOL     OW28280   3.005   0.535   0.985
 3713SOL    HW128281   2.929   0.533   0.927
 3713SOL    HW228282   3.061   0.464   0.955
 3714SOL     OW28283   0.189   1.835   6.526
 3714SOL    HW128284   0.190   1.748   6.486
 3714SOL    HW228285   0.143   1.890   6.463
 3715SOL     OW28286   4.270   5.437   1.224
 3715SOL    HW128287   4.255   5.525   1.189
 3715SOL    HW228288   4.366   5.429   1.227
 3716SOL     OW28289   3.356   1.861   5.889
 3716SOL    HW128290   3.268   1.885   5.919
 3716SOL    HW228291   3.343   1.776   5.846
 3717SOL     OW28292   5.219   5.513   1.713
 3717SOL    HW128293   5.238   5.595   1.760
 3717SOL    HW228294   5.271   5.447   1.758
 3718SOL     OW28295   4.266   3.926   7.335
 3718SOL    HW128296   4.204   3.854   7.325
 3718SOL    HW228297   4.292   3.949   7.246
 3719SOL     OW28298   3.906   0.907   7.691
 3719SOL    HW128299   3.970   0.917   7.620
 3719SOL    HW228300   3.955   0.929   7.771
 3720SOL     OW28301   6.019   1.481   0.356
 3720SOL    HW128302   6.027   1.568   0.394
 3720SOL    HW228303   5.931   1.479   0.320
 3721SOL     OW28304   3.285   2.806   7.769
 3721SOL    HW128305   3.249   2.850   7.692
 3721SOL    HW228306   3.251   2.717   7.764
 3722SOL     OW28307   3.423   4.498   0.004
 3722SOL    HW128308   3.460   4.586   0.001
 3722SOL    HW228309   3.351   4.504   0.066
 3723SOL     OW28310   2.984   5.396   7.167
 3723SOL    HW128311   3.026   5.413   7.252
 3723SOL    HW228312   2.901   5.444   7.171
 3724SOL     OW28313   5.798   5.869   6.097
 3724SOL    HW128314   5.871   5.808   6.086
 3724SOL    HW228315   5.722   5.820   6.066
 3725SOL     OW28316   4.899   0.999   1.487
 3725SOL    HW128317   4.811   1.006   1.448
 3725SOL    HW228318   4.911   0.906   1.503
 3726SOL     OW28319   3.075   1.048   7.795
 3726SOL    HW128320   3.119   1.108   0.052
 3726SOL    HW228321   3.121   0.964   0.005
 3727SOL     OW28322   3.088   6.419   6.877
 3727SOL    HW128323   3.022   0.037   6.898
 3727SOL    HW228324   3.133   0.005   6.800
 3728SOL     OW28325   3.008   1.310   0.426
 3728SOL    HW128326   3.008   1.364   0.506
 3728SOL    HW228327   3.082   1.250   0.437
 3729SOL     OW28328   1.761   2.791   7.300
 3729SOL    HW128329   1.692   2.739   7.259
 3729SOL    HW228330   1.720   2.829   7.378
 3730SOL     OW28331   1.938   6.351   1.130
 3730SOL    HW128332   1.869   6.284   1.127
 3730SOL    HW228333   2.015   6.305   1.161
 3731SOL     OW28334   1.102   2.527   1.188
 3731SOL    HW128335   1.129   2.436   1.201
 3731SOL    HW228336   1.008   2.527   1.207
 3732SOL     OW28337   2.456   1.320   0.532
 3732SOL    HW128338   2.365   1.328   0.502
 3732SOL    HW228339   2.508   1.356   0.460
 3733SOL     OW28340   1.942   0.696   0.668
 3733SOL    HW128341   1.972   0.755   0.737
 3733SOL    HW228342   2.022   0.677   0.618
 3734SOL     OW28343   1.063   5.921   1.977
 3734SOL    HW128344   1.006   5.997   1.987
 3734SOL    HW228345   1.006   5.846   1.998
 3735SOL     OW28346   1.797   0.021   1.919
 3735SOL    HW128347   1.829   0.019   2.009
 3735SOL    HW228348   1.785   6.377   1.896
 3736SOL     OW28349   3.188   2.588   1.229
 3736SOL    HW128350   3.230   2.673   1.214
 3736SOL    HW228351   3.241   2.548   1.298
 3737SOL     OW28352   4.042   1.700   7.403
 3737SOL    HW128353   3.990   1.665   7.476
 3737SOL    HW228354   4.039   1.631   7.337
 3738SOL     OW28355   6.357   1.284   5.610
 3738SOL    HW128356   6.439   1.267   5.563
 3738SOL    HW228357   6.361   1.227   5.687
 3739SOL     OW28358   2.353   5.019   0.900
 3739SOL    HW128359   2.343   5.026   0.995
 3739SOL    HW228360   2.392   4.932   0.887
 3740SOL     OW28361   2.347   3.546   2.065
 3740SOL    HW128362   2.386   3.519   2.148
 3740SOL    HW228363   2.253   3.543   2.081
 3741SOL     OW28364   2.819   5.403   0.587
 3741SOL    HW128365   2.879   5.427   0.657
 3741SOL    HW228366   2.782   5.319   0.615
 3742SOL     OW28367   0.771   0.245   6.184
 3742SOL    HW128368   0.699   0.280   6.236
 3742SOL    HW228369   0.738   0.245   6.094
 3743SOL     OW28370   4.484   1.973   7.454
 3743SOL    HW128371   4.511   2.065   7.458
 3743SOL    HW228372   4.566   1.925   7.454
 3744SOL     OW28373   1.699   1.638   6.456
 3744SOL    HW128374   1.667   1.656   6.367
 3744SOL    HW228375   1.621   1.614   6.505
 3745SOL     OW28376   4.359   4.133   0.055
 3745SOL    HW128377   4.424   4.105   0.119
 3745SOL    HW228378   4.280   4.084   0.078
 3746SOL     OW28379   6.233   5.491   7.270
 3746SOL    HW128380   6.179   5.524   7.342
 3746SOL    HW228381   6.190   5.410   7.242
 3747SOL     OW28382   2.189   4.211   7.694
 3747SOL    HW128383   2.150   4.126   7.714
 3747SOL    HW228384   2.187   4.216   7.598
 3748SOL     OW28385   5.957   1.154   6.788
 3748SOL    HW128386   5.946   1.182   6.697
 3748SOL    HW228387   5.874   1.176   6.830
 3749SOL     OW28388   3.103   3.482   7.582
 3749SOL    HW128389   3.138   3.439   7.660
 3749SOL    HW228390   3.074   3.568   7.613
 3750SOL     OW28391   2.276   5.418   6.463
 3750SOL    HW128392   2.214   5.486   6.439
 3750SOL    HW228393   2.329   5.404   6.385
 3751SOL     OW28394   6.176   4.861   6.658
 3751SOL    HW128395   6.229   4.864   6.579
 3751SOL    HW228396   6.237   4.887   6.728
 3752SOL     OW28397   2.562   5.304   6.778
 3752SOL    HW128398   2.467   5.301   6.768
 3752SOL    HW228399   2.592   5.217   6.751
 3753SOL     OW28400   0.504   0.848   0.796
 3753SOL    HW128401   0.530   0.852   0.704
 3753SOL    HW228402   0.427   0.791   0.797
 3754SOL     OW28403   3.546   3.256   1.297
 3754SOL    HW128404   3.629   3.228   1.335
 3754SOL    HW228405   3.480   3.210   1.347
 3755SOL     OW28406   1.200   0.674   6.226
 3755SOL    HW128407   1.292   0.647   6.226
 3755SOL    HW228408   1.152   0.595   6.252
 3756SOL     OW28409   5.981   5.736   2.255
 3756SOL    HW128410   5.940   5.820   2.237
 3756SOL    HW228411   5.912   5.671   2.241
 3757SOL     OW28412   2.261   6.204   0.857
 3757SOL    HW128413   2.174   6.178   0.889
 3757SOL    HW228414   2.311   6.123   0.857
 3758SOL     OW28415   2.362   0.755   6.755
 3758SOL    HW128416   2.318   0.774   6.672
 3758SOL    HW228417   2.390   0.841   6.787
 3759SOL     OW28418   1.135   1.383   0.308
 3759SOL    HW128419   1.091   1.332   0.239
 3759SOL    HW228420   1.227   1.357   0.302
 3760SOL     OW28421   5.229   3.129   1.178
 3760SOL    HW128422   5.232   3.223   1.195
 3760SOL    HW228423   5.308   3.111   1.127
 3761SOL     OW28424   0.920   3.253   0.925
 3761SOL    HW128425   0.995   3.197   0.903
 3761SOL    HW228426   0.950   3.304   1.000
 3762SOL     OW28427   6.296   0.235   7.047
 3762SOL    HW128428   6.364   0.206   7.108
 3762SOL    HW228429   6.344   0.269   6.972
 3763SOL     OW28430   4.839   4.673   1.280
 3763SOL    HW128431   4.889   4.686   1.199
 3763SOL    HW228432   4.863   4.748   1.335
 3764SOL     OW28433   6.082   2.106   6.223
 3764SOL    HW128434   6.066   2.084   6.315
 3764SOL    HW228435   5.995   2.124   6.188
 3765SOL     OW28436   3.946   3.149   5.620
 3765SOL    HW128437   3.903   3.231   5.595
 3765SOL    HW228438   3.875   3.085   5.624
 3766SOL     OW28439   0.900   1.284   5.700
 3766SOL    HW128440   0.952   1.204   5.695
 3766SOL    HW228441   0.811   1.257   5.675
 3767SOL     OW28442   6.335   2.081   6.739
 3767SOL    HW128443   6.364   2.032   6.816
 3767SOL    HW228444   6.374   2.167   6.749
 3768SOL     OW28445   6.073   4.496   5.963
 3768SOL    HW128446   6.136   4.510   6.034
 3768SOL    HW228447   6.033   4.412   5.983
 3769SOL     OW28448   3.621   0.570   6.145
 3769SOL    HW128449   3.561   0.506   6.108
 3769SOL    HW228450   3.665   0.609   6.069
 3770SOL     OW28451   0.401   6.401   6.935
 3770SOL    HW128452   0.394   6.357   7.020
 3770SOL    HW228453   0.485   6.447   6.939
 3771SOL     OW28454   2.386   5.984   0.039
 3771SOL    HW128455   2.367   6.045   7.770
 3771SOL    HW228456   2.482   5.984   0.045
 3772SOL     OW28457   5.511   4.358   6.238
 3772SOL    HW128458   5.417   4.346   6.227
 3772SOL    HW228459   5.550   4.292   6.180
 3773SOL     OW28460   1.372   4.867   0.034
 3773SOL    HW128461   1.347   4.924   7.764
 3773SOL    HW228462   1.291   4.858   0.085
 3774SOL     OW28463   5.202   6.386   1.351
 3774SOL    HW128464   5.247   6.398   1.267
 3774SOL    HW228465   5.162   6.299   1.345
 3775SOL     OW28466   1.705   2.497   0.858
 3775SOL    HW128467   1.760   2.436   0.908
 3775SOL    HW228468   1.632   2.443   0.826
 3776SOL     OW28469   4.454   2.808   7.489
 3776SOL    HW128470   4.375   2.754   7.491
 3776SOL    HW228471   4.422   2.898   7.497
 3777SOL     OW28472   4.329   2.051   5.350
 3777SOL    HW128473   4.259   1.986   5.353
 3777SOL    HW228474   4.304   2.111   5.281
 3778SOL     OW28475   2.044   0.828   5.031
 3778SOL    HW128476   2.120   0.839   4.973
 3778SOL    HW228477   2.075   0.773   5.102
 3779SOL     OW28478   2.442   3.989   0.237
 3779SOL    HW128479   2.489   3.943   0.168
 3779SOL    HW228480   2.500   3.983   0.313
 3780SOL     OW28481   1.191   4.333   6.926
 3780SOL    HW128482   1.139   4.376   6.994
 3780SOL    HW228483   1.187   4.394   6.852
 3781SOL     OW28484   2.561   1.639   1.278
 3781SOL    HW128485   2.498   1.662   1.209
 3781SOL    HW228486   2.615   1.717   1.289
 3782SOL     OW28487   2.482   1.596   5.481
 3782SOL    HW128488   2.443   1.599   5.568
 3782SOL    HW228489   2.549   1.664   5.482
 3783SOL     OW28490   2.833   0.820   0.969
 3783SOL    HW128491   2.852   0.910   0.992
 3783SOL    HW228492   2.857   0.812   0.877
 3784SOL     OW28493   6.148   5.876   7.232
 3784SOL    HW128494   6.169   5.808   7.169
 3784SOL    HW228495   6.056   5.897   7.215
 3785SOL     OW28496   3.232   5.456   6.457
 3785SOL    HW128497   3.243   5.475   6.550
 3785SOL    HW228498   3.317   5.476   6.418
 3786SOL     OW28499   3.231   4.850   5.574
 3786SOL    HW128500   3.293   4.818   5.640
 3786SOL    HW228501   3.151   4.869   5.624
 3787SOL     OW28502   5.351   1.864   5.959
 3787SOL    HW128503   5.370   1.897   6.046
 3787SOL    HW228504   5.256   1.866   5.952
 3788SOL     OW28505   2.701   2.113   2.249
 3788SOL    HW128506   2.609   2.111   2.222
 3788SOL    HW228507   2.698   2.138   2.341
 3789SOL     OW28508   1.826   4.758   2.030
 3789SOL    HW128509   1.905   4.707   2.014
 3789SOL    HW228510   1.790   4.775   1.943
 3790SOL     OW28511   4.629   3.649   0.506
 3790SOL    HW128512   4.559   3.617   0.449
 3790SOL    HW228513   4.689   3.576   0.513
 3791SOL     OW28514   2.675   4.410   6.734
 3791SOL    HW128515   2.584   4.437   6.742
 3791SOL    HW228516   2.682   4.331   6.786
 3792SOL     OW28517   3.315   4.654   0.245
 3792SOL    HW128518   3.407   4.643   0.269
 3792SOL    HW228519   3.266   4.607   0.312
 3793SOL     OW28520   0.909   0.332   0.632
 3793SOL    HW128521   0.897   0.303   0.541
 3793SOL    HW228522   0.950   0.257   0.675
 3794SOL     OW28523   4.258   1.805   6.240
 3794SOL    HW128524   4.309   1.728   6.265
 3794SOL    HW228525   4.317   1.879   6.257
 3795SOL     OW28526   1.411   2.103   0.795
 3795SOL    HW128527   1.431   2.018   0.754
 3795SOL    HW228528   1.348   2.082   0.864
 3796SOL     OW28529   5.859   4.713   7.040
 3796SOL    HW128530   5.826   4.759   6.962
 3796SOL    HW228531   5.943   4.677   7.013
 3797SOL     OW28532   2.313   1.373   0.893
 3797SOL    HW128533   2.276   1.290   0.924
 3797SOL    HW228534   2.398   1.378   0.938
 3798SOL     OW28535   2.013   2.857   1.715
 3798SOL    HW128536   1.950   2.787   1.701
 3798SOL    HW228537   1.975   2.911   1.784
 3799SOL     OW28538   4.241   4.912   0.522
 3799SOL    HW128539   4.234   4.854   0.446
 3799SOL    HW228540   4.323   4.886   0.564
 3800SOL     OW28541   1.672   5.256   7.683
 3800SOL    HW128542   1.715   5.340   7.701
 3800SOL    HW228543   1.579   5.272   7.701
 3801SOL     OW28544   0.701   2.239   0.729
 3801SOL    HW128545   0.681   2.327   0.762
 3801SOL    HW228546   0.621   2.189   0.745
 3802SOL     OW28547   5.837   2.665   7.085
 3802SOL    HW128548   5.746   2.642   7.064
 3802SOL    HW228549   5.876   2.583   7.115
 3803SOL     OW28550   3.204   3.797   6.696
 3803SOL    HW128551   3.297   3.814   6.711
 3803SOL    HW228552   3.165   3.884   6.688
 3804SOL     OW28553   0.932   3.389   7.011
 3804SOL    HW128554   0.914   3.481   7.028
 3804SOL    HW228555   1.006   3.390   6.950
 3805SOL     OW28556   4.475   4.311   6.949
 3805SOL    HW128557   4.503   4.402   6.958
 3805SOL    HW228558   4.554   4.260   6.963
 3806SOL     OW28559   4.890   1.547   5.889
 3806SOL    HW128560   4.819   1.499   5.931
 3806SOL    HW228561   4.941   1.583   5.962
 3807SOL     OW28562   4.541   5.432   0.646
 3807SOL    HW128563   4.463   5.379   0.663
 3807SOL    HW228564   4.524   5.515   0.690
 3808SOL     OW28565   4.156   2.686   0.351
 3808SOL    HW128566   4.062   2.690   0.336
 3808SOL    HW228567   4.195   2.726   0.273
 3809SOL     OW28568   3.680   3.832   7.353
 3809SOL    HW128569   3.630   3.754   7.375
 3809SOL    HW228570   3.744   3.802   7.289
 3810SOL     OW28571   0.902   6.442   0.129
 3810SOL    HW128572   0.972   0.024   0.188
 3810SOL    HW228573   0.883   0.070   0.074
 3811SOL     OW28574   4.809   5.120   0.698
 3811SOL    HW128575   4.822   5.213   0.715
 3811SOL    HW228576   4.882   5.096   0.640
 3812SOL     OW28577   5.708   4.941   7.797
 3812SOL    HW128578   5.678   4.852   7.778
 3812SOL    HW228579   5.801   4.939   7.774
 3813SOL     OW28580   5.146   0.675   7.366
 3813SOL    HW128581   5.109   0.588   7.351
 3813SOL    HW228582   5.069   0.732   7.377
 3814SOL     OW28583   5.639   4.608   0.403
 3814SOL    HW128584   5.617   4.528   0.354
 3814SOL    HW228585   5.719   4.587   0.451
 3815SOL     OW28586   2.311   0.680   1.503
 3815SOL    HW128587   2.281   0.686   1.594
 3815SOL    HW228588   2.292   0.766   1.466
 3816SOL     OW28589   6.262   4.827   0.035
 3816SOL    HW128590   6.219   4.881   0.102
 3816SOL    HW228591   6.329   4.779   0.084
 3817SOL     OW28592   3.762   4.755   7.148
 3817SOL    HW128593   3.771   4.844   7.115
 3817SOL    HW228594   3.669   4.734   7.137
 3818SOL     OW28595   3.923   4.455   7.207
 3818SOL    HW128596   3.992   4.389   7.213
 3818SOL    HW228597   3.969   4.536   7.186
 3819SOL     OW28598   1.522   0.620   6.848
 3819SOL    HW128599   1.474   0.616   6.765
 3819SOL    HW228600   1.473   0.564   6.907
 3820SOL     OW28601   0.514   3.893   6.834
 3820SOL    HW128602   0.555   3.953   6.772
 3820SOL    HW228603   0.421   3.916   6.832
 3821SOL     OW28604   3.708   3.827   6.598
 3821SOL    HW128605   3.743   3.879   6.526
 3821SOL    HW228606   3.752   3.860   6.676
 3822SOL     OW28607   5.627   6.336   0.429
 3822SOL    HW128608   5.645   6.273   0.359
 3822SOL    HW228609   5.552   6.299   0.476
 3823SOL     OW28610   1.870   2.394   7.376
 3823SOL    HW128611   1.882   2.334   7.302
 3823SOL    HW228612   1.778   2.384   7.400
 3824SOL     OW28613   2.817   5.205   0.245
 3824SOL    HW128614   2.912   5.207   0.245
 3824SOL    HW228615   2.791   5.291   0.278
 3825SOL     OW28616   5.128   5.446   0.019
 3825SOL    HW128617   5.204   5.388   0.013
 3825SOL    HW228618   5.114   5.459   0.113
 3826SOL     OW28619   5.049   3.425   1.433
 3826SOL    HW128620   5.074   3.473   1.513
 3826SOL    HW228621   5.131   3.418   1.384
 3827SOL     OW28622   0.465   3.422   0.922
 3827SOL    HW128623   0.530   3.353   0.933
 3827SOL    HW228624   0.402   3.408   0.993
 3828SOL     OW28625   0.255   5.428   7.163
 3828SOL    HW128626   0.280   5.507   7.115
 3828SOL    HW228627   0.332   5.371   7.157
 3829SOL     OW28628   1.288   4.278   7.703
 3829SOL    HW128629   1.309   4.273   7.796
 3829SOL    HW228630   1.347   4.346   7.669
 3830SOL     OW28631   0.114   3.198   1.187
 3830SOL    HW128632   0.157   3.115   1.169
 3830SOL    HW228633   0.031   3.193   1.139
 3831SOL     OW28634   1.498   5.988   7.693
 3831SOL    HW128635   1.457   5.972   7.778
 3831SOL    HW228636   1.571   6.046   7.712
 3832SOL     OW28637   5.228   0.420   0.929
 3832SOL    HW128638   5.278   0.497   0.956
 3832SOL    HW228639   5.272   0.347   0.974
 3833SOL     OW28640   2.584   0.700   6.607
 3833SOL    HW128641   2.650   0.673   6.671
 3833SOL    HW228642   2.504   0.711   6.658
 3834SOL     OW28643   5.633   5.374   7.508
 3834SOL    HW128644   5.709   5.317   7.496
 3834SOL    HW228645   5.615   5.371   7.602
 3835SOL     OW28646   5.854   5.217   7.465
 3835SOL    HW128647   5.887   5.127   7.461
 3835SOL    HW228648   5.911   5.261   7.528
 3836SOL     OW28649   3.807   2.494   0.931
 3836SOL    HW128650   3.903   2.495   0.927
 3836SOL    HW228651   3.782   2.408   0.899
 3837SOL     OW28652   1.087   4.291   6.551
 3837SOL    HW128653   1.103   4.350   6.625
 3837SOL    HW228654   1.154   4.314   6.487
 3838SOL     OW28655   4.714   2.280   1.196
 3838SOL    HW128656   4.682   2.251   1.281
 3838SOL    HW228657   4.640   2.326   1.156
 3839SOL     OW28658   6.213   2.510   6.747
 3839SOL    HW128659   6.209   2.603   6.768
 3839SOL    HW228660   6.137   2.472   6.791
 3840SOL     OW28661   1.073   0.097   7.566
 3840SOL    HW128662   1.049   0.076   7.476
 3840SOL    HW228663   1.168   0.086   7.568
 3841SOL     OW28664   3.649   0.202   1.274
 3841SOL    HW128665   3.667   0.185   1.367
 3841SOL    HW228666   3.553   0.198   1.268
 3842SOL     OW28667   0.009   3.029   1.534
 3842SOL    HW128668   6.362   3.041   1.530
 3842SOL    HW228669   0.027   2.958   1.472
 3843SOL     OW28670   2.832   5.630   6.462
 3843SOL    HW128671   2.794   5.674   6.538
 3843SOL    HW228672   2.776   5.655   6.388
 3844SOL     OW28673   1.882   4.340   0.269
 3844SOL    HW128674   1.801   4.298   0.239
 3844SOL    HW228675   1.854   4.425   0.303
 3845SOL     OW28676   5.561   5.385   7.777
 3845SOL    HW128677   5.530   5.474   7.760
 3845SOL    HW228678   5.483   5.337   0.003
 3846SOL     OW28679   5.643   0.492   1.883
 3846SOL    HW128680   5.724   0.510   1.931
 3846SOL    HW228681   5.580   0.466   1.950
 3847SOL     OW28682   6.420   4.283   0.449
 3847SOL    HW128683   6.430   4.230   0.370
 3847SOL    HW228684   0.054   4.269   0.498
 3848SOL     OW28685   4.048   3.400   1.358
 3848SOL    HW128686   3.982   3.469   1.345
 3848SOL    HW228687   4.065   3.401   1.452
 3849SOL     OW28688   5.095   4.511   6.516
 3849SOL    HW128689   5.035   4.453   6.562
 3849SOL    HW228690   5.084   4.489   6.423
 3850SOL     OW28691   0.340   2.126   1.402
 3850SOL    HW128692   0.405   2.195   1.414
 3850SOL    HW228693   0.354   2.067   1.477
 3851SOL     OW28694   4.992   1.930   6.733
 3851SOL    HW128695   5.025   1.951   6.820
 3851SOL    HW228696   4.897   1.941   6.740
 3852SOL     OW28697   4.350   3.011   1.049
 3852SOL    HW128698   4.385   3.047   1.130
 3852SOL    HW228699   4.259   2.989   1.070
 3853SOL     OW28700   2.416   2.050   1.619
 3853SOL    HW128701   2.490   2.067   1.561
 3853SOL    HW228702   2.444   2.084   1.704
 3854SOL     OW28703   2.575   4.281   6.066
 3854SOL    HW128704   2.636   4.214   6.036
 3854SOL    HW228705   2.497   4.270   6.011
 3855SOL     OW28706   2.646   4.469   7.552
 3855SOL    HW128707   2.622   4.557   7.523
 3855SOL    HW228708   2.580   4.412   7.512
 3856SOL     OW28709   4.446   5.301   6.958
 3856SOL    HW128710   4.521   5.244   6.972
 3856SOL    HW228711   4.430   5.342   7.044
 3857SOL     OW28712   6.030   4.262   0.216
 3857SOL    HW128713   6.072   4.329   0.162
 3857SOL    HW228714   6.073   4.269   0.301
 3858SOL     OW28715   4.327   0.435   1.005
 3858SOL    HW128716   4.233   0.419   1.011
 3858SOL    HW228717   4.359   0.369   0.944
 3859SOL     OW28718   1.638   5.581   6.811
 3859SOL    HW128719   1.642   5.513   6.744
 3859SOL    HW228720   1.723   5.577   6.855
 3860SOL     OW28721   2.226   1.126   6.239
 3860SOL    HW128722   2.130   1.124   6.243
 3860SOL    HW228723   2.254   1.135   6.330
 3861SOL     OW28724   3.408   0.304   7.497
 3861SOL    HW128725   3.327   0.347   7.472
 3861SOL    HW228726   3.470   0.326   7.427
 3862SOL     OW28727   5.974   6.383   0.161
 3862SOL    HW128728   5.973   6.350   0.071
 3862SOL    HW228729   5.954   6.306   0.214
 3863SOL     OW28730   0.282   5.893   0.485
 3863SOL    HW128731   0.191   5.866   0.472
 3863SOL    HW228732   0.285   5.926   0.575
 3864SOL     OW28733   1.551   3.415   1.921
 3864SOL    HW128734   1.574   3.369   2.002
 3864SOL    HW228735   1.635   3.438   1.882
 3865SOL     OW28736   4.249   0.441   0.579
 3865SOL    HW128737   4.282   0.469   0.493
 3865SOL    HW228738   4.259   0.518   0.634
 3866SOL     OW28739   0.414   6.088   5.819
 3866SOL    HW128740   0.355   6.159   5.794
 3866SOL    HW228741   0.357   6.021   5.856
 3867SOL     OW28742   1.486   5.764   6.657
 3867SOL    HW128743   1.420   5.697   6.638
 3867SOL    HW228744   1.545   5.723   6.721
 3868SOL     OW28745   2.442   0.154   5.404
 3868SOL    HW128746   2.408   0.065   5.393
 3868SOL    HW228747   2.405   0.203   5.330
 3869SOL     OW28748   4.105   4.010   0.552
 3869SOL    HW128749   4.036   4.002   0.617
 3869SOL    HW228750   4.082   4.088   0.502
 3870SOL     OW28751   6.205   3.307   1.410
 3870SOL    HW128752   6.188   3.213   1.414
 3870SOL    HW228753   6.214   3.334   1.502
 3871SOL     OW28754   2.391   1.745   6.499
 3871SOL    HW128755   2.323   1.782   6.555
 3871SOL    HW228756   2.373   1.782   6.412
 3872SOL     OW28757   4.461   0.634   1.151
 3872SOL    HW128758   4.420   0.572   1.090
 3872SOL    HW228759   4.454   0.719   1.107
 3873SOL     OW28760   2.991   5.879   6.301
 3873SOL    HW128761   3.021   5.788   6.302
 3873SOL    HW228762   2.898   5.873   6.275
 3874SOL     OW28763   0.662   1.217   6.542
 3874SOL    HW128764   0.653   1.311   6.528
 3874SOL    HW228765   0.580   1.191   6.585
 3875SOL     OW28766   5.685   5.938   1.290
 3875SOL    HW128767   5.625   5.895   1.229
 3875SOL    HW228768   5.636   6.012   1.325
 3876SOL     OW28769   6.393   1.884   7.359
 3876SOL    HW128770   6.435   1.806   7.395
 3876SOL    HW228771   0.003   1.956   7.385
 3877SOL     OW28772   6.428   1.930   6.961
 3877SOL    HW128773   6.442   2.009   7.013
 3877SOL    HW228774   6.360   1.882   7.008
 3878SOL     OW28775   6.304   3.676   1.247
 3878SOL    HW128776   6.287   3.625   1.326
 3878SOL    HW228777   6.252   3.756   1.258
 3879SOL     OW28778   0.898   5.578   1.175
 3879SOL    HW128779   0.912   5.570   1.081
 3879SOL    HW228780   0.863   5.493   1.202
 3880SOL     OW28781   3.720   6.141   0.750
 3880SOL    HW128782   3.814   6.157   0.745
 3880SOL    HW228783   3.709   6.050   0.721
 3881SOL     OW28784   5.210   3.305   6.641
 3881SOL    HW128785   5.299   3.320   6.672
 3881SOL    HW228786   5.156   3.363   6.696
 3882SOL     OW28787   2.126   0.823   7.307
 3882SOL    HW128788   2.132   0.912   7.342
 3882SOL    HW228789   2.179   0.824   7.227
 3883SOL     OW28790   0.553   1.235   0.769
 3883SOL    HW128791   0.645   1.219   0.747
 3883SOL    HW228792   0.550   1.327   0.794
 3884SOL     OW28793   0.737   0.701   5.520
 3884SOL    HW128794   0.833   0.698   5.511
 3884SOL    HW228795   0.723   0.713   5.614
 3885SOL     OW28796   1.735   2.943   1.532
 3885SOL    HW128797   1.748   2.855   1.498
 3885SOL    HW228798   1.689   2.931   1.615
 3886SOL     OW28799   6.003   5.506   0.502
 3886SOL    HW128800   5.909   5.498   0.481
 3886SOL    HW228801   6.006   5.514   0.597
 3887SOL     OW28802   0.968   0.715   4.700
 3887SOL    HW128803   1.047   0.766   4.683
 3887SOL    HW228804   0.904   0.779   4.731
 3888SOL     OW28805   6.161   5.040   7.027
 3888SOL    HW128806   6.088   5.032   6.965
 3888SOL    HW228807   6.236   5.005   6.980
 3889SOL     OW28808   4.934   4.219   6.264
 3889SOL    HW128809   4.870   4.171   6.318
 3889SOL    HW228810   5.000   4.154   6.242
 3890SOL     OW28811   3.457   4.135   6.753
 3890SOL    HW128812   3.376   4.156   6.799
 3890SOL    HW228813   3.495   4.220   6.730
 3891SOL     OW28814   4.226   0.515   6.922
 3891SOL    HW128815   4.282   0.467   6.983
 3891SOL    HW228816   4.141   0.472   6.928
 3892SOL     OW28817   0.102   2.952   2.140
 3892SOL    HW128818   0.112   2.859   2.160
 3892SOL    HW228819   0.131   2.997   2.219
 3893SOL     OW28820   0.807   4.293   6.537
 3893SOL    HW128821   0.901   4.279   6.541
 3893SOL    HW228822   0.792   4.375   6.585
 3894SOL     OW28823   1.856   4.203   6.603
 3894SOL    HW128824   1.872   4.142   6.675
 3894SOL    HW228825   1.785   4.164   6.553
 3895SOL     OW28826   5.044   1.746   6.368
 3895SOL    HW128827   5.108   1.781   6.431
 3895SOL    HW228828   4.980   1.817   6.357
 3896SOL     OW28829   4.705   3.104   0.933
 3896SOL    HW128830   4.733   3.014   0.948
 3896SOL    HW228831   4.763   3.137   0.865
 3897SOL     OW28832   6.299   4.007   6.236
 3897SOL    HW128833   6.295   3.987   6.142
 3897SOL    HW228834   6.388   3.983   6.262
 3898SOL     OW28835   0.720   5.038   6.491
 3898SOL    HW128836   0.754   5.090   6.564
 3898SOL    HW228837   0.670   5.101   6.439
 3899SOL     OW28838   2.224   6.144   7.376
 3899SOL    HW128839   2.264   6.059   7.361
 3899SOL    HW228840   2.152   6.149   7.312
 3900SOL     OW28841   6.109   0.221   7.715
 3900SOL    HW128842   6.156   0.139   7.725
 3900SOL    HW228843   6.041   0.218   7.782
 3901SOL     OW28844   1.356   4.905   1.835
 3901SOL    HW128845   1.274   4.953   1.846
 3901SOL    HW228846   1.336   4.816   1.866
 3902SOL     OW28847   5.307   0.558   0.689
 3902SOL    HW128848   5.273   0.501   0.757
 3902SOL    HW228849   5.402   0.552   0.697
 3903SOL     OW28850   1.108   3.424   7.430
 3903SOL    HW128851   1.094   3.495   7.367
 3903SOL    HW228852   1.029   3.370   7.423
 3904SOL     OW28853   2.116   0.414   0.640
 3904SOL    HW128854   2.176   0.488   0.628
 3904SOL    HW228855   2.068   0.409   0.558
 3905SOL     OW28856   5.611   5.016   0.665
 3905SOL    HW128857   5.550   4.944   0.680
 3905SOL    HW228858   5.663   4.987   0.590
 3906SOL     OW28859   3.136   2.746   2.027
 3906SOL    HW128860   3.177   2.821   1.983
 3906SOL    HW228861   3.186   2.670   1.995
 3907SOL     OW28862   0.465   4.214   7.352
 3907SOL    HW128863   0.383   4.243   7.312
 3907SOL    HW228864   0.531   4.229   7.284
 3908SOL     OW28865   4.572   2.519   6.202
 3908SOL    HW128866   4.534   2.499   6.288
 3908SOL    HW228867   4.500   2.504   6.140
 3909SOL     OW28868   0.811   2.046   2.121
 3909SOL    HW128869   0.843   2.034   2.210
 3909SOL    HW228870   0.746   1.976   2.110
 3910SOL     OW28871   3.478   3.953   1.190
 3910SOL    HW128872   3.572   3.964   1.177
 3910SOL    HW228873   3.461   3.861   1.169
 3911SOL     OW28874   4.310   3.691   0.762
 3911SOL    HW128875   4.406   3.699   0.766
 3911SOL    HW228876   4.290   3.622   0.824
 3912SOL     OW28877   1.678   4.716   6.575
 3912SOL    HW128878   1.624   4.733   6.653
 3912SOL    HW228879   1.725   4.636   6.595
 3913SOL     OW28880   1.854   3.571   6.287
 3913SOL    HW128881   1.816   3.625   6.217
 3913SOL    HW228882   1.949   3.586   6.280
 3914SOL     OW28883   1.128   4.869   0.164
 3914SOL    HW128884   1.072   4.796   0.189
 3914SOL    HW228885   1.069   4.932   0.123
 3915SOL     OW28886   3.831   1.020   7.133
 3915SOL    HW128887   3.877   1.054   7.056
 3915SOL    HW228888   3.754   0.975   7.098
 3916SOL     OW28889   2.692   2.322   6.074
 3916SOL    HW128890   2.751   2.310   6.001
 3916SOL    HW228891   2.744   2.304   6.152
 3917SOL     OW28892   0.803   5.321   1.178
 3917SOL    HW128893   0.858   5.252   1.141
 3917SOL    HW228894   0.714   5.285   1.177
 3918SOL     OW28895   3.716   0.387   6.332
 3918SOL    HW128896   3.692   0.451   6.265
 3918SOL    HW228897   3.811   0.379   6.325
 3919SOL     OW28898   0.955   0.814   6.861
 3919SOL    HW128899   0.898   0.833   6.936
 3919SOL    HW228900   1.026   0.878   6.869
 3920SOL     OW28901   4.198   0.667   5.993
 3920SOL    HW128902   4.283   0.708   6.008
 3920SOL    HW228903   4.193   0.597   6.058
 3921SOL     OW28904   5.325   2.615   0.536
 3921SOL    HW128905   5.275   2.659   0.605
 3921SOL    HW228906   5.274   2.536   0.516
 3922SOL     OW28907   5.186   3.436   7.255
 3922SOL    HW128908   5.212   3.488   7.331
 3922SOL    HW228909   5.100   3.401   7.278
 3923SOL     OW28910   0.880   2.890   0.823
 3923SOL    HW128911   0.798   2.876   0.774
 3923SOL    HW228912   0.948   2.885   0.756
 3924SOL     OW28913   5.679   5.837   6.533
 3924SOL    HW128914   5.732   5.880   6.466
 3924SOL    HW228915   5.639   5.910   6.581
 3925SOL     OW28916   3.375   0.967   7.543
 3925SOL    HW128917   3.463   0.999   7.522
 3925SOL    HW228918   3.389   0.879   7.576
 3926SOL     OW28919   5.353   3.064   6.304
 3926SOL    HW128920   5.435   3.044   6.350
 3926SOL    HW228921   5.360   3.016   6.221
 3927SOL     OW28922   5.561   5.446   6.039
 3927SOL    HW128923   5.539   5.358   6.067
 3927SOL    HW228924   5.506   5.461   5.962
 3928SOL     OW28925   3.639   5.149   7.794
 3928SOL    HW128926   3.626   5.168   7.701
 3928SOL    HW228927   3.733   5.132   7.801
 3929SOL     OW28928   4.632   1.619   7.245
 3929SOL    HW128929   4.587   1.535   7.248
 3929SOL    HW228930   4.590   1.672   7.313
 3930SOL     OW28931   0.773   4.504   6.996
 3930SOL    HW128932   0.700   4.538   6.945
 3930SOL    HW228933   0.749   4.521   7.087
 3931SOL     OW28934   0.202   6.444   7.321
 3931SOL    HW128935   0.155   0.056   7.263
 3931SOL    HW228936   0.146   6.437   7.398
 3932SOL     OW28937   1.744   1.597   0.631
 3932SOL    HW128938   1.825   1.555   0.657
 3932SOL    HW228939   1.758   1.622   0.539
 3933SOL     OW28940   1.518   2.589   1.565
 3933SOL    HW128941   1.478   2.665   1.608
 3933SOL    HW228942   1.545   2.532   1.636
 3934SOL     OW28943   0.610   6.369   0.975
 3934SOL    HW128944   0.515   6.374   0.987
 3934SOL    HW228945   0.622   6.300   0.910
 3935SOL     OW28946   1.930   4.019   6.802
 3935SOL    HW128947   1.950   3.938   6.755
 3935SOL    HW228948   1.868   3.993   6.870
 3936SOL     OW28949   1.518   4.906   5.930
 3936SOL    HW128950   1.595   4.952   5.896
 3936SOL    HW228951   1.521   4.819   5.889
 3937SOL     OW28952   3.283   2.177   1.017
 3937SOL    HW128953   3.305   2.178   1.110
 3937SOL    HW228954   3.333   2.251   0.980
 3938SOL     OW28955   4.340   0.772   7.306
 3938SOL    HW128956   4.295   0.744   7.227
 3938SOL    HW228957   4.401   0.700   7.325
 3939SOL     OW28958   4.297   3.905   2.349
 3939SOL    HW128959   4.340   3.949   2.275
 3939SOL    HW228960   4.254   3.829   2.309
 3940SOL     OW28961   3.090   5.806   6.608
 3940SOL    HW128962   3.060   5.733   6.663
 3940SOL    HW228963   3.024   5.813   6.539
 3941SOL     OW28964   5.784   5.562   2.207
 3941SOL    HW128965   5.774   5.519   2.292
 3941SOL    HW228966   5.725   5.515   2.149
 3942SOL     OW28967   1.755   5.722   0.200
 3942SOL    HW128968   1.805   5.652   0.242
 3942SOL    HW228969   1.665   5.690   0.202
 3943SOL     OW28970   3.897   5.197   5.415
 3943SOL    HW128971   3.985   5.232   5.428
 3943SOL    HW228972   3.880   5.144   5.493
 3944SOL     OW28973   3.538   2.059   0.800
 3944SOL    HW128974   3.464   2.113   0.772
 3944SOL    HW228975   3.505   2.009   0.874
 3945SOL     OW28976   1.711   3.149   7.654
 3945SOL    HW128977   1.622   3.134   7.687
 3945SOL    HW228978   1.708   3.238   7.618
 3946SOL     OW28979   0.359   3.085   6.633
 3946SOL    HW128980   0.350   3.096   6.538
 3946SOL    HW228981   0.437   3.135   6.655
 3947SOL     OW28982   3.682   1.505   6.879
 3947SOL    HW128983   3.613   1.488   6.943
 3947SOL    HW228984   3.750   1.550   6.929
 3948SOL     OW28985   5.259   0.991   6.454
 3948SOL    HW128986   5.296   0.934   6.387
 3948SOL    HW228987   5.270   1.080   6.419
 3949SOL     OW28988   3.072   6.110   7.171
 3949SOL    HW128989   3.096   6.062   7.092
 3949SOL    HW228990   3.089   6.048   7.243
 3950SOL     OW28991   2.401   0.182   7.354
 3950SOL    HW128992   2.340   0.252   7.376
 3950SOL    HW228993   2.351   0.101   7.365
 3951SOL     OW28994   1.385   3.979   0.912
 3951SOL    HW128995   1.297   3.945   0.927
 3951SOL    HW228996   1.414   4.010   0.998
 3952SOL     OW28997   0.997   0.771   6.583
 3952SOL    HW128998   0.962   0.783   6.671
 3952SOL    HW228999   1.092   0.778   6.594
 3953SOL     OW29000   1.765   3.438   1.420
 3953SOL    HW129001   1.763   3.509   1.484
 3953SOL    HW229002   1.797   3.362   1.468
 3954SOL     OW29003   2.898   0.543   7.161
 3954SOL    HW129004   2.831   0.607   7.135
 3954SOL    HW229005   2.933   0.577   7.243
 3955SOL     OW29006   2.335   6.077   6.462
 3955SOL    HW129007   2.330   6.145   6.396
 3955SOL    HW229008   2.251   6.031   6.455
 3956SOL     OW29009   2.279   0.410   0.083
 3956SOL    HW129010   2.263   0.473   0.154
 3956SOL    HW229011   2.346   0.351   0.118
 3957SOL     OW29012   2.535   3.550   5.480
 3957SOL    HW129013   2.559   3.508   5.397
 3957SOL    HW229014   2.577   3.496   5.547
 3958SOL     OW29015   2.289   2.745   1.431
 3958SOL    HW129016   2.379   2.741   1.463
 3958SOL    HW229017   2.241   2.685   1.488
 3959SOL     OW29018   0.705   6.290   0.011
 3959SOL    HW129019   0.755   6.209   7.802
 3959SOL    HW229020   0.766   6.349   0.055
 3960SOL     OW29021   5.215   3.924   1.763
 3960SOL    HW129022   5.128   3.885   1.759
 3960SOL    HW229023   5.225   3.951   1.855
 3961SOL     OW29024   4.952   3.741   7.406
 3961SOL    HW129025   5.030   3.797   7.404
 3961SOL    HW229026   4.908   3.764   7.487
 3962SOL     OW29027   1.787   0.664   6.806
 3962SOL    HW129028   1.694   0.652   6.823
 3962SOL    HW229029   1.791   0.715   6.725
 3963SOL     OW29030   1.495   0.562   0.160
 3963SOL    HW129031   1.528   0.518   0.238
 3963SOL    HW229032   1.403   0.536   0.153
 3964SOL     OW29033   4.916   5.011   5.804
 3964SOL    HW129034   4.878   4.941   5.858
 3964SOL    HW229035   4.852   5.082   5.809
 3965SOL     OW29036   4.947   3.608   0.273
 3965SOL    HW129037   4.978   3.607   0.364
 3965SOL    HW229038   5.009   3.554   0.226
 3966SOL     OW29039   0.941   1.435   1.179
 3966SOL    HW129040   0.979   1.442   1.092
 3966SOL    HW229041   0.921   1.342   1.189
 3967SOL     OW29042   5.426   4.994   0.286
 3967SOL    HW129043   5.517   5.025   0.278
 3967SOL    HW229044   5.433   4.916   0.340
 3968SOL     OW29045   5.524   1.935   0.333
 3968SOL    HW129046   5.513   2.007   0.394
 3968SOL    HW229047   5.612   1.948   0.296
 3969SOL     OW29048   1.071   1.446   0.930
 3969SOL    HW129049   1.123   1.469   0.852
 3969SOL    HW229050   1.073   1.351   0.933
 3970SOL     OW29051   0.158   3.213   0.415
 3970SOL    HW129052   0.239   3.167   0.442
 3970SOL    HW229053   0.177   3.305   0.430
 3971SOL     OW29054   2.574   0.797   6.044
 3971SOL    HW129055   2.520   0.845   6.107
 3971SOL    HW229056   2.661   0.838   6.052
 3972SOL     OW29057   0.800   3.685   1.110
 3972SOL    HW129058   0.788   3.608   1.166
 3972SOL    HW229059   0.715   3.697   1.068
 3973SOL     OW29060   4.802   1.691   1.258
 3973SOL    HW129061   4.798   1.654   1.346
 3973SOL    HW229062   4.721   1.741   1.248
 3974SOL     OW29063   0.456   2.731   1.789
 3974SOL    HW129064   0.380   2.781   1.761
 3974SOL    HW229065   0.525   2.797   1.800
 3975SOL     OW29066   4.556   5.020   7.257
 3975SOL    HW129067   4.581   5.048   7.345
 3975SOL    HW229068   4.596   5.085   7.199
 3976SOL     OW29069   4.723   4.033   7.652
 3976SOL    HW129070   4.749   3.942   7.637
 3976SOL    HW229071   4.753   4.052   7.741
 3977SOL     OW29072   5.123   5.938   7.690
 3977SOL    HW129073   5.027   5.940   7.694
 3977SOL    HW229074   5.151   5.984   7.769
 3978SOL     OW29075   3.774   2.537   1.208
 3978SOL    HW129076   3.779   2.527   1.113
 3978SOL    HW229077   3.863   2.520   1.239
 3979SOL     OW29078   3.697   2.479   6.305
 3979SOL    HW129079   3.647   2.530   6.370
 3979SOL    HW229080   3.724   2.400   6.353
 3980SOL     OW29081   0.122   1.450   7.623
 3980SOL    HW129082   0.046   1.416   7.670
 3980SOL    HW229083   0.136   1.389   7.551
 3981SOL     OW29084   6.356   5.431   0.277
 3981SOL    HW129085   6.384   5.509   0.229
 3981SOL    HW229086   6.437   5.394   0.312
 3982SOL     OW29087   4.806   1.010   1.874
 3982SOL    HW129088   4.863   1.070   1.826
 3982SOL    HW229089   4.718   1.047   1.863
 3983SOL     OW29090   4.302   5.122   7.671
 3983SOL    HW129091   4.260   5.119   7.585
 3983SOL    HW229092   4.359   5.045   7.672
 3984SOL     OW29093   5.867   1.849   6.120
 3984SOL    HW129094   5.899   1.888   6.039
 3984SOL    HW229095   5.782   1.812   6.097
 3985SOL     OW29096   4.429   0.054   7.111
 3985SOL    HW129097   4.443   0.127   7.172
 3985SOL    HW229098   4.510   0.048   7.061
 3986SOL     OW29099   4.231   3.117   6.399
 3986SOL    HW129100   4.166   3.175   6.439
 3986SOL    HW229101   4.213   3.031   6.439
 3987SOL     OW29102   1.909   5.617   5.919
 3987SOL    HW129103   1.858   5.697   5.931
 3987SOL    HW229104   1.922   5.611   5.824
 3988SOL     OW29105   0.165   3.541   5.546
 3988SOL    HW129106   0.251   3.519   5.509
 3988SOL    HW229107   0.103   3.497   5.489
 3989SOL     OW29108   4.647   5.640   6.546
 3989SOL    HW129109   4.669   5.623   6.638
 3989SOL    HW229110   4.690   5.569   6.498
 3990SOL     OW29111   1.933   5.088   1.022
 3990SOL    HW129112   1.909   5.053   1.108
 3990SOL    HW229113   1.871   5.160   1.008
 3991SOL     OW29114   1.886   3.260   0.323
 3991SOL    HW129115   1.975   3.240   0.295
 3991SOL    HW229116   1.883   3.230   0.414
 3992SOL     OW29117   0.595   1.805   5.863
 3992SOL    HW129118   0.515   1.801   5.810
 3992SOL    HW229119   0.663   1.768   5.807
 3993SOL     OW29120   2.955   4.864   1.528
 3993SOL    HW129121   2.860   4.857   1.536
 3993SOL    HW229122   2.982   4.778   1.495
 3994SOL     OW29123   2.118   3.743   1.787
 3994SOL    HW129124   2.070   3.771   1.709
 3994SOL    HW229125   2.050   3.711   1.846
 3995SOL     OW29126   0.623   2.315   6.439
 3995SOL    HW129127   0.704   2.265   6.429
 3995SOL    HW229128   0.641   2.374   6.513
 3996SOL     OW29129   5.893   5.528   6.402
 3996SOL    HW129130   5.858   5.544   6.490
 3996SOL    HW229131   5.934   5.611   6.378
 3997SOL     OW29132   0.928   5.505   1.768
 3997SOL    HW129133   0.866   5.577   1.776
 3997SOL    HW229134   0.995   5.523   1.834
 3998SOL     OW29135   4.006   1.011   1.458
 3998SOL    HW129136   4.088   0.962   1.445
 3998SOL    HW229137   3.963   0.966   1.531
 3999SOL     OW29138   5.591   0.220   6.275
 3999SOL    HW129139   5.614   0.309   6.249
 3999SOL    HW229140   5.507   0.203   6.233
 4000SOL     OW29141   3.702   1.751   0.401
 4000SOL    HW129142   3.671   1.750   0.310
 4000SOL    HW229143   3.673   1.835   0.435
 4001SOL     OW29144   2.342   5.548   7.563
 4001SOL    HW129145   2.289   5.590   7.630
 4001SOL    HW229146   2.415   5.608   7.548
 4002SOL     OW29147   2.688   4.899   1.572
 4002SOL    HW129148   2.678   4.965   1.640
 4002SOL    HW229149   2.632   4.929   1.500
 4003SOL     OW29150   6.028   5.015   1.053
 4003SOL    HW129151   6.055   4.924   1.036
 4003SOL    HW229152   5.969   5.008   1.128
 4004SOL     OW29153   1.948   4.818   0.309
 4004SOL    HW129154   1.990   4.851   0.388
 4004SOL    HW229155   2.020   4.805   0.247
 4005SOL     OW29156   0.838   1.439   1.644
 4005SOL    HW129157   0.922   1.480   1.623
 4005SOL    HW229158   0.839   1.428   1.739
 4006SOL     OW29159   2.413   1.923   1.998
 4006SOL    HW129160   2.365   1.841   1.988
 4006SOL    HW229161   2.396   1.951   2.088
 4007SOL     OW29162   1.769   5.251   0.377
 4007SOL    HW129163   1.779   5.176   0.318
 4007SOL    HW229164   1.676   5.254   0.396
 4008SOL     OW29165   2.090   5.587   6.355
 4008SOL    HW129166   2.101   5.593   6.260
 4008SOL    HW229167   2.091   5.678   6.385
 4009SOL     OW29168   0.762   4.212   7.638
 4009SOL    HW129169   0.767   4.141   7.575
 4009SOL    HW229170   0.821   4.186   7.709
 4010SOL     OW29171   5.338   0.757   7.545
 4010SOL    HW129172   5.411   0.774   7.485
 4010SOL    HW229173   5.268   0.725   7.489
 4011SOL     OW29174   0.308   2.077   5.509
 4011SOL    HW129175   0.257   2.060   5.589
 4011SOL    HW229176   0.260   2.147   5.465
 4012SOL     OW29177   2.114   2.978   2.266
 4012SOL    HW129178   2.124   3.067   2.234
 4012SOL    HW229179   2.089   2.927   2.189
 4013SOL     OW29180   6.239   6.149   0.016
 4013SOL    HW129181   6.270   6.164   0.105
 4013SOL    HW229182   6.193   6.065   0.019
 4014SOL     OW29183   2.045   0.708   6.909
 4014SOL    HW129184   1.958   0.678   6.885
 4014SOL    HW229185   2.042   0.803   6.897
 4015SOL     OW29186   2.514   4.451   1.227
 4015SOL    HW129187   2.422   4.430   1.241
 4015SOL    HW229188   2.548   4.377   1.176
 4016SOL     OW29189   4.462   1.424   7.363
 4016SOL    HW129190   4.384   1.370   7.380
 4016SOL    HW229191   4.433   1.514   7.380
 4017SOL     OW29192   2.993   4.247   0.889
 4017SOL    HW129193   2.915   4.285   0.929
 4017SOL    HW229194   2.977   4.152   0.890
 4018SOL     OW29195   5.195   1.045   7.151
 4018SOL    HW129196   5.167   1.108   7.217
 4018SOL    HW229197   5.270   1.087   7.108
 4019SOL     OW29198   5.146   1.269   7.320
 4019SOL    HW129199   5.075   1.268   7.384
 4019SOL    HW229200   5.220   1.310   7.365
 4020SOL     OW29201   5.051   3.592   0.528
 4020SOL    HW129202   5.040   3.668   0.585
 4020SOL    HW229203   5.144   3.570   0.536
 4021SOL     OW29204   3.555   0.420   7.026
 4021SOL    HW129205   3.569   0.341   6.974
 4021SOL    HW229206   3.584   0.492   6.969
 4022SOL     OW29207   4.129   6.436   1.195
 4022SOL    HW129208   4.096   6.376   1.262
 4022SOL    HW229209   4.220   0.002   1.219
 4023SOL     OW29210   3.208   0.935   5.861
 4023SOL    HW129211   3.165   1.017   5.835
 4023SOL    HW229212   3.178   0.871   5.796
 4024SOL     OW29213   3.386   5.057   6.588
 4024SOL    HW129214   3.331   4.994   6.540
 4024SOL    HW229215   3.366   5.040   6.680
 4025SOL     OW29216   3.194   3.733   5.877
 4025SOL    HW129217   3.161   3.692   5.797
 4025SOL    HW229218   3.118   3.737   5.935
 4026SOL     OW29219   4.757   2.596   1.416
 4026SOL    HW129220   4.694   2.600   1.488
 4026SOL    HW229221   4.819   2.528   1.441
 4027SOL     OW29222   2.305   1.988   6.010
 4027SOL    HW129223   2.344   1.926   5.949
 4027SOL    HW229224   2.360   2.066   6.003
 4028SOL     OW29225   0.822   5.203   6.685
 4028SOL    HW129226   0.849   5.179   6.773
 4028SOL    HW229227   0.903   5.208   6.635
 4029SOL     OW29228   2.031   2.856   2.041
 4029SOL    HW129229   2.015   2.762   2.048
 4029SOL    HW229230   1.953   2.891   1.998
 4030SOL     OW29231   4.221   5.990   6.532
 4030SOL    HW129232   4.304   5.943   6.526
 4030SOL    HW229233   4.227   6.040   6.613
 4031SOL     OW29234   2.638   1.444   0.700
 4031SOL    HW129235   2.713   1.385   0.698
 4031SOL    HW229236   2.569   1.396   0.654
 4032SOL     OW29237   5.251   3.797   7.179
 4032SOL    HW129238   5.322   3.854   7.151
 4032SOL    HW229239   5.221   3.835   7.262
 4033SOL     OW29240   4.989   0.933   6.478
 4033SOL    HW129241   4.963   1.012   6.431
 4033SOL    HW229242   5.084   0.940   6.487
 4034SOL     OW29243   1.118   4.279   5.387
 4034SOL    HW129244   1.048   4.340   5.410
 4034SOL    HW229245   1.183   4.333   5.342
 4035SOL     OW29246   0.996   4.139   6.888
 4035SOL    HW129247   1.028   4.055   6.921
 4035SOL    HW229248   1.072   4.197   6.891
 4036SOL     OW29249   3.410   0.997   5.575
 4036SOL    HW129250   3.497   0.964   5.552
 4036SOL    HW229251   3.354   0.919   5.571
 4037SOL     OW29252   2.091   1.369   1.217
 4037SOL    HW129253   2.091   1.383   1.312
 4037SOL    HW229254   2.181   1.344   1.196
 4038SOL     OW29255   2.277   0.576   4.842
 4038SOL    HW129256   2.334   0.543   4.912
 4038SOL    HW229257   2.199   0.521   4.848
 4039SOL     OW29258   2.975   0.318   6.762
 4039SOL    HW129259   2.948   0.250   6.824
 4039SOL    HW229260   3.021   0.382   6.817
 4040SOL     OW29261   2.512   6.089   2.090
 4040SOL    HW129262   2.589   6.085   2.148
 4040SOL    HW229263   2.438   6.084   2.150
 4041SOL     OW29264   3.426   4.038   0.787
 4041SOL    HW129265   3.343   3.991   0.798
 4041SOL    HW229266   3.489   3.987   0.837
 4042SOL     OW29267   3.516   5.889   7.635
 4042SOL    HW129268   3.427   5.875   7.603
 4042SOL    HW229269   3.510   5.968   7.689
 4043SOL     OW29270   2.012   5.591   0.967
 4043SOL    HW129271   1.981   5.533   0.898
 4043SOL    HW229272   2.095   5.553   0.995
 4044SOL     OW29273   1.854   2.928   7.732
 4044SOL    HW129274   1.813   2.929   0.016
 4044SOL    HW229275   1.815   3.002   7.686
 4045SOL     OW29276   5.212   5.972   7.010
 4045SOL    HW129277   5.174   5.972   6.923
 4045SOL    HW229278   5.290   6.028   7.003
 4046SOL     OW29279   5.123   5.440   1.225
 4046SOL    HW129280   5.083   5.399   1.148
 4046SOL    HW229281   5.164   5.520   1.191
 4047SOL     OW29282   1.605   4.450   6.089
 4047SOL    HW129283   1.550   4.461   6.012
 4047SOL    HW229284   1.611   4.538   6.127
 4048SOL     OW29285   4.405   1.278   1.159
 4048SOL    HW129286   4.360   1.216   1.102
 4048SOL    HW229287   4.424   1.353   1.103
 4049SOL     OW29288   4.590   0.640   6.871
 4049SOL    HW129289   4.620   0.570   6.930
 4049SOL    HW229290   4.561   0.710   6.930
 4050SOL     OW29291   1.156   1.749   6.691
 4050SOL    HW129292   1.156   1.734   6.785
 4050SOL    HW229293   1.086   1.812   6.677
 4051SOL     OW29294   2.939   1.361   5.884
 4051SOL    HW129295   2.857   1.322   5.853
 4051SOL    HW229296   2.927   1.370   5.978
 4052SOL     OW29297   2.235   3.281   7.240
 4052SOL    HW129298   2.283   3.353   7.280
 4052SOL    HW229299   2.299   3.240   7.181
 4053SOL     OW29300   1.340   3.342   1.074
 4053SOL    HW129301   1.363   3.434   1.064
 4053SOL    HW229302   1.423   3.299   1.098
 4054SOL     OW29303   1.461   5.303   0.622
 4054SOL    HW129304   1.529   5.238   0.639
 4054SOL    HW229305   1.387   5.276   0.677
 4055SOL     OW29306   3.263   1.248   0.558
 4055SOL    HW129307   3.353   1.215   0.560
 4055SOL    HW229308   3.272   1.343   0.551
 4056SOL     OW29309   1.004   0.111   0.780
 4056SOL    HW129310   1.015   0.020   0.752
 4056SOL    HW229311   0.943   0.107   0.854
 4057SOL     OW29312   5.591   3.126   6.028
 4057SOL    HW129313   5.576   3.202   5.973
 4057SOL    HW229314   5.686   3.116   6.030
 4058SOL     OW29315   6.008   5.526   6.754
 4058SOL    HW129316   6.007   5.431   6.743
 4058SOL    HW229317   5.924   5.554   6.717
 4059SOL     OW29318   4.823   4.929   6.182
 4059SOL    HW129319   4.806   4.851   6.234
 4059SOL    HW229320   4.828   4.898   6.092
 4060SOL     OW29321   0.922   4.844   7.312
 4060SOL    HW129322   0.832   4.811   7.311
 4060SOL    HW229323   0.962   4.803   7.235
 4061SOL     OW29324   5.706   0.672   0.199
 4061SOL    HW129325   5.763   0.709   0.131
 4061SOL    HW229326   5.750   0.591   0.224
 4062SOL     OW29327   3.310   5.284   1.616
 4062SOL    HW129328   3.405   5.291   1.608
 4062SOL    HW229329   3.296   5.203   1.665
 4063SOL     OW29330   4.042   4.640   6.455
 4063SOL    HW129331   3.992   4.661   6.533
 4063SOL    HW229332   3.997   4.684   6.384
 4064SOL     OW29333   0.337   3.230   0.738
 4064SOL    HW129334   0.395   3.303   0.761
 4064SOL    HW229335   0.367   3.202   0.651
 4065SOL     OW29336   0.487   5.170   0.898
 4065SOL    HW129337   0.504   5.250   0.847
 4065SOL    HW229338   0.487   5.199   0.989
 4066SOL     OW29339   3.849   4.212   1.571
 4066SOL    HW129340   3.866   4.305   1.559
 4066SOL    HW229341   3.767   4.196   1.525
 4067SOL     OW29342   1.565   4.644   1.236
 4067SOL    HW129343   1.599   4.620   1.322
 4067SOL    HW229344   1.538   4.736   1.245
 4068SOL     OW29345   6.183   1.303   0.232
 4068SOL    HW129346   6.123   1.367   0.270
 4068SOL    HW229347   6.266   1.351   0.222
 4069SOL     OW29348   0.428   0.295   0.847
 4069SOL    HW129349   0.389   0.349   0.779
 4069SOL    HW229350   0.522   0.301   0.831
 4070SOL     OW29351   3.193   1.922   7.709
 4070SOL    HW129352   3.253   1.967   7.768
 4070SOL    HW229353   3.125   1.887   7.767
 4071SOL     OW29354   2.113   1.669   7.547
 4071SOL    HW129355   2.024   1.689   7.516
 4071SOL    HW229356   2.132   1.583   7.511
 4072SOL     OW29357   3.508   5.603   5.711
 4072SOL    HW129358   3.538   5.605   5.621
 4072SOL    HW229359   3.547   5.680   5.752
 4073SOL     OW29360   1.361   3.920   1.336
 4073SOL    HW129361   1.304   3.862   1.285
 4073SOL    HW229362   1.416   3.963   1.270
 4074SOL     OW29363   2.565   0.939   6.458
 4074SOL    HW129364   2.568   0.858   6.509
 4074SOL    HW229365   2.657   0.964   6.448
 4075SOL     OW29366   0.167   3.647   7.014
 4075SOL    HW129367   0.127   3.645   6.927
 4075SOL    HW229368   0.261   3.644   6.998
 4076SOL     OW29369   3.592   3.538   1.299
 4076SOL    HW129370   3.556   3.570   1.381
 4076SOL    HW229371   3.575   3.444   1.299
 4077SOL     OW29372   6.095   0.851   5.751
 4077SOL    HW129373   6.103   0.847   5.656
 4077SOL    HW229374   6.038   0.778   5.773
 4078SOL     OW29375   0.180   5.522   1.967
 4078SOL    HW129376   0.142   5.568   1.892
 4078SOL    HW229377   0.193   5.590   2.033
 4079SOL     OW29378   1.390   0.579   6.605
 4079SOL    HW129379   1.476   0.554   6.572
 4079SOL    HW229380   1.329   0.517   6.564
 4080SOL     OW29381   6.329   4.842   6.425
 4080SOL    HW129382   6.250   4.850   6.370
 4080SOL    HW229383   6.401   4.866   6.367
 4081SOL     OW29384   5.740   2.452   6.738
 4081SOL    HW129385   5.756   2.489   6.651
 4081SOL    HW229386   5.654   2.486   6.763
 4082SOL     OW29387   6.373   3.743   0.028
 4082SOL    HW129388   6.338   3.822   0.069
 4082SOL    HW229389   6.381   3.681   0.100
 4083SOL     OW29390   0.339   4.331   6.529
 4083SOL    HW129391   0.406   4.397   6.510
 4083SOL    HW229392   0.264   4.357   6.476
 4084SOL     OW29393   5.883   5.735   7.562
 4084SOL    HW129394   5.860   5.702   7.649
 4084SOL    HW229395   5.803   5.777   7.531
 4085SOL     OW29396   6.266   2.552   0.996
 4085SOL    HW129397   6.212   2.606   1.054
 4085SOL    HW229398   6.338   2.522   1.051
 4086SOL     OW29399   3.846   6.438   7.408
 4086SOL    HW129400   3.878   6.368   7.351
 4086SOL    HW229401   3.763   0.017   7.370
 4087SOL     OW29402   5.546   3.669   6.011
 4087SOL    HW129403   5.469   3.694   5.961
 4087SOL    HW229404   5.519   3.589   6.058
 4088SOL     OW29405   4.055   4.277   7.582
 4088SOL    HW129406   4.134   4.241   7.540
 4088SOL    HW229407   3.985   4.220   7.551
 4089SOL     OW29408   3.748   2.964   5.620
 4089SOL    HW129409   3.746   2.877   5.661
 4089SOL    HW229410   3.659   2.997   5.630
 4090SOL     OW29411   6.289   2.641   6.394
 4090SOL    HW129412   6.348   2.675   6.327
 4090SOL    HW229413   6.307   2.695   6.471
 4091SOL     OW29414   5.734   4.697   2.045
 4091SOL    HW129415   5.683   4.616   2.041
 4091SOL    HW229416   5.693   4.754   1.980
 4092SOL     OW29417   4.382   2.534   7.240
 4092SOL    HW129418   4.357   2.454   7.194
 4092SOL    HW229419   4.468   2.514   7.278
 4093SOL     OW29420   3.577   4.381   6.705
 4093SOL    HW129421   3.617   4.356   6.621
 4093SOL    HW229422   3.589   4.476   6.709
 4094SOL     OW29423   3.652   6.434   0.045
 4094SOL    HW129424   3.664   6.354   0.095
 4094SOL    HW229425   3.727   6.438   7.788
 4095SOL     OW29426   5.140   3.303   7.554
 4095SOL    HW129427   5.074   3.315   7.486
 4095SOL    HW229428   5.098   3.247   7.619
 4096SOL     OW29429   5.767   2.456   7.486
 4096SOL    HW129430   5.856   2.422   7.494
 4096SOL    HW229431   5.716   2.382   7.451
 4097SOL     OW29432   4.064   0.305   2.122
 4097SOL    HW129433   3.995   0.239   2.128
 4097SOL    HW229434   4.049   0.362   2.197
 4098SOL     OW29435   4.914   4.045   2.209
 4098SOL    HW129436   4.978   4.013   2.273
 4098SOL    HW229437   4.963   4.106   2.154
 4099SOL     OW29438   2.959   2.992   7.420
 4099SOL    HW129439   2.896   3.026   7.484
 4099SOL    HW229440   2.950   3.048   7.344
 4100SOL     OW29441   4.836   3.984   1.624
 4100SOL    HW129442   4.890   3.922   1.673
 4100SOL    HW229443   4.747   3.965   1.652
 4101SOL     OW29444   5.157   6.091   0.548
 4101SOL    HW129445   5.109   6.143   0.484
 4101SOL    HW229446   5.165   6.005   0.508
 4102SOL     OW29447   4.947   0.229   7.407
 4102SOL    HW129448   4.930   0.308   7.355
 4102SOL    HW229449   5.021   0.253   7.463
 4103SOL     OW29450   0.966   3.826   2.036
 4103SOL    HW129451   0.964   3.913   1.994
 4103SOL    HW229452   1.027   3.776   1.982
 4104SOL     OW29453   6.067   5.923   7.494
 4104SOL    HW129454   6.108   5.900   7.411
 4104SOL    HW229455   6.002   5.855   7.508
 4105SOL     OW29456   4.454   5.840   6.524
 4105SOL    HW129457   4.512   5.765   6.531
 4105SOL    HW229458   4.481   5.884   6.443
 4106SOL     OW29459   5.567   2.440   2.027
 4106SOL    HW129460   5.569   2.521   2.077
 4106SOL    HW229461   5.484   2.398   2.052
 4107SOL     OW29462   5.599   3.011   6.407
 4107SOL    HW129463   5.617   3.076   6.475
 4107SOL    HW229464   5.627   2.928   6.446
 4108SOL     OW29465   5.850   0.313   1.386
 4108SOL    HW129466   5.859   0.407   1.401
 4108SOL    HW229467   5.870   0.273   1.470
 4109SOL     OW29468   4.044   1.229   1.177
 4109SOL    HW129469   4.088   1.145   1.189
 4109SOL    HW229470   3.977   1.230   1.245
 4110SOL     OW29471   0.950   3.060   6.085
 4110SOL    HW129472   0.986   3.134   6.037
 4110SOL    HW229473   0.901   3.010   6.019
 4111SOL     OW29474   3.834   4.851   0.783
 4111SOL    HW129475   3.756   4.807   0.750
 4111SOL    HW229476   3.834   4.833   0.877
 4112SOL     OW29477   0.013   5.050   2.406
 4112SOL    HW129478   0.094   5.015   2.367
 4112SOL    HW229479   6.391   5.000   2.364
 4113SOL     OW29480   5.000   4.748   1.072
 4113SOL    HW129481   5.095   4.754   1.072
 4113SOL    HW229482   4.977   4.742   0.979
 4114SOL     OW29483   3.191   0.725   1.038
 4114SOL    HW129484   3.156   0.780   1.108
 4114SOL    HW229485   3.124   0.659   1.022
 4115SOL     OW29486   0.987   5.086   7.600
 4115SOL    HW129487   1.002   4.993   7.581
 4115SOL    HW229488   0.973   5.088   7.695
 4116SOL     OW29489   0.074   2.870   0.651
 4116SOL    HW129490   6.445   2.914   0.615
 4116SOL    HW229491   0.040   2.790   0.692
 4117SOL     OW29492   5.195   3.723   2.428
 4117SOL    HW129493   5.151   3.652   2.381
 4117SOL    HW229494   5.151   3.802   2.398
 4118SOL     OW29495   0.313   0.373   7.501
 4118SOL    HW129496   0.356   0.288   7.494
 4118SOL    HW229497   0.236   0.356   7.555
 4119SOL     OW29498   0.456   1.923   6.477
 4119SOL    HW129499   0.369   1.884   6.476
 4119SOL    HW229500   0.440   2.017   6.489
 4120SOL     OW29501   3.680   4.828   0.460
 4120SOL    HW129502   3.775   4.816   0.457
 4120SOL    HW229503   3.655   4.797   0.547
 4121SOL     OW29504   3.691   6.163   0.124
 4121SOL    HW129505   3.699   6.101   0.197
 4121SOL    HW229506   3.772   6.152   0.074
 4122SOL     OW29507   1.398   2.910   6.026
 4122SOL    HW129508   1.339   2.980   5.999
 4122SOL    HW229509   1.442   2.883   5.945
 4123SOL     OW29510   4.882   1.371   0.061
 4123SOL    HW129511   4.789   1.387   0.041
 4123SOL    HW229512   4.925   1.454   0.045
 4124SOL     OW29513   1.893   2.315   5.561
 4124SOL    HW129514   1.907   2.223   5.585
 4124SOL    HW229515   1.823   2.345   5.618
 4125SOL     OW29516   0.953   5.651   6.727
 4125SOL    HW129517   1.008   5.693   6.661
 4125SOL    HW229518   0.930   5.567   6.688
 4126SOL     OW29519   4.989   4.045   0.461
 4126SOL    HW129520   4.988   4.085   0.549
 4126SOL    HW229521   4.919   3.980   0.464
 4127SOL     OW29522   4.652   1.004   1.375
 4127SOL    HW129523   4.645   1.033   1.284
 4127SOL    HW229524   4.630   0.911   1.372
 4128SOL     OW29525   5.375   2.182   7.508
 4128SOL    HW129526   5.460   2.206   7.472
 4128SOL    HW229527   5.328   2.264   7.517
 4129SOL     OW29528   4.893   4.761   0.322
 4129SOL    HW129529   4.927   4.694   0.262
 4129SOL    HW229530   4.877   4.837   0.267
 4130SOL     OW29531   1.644   2.964   1.265
 4130SOL    HW129532   1.679   2.883   1.230
 4130SOL    HW229533   1.674   2.966   1.356
 4131SOL     OW29534   0.298   5.708   5.702
 4131SOL    HW129535   0.207   5.715   5.675
 4131SOL    HW229536   0.321   5.616   5.685
 4132SOL     OW29537   5.524   5.414   0.909
 4132SOL    HW129538   5.532   5.321   0.931
 4132SOL    HW229539   5.581   5.426   0.834
 4133SOL     OW29540   2.373   1.315   1.233
 4133SOL    HW129541   2.417   1.322   1.318
 4133SOL    HW229542   2.438   1.348   1.171
 4134SOL     OW29543   5.486   6.333   7.131
 4134SOL    HW129544   5.477   6.269   7.060
 4134SOL    HW229545   5.559   6.302   7.184
 4135SOL     OW29546   0.983   0.364   1.243
 4135SOL    HW129547   0.952   0.319   1.321
 4135SOL    HW229548   1.042   0.301   1.201
 4136SOL     OW29549   3.667   1.550   6.610
 4136SOL    HW129550   3.660   1.536   6.705
 4136SOL    HW229551   3.753   1.515   6.587
 4137SOL     OW29552   6.269   1.492   7.458
 4137SOL    HW129553   6.188   1.541   7.462
 4137SOL    HW229554   6.337   1.557   7.439
 4138SOL     OW29555   3.378   4.501   1.363
 4138SOL    HW129556   3.457   4.502   1.309
 4138SOL    HW229557   3.373   4.590   1.399
 4139SOL     OW29558   5.448   3.067   1.020
 4139SOL    HW129559   5.536   3.046   1.050
 4139SOL    HW229560   5.460   3.143   0.963
 4140SOL     OW29561   2.792   1.893   0.483
 4140SOL    HW129562   2.770   1.982   0.458
 4140SOL    HW229563   2.846   1.902   0.562
 4141SOL     OW29564   4.189   1.151   7.690
 4141SOL    HW129565   4.265   1.094   7.679
 4141SOL    HW229566   4.135   1.106   7.755
 4142SOL     OW29567   0.818   1.417   0.014
 4142SOL    HW129568   0.839   1.501   7.776
 4142SOL    HW229569   0.732   1.394   7.782
 4143SOL     OW29570   5.308   2.624   2.060
 4143SOL    HW129571   5.299   2.678   2.138
 4143SOL    HW229572   5.235   2.562   2.065
 4144SOL     OW29573   6.384   1.142   5.836
 4144SOL    HW129574   0.023   1.122   5.868
 4144SOL    HW229575   6.326   1.125   5.910
 4145SOL     OW29576   1.194   2.071   6.155
 4145SOL    HW129577   1.192   2.024   6.071
 4145SOL    HW229578   1.212   2.162   6.130
 4146SOL     OW29579   0.273   4.752   2.474
 4146SOL    HW129580   0.256   4.820   2.409
 4146SOL    HW229581   0.245   4.790   2.557
 4147SOL     OW29582   1.961   5.118   2.350
 4147SOL    HW129583   1.982   5.050   2.286
 4147SOL    HW229584   2.044   5.134   2.396
 4148SOL     OW29585   2.111   4.260   6.525
 4148SOL    HW129586   2.021   4.239   6.550
 4148SOL    HW229587   2.166   4.214   6.589
 4149SOL     OW29588   1.746   5.016   6.838
 4149SOL    HW129589   1.761   4.968   6.919
 4149SOL    HW229590   1.756   5.108   6.862
 4150SOL     OW29591   5.219   4.804   7.392
 4150SOL    HW129592   5.132   4.813   7.430
 4150SOL    HW229593   5.274   4.770   7.463
 4151SOL     OW29594   2.766   2.481   5.213
 4151SOL    HW129595   2.768   2.503   5.306
 4151SOL    HW229596   2.844   2.522   5.177
 4152SOL     OW29597   2.725   1.107   7.183
 4152SOL    HW129598   2.777   1.187   7.174
 4152SOL    HW229599   2.771   1.042   7.130
 4153SOL     OW29600   3.610   6.305   0.554
 4153SOL    HW129601   3.651   6.250   0.620
 4153SOL    HW229602   3.678   6.368   0.530
 4154SOL     OW29603   2.563   4.534   5.964
 4154SOL    HW129604   2.470   4.530   5.942
 4154SOL    HW229605   2.582   4.448   6.002
 4155SOL     OW29606   3.271   1.606   6.506
 4155SOL    HW129607   3.344   1.654   6.546
 4155SOL    HW229608   3.247   1.540   6.571
 4156SOL     OW29609   0.496   4.306   7.605
 4156SOL    HW129610   0.491   4.277   7.514
 4156SOL    HW229611   0.583   4.278   7.634
 4157SOL     OW29612   3.147   4.038   0.192
 4157SOL    HW129613   3.156   3.973   0.262
 4157SOL    HW229614   3.233   4.040   0.150
 4158SOL     OW29615   1.106   5.786   6.548
 4158SOL    HW129616   1.129   5.878   6.558
 4158SOL    HW229617   1.177   5.750   6.495
 4159SOL     OW29618   4.473   5.893   2.034
 4159SOL    HW129619   4.424   5.974   2.024
 4159SOL    HW229620   4.409   5.829   2.063
 4160SOL     OW29621   0.187   3.209   0.110
 4160SOL    HW129622   0.202   3.299   0.139
 4160SOL    HW229623   0.164   3.161   0.189
 4161SOL     OW29624   4.181   0.216   0.710
 4161SOL    HW129625   4.256   0.214   0.769
 4161SOL    HW229626   4.196   0.293   0.654
 4162SOL     OW29627   3.523   5.299   5.165
 4162SOL    HW129628   3.437   5.341   5.169
 4162SOL    HW229629   3.505   5.209   5.138
 4163SOL     OW29630   3.181   3.578   6.538
 4163SOL    HW129631   3.183   3.653   6.597
 4163SOL    HW229632   3.090   3.574   6.508
 4164SOL     OW29633   5.608   5.175   7.145
 4164SOL    HW129634   5.546   5.192   7.216
 4164SOL    HW229635   5.598   5.081   7.126
 4165SOL     OW29636   0.507   5.016   6.145
 4165SOL    HW129637   0.513   5.065   6.062
 4165SOL    HW229638   0.446   4.945   6.126
 4166SOL     OW29639   6.133   4.028   7.630
 4166SOL    HW129640   6.183   4.024   7.548
 4166SOL    HW229641   6.087   4.112   7.626
 4167SOL     OW29642   3.276   1.518   0.525
 4167SOL    HW129643   3.325   1.581   0.579
 4167SOL    HW229644   3.299   1.540   0.435
 4168SOL     OW29645   6.318   2.085   6.090
 4168SOL    HW129646   6.328   1.990   6.090
 4168SOL    HW229647   6.236   2.101   6.136
 4169SOL     OW29648   5.668   2.371   1.043
 4169SOL    HW129649   5.709   2.284   1.044
 4169SOL    HW229650   5.730   2.427   0.997
 4170SOL     OW29651   3.120   5.374   6.926
 4170SOL    HW129652   3.089   5.387   7.015
 4170SOL    HW229653   3.040   5.366   6.874
 4171SOL     OW29654   0.782   5.461   7.669
 4171SOL    HW129655   0.871   5.495   7.682
 4171SOL    HW229656   0.745   5.517   7.600
 4172SOL     OW29657   2.782   3.304   5.997
 4172SOL    HW129658   2.742   3.258   5.922
 4172SOL    HW229659   2.708   3.342   6.044
 4173SOL     OW29660   5.021   4.684   6.879
 4173SOL    HW129661   5.045   4.687   6.972
 4173SOL    HW229662   5.089   4.630   6.839
 4174SOL     OW29663   5.917   3.320   6.322
 4174SOL    HW129664   5.827   3.315   6.292
 4174SOL    HW229665   5.945   3.229   6.332
 4175SOL     OW29666   3.943   0.090   1.686
 4175SOL    HW129667   4.027   0.050   1.664
 4175SOL    HW229668   3.924   0.059   1.774
 4176SOL     OW29669   4.535   3.167   0.358
 4176SOL    HW129670   4.464   3.106   0.339
 4176SOL    HW229671   4.545   3.164   0.453
 4177SOL     OW29672   5.889   1.949   5.157
 4177SOL    HW129673   5.915   2.039   5.173
 4177SOL    HW229674   5.970   1.899   5.160
 4178SOL     OW29675   3.358   5.322   6.113
 4178SOL    HW129676   3.345   5.234   6.147
 4178SOL    HW229677   3.270   5.357   6.102
 4179SOL     OW29678   5.385   0.625   1.004
 4179SOL    HW129679   5.347   0.704   1.042
 4179SOL    HW229680   5.479   0.643   1.003
 4180SOL     OW29681   4.171   3.158   5.761
 4180SOL    HW129682   4.139   3.150   5.851
 4180SOL    HW229683   4.091   3.154   5.708
 4181SOL     OW29684   2.378   2.336   2.018
 4181SOL    HW129685   2.291   2.332   2.058
 4181SOL    HW229686   2.397   2.429   2.010
 4182SOL     OW29687   4.979   3.830   6.873
 4182SOL    HW129688   4.960   3.776   6.949
 4182SOL    HW229689   4.913   3.899   6.875
 4183SOL     OW29690   5.549   3.337   7.452
 4183SOL    HW129691   5.474   3.302   7.405
 4183SOL    HW229692   5.557   3.427   7.419
 4184SOL     OW29693   5.045   0.792   0.916
 4184SOL    HW129694   5.077   0.797   0.826
 4184SOL    HW229695   5.124   0.790   0.970
 4185SOL     OW29696   0.662   5.785   6.310
 4185SOL    HW129697   0.630   5.699   6.337
 4185SOL    HW229698   0.757   5.779   6.318
 4186SOL     OW29699   6.282   4.273   1.650
 4186SOL    HW129700   6.291   4.332   1.724
 4186SOL    HW229701   6.220   4.206   1.680
 4187SOL     OW29702   1.941   4.039   7.414
 4187SOL    HW129703   1.864   4.093   7.397
 4187SOL    HW229704   1.916   3.982   7.486
 4188SOL     OW29705   4.064   4.993   2.124
 4188SOL    HW129706   4.035   4.902   2.126
 4188SOL    HW229707   4.155   4.991   2.154
 4189SOL     OW29708   6.097   1.559   0.694
 4189SOL    HW129709   6.065   1.613   0.621
 4189SOL    HW229710   6.100   1.470   0.658
 4190SOL     OW29711   3.939   5.512   5.435
 4190SOL    HW129712   3.863   5.474   5.390
 4190SOL    HW229713   3.904   5.589   5.480
 4191SOL     OW29714   5.861   3.745   0.879
 4191SOL    HW129715   5.935   3.694   0.914
 4191SOL    HW229716   5.787   3.720   0.935
 4192SOL     OW29717   2.489   2.145   1.860
 4192SOL    HW129718   2.454   2.218   1.912
 4192SOL    HW229719   2.471   2.067   1.913
 4193SOL     OW29720   2.846   3.671   6.731
 4193SOL    HW129721   2.884   3.739   6.676
 4193SOL    HW229722   2.810   3.718   6.807
 4194SOL     OW29723   4.333   3.580   7.248
 4194SOL    HW129724   4.346   3.632   7.168
 4194SOL    HW229725   4.252   3.614   7.285
 4195SOL     OW29726   2.513   0.991   1.323
 4195SOL    HW129727   2.564   0.910   1.316
 4195SOL    HW229728   2.578   1.058   1.344
 4196SOL     OW29729   2.241   4.429   1.242
 4196SOL    HW129730   2.181   4.365   1.204
 4196SOL    HW229731   2.187   4.506   1.257
 4197SOL     OW29732   0.790   2.295   1.494
 4197SOL    HW129733   0.872   2.341   1.474
 4197SOL    HW229734   0.771   2.319   1.585
 4198SOL     OW29735   3.819   0.766   5.670
 4198SOL    HW129736   3.759   0.800   5.604
 4198SOL    HW229737   3.886   0.834   5.680
 4199SOL     OW29738   5.072   1.666   1.208
 4199SOL    HW129739   4.980   1.674   1.234
 4199SOL    HW229740   5.121   1.676   1.290
 4200SOL     OW29741   6.371   3.526   0.495
 4200SOL    HW129742   6.360   3.501   0.587
 4200SOL    HW229743   6.323   3.608   0.486
 4201SOL     OW29744   5.100   6.326   0.935
 4201SOL    HW129745   5.028   6.317   0.997
 4201SOL    HW229746   5.098   6.245   0.884
 4202SOL     OW29747   1.465   0.483   7.095
 4202SOL    HW129748   1.506   0.408   7.053
 4202SOL    HW229749   1.537   0.543   7.114
 4203SOL     OW29750   5.699   0.668   5.888
 4203SOL    HW129751   5.788   0.672   5.854
 4203SOL    HW229752   5.688   0.577   5.917
 4204SOL     OW29753   0.911   3.598   6.215
 4204SOL    HW129754   0.895   3.546   6.294
 4204SOL    HW229755   0.904   3.535   6.143
 4205SOL     OW29756   2.853   2.282   6.296
 4205SOL    HW129757   2.931   2.227   6.307
 4205SOL    HW229758   2.794   2.255   6.367
 4206SOL     OW29759   4.748   4.930   1.842
 4206SOL    HW129760   4.817   4.988   1.872
 4206SOL    HW229761   4.719   4.884   1.921
 4207SOL     OW29762   1.943   3.830   1.306
 4207SOL    HW129763   2.037   3.816   1.318
 4207SOL    HW229764   1.920   3.776   1.231
 4208SOL     OW29765   3.065   6.298   0.949
 4208SOL    HW129766   3.038   6.272   0.861
 4208SOL    HW229767   3.059   6.394   0.948
 4209SOL     OW29768   5.612   4.603   6.317
 4209SOL    HW129769   5.579   4.514   6.302
 4209SOL    HW229770   5.558   4.637   6.388
 4210SOL     OW29771   3.714   0.037   1.061
 4210SOL    HW129772   3.700   0.091   1.139
 4210SOL    HW229773   3.636   0.049   1.008
 4211SOL     OW29774   3.837   0.394   1.186
 4211SOL    HW129775   3.903   0.379   1.253
 4211SOL    HW229776   3.769   0.330   1.205
 4212SOL     OW29777   3.003   0.697   6.803
 4212SOL    HW129778   3.039   0.636   6.867
 4212SOL    HW229779   3.034   0.665   6.719
 4213SOL     OW29780   2.574   5.164   6.204
 4213SOL    HW129781   2.565   5.181   6.110
 4213SOL    HW229782   2.532   5.240   6.246
 4214SOL     OW29783   4.473   3.534   1.129
 4214SOL    HW129784   4.426   3.616   1.143
 4214SOL    HW229785   4.407   3.466   1.143
 4215SOL     OW29786   5.800   3.713   7.499
 4215SOL    HW129787   5.821   3.684   7.410
 4215SOL    HW229788   5.714   3.753   7.491
 4216SOL     OW29789   5.710   1.572   7.584
 4216SOL    HW129790   5.631   1.546   7.631
 4216SOL    HW229791   5.780   1.566   7.650
 4217SOL     OW29792   5.860   3.364   6.587
 4217SOL    HW129793   5.885   3.359   6.495
 4217SOL    HW229794   5.807   3.443   6.594
 4218SOL     OW29795   1.762   2.431   6.521
 4218SOL    HW129796   1.825   2.426   6.593
 4218SOL    HW229797   1.814   2.413   6.442
 4219SOL     OW29798   4.160   5.204   0.904
 4219SOL    HW129799   4.116   5.265   0.963
 4219SOL    HW229800   4.090   5.160   0.858
 4220SOL     OW29801   2.979   5.768   7.000
 4220SOL    HW129802   3.046   5.833   6.981
 4220SOL    HW229803   2.983   5.708   6.926
 4221SOL     OW29804   4.854   2.637   1.163
 4221SOL    HW129805   4.850   2.552   1.120
 4221SOL    HW229806   4.816   2.621   1.250
 4222SOL     OW29807   3.429   3.823   7.013
 4222SOL    HW129808   3.500   3.884   7.033
 4222SOL    HW229809   3.433   3.812   6.918
 4223SOL     OW29810   1.222   5.368   7.337
 4223SOL    HW129811   1.308   5.325   7.335
 4223SOL    HW229812   1.235   5.449   7.288
 4224SOL     OW29813   6.339   4.274   7.696
 4224SOL    HW129814   6.400   4.312   7.759
 4224SOL    HW229815   6.380   4.190   7.671
 4225SOL     OW29816   3.840   6.329   6.125
 4225SOL    HW129817   3.865   6.247   6.081
 4225SOL    HW229818   3.816   6.303   6.214
 4226SOL     OW29819   2.149   0.211   6.116
 4226SOL    HW129820   2.168   0.252   6.200
 4226SOL    HW229821   2.235   0.184   6.082
 4227SOL     OW29822   3.617   2.978   0.948
 4227SOL    HW129823   3.521   2.977   0.952
 4227SOL    HW229824   3.640   2.893   0.910
 4228SOL     OW29825   5.337   4.298   0.500
 4228SOL    HW129826   5.412   4.326   0.447
 4228SOL    HW229827   5.311   4.214   0.462
 4229SOL     OW29828   3.342   3.832   7.748
 4229SOL    HW129829   3.358   3.915   7.793
 4229SOL    HW229830   3.276   3.788   7.802
 4230SOL     OW29831   5.085   4.183   7.451
 4230SOL    HW129832   5.129   4.222   7.375
 4230SOL    HW229833   5.023   4.250   7.479
 4231SOL     OW29834   1.349   4.574   0.243
 4231SOL    HW129835   1.442   4.587   0.223
 4231SOL    HW229836   1.335   4.623   0.323
 4232SOL     OW29837   2.286   5.611   0.215
 4232SOL    HW129838   2.261   5.523   0.241
 4232SOL    HW229839   2.257   5.618   0.124
 4233SOL     OW29840   5.886   2.659   1.599
 4233SOL    HW129841   5.981   2.649   1.599
 4233SOL    HW229842   5.871   2.743   1.554
 4234SOL     OW29843   4.654   4.589   1.467
 4234SOL    HW129844   4.688   4.629   1.547
 4234SOL    HW229845   4.715   4.616   1.398
 4235SOL     OW29846   2.291   2.822   1.743
 4235SOL    HW129847   2.299   2.727   1.754
 4235SOL    HW229848   2.197   2.839   1.743
 4236SOL     OW29849   2.173   0.784   0.858
 4236SOL    HW129850   2.189   0.866   0.810
 4236SOL    HW229851   2.191   0.807   0.950
 4237SOL     OW29852   0.256   0.924   7.048
 4237SOL    HW129853   0.299   0.848   7.008
 4237SOL    HW229854   0.165   0.897   7.058
 4238SOL     OW29855   1.215   3.771   6.378
 4238SOL    HW129856   1.293   3.798   6.331
 4238SOL    HW229857   1.243   3.762   6.469
 4239SOL     OW29858   5.081   1.910   1.546
 4239SOL    HW129859   5.104   1.996   1.580
 4239SOL    HW229860   4.985   1.909   1.545
 4240SOL     OW29861   4.738   4.511   0.183
 4240SOL    HW129862   4.829   4.525   0.158
 4240SOL    HW229863   4.688   4.572   0.129
 4241SOL     OW29864   5.701   2.107   7.619
 4241SOL    HW129865   5.699   2.014   7.598
 4241SOL    HW229866   5.678   2.151   7.537
 4242SOL     OW29867   1.138   1.147   6.264
 4242SOL    HW129868   1.155   1.194   6.346
 4242SOL    HW229869   1.105   1.062   6.292
 4243SOL     OW29870   2.784   5.322   1.357
 4243SOL    HW129871   2.776   5.389   1.290
 4243SOL    HW229872   2.835   5.252   1.314
 4244SOL     OW29873   4.572   2.166   1.407
 4244SOL    HW129874   4.498   2.198   1.458
 4244SOL    HW229875   4.591   2.079   1.443
 4245SOL     OW29876   2.121   3.217   0.707
 4245SOL    HW129877   2.143   3.225   0.800
 4245SOL    HW229878   2.150   3.129   0.684
 4246SOL     OW29879   3.430   4.060   5.512
 4246SOL    HW129880   3.364   4.117   5.552
 4246SOL    HW229881   3.478   4.024   5.587
 4247SOL     OW29882   3.960   4.036   7.217
 4247SOL    HW129883   3.942   4.056   7.125
 4247SOL    HW229884   4.022   4.103   7.245
 4248SOL     OW29885   3.679   2.727   0.839
 4248SOL    HW129886   3.702   2.737   0.746
 4248SOL    HW229887   3.733   2.654   0.869
 4249SOL     OW29888   4.030   0.533   7.716
 4249SOL    HW129889   3.981   0.596   7.770
 4249SOL    HW229890   4.029   0.572   7.628
 4250SOL     OW29891   3.894   0.314   0.018
 4250SOL    HW129892   3.946   0.392   0.000
 4250SOL    HW229893   3.840   0.302   7.743
 4251SOL     OW29894   1.765   5.180   1.638
 4251SOL    HW129895   1.722   5.119   1.698
 4251SOL    HW229896   1.811   5.242   1.695
 4252SOL     OW29897   3.928   5.151   5.785
 4252SOL    HW129898   3.916   5.067   5.740
 4252SOL    HW229899   3.874   5.144   5.864
 4253SOL     OW29900   3.800   2.612   6.094
 4253SOL    HW129901   3.767   2.565   6.171
 4253SOL    HW229902   3.723   2.624   6.039
 4254SOL     OW29903   1.046   1.646   0.280
 4254SOL    HW129904   1.077   1.556   0.293
 4254SOL    HW229905   1.124   1.694   0.252
 4255SOL     OW29906   0.350   4.424   1.605
 4255SOL    HW129907   0.372   4.334   1.628
 4255SOL    HW229908   0.384   4.435   1.516
 4256SOL     OW29909   2.368   3.804   0.622
 4256SOL    HW129910   2.438   3.776   0.681
 4256SOL    HW229911   2.358   3.731   0.561
 4257SOL     OW29912   0.003   0.550   7.315
 4257SOL    HW129913   6.429   0.466   7.356
 4257SOL    HW229914   6.441   0.614   7.386
 4258SOL     OW29915   0.394   1.694   0.816
 4258SOL    HW129916   0.381   1.783   0.783
 4258SOL    HW229917   0.403   1.705   0.911
 4259SOL     OW29918   4.857   4.394   7.475
 4259SOL    HW129919   4.779   4.421   7.523
 4259SOL    HW229920   4.887   4.474   7.432
 4260SOL     OW29921   6.128   0.321   2.101
 4260SOL    HW129922   6.073   0.372   2.042
 4260SOL    HW229923   6.160   0.386   2.165
 4261SOL     OW29924   1.922   1.114   7.739
 4261SOL    HW129925   1.992   1.120   7.673
 4261SOL    HW229926   1.929   1.196   7.788
 4262SOL     OW29927   4.543   1.166   1.564
 4262SOL    HW129928   4.542   1.128   1.651
 4262SOL    HW229929   4.586   1.100   1.509
 4263SOL     OW29930   1.422   6.022   6.547
 4263SOL    HW129931   1.387   6.064   6.626
 4263SOL    HW229932   1.447   5.934   6.575
 4264SOL     OW29933   4.413   3.484   6.645
 4264SOL    HW129934   4.379   3.566   6.608
 4264SOL    HW229935   4.387   3.486   6.737
 4265SOL     OW29936   4.466   5.261   6.210
 4265SOL    HW129937   4.504   5.248   6.123
 4265SOL    HW229938   4.535   5.233   6.270
 4266SOL     OW29939   2.943   0.337   6.494
 4266SOL    HW129940   2.970   0.323   6.585
 4266SOL    HW229941   3.022   0.319   6.442
 4267SOL     OW29942   0.710   0.332   0.833
 4267SOL    HW129943   0.757   0.337   0.750
 4267SOL    HW229944   0.760   0.387   0.893
 4268SOL     OW29945   4.489   4.115   1.476
 4268SOL    HW129946   4.421   4.142   1.414
 4268SOL    HW229947   4.441   4.075   1.549
 4269SOL     OW29948   1.616   6.325   1.156
 4269SOL    HW129949   1.618   6.325   1.252
 4269SOL    HW229950   1.658   6.243   1.132
 4270SOL     OW29951   3.304   6.011   2.072
 4270SOL    HW129952   3.330   5.943   2.135
 4270SOL    HW229953   3.210   6.021   2.084
 4271SOL     OW29954   2.243   2.493   0.766
 4271SOL    HW129955   2.219   2.428   0.700
 4271SOL    HW229956   2.227   2.577   0.722
 4272SOL     OW29957   4.677   1.602   5.720
 4272SOL    HW129958   4.765   1.607   5.759
 4272SOL    HW229959   4.658   1.509   5.718
 4273SOL     OW29960   0.251   3.965   6.861
 4273SOL    HW129961   0.270   3.991   6.951
 4273SOL    HW229962   0.194   4.035   6.827
 4274SOL     OW29963   5.621   3.674   5.266
 4274SOL    HW129964   5.648   3.611   5.200
 4274SOL    HW229965   5.635   3.630   5.350
 4275SOL     OW29966   4.313   3.964   0.713
 4275SOL    HW129967   4.304   3.873   0.741
 4275SOL    HW229968   4.239   3.979   0.654
 4276SOL     OW29969   1.763   5.695   6.533
 4276SOL    HW129970   1.789   5.749   6.459
 4276SOL    HW229971   1.673   5.722   6.552
 4277SOL     OW29972   0.771   3.451   1.257
 4277SOL    HW129973   0.849   3.430   1.309
 4277SOL    HW229974   0.739   3.366   1.226
 4278SOL     OW29975   4.565   0.307   1.293
 4278SOL    HW129976   4.637   0.310   1.355
 4278SOL    HW229977   4.508   0.379   1.318
 4279SOL     OW29978   3.951   6.357   6.978
 4279SOL    HW129979   4.046   6.367   6.982
 4279SOL    HW229980   3.928   6.315   7.060
 4280SOL     OW29981   3.384   4.073   0.060
 4280SOL    HW129982   3.429   4.113   0.134
 4280SOL    HW229983   3.385   4.141   7.795
 4281SOL     OW29984   0.619   6.400   5.968
 4281SOL    HW129985   0.542   6.428   5.919
 4281SOL    HW229986   0.692   0.002   5.931
 4282SOL     OW29987   3.762   5.921   1.354
 4282SOL    HW129988   3.731   5.831   1.368
 4282SOL    HW229989   3.846   5.911   1.311
 4283SOL     OW29990   3.597   5.224   6.615
 4283SOL    HW129991   3.516   5.174   6.600
 4283SOL    HW229992   3.653   5.164   6.664
 4284SOL     OW29993   2.727   1.843   0.806
 4284SOL    HW129994   2.816   1.862   0.774
 4284SOL    HW229995   2.692   1.929   0.829
 4285SOL     OW29996   5.987   2.722   0.849
 4285SOL    HW129997   6.022   2.699   0.763
 4285SOL    HW229998   5.933   2.800   0.833
 4286SOL     OW29999   5.993   3.782   7.677
 4286SOL    HW130000   5.922   3.764   7.615
 4286SOL    HW230001   6.020   3.872   7.659
 4287SOL     OW30002   5.205   1.570   6.855
 4287SOL    HW130003   5.297   1.572   6.882
 4287SOL    HW230004   5.160   1.525   6.927
 4288SOL     OW30005   0.952   3.158   7.167
 4288SOL    HW130006   1.027   3.110   7.132
 4288SOL    HW230007   0.945   3.235   7.110
 4289SOL     OW30008   3.905   0.203   0.278
 4289SOL    HW130009   3.901   0.250   0.195
 4289SOL    HW230010   3.994   0.167   0.281
 4290SOL     OW30011   4.821   2.981   6.929
 4290SOL    HW130012   4.801   3.003   6.838
 4290SOL    HW230013   4.888   3.044   6.956
 4291SOL     OW30014   0.627   4.340   1.866
 4291SOL    HW130015   0.541   4.299   1.857
 4291SOL    HW230016   0.639   4.349   1.961
 4292SOL     OW30017   4.369   2.492   6.022
 4292SOL    HW130018   4.310   2.551   6.068
 4292SOL    HW230019   4.360   2.516   5.930
 4293SOL     OW30020   4.611   3.728   5.975
 4293SOL    HW130021   4.554   3.690   5.908
 4293SOL    HW230022   4.693   3.746   5.928
 4294SOL     OW30023   3.412   5.262   1.234
 4294SOL    HW130024   3.362   5.190   1.274
 4294SOL    HW230025   3.348   5.308   1.181
 4295SOL     OW30026   4.134   5.968   1.450
 4295SOL    HW130027   4.198   6.036   1.468
 4295SOL    HW230028   4.055   5.996   1.497
 4296SOL     OW30029   6.171   3.038   1.514
 4296SOL    HW130030   6.080   3.070   1.511
 4296SOL    HW230031   6.188   3.027   1.608
 4297SOL     OW30032   4.969   0.538   1.878
 4297SOL    HW130033   5.029   0.463   1.884
 4297SOL    HW230034   4.909   0.527   1.952
 4298SOL     OW30035   2.655   5.330   1.591
 4298SOL    HW130036   2.647   5.425   1.601
 4298SOL    HW230037   2.696   5.318   1.506
 4299SOL     OW30038   5.484   4.541   2.331
 4299SOL    HW130039   5.479   4.635   2.316
 4299SOL    HW230040   5.439   4.502   2.256
 4300SOL     OW30041   4.332   4.000   1.688
 4300SOL    HW130042   4.279   3.927   1.720
 4300SOL    HW230043   4.278   4.078   1.703
 4301SOL     OW30044   0.716   5.127   0.089
 4301SOL    HW130045   0.667   5.072   0.027
 4301SOL    HW230046   0.680   5.215   0.076
 4302SOL     OW30047   1.293   5.706   6.375
 4302SOL    HW130048   1.377   5.668   6.399
 4302SOL    HW230049   1.287   5.693   6.280
 4303SOL     OW30050   2.565   2.552   1.279
 4303SOL    HW130051   2.566   2.560   1.184
 4303SOL    HW230052   2.491   2.494   1.297
 4304SOL     OW30053   3.713   0.146   1.542
 4304SOL    HW130054   3.799   0.133   1.583
 4304SOL    HW230055   3.676   0.058   1.537
 4305SOL     OW30056   3.637   3.297   5.708
 4305SOL    HW130057   3.559   3.294   5.653
 4305SOL    HW230058   3.708   3.322   5.648
 4306SOL     OW30059   1.409   3.608   1.056
 4306SOL    HW130060   1.417   3.637   0.965
 4306SOL    HW230061   1.485   3.647   1.100
 4307SOL     OW30062   0.870   0.936   0.416
 4307SOL    HW130063   0.802   0.879   0.379
 4307SOL    HW230064   0.836   1.025   0.404
 4308SOL     OW30065   3.625   6.159   1.284
 4308SOL    HW130066   3.663   6.174   1.198
 4308SOL    HW230067   3.662   6.075   1.312
 4309SOL     OW30068   4.194   2.407   0.357
 4309SOL    HW130069   4.283   2.387   0.386
 4309SOL    HW230070   4.188   2.503   0.360
 4310SOL     OW30071   3.960   0.728   6.683
 4310SOL    HW130072   3.970   0.723   6.588
 4310SOL    HW230073   3.922   0.643   6.707
 4311SOL     OW30074   6.431   2.335   6.740
 4311SOL    HW130075   0.032   2.352   6.659
 4311SOL    HW230076   6.363   2.402   6.741
 4312SOL     OW30077   0.053   2.725   7.741
 4312SOL    HW130078   0.052   2.631   7.760
 4312SOL    HW230079   6.411   2.754   7.755
 4313SOL     OW30080   5.762   4.829   6.808
 4313SOL    HW130081   5.705   4.905   6.798
 4313SOL    HW230082   5.725   4.763   6.750
 4314SOL     OW30083   4.053   3.373   0.749
 4314SOL    HW130084   4.072   3.297   0.693
 4314SOL    HW230085   4.056   3.447   0.689
 4315SOL     OW30086   5.663   0.674   1.019
 4315SOL    HW130087   5.712   0.610   0.967
 4315SOL    HW230088   5.714   0.755   1.013
 4316SOL     OW30089   0.872   3.466   6.452
 4316SOL    HW130090   0.866   3.519   6.531
 4316SOL    HW230091   0.916   3.385   6.480
 4317SOL     OW30092   5.202   5.064   0.160
 4317SOL    HW130093   5.197   5.002   0.088
 4317SOL    HW230094   5.278   5.036   0.211
 4318SOL     OW30095   5.778   1.958   0.803
 4318SOL    HW130096   5.754   2.043   0.767
 4318SOL    HW230097   5.766   1.897   0.730
 4319SOL     OW30098   4.473   0.241   7.304
 4319SOL    HW130099   4.551   0.207   7.347
 4319SOL    HW230100   4.404   0.231   7.369
 4320SOL     OW30101   4.022   2.397   7.593
 4320SOL    HW130102   3.983   2.470   7.642
 4320SOL    HW230103   4.113   2.394   7.622
 4321SOL     OW30104   3.532   3.361   0.143
 4321SOL    HW130105   3.605   3.422   0.132
 4321SOL    HW230106   3.568   3.276   0.120
 4322SOL     OW30107   2.222   4.559   0.384
 4322SOL    HW130108   2.173   4.514   0.453
 4322SOL    HW230109   2.194   4.517   0.303
 4323SOL     OW30110   3.243   6.158   5.848
 4323SOL    HW130111   3.211   6.215   5.918
 4323SOL    HW230112   3.326   6.198   5.821
 4324SOL     OW30113   2.769   2.865   0.629
 4324SOL    HW130114   2.842   2.852   0.690
 4324SOL    HW230115   2.802   2.831   0.546
 4325SOL     OW30116   1.837   5.418   6.414
 4325SOL    HW130117   1.894   5.495   6.424
 4325SOL    HW230118   1.784   5.417   6.494
 4326SOL     OW30119   6.123   5.250   7.202
 4326SOL    HW130120   6.140   5.180   7.139
 4326SOL    HW230121   6.029   5.266   7.195
 4327SOL     OW30122   4.469   3.899   5.728
 4327SOL    HW130123   4.382   3.905   5.689
 4327SOL    HW230124   4.479   3.807   5.752
 4328SOL     OW30125   4.704   5.083   0.983
 4328SOL    HW130126   4.789   5.070   1.024
 4328SOL    HW230127   4.723   5.133   0.903
 4329SOL     OW30128   6.067   5.666   6.982
 4329SOL    HW130129   6.048   5.616   6.903
 4329SOL    HW230130   5.999   5.641   7.044
 4330SOL     OW30131   4.906   1.357   0.481
 4330SOL    HW130132   4.920   1.435   0.534
 4330SOL    HW230133   4.815   1.362   0.455
 4331SOL     OW30134   5.014   4.577   0.131
 4331SOL    HW130135   5.039   4.492   0.094
 4331SOL    HW230136   5.095   4.614   0.164
 4332SOL     OW30137   2.546   3.663   6.512
 4332SOL    HW130138   2.542   3.735   6.575
 4332SOL    HW230139   2.615   3.688   6.451
 4333SOL     OW30140   1.606   1.511   5.877
 4333SOL    HW130141   1.594   1.598   5.915
 4333SOL    HW230142   1.653   1.526   5.795
 4334SOL     OW30143   0.079   4.532   0.373
 4334SOL    HW130144   0.156   4.501   0.325
 4334SOL    HW230145   0.032   4.452   0.398
 4335SOL     OW30146   2.766   3.945   1.681
 4335SOL    HW130147   2.802   3.877   1.623
 4335SOL    HW230148   2.752   4.020   1.623
 4336SOL     OW30149   1.040   6.175   0.979
 4336SOL    HW130150   1.016   6.228   0.903
 4336SOL    HW230151   1.132   6.153   0.965
 4337SOL     OW30152   0.164   0.525   0.284
 4337SOL    HW130153   0.151   0.559   0.372
 4337SOL    HW230154   0.110   0.581   0.228
 4338SOL     OW30155   0.839   2.547   1.252
 4338SOL    HW130156   0.768   2.611   1.252
 4338SOL    HW230157   0.845   2.519   1.343
 4339SOL     OW30158   2.582   3.866   6.696
 4339SOL    HW130159   2.637   3.864   6.775
 4339SOL    HW230160   2.492   3.864   6.730
 4340SOL     OW30161   0.876   0.181   7.737
 4340SOL    HW130162   0.934   0.153   7.666
 4340SOL    HW230163   0.798   0.215   7.693
 4341SOL     OW30164   1.710   2.660   6.950
 4341SOL    HW130165   1.672   2.660   7.038
 4341SOL    HW230166   1.744   2.749   6.938
 4342SOL     OW30167   4.814   1.256   6.585
 4342SOL    HW130168   4.872   1.266   6.661
 4342SOL    HW230169   4.786   1.165   6.588
 4343SOL     OW30170   0.624   2.637   7.353
 4343SOL    HW130171   0.602   2.699   7.284
 4343SOL    HW230172   0.599   2.683   7.434
 4344SOL     OW30173   5.402   1.183   1.599
 4344SOL    HW130174   5.340   1.158   1.667
 4344SOL    HW230175   5.470   1.116   1.603
 4345SOL     OW30176   2.157   4.145   6.922
 4345SOL    HW130177   2.070   4.110   6.905
 4345SOL    HW230178   2.205   4.131   6.841
 4346SOL     OW30179   5.461   0.782   0.200
 4346SOL    HW130180   5.419   0.732   0.131
 4346SOL    HW230181   5.550   0.745   0.206
 4347SOL     OW30182   2.871   4.975   7.738
 4347SOL    HW130183   2.776   4.963   7.730
 4347SOL    HW230184   2.892   4.939   0.022
 4348SOL     OW30185   2.746   6.186   6.223
 4348SOL    HW130186   2.811   6.141   6.169
 4348SOL    HW230187   2.786   6.193   6.309
 4349SOL     OW30188   4.957   2.114   0.522
 4349SOL    HW130189   4.933   2.197   0.480
 4349SOL    HW230190   4.996   2.063   0.452
 4350SOL     OW30191   2.341   2.202   7.458
 4350SOL    HW130192   2.328   2.296   7.440
 4350SOL    HW230193   2.348   2.196   7.553
 4351SOL     OW30194   5.697   4.671   0.767
 4351SOL    HW130195   5.660   4.584   0.785
 4351SOL    HW230196   5.754   4.657   0.692
 4352SOL     OW30197   2.058   0.590   1.445
 4352SOL    HW130198   2.056   0.577   1.350
 4352SOL    HW230199   2.149   0.612   1.464
 4353SOL     OW30200   6.410   1.586   0.924
 4353SOL    HW130201   6.355   1.523   0.970
 4353SOL    HW230202   6.349   1.652   0.891
 4354SOL     OW30203   4.792   3.020   6.658
 4354SOL    HW130204   4.881   3.054   6.644
 4354SOL    HW230205   4.783   2.951   6.592
 4355SOL     OW30206   2.526   3.773   1.642
 4355SOL    HW130207   2.596   3.814   1.693
 4355SOL    HW230208   2.477   3.722   1.706
 4356SOL     OW30209   3.985   6.174   0.732
 4356SOL    HW130210   4.029   6.097   0.767
 4356SOL    HW230211   4.035   6.249   0.766
 4357SOL     OW30212   3.011   3.729   7.658
 4357SOL    HW130213   3.004   3.765   7.569
 4357SOL    HW230214   2.991   3.803   7.715
 4358SOL     OW30215   2.802   6.060   0.714
 4358SOL    HW130216   2.735   6.049   0.646
 4358SOL    HW230217   2.752   6.070   0.795
 4359SOL     OW30218   2.862   2.702   6.549
 4359SOL    HW130219   2.778   2.719   6.507
 4359SOL    HW230220   2.910   2.650   6.485
 4360SOL     OW30221   3.769   0.835   1.907
 4360SOL    HW130222   3.792   0.882   1.986
 4360SOL    HW230223   3.683   0.869   1.883
 4361SOL     OW30224   5.730   0.552   6.412
 4361SOL    HW130225   5.690   0.529   6.328
 4361SOL    HW230226   5.691   0.637   6.435
 4362SOL     OW30227   0.912   0.617   7.455
 4362SOL    HW130228   0.886   0.628   7.546
 4362SOL    HW230229   0.972   0.543   7.456
 4363SOL     OW30230   6.126   3.382   1.153
 4363SOL    HW130231   6.198   3.336   1.110
 4363SOL    HW230232   6.142   3.370   1.247
 4364SOL     OW30233   3.617   2.545   7.644
 4364SOL    HW130234   3.633   2.482   7.574
 4364SOL    HW230235   3.547   2.601   7.609
 4365SOL     OW30236   1.616   2.352   7.477
 4365SOL    HW130237   1.526   2.377   7.455
 4365SOL    HW230238   1.612   2.257   7.491
 4366SOL     OW30239   5.153   2.964   7.189
 4366SOL    HW130240   5.243   2.962   7.157
 4366SOL    HW230241   5.132   2.872   7.204
 4367SOL     OW30242   2.683   0.352   6.741
 4367SOL    HW130243   2.774   0.329   6.728
 4367SOL    HW230244   2.685   0.445   6.765
 4368SOL     OW30245   3.676   4.383   5.844
 4368SOL    HW130246   3.709   4.472   5.853
 4368SOL    HW230247   3.738   4.329   5.893
 4369SOL     OW30248   2.984   4.443   7.154
 4369SOL    HW130249   3.025   4.417   7.236
 4369SOL    HW230250   2.909   4.496   7.180
 4370SOL     OW30251   3.364   1.607   5.761
 4370SOL    HW130252   3.453   1.601   5.725
 4370SOL    HW230253   3.308   1.574   5.692
 4371SOL     OW30254   2.767   3.082   7.584
 4371SOL    HW130255   2.773   3.069   7.679
 4371SOL    HW230256   2.675   3.063   7.563
 4372SOL     OW30257   2.841   6.227   2.043
 4372SOL    HW130258   2.869   6.319   2.040
 4372SOL    HW230259   2.782   6.218   1.968
 4373SOL     OW30260   1.639   0.737   6.085
 4373SOL    HW130261   1.610   0.789   6.010
 4373SOL    HW230262   1.729   0.714   6.065
 4374SOL     OW30263   3.160   1.939   0.973
 4374SOL    HW130264   3.209   2.020   0.990
 4374SOL    HW230265   3.183   1.916   0.882
 4375SOL     OW30266   5.904   1.917   1.178
 4375SOL    HW130267   5.921   1.824   1.163
 4375SOL    HW230268   5.966   1.941   1.247
 4376SOL     OW30269   2.628   3.680   0.367
 4376SOL    HW130270   2.637   3.623   0.444
 4376SOL    HW230271   2.539   3.663   0.335
 4377SOL     OW30272   0.079   1.358   1.263
 4377SOL    HW130273   0.050   1.448   1.272
 4377SOL    HW230274   0.019   1.307   1.318
 4378SOL     OW30275   2.591   0.715   0.765
 4378SOL    HW130276   2.559   0.718   0.675
 4378SOL    HW230277   2.595   0.807   0.791
 4379SOL     OW30278   5.192   0.902   1.563
 4379SOL    HW130279   5.193   0.971   1.629
 4379SOL    HW230280   5.275   0.913   1.516
 4380SOL     OW30281   1.312   1.726   5.947
 4380SOL    HW130282   1.276   1.815   5.940
 4380SOL    HW230283   1.406   1.739   5.959
 4381SOL     OW30284   3.853   5.511   6.574
 4381SOL    HW130285   3.797   5.474   6.506
 4381SOL    HW230286   3.935   5.463   6.567
 4382SOL     OW30287   0.224   0.400   6.092
 4382SOL    HW130288   0.212   0.478   6.037
 4382SOL    HW230289   0.290   0.426   6.156
 4383SOL     OW30290   5.039   5.098   7.586
 4383SOL    HW130291   4.988   5.153   7.646
 4383SOL    HW230292   5.097   5.048   7.642
 4384SOL     OW30293   0.234   0.419   7.243
 4384SOL    HW130294   0.269   0.401   7.330
 4384SOL    HW230295   0.160   0.477   7.258
 4385SOL     OW30296   2.363   0.465   1.182
 4385SOL    HW130297   2.419   0.393   1.211
 4385SOL    HW230298   2.417   0.513   1.119
 4386SOL     OW30299   4.866   5.250   2.434
 4386SOL    HW130300   4.911   5.184   2.382
 4386SOL    HW230301   4.773   5.241   2.410
 4387SOL     OW30302   4.932   5.369   1.025
 4387SOL    HW130303   4.880   5.372   0.944
 4387SOL    HW230304   4.871   5.396   1.093
 4388SOL     OW30305   2.000   4.869   1.566
 4388SOL    HW130306   1.914   4.876   1.526
 4388SOL    HW230307   1.998   4.787   1.616
 4389SOL     OW30308   4.605   0.992   6.818
 4389SOL    HW130309   4.562   0.939   6.884
 4389SOL    HW230310   4.653   0.929   6.764
 4390SOL     OW30311   0.202   6.060   1.543
 4390SOL    HW130312   0.119   6.013   1.557
 4390SOL    HW230313   0.266   5.990   1.529
 4391SOL     OW30314   2.606   1.427   0.333
 4391SOL    HW130315   2.588   1.417   0.240
 4391SOL    HW230316   2.610   1.521   0.347
 4392SOL     OW30317   4.401   0.509   6.715
 4392SOL    HW130318   4.477   0.554   6.752
 4392SOL    HW230319   4.333   0.519   6.782
 4393SOL     OW30320   1.692   2.828   2.124
 4393SOL    HW130321   1.684   2.746   2.074
 4393SOL    HW230322   1.733   2.889   2.063
 4394SOL     OW30323   0.942   1.013   0.833
 4394SOL    HW130324   0.870   0.962   0.871
 4394SOL    HW230325   0.980   0.956   0.766
 4395SOL     OW30326   2.080   0.539   7.732
 4395SOL    HW130327   2.149   0.493   7.780
 4395SOL    HW230328   2.124   0.574   7.655
 4396SOL     OW30329   2.520   0.794   0.245
 4396SOL    HW130330   2.440   0.828   0.204
 4396SOL    HW230331   2.544   0.719   0.191
 4397SOL     OW30332   3.480   6.118   1.611
 4397SOL    HW130333   3.438   6.081   1.689
 4397SOL    HW230334   3.440   6.071   1.538
 4398SOL     OW30335   3.139   3.155   0.369
 4398SOL    HW130336   3.110   3.079   0.420
 4398SOL    HW230337   3.231   3.136   0.350
 4399SOL     OW30338   0.326   1.601   7.732
 4399SOL    HW130339   0.255   1.554   7.687
 4399SOL    HW230340   0.343   1.548   0.007
 4400SOL     OW30341   4.338   2.951   1.364
 4400SOL    HW130342   4.368   2.876   1.312
 4400SOL    HW230343   4.287   2.912   1.435
 4401SOL     OW30344   0.935   4.668   2.145
 4401SOL    HW130345   0.924   4.576   2.124
 4401SOL    HW230346   0.963   4.708   2.063
 4402SOL     OW30347   6.346   6.050   0.924
 4402SOL    HW130348   6.304   5.964   0.925
 4402SOL    HW230349   6.274   6.112   0.927
 4403SOL     OW30350   0.858   6.054   1.141
 4403SOL    HW130351   0.918   6.095   1.078
 4403SOL    HW230352   0.793   6.121   1.159
 4404SOL     OW30353   2.957   0.424   7.661
 4404SOL    HW130354   2.884   0.485   7.649
 4404SOL    HW230355   2.925   0.342   7.623
 4405SOL     OW30356   2.815   2.469   1.353
 4405SOL    HW130357   2.724   2.491   1.338
 4405SOL    HW230358   2.828   2.486   1.447
 4406SOL     OW30359   1.489   5.641   0.231
 4406SOL    HW130360   1.403   5.639   0.189
 4406SOL    HW230361   1.482   5.711   0.296
 4407SOL     OW30362   0.734   3.764   2.162
 4407SOL    HW130363   0.706   3.834   2.221
 4407SOL    HW230364   0.817   3.794   2.126
 4408SOL     OW30365   3.786   1.179   1.757
 4408SOL    HW130366   3.691   1.188   1.761
 4408SOL    HW230367   3.800   1.088   1.733
 4409SOL     OW30368   0.223   3.466   0.192
 4409SOL    HW130369   0.279   3.529   0.145
 4409SOL    HW230370   0.243   3.482   0.284
 4410SOL     OW30371   5.862   2.875   1.217
 4410SOL    HW130372   5.802   2.805   1.188
 4410SOL    HW230373   5.850   2.879   1.312
 4411SOL     OW30374   3.944   4.456   2.552
 4411SOL    HW130375   3.968   4.529   2.495
 4411SOL    HW230376   3.872   4.489   2.606
 4412SOL     OW30377   1.966   1.533   1.034
 4412SOL    HW130378   1.874   1.504   1.030
 4412SOL    HW230379   2.008   1.469   1.091
 4413SOL     OW30380   5.468   6.092   6.985
 4413SOL    HW130381   5.520   6.040   7.047
 4413SOL    HW230382   5.463   6.038   6.907
 4414SOL     OW30383   0.028   4.519   7.532
 4414SOL    HW130384   6.413   4.483   7.469
 4414SOL    HW230385   0.083   4.444   7.556
 4415SOL     OW30386   0.402   1.528   2.241
 4415SOL    HW130387   0.319   1.572   2.261
 4415SOL    HW230388   0.379   1.461   2.177
 4416SOL     OW30389   3.780   0.561   7.317
 4416SOL    HW130390   3.794   0.619   7.392
 4416SOL    HW230391   3.861   0.567   7.266
 4417SOL     OW30392   5.659   3.683   1.054
 4417SOL    HW130393   5.672   3.636   1.136
 4417SOL    HW230394   5.567   3.708   1.055
 4418SOL     OW30395   2.097   0.502   1.185
 4418SOL    HW130396   2.192   0.496   1.193
 4418SOL    HW230397   2.081   0.505   1.091
 4419SOL     OW30398   2.154   3.799   0.931
 4419SOL    HW130399   2.156   3.726   0.994
 4419SOL    HW230400   2.080   3.778   0.873
 4420SOL     OW30401   1.668   3.679   0.702
 4420SOL    HW130402   1.660   3.588   0.674
 4420SOL    HW230403   1.583   3.699   0.742
 4421SOL     OW30404   4.091   2.961   1.132
 4421SOL    HW130405   4.075   3.012   1.211
 4421SOL    HW230406   4.021   2.986   1.072
 4422SOL     OW30407   6.102   1.182   7.711
 4422SOL    HW130408   6.126   1.092   7.729
 4422SOL    HW230409   6.031   1.201   7.773
 4423SOL     OW30410   1.187   5.000   1.142
 4423SOL    HW130411   1.265   4.976   1.092
 4423SOL    HW230412   1.217   5.066   1.204
 4424SOL     OW30413   4.630   6.249   6.945
 4424SOL    HW130414   4.664   6.217   7.028
 4424SOL    HW230415   4.627   6.171   6.889
 4425SOL     OW30416   4.134   4.180   1.741
 4425SOL    HW130417   4.101   4.266   1.767
 4425SOL    HW230418   4.058   4.121   1.749
 4426SOL     OW30419   4.979   3.062   1.085
 4426SOL    HW130420   5.066   3.064   1.125
 4426SOL    HW230421   4.968   3.149   1.046
 4427SOL     OW30422   4.327   3.139   6.810
 4427SOL    HW130423   4.413   3.163   6.775
 4427SOL    HW230424   4.270   3.210   6.782
 4428SOL     OW30425   5.296   5.844   6.324
 4428SOL    HW130426   5.304   5.830   6.229
 4428SOL    HW230427   5.355   5.779   6.362
 4429SOL     OW30428   6.074   0.908   7.399
 4429SOL    HW130429   6.033   0.991   7.423
 4429SOL    HW230430   6.048   0.893   7.308
 4430SOL     OW30431   2.680   1.397   5.439
 4430SOL    HW130432   2.596   1.443   5.434
 4430SOL    HW230433   2.732   1.451   5.498
 4431SOL     OW30434   1.727   2.481   1.247
 4431SOL    HW130435   1.765   2.422   1.183
 4431SOL    HW230436   1.659   2.430   1.291
 4432SOL     OW30437   6.126   0.152   6.443
 4432SOL    HW130438   6.211   0.158   6.487
 4432SOL    HW230439   6.065   0.195   6.502
 4433SOL     OW30440   0.605   3.324   0.258
 4433SOL    HW130441   0.561   3.328   0.173
 4433SOL    HW230442   0.581   3.407   0.300
 4434SOL     OW30443   3.512   4.297   7.422
 4434SOL    HW130444   3.601   4.331   7.427
 4434SOL    HW230445   3.519   4.220   7.365
 4435SOL     OW30446   5.857   0.044   7.109
 4435SOL    HW130447   5.799   0.070   7.180
 4435SOL    HW230448   5.923   0.112   7.106
 4436SOL     OW30449   4.708   2.279   6.723
 4436SOL    HW130450   4.701   2.354   6.781
 4436SOL    HW230451   4.774   2.305   6.658
 4437SOL     OW30452   1.576   0.185   6.468
 4437SOL    HW130453   1.652   0.156   6.518
 4437SOL    HW230454   1.608   0.260   6.417
 4438SOL     OW30455   4.777   4.704   1.682
 4438SOL    HW130456   4.774   4.786   1.731
 4438SOL    HW230457   4.859   4.663   1.708
 4439SOL     OW30458   0.262   5.024   7.090
 4439SOL    HW130459   0.210   5.099   7.061
 4439SOL    HW230460   0.286   5.044   7.181
 4440SOL     OW30461   5.119   3.451   0.106
 4440SOL    HW130462   5.039   3.408   0.077
 4440SOL    HW230463   5.190   3.396   0.073
 4441SOL     OW30464   1.745   6.347   7.565
 4441SOL    HW130465   1.663   6.394   7.551
 4441SOL    HW230466   1.806   6.414   7.596
 4442SOL     OW30467   0.657   5.350   1.912
 4442SOL    HW130468   0.579   5.298   1.932
 4442SOL    HW230469   0.623   5.431   1.874
 4443SOL     OW30470   1.105   0.318   0.005
 4443SOL    HW130471   1.162   0.241   0.009
 4443SOL    HW230472   1.017   0.282   7.799
 4444SOL     OW30473   3.862   1.630   0.085
 4444SOL    HW130474   3.780   1.679   0.092
 4444SOL    HW230475   3.865   1.577   0.165
 4445SOL     OW30476   5.532   3.337   5.857
 4445SOL    HW130477   5.598   3.351   5.789
 4445SOL    HW230478   5.452   3.375   5.821
 4446SOL     OW30479   1.733   6.012   0.213
 4446SOL    HW130480   1.737   5.916   0.216
 4446SOL    HW230481   1.722   6.032   0.121
 4447SOL     OW30482   4.982   0.675   0.306
 4447SOL    HW130483   5.029   0.622   0.241
 4447SOL    HW230484   5.036   0.754   0.316
 4448SOL     OW30485   1.239   6.277   0.352
 4448SOL    HW130486   1.312   6.267   0.291
 4448SOL    HW230487   1.280   6.303   0.435
 4449SOL     OW30488   2.766   5.480   2.224
 4449SOL    HW130489   2.835   5.506   2.285
 4449SOL    HW230490   2.702   5.551   2.227
 4450SOL     OW30491   3.528   6.267   7.370
 4450SOL    HW130492   3.562   6.353   7.346
 4450SOL    HW230493   3.443   6.286   7.411
 4451SOL     OW30494   5.347   0.217   6.162
 4451SOL    HW130495   5.322   0.260   6.080
 4451SOL    HW230496   5.297   0.263   6.230
 4452SOL     OW30497   0.095   5.067   1.906
 4452SOL    HW130498   0.154   5.058   1.980
 4452SOL    HW230499   0.070   5.160   1.905
 4453SOL     OW30500   1.882   1.219   1.372
 4453SOL    HW130501   1.942   1.266   1.430
 4453SOL    HW230502   1.920   1.227   1.285
 4454SOL     OW30503   0.353   1.191   0.282
 4454SOL    HW130504   0.377   1.171   0.372
 4454SOL    HW230505   0.428   1.163   0.230
 4455SOL     OW30506   4.514   0.551   7.344
 4455SOL    HW130507   4.568   0.508   7.411
 4455SOL    HW230508   4.545   0.515   7.261
 4456SOL     OW30509   3.025   3.082   0.849
 4456SOL    HW130510   3.004   2.991   0.831
 4456SOL    HW230511   3.094   3.104   0.786
 4457SOL     OW30512   4.048   5.003   1.169
 4457SOL    HW130513   4.078   4.954   1.092
 4457SOL    HW230514   4.117   5.068   1.183
 4458SOL     OW30515   4.717   1.912   6.569
 4458SOL    HW130516   4.787   1.922   6.505
 4458SOL    HW230517   4.665   1.992   6.560
 4459SOL     OW30518   5.458   3.609   7.707
 4459SOL    HW130519   5.543   3.567   7.700
 4459SOL    HW230520   5.445   3.622   7.800
 4460SOL     OW30521   3.402   5.632   0.827
 4460SOL    HW130522   3.484   5.674   0.853
 4460SOL    HW230523   3.428   5.564   0.766
 4461SOL     OW30524   5.999   3.761   1.893
 4461SOL    HW130525   5.923   3.734   1.842
 4461SOL    HW230526   6.057   3.685   1.892
 4462SOL     OW30527   1.970   0.208   6.694
 4462SOL    HW130528   1.911   0.275   6.727
 4462SOL    HW230529   1.913   0.147   6.646
 4463SOL     OW30530   2.414   5.324   7.702
 4463SOL    HW130531   2.395   5.402   7.651
 4463SOL    HW230532   2.487   5.350   7.759
 4464SOL     OW30533   4.951   4.238   0.270
 4464SOL    HW130534   4.925   4.310   0.327
 4464SOL    HW230535   4.974   4.166   0.329
 4465SOL     OW30536   0.401   2.812   6.674
 4465SOL    HW130537   0.377   2.903   6.658
 4465SOL    HW230538   0.350   2.762   6.610
 4466SOL     OW30539   0.931   3.367   0.674
 4466SOL    HW130540   0.911   3.324   0.757
 4466SOL    HW230541   0.851   3.413   0.651
 4467SOL     OW30542   5.695   2.115   5.884
 4467SOL    HW130543   5.764   2.125   5.819
 4467SOL    HW230544   5.674   2.021   5.883
 4468SOL     OW30545   5.627   3.006   1.881
 4468SOL    HW130546   5.534   3.012   1.905
 4468SOL    HW230547   5.626   2.981   1.788
 4469SOL     OW30548   0.573   6.184   6.567
 4469SOL    HW130549   0.549   6.121   6.499
 4469SOL    HW230550   0.491   6.205   6.611
 4470SOL     OW30551   1.324   0.139   6.174
 4470SOL    HW130552   1.297   0.088   6.098
 4470SOL    HW230553   1.406   0.099   6.203
 4471SOL     OW30554   2.364   6.340   1.236
 4471SOL    HW130555   2.304   6.409   1.206
 4471SOL    HW230556   2.421   6.384   1.299
 4472SOL     OW30557   1.810   1.196   7.343
 4472SOL    HW130558   1.753   1.119   7.346
 4472SOL    HW230559   1.790   1.245   7.423
 4473SOL     OW30560   6.417   2.659   1.471
 4473SOL    HW130561   6.443   2.724   1.405
 4473SOL    HW230562   0.051   2.639   1.517
 4474SOL     OW30563   2.438   5.141   7.495
 4474SOL    HW130564   2.433   5.196   7.572
 4474SOL    HW230565   2.365   5.079   7.505
 4475SOL     OW30566   5.466   1.039   1.188
 4475SOL    HW130567   5.550   1.041   1.142
 4475SOL    HW230568   5.424   1.122   1.165
 4476SOL     OW30569   5.155   4.734   1.459
 4476SOL    HW130570   5.228   4.745   1.398
 4476SOL    HW230571   5.141   4.640   1.464
 4477SOL     OW30572   1.396   1.612   7.426
 4477SOL    HW130573   1.378   1.583   7.516
 4477SOL    HW230574   1.420   1.533   7.379
 4478SOL     OW30575   6.352   5.559   7.578
 4478SOL    HW130576   6.370   5.469   7.606
 4478SOL    HW230577   6.262   5.556   7.546
 4479SOL     OW30578   4.828   3.751   5.779
 4479SOL    HW130579   4.769   3.686   5.741
 4479SOL    HW230580   4.894   3.765   5.711
 4480SOL     OW30581   1.922   0.872   1.174
 4480SOL    HW130582   1.889   0.784   1.159
 4480SOL    HW230583   1.876   0.902   1.252
 4481SOL     OW30584   5.020   1.415   5.174
 4481SOL    HW130585   5.006   1.329   5.136
 4481SOL    HW230586   4.960   1.419   5.249
 4482SOL     OW30587   0.357   5.641   7.028
 4482SOL    HW130588   0.413   5.616   6.954
 4482SOL    HW230589   0.279   5.679   6.986
 4483SOL     OW30590   4.139   5.756   1.732
 4483SOL    HW130591   4.161   5.685   1.792
 4483SOL    HW230592   4.043   5.755   1.728
 4484SOL     OW30593   5.711   1.303   2.551
 4484SOL    HW130594   5.631   1.326   2.598
 4484SOL    HW230595   5.704   1.208   2.537
 4485SOL     OW30596   2.831   6.135   5.660
 4485SOL    HW130597   2.923   6.137   5.633
 4485SOL    HW230598   2.803   6.227   5.656
 4486SOL     OW30599   4.663   2.755   6.102
 4486SOL    HW130600   4.637   2.822   6.165
 4486SOL    HW230601   4.633   2.673   6.140
 4487SOL     OW30602   3.557   6.150   7.024
 4487SOL    HW130603   3.643   6.124   6.991
 4487SOL    HW230604   3.555   6.119   7.114
 4488SOL     OW30605   0.953   3.321   0.405
 4488SOL    HW130606   0.958   3.334   0.500
 4488SOL    HW230607   0.885   3.255   0.394
 4489SOL     OW30608   6.389   0.767   7.493
 4489SOL    HW130609   6.372   0.845   7.441
 4489SOL    HW230610   6.308   0.753   7.543
 4490SOL     OW30611   0.573   5.990   1.310
 4490SOL    HW130612   0.601   6.068   1.263
 4490SOL    HW230613   0.642   5.926   1.295
 4491SOL     OW30614   5.511   1.775   7.307
 4491SOL    HW130615   5.442   1.840   7.318
 4491SOL    HW230616   5.466   1.698   7.272
 4492SOL     OW30617   2.425   0.379   0.833
 4492SOL    HW130618   2.454   0.456   0.882
 4492SOL    HW230619   2.459   0.393   0.745
 4493SOL     OW30620   2.430   2.172   7.182
 4493SOL    HW130621   2.360   2.137   7.127
 4493SOL    HW230622   2.391   2.181   7.268
 4494SOL     OW30623   2.133   5.800   7.023
 4494SOL    HW130624   2.170   5.872   6.973
 4494SOL    HW230625   2.202   5.734   7.025
 4495SOL     OW30626   2.222   0.665   1.756
 4495SOL    HW130627   2.231   0.686   1.849
 4495SOL    HW230628   2.200   0.572   1.755
 4496SOL     OW30629   3.440   4.568   5.565
 4496SOL    HW130630   3.452   4.635   5.632
 4496SOL    HW230631   3.518   4.513   5.572
 4497SOL     OW30632   2.825   2.459   0.901
 4497SOL    HW130633   2.889   2.467   0.831
 4497SOL    HW230634   2.871   2.491   0.979
 4498SOL     OW30635   0.463   2.520   0.511
 4498SOL    HW130636   0.417   2.581   0.453
 4498SOL    HW230637   0.553   2.520   0.478
 4499SOL     OW30638   4.934   4.240   1.573
 4499SOL    HW130639   4.917   4.149   1.596
 4499SOL    HW230640   4.872   4.259   1.503
 4500SOL     OW30641   2.823   3.660   1.140
 4500SOL    HW130642   2.847   3.580   1.093
 4500SOL    HW230643   2.898   3.718   1.130
 4501SOL     OW30644   5.346   2.448   5.992
 4501SOL    HW130645   5.323   2.469   5.902
 4501SOL    HW230646   5.384   2.529   6.026
 4502SOL     OW30647   1.943   2.060   5.639
 4502SOL    HW130648   1.919   1.978   5.595
 4502SOL    HW230649   1.966   2.033   5.728
 4503SOL     OW30650   4.189   6.106   7.766
 4503SOL    HW130651   4.094   6.119   7.768
 4503SOL    HW230652   4.209   6.089   7.674
 4504SOL     OW30653   0.997   6.419   5.714
 4504SOL    HW130654   1.020   6.344   5.769
 4504SOL    HW230655   0.925   0.014   5.761
 4505SOL     OW30656   1.821   2.251   1.537
 4505SOL    HW130657   1.846   2.194   1.464
 4505SOL    HW230658   1.728   2.233   1.550
 4506SOL     OW30659   2.362   3.752   7.363
 4506SOL    HW130660   2.364   3.657   7.351
 4506SOL    HW230661   2.430   3.770   7.428
 4507SOL     OW30662   0.629   1.848   2.105
 4507SOL    HW130663   0.546   1.827   2.062
 4507SOL    HW230664   0.641   1.777   2.168
 4508SOL     OW30665   3.072   3.698   1.369
 4508SOL    HW130666   3.104   3.618   1.410
 4508SOL    HW230667   2.995   3.722   1.420
 4509SOL     OW30668   6.246   5.592   1.824
 4509SOL    HW130669   6.247   5.515   1.881
 4509SOL    HW230670   6.184   5.651   1.867
 4510SOL     OW30671   3.879   1.436   1.736
 4510SOL    HW130672   3.850   1.345   1.746
 4510SOL    HW230673   3.832   1.468   1.659
 4511SOL     OW30674   0.982   5.274   5.860
 4511SOL    HW130675   0.892   5.253   5.885
 4511SOL    HW230676   1.024   5.188   5.846
 4512SOL     OW30677   2.684   5.426   0.348
 4512SOL    HW130678   2.733   5.423   0.430
 4512SOL    HW230679   2.601   5.467   0.371
 4513SOL     OW30680   0.255   5.128   5.957
 4513SOL    HW130681   0.243   5.034   5.976
 4513SOL    HW230682   0.348   5.136   5.935
 4514SOL     OW30683   2.586   1.454   5.767
 4514SOL    HW130684   2.655   1.501   5.720
 4514SOL    HW230685   2.509   1.511   5.758
 4515SOL     OW30686   2.032   4.844   0.941
 4515SOL    HW130687   1.981   4.825   0.861
 4515SOL    HW230688   1.999   4.928   0.970
 4516SOL     OW30689   2.937   2.550   1.130
 4516SOL    HW130690   3.030   2.561   1.151
 4516SOL    HW230691   2.899   2.511   1.209
 4517SOL     OW30692   4.516   1.903   2.662
 4517SOL    HW130693   4.584   1.969   2.646
 4517SOL    HW230694   4.512   1.896   2.757
 4518SOL     OW30695   5.032   3.145   7.017
 4518SOL    HW130696   5.114   3.161   6.972
 4518SOL    HW230697   5.055   3.085   7.088
 4519SOL     OW30698   6.405   1.749   5.719
 4519SOL    HW130699   6.402   1.654   5.733
 4519SOL    HW230700   6.442   1.759   5.632
 4520SOL     OW30701   2.313   4.992   7.131
 4520SOL    HW130702   2.351   5.077   7.152
 4520SOL    HW230703   2.222   4.999   7.159
 4521SOL     OW30704   6.125   3.064   6.774
 4521SOL    HW130705   6.217   3.041   6.770
 4521SOL    HW230706   6.099   3.044   6.864
 4522SOL     OW30707   6.007   4.069   0.611
 4522SOL    HW130708   6.057   4.122   0.549
 4522SOL    HW230709   5.918   4.105   0.608
 4523SOL     OW30710   0.265   4.491   2.409
 4523SOL    HW130711   0.273   4.582   2.440
 4523SOL    HW230712   0.353   4.455   2.419
 4524SOL     OW30713   4.642   1.961   0.390
 4524SOL    HW130714   4.662   1.894   0.456
 4524SOL    HW230715   4.553   1.990   0.412
 4525SOL     OW30716   3.046   5.185   7.777
 4525SOL    HW130717   2.987   5.110   7.765
 4525SOL    HW230718   3.060   5.189   0.068
 4526SOL     OW30719   4.279   2.327   1.248
 4526SOL    HW130720   4.283   2.232   1.245
 4526SOL    HW230721   4.349   2.357   1.190
 4527SOL     OW30722   6.292   4.033   7.400
 4527SOL    HW130723   6.285   3.940   7.377
 4527SOL    HW230724   6.333   4.073   7.324
 4528SOL     OW30725   5.562   4.443   0.830
 4528SOL    HW130726   5.474   4.469   0.802
 4528SOL    HW230727   5.554   4.428   0.924
 4529SOL     OW30728   1.397   2.097   6.777
 4529SOL    HW130729   1.399   2.034   6.849
 4529SOL    HW230730   1.489   2.116   6.759
 4530SOL     OW30731   2.402   2.681   6.040
 4530SOL    HW130732   2.429   2.745   5.975
 4530SOL    HW230733   2.355   2.732   6.106
 4531SOL     OW30734   6.300   4.440   1.863
 4531SOL    HW130735   6.367   4.394   1.914
 4531SOL    HW230736   6.289   4.523   1.908
 4532SOL     OW30737   3.484   4.275   6.227
 4532SOL    HW130738   3.566   4.231   6.250
 4532SOL    HW230739   3.453   4.312   6.310
 4533SOL     OW30740   2.771   1.264   7.476
 4533SOL    HW130741   2.860   1.265   7.441
 4533SOL    HW230742   2.781   1.285   7.569
 4534SOL     OW30743   1.778   5.508   7.700
 4534SOL    HW130744   1.851   5.543   7.648
 4534SOL    HW230745   1.711   5.576   7.696
 4535SOL     OW30746   6.067   4.349   6.684
 4535SOL    HW130747   6.048   4.440   6.666
 4535SOL    HW230748   6.158   4.337   6.656
 4536SOL     OW30749   4.250   2.417   6.629
 4536SOL    HW130750   4.291   2.385   6.709
 4536SOL    HW230751   4.228   2.337   6.580
 4537SOL     OW30752   3.580   5.076   0.392
 4537SOL    HW130753   3.610   4.989   0.417
 4537SOL    HW230754   3.514   5.061   0.324
 4538SOL     OW30755   3.500   4.763   5.144
 4538SOL    HW130756   3.473   4.686   5.193
 4538SOL    HW230757   3.577   4.735   5.095
 4539SOL     OW30758   3.935   5.041   0.293
 4539SOL    HW130759   3.921   4.952   0.326
 4539SOL    HW230760   3.906   5.098   0.364
 4540SOL     OW30761   3.977   5.421   7.096
 4540SOL    HW130762   4.003   5.480   7.026
 4540SOL    HW230763   4.017   5.458   7.175
 4541SOL     OW30764   2.765   3.655   0.118
 4541SOL    HW130765   2.733   3.658   0.208
 4541SOL    HW230766   2.843   3.600   0.121
 4542SOL     OW30767   1.666   2.137   6.747
 4542SOL    HW130768   1.741   2.095   6.704
 4542SOL    HW230769   1.704   2.190   6.816
 4543SOL     OW30770   0.007   0.985   1.491
 4543SOL    HW130771   0.089   0.969   1.538
 4543SOL    HW230772   6.386   0.970   1.556
 4544SOL     OW30773   3.925   3.507   0.950
 4544SOL    HW130774   3.871   3.449   1.004
 4544SOL    HW230775   3.966   3.449   0.887
 4545SOL     OW30776   3.792   2.452   7.072
 4545SOL    HW130777   3.857   2.407   7.127
 4545SOL    HW230778   3.753   2.517   7.130
 4546SOL     OW30779   5.096   2.863   7.747
 4546SOL    HW130780   5.053   2.779   7.730
 4546SOL    HW230781   5.180   2.857   7.702
 4547SOL     OW30782   0.317   0.022   7.758
 4547SOL    HW130783   0.384   6.426   7.706
 4547SOL    HW230784   0.357   0.105   7.784
 4548SOL     OW30785   2.085   2.560   6.641
 4548SOL    HW130786   2.005   2.540   6.691
 4548SOL    HW230787   2.118   2.474   6.614
 4549SOL     OW30788   2.400   5.915   1.913
 4549SOL    HW130789   2.405   5.827   1.952
 4549SOL    HW230790   2.455   5.969   1.971
 4550SOL     OW30791   2.350   3.819   7.791
 4550SOL    HW130792   2.333   3.759   0.062
 4550SOL    HW230793   2.445   3.826   7.789
 4551SOL     OW30794   4.272   0.276   1.448
 4551SOL    HW130795   4.325   0.229   1.513
 4551SOL    HW230796   4.322   0.355   1.429
 4552SOL     OW30797   3.554   5.654   1.121
 4552SOL    HW130798   3.578   5.706   1.044
 4552SOL    HW230799   3.620   5.676   1.186
 4553SOL     OW30800   0.677   4.245   7.176
 4553SOL    HW130801   0.751   4.186   7.190
 4553SOL    HW230802   0.665   4.246   7.081
 4554SOL     OW30803   4.116   3.488   6.377
 4554SOL    HW130804   4.077   3.574   6.391
 4554SOL    HW230805   4.197   3.505   6.329
 4555SOL     OW30806   2.557   5.711   7.537
 4555SOL    HW130807   2.549   5.806   7.539
 4555SOL    HW230808   2.597   5.689   7.621
 4556SOL     OW30809   1.257   1.976   7.728
 4556SOL    HW130810   1.291   1.929   7.651
 4556SOL    HW230811   1.163   1.978   7.715
 4557SOL     OW30812   0.515   2.335   1.447
 4557SOL    HW130813   0.511   2.389   1.526
 4557SOL    HW230814   0.608   2.313   1.437
 4558SOL     OW30815   1.675   0.081   1.461
 4558SOL    HW130816   1.676   0.160   1.515
 4558SOL    HW230817   1.729   0.104   1.385
 4559SOL     OW30818   3.403   2.177   7.184
 4559SOL    HW130819   3.468   2.200   7.118
 4559SOL    HW230820   3.323   2.221   7.156
 4560SOL     OW30821   6.028   1.621   7.485
 4560SOL    HW130822   6.011   1.711   7.458
 4560SOL    HW230823   5.994   1.616   7.574
 4561SOL     OW30824   5.906   0.207   1.633
 4561SOL    HW130825   5.906   0.251   1.718
 4561SOL    HW230826   5.898   0.114   1.653
 4562SOL     OW30827   1.210   2.280   1.572
 4562SOL    HW130828   1.276   2.213   1.551
 4562SOL    HW230829   1.231   2.306   1.662
 4563SOL     OW30830   0.963   5.895   6.853
 4563SOL    HW130831   0.922   5.879   6.938
 4563SOL    HW230832   0.940   5.819   6.800
 4564SOL     OW30833   4.938   3.001   5.945
 4564SOL    HW130834   4.904   2.914   5.921
 4564SOL    HW230835   4.879   3.031   6.015
 4565SOL     OW30836   2.259   0.604   0.271
 4565SOL    HW130837   2.234   0.601   0.363
 4565SOL    HW230838   2.228   0.689   0.240
 4566SOL     OW30839   5.518   4.776   1.512
 4566SOL    HW130840   5.487   4.860   1.547
 4566SOL    HW230841   5.479   4.771   1.425
 4567SOL     OW30842   2.605   4.191   7.179
 4567SOL    HW130843   2.600   4.284   7.199
 4567SOL    HW230844   2.515   4.165   7.159
 4568SOL     OW30845   5.798   5.712   0.244
 4568SOL    HW130846   5.778   5.688   0.153
 4568SOL    HW230847   5.873   5.772   0.237
 4569SOL     OW30848   2.111   6.209   2.156
 4569SOL    HW130849   2.138   6.191   2.066
 4569SOL    HW230850   2.024   6.171   2.163
 4570SOL     OW30851   3.104   4.376   7.392
 4570SOL    HW130852   3.185   4.427   7.383
 4570SOL    HW230853   3.134   4.288   7.416
 4571SOL     OW30854   0.036   4.642   0.626
 4571SOL    HW130855   6.408   4.697   0.608
 4571SOL    HW230856   0.064   4.610   0.540
 4572SOL     OW30857   0.001   0.276   6.177
 4572SOL    HW130858   0.002   0.302   6.269
 4572SOL    HW230859   0.079   0.317   6.139
 4573SOL     OW30860   4.738   4.220   1.376
 4573SOL    HW130861   4.784   4.140   1.351
 4573SOL    HW230862   4.654   4.189   1.411
 4574SOL     OW30863   0.691   2.179   0.455
 4574SOL    HW130864   0.696   2.211   0.546
 4574SOL    HW230865   0.755   2.108   0.451
 4575SOL     OW30866   5.115   2.209   1.389
 4575SOL    HW130867   5.198   2.223   1.343
 4575SOL    HW230868   5.140   2.187   1.479
 4576SOL     OW30869   3.393   6.353   0.715
 4576SOL    HW130870   3.371   6.260   0.724
 4576SOL    HW230871   3.467   6.354   0.655
 4577SOL     OW30872   6.085   0.544   0.351
 4577SOL    HW130873   6.161   0.506   0.306
 4577SOL    HW230874   6.093   0.638   0.333
 4578SOL     OW30875   5.961   0.829   1.500
 4578SOL    HW130876   5.898   0.899   1.480
 4578SOL    HW230877   5.919   0.750   1.467
 4579SOL     OW30878   5.806   5.263   2.029
 4579SOL    HW130879   5.735   5.325   2.049
 4579SOL    HW230880   5.881   5.319   2.008
 4580SOL     OW30881   5.221   1.904   0.550
 4580SOL    HW130882   5.187   1.930   0.464
 4580SOL    HW230883   5.272   1.979   0.579
 4581SOL     OW30884   1.939   1.866   6.187
 4581SOL    HW130885   1.882   1.848   6.112
 4581SOL    HW230886   1.980   1.950   6.166
 4582SOL     OW30887   4.792   0.676   0.943
 4582SOL    HW130888   4.798   0.669   1.038
 4582SOL    HW230889   4.873   0.719   0.917
 4583SOL     OW30890   5.258   5.703   0.878
 4583SOL    HW130891   5.249   5.690   0.973
 4583SOL    HW230892   5.186   5.761   0.855
 4584SOL     OW30893   3.622   1.969   7.090
 4584SOL    HW130894   3.672   1.952   7.170
 4584SOL    HW230895   3.632   2.063   7.074
 4585SOL     OW30896   3.373   5.147   7.516
 4585SOL    HW130897   3.340   5.161   7.427
 4585SOL    HW230898   3.465   5.174   7.512
 4586SOL     OW30899   5.394   1.369   6.548
 4586SOL    HW130900   5.467   1.354   6.608
 4586SOL    HW230901   5.370   1.461   6.562
 4587SOL     OW30902   2.382   5.231   7.241
 4587SOL    HW130903   2.332   5.312   7.255
 4587SOL    HW230904   2.404   5.202   7.330
 4588SOL     OW30905   3.685   6.053   7.304
 4588SOL    HW130906   3.626   5.977   7.299
 4588SOL    HW230907   3.630   6.124   7.336
 4589SOL     OW30908   5.792   1.916   6.753
 4589SOL    HW130909   5.716   1.858   6.748
 4589SOL    HW230910   5.754   2.004   6.765
 4590SOL     OW30911   5.527   5.831   1.096
 4590SOL    HW130912   5.455   5.891   1.117
 4590SOL    HW230913   5.528   5.828   1.000
 4591SOL     OW30914   2.231   6.418   7.377
 4591SOL    HW130915   2.140   6.448   7.383
 4591SOL    HW230916   2.225   6.322   7.381
 4592SOL     OW30917   1.924   3.712   0.794
 4592SOL    HW130918   1.830   3.709   0.774
 4592SOL    HW230919   1.967   3.692   0.710
 4593SOL     OW30920   4.426   2.094   6.015
 4593SOL    HW130921   4.488   2.154   5.974
 4593SOL    HW230922   4.403   2.032   5.945
 4594SOL     OW30923   3.676   5.683   7.558
 4594SOL    HW130924   3.625   5.757   7.589
 4594SOL    HW230925   3.623   5.646   7.487
 4595SOL     OW30926   1.260   1.602   1.388
 4595SOL    HW130927   1.304   1.517   1.398
 4595SOL    HW230928   1.245   1.631   1.478
 4596SOL     OW30929   4.598   2.625   1.639
 4596SOL    HW130930   4.638   2.648   1.723
 4596SOL    HW230931   4.504   2.622   1.657
 4597SOL     OW30932   6.102   4.477   0.057
 4597SOL    HW130933   6.024   4.529   0.038
 4597SOL    HW230934   6.166   4.502   7.793
 4598SOL     OW30935   4.424   3.809   0.016
 4598SOL    HW130936   4.417   3.834   7.726
 4598SOL    HW230937   4.495   3.745   0.018
 4599SOL     OW30938   4.955   6.320   7.588
 4599SOL    HW130939   4.898   6.367   7.650
 4599SOL    HW230940   5.033   6.297   7.639
 4600SOL     OW30941   2.933   2.635   7.691
 4600SOL    HW130942   2.934   2.669   7.602
 4600SOL    HW230943   3.024   2.610   7.709
 4601SOL     OW30944   4.683   1.579   0.816
 4601SOL    HW130945   4.749   1.533   0.763
 4601SOL    HW230946   4.734   1.632   0.877
 4602SOL     OW30947   5.051   2.124   5.993
 4602SOL    HW130948   5.049   2.030   5.978
 4602SOL    HW230949   4.973   2.158   5.948
 4603SOL     OW30950   6.045   2.752   7.576
 4603SOL    HW130951   5.960   2.778   7.613
 4603SOL    HW230952   6.059   2.813   7.504
 4604SOL     OW30953   5.019   1.633   6.117
 4604SOL    HW130954   5.058   1.546   6.123
 4604SOL    HW230955   5.034   1.671   6.204
 4605SOL     OW30956   1.223   2.496   0.760
 4605SOL    HW130957   1.214   2.555   0.835
 4605SOL    HW230958   1.211   2.553   0.684
 4606SOL     OW30959   4.963   2.760   5.652
 4606SOL    HW130960   4.985   2.668   5.641
 4606SOL    HW230961   4.926   2.765   5.741
 4607SOL     OW30962   3.282   4.729   0.983
 4607SOL    HW130963   3.259   4.742   1.075
 4607SOL    HW230964   3.376   4.716   0.983
 4608SOL     OW30965   1.401   1.109   5.930
 4608SOL    HW130966   1.405   1.072   6.018
 4608SOL    HW230967   1.336   1.057   5.884
 4609SOL     OW30968   1.825   1.679   0.376
 4609SOL    HW130969   1.810   1.760   0.327
 4609SOL    HW230970   1.909   1.692   0.419
 4610SOL     OW30971   4.682   5.181   7.064
 4610SOL    HW130972   4.717   5.268   7.083
 4610SOL    HW230973   4.748   5.139   7.010
 4611SOL     OW30974   6.362   1.232   1.446
 4611SOL    HW130975   6.392   1.141   1.450
 4611SOL    HW230976   6.392   1.270   1.528
 4612SOL     OW30977   0.927   5.718   0.000
 4612SOL    HW130978   0.972   5.634   0.010
 4612SOL    HW230979   0.896   5.739   0.088
 4613SOL     OW30980   5.776   0.046   6.139
 4613SOL    HW130981   5.730   0.106   6.197
 4613SOL    HW230982   5.854   0.021   6.188
 4614SOL     OW30983   5.356   5.624   7.454
 4614SOL    HW130984   5.376   5.575   7.375
 4614SOL    HW230985   5.269   5.593   7.480
 4615SOL     OW30986   3.081   3.233   7.016
 4615SOL    HW130987   3.143   3.190   7.075
 4615SOL    HW230988   3.131   3.305   6.976
 4616SOL     OW30989   6.108   1.628   1.790
 4616SOL    HW130990   6.028   1.620   1.737
 4616SOL    HW230991   6.179   1.623   1.726
 4617SOL     OW30992   4.908   3.258   6.289
 4617SOL    HW130993   4.997   3.253   6.323
 4617SOL    HW230994   4.872   3.339   6.325
 4618SOL     OW30995   4.525   6.167   7.606
 4618SOL    HW130996   4.553   6.107   7.675
 4618SOL    HW230997   4.448   6.124   7.567
 4619SOL     OW30998   1.270   3.737   0.436
 4619SOL    HW130999   1.259   3.701   0.348
 4619SOL    HW231000   1.308   3.823   0.421
 4620SOL     OW31001   0.600   5.001   1.209
 4620SOL    HW131002   0.575   5.093   1.203
 4620SOL    HW231003   0.577   4.964   1.124
 4621SOL     OW31004   0.777   1.179   0.320
 4621SOL    HW131005   0.732   1.253   0.360
 4621SOL    HW231006   0.843   1.218   0.263
 4622SOL     OW31007   3.402   6.369   7.747
 4622SOL    HW131008   3.484   6.408   7.778
 4622SOL    HW231009   3.415   6.275   7.757
 4623SOL     OW31010   3.163   4.433   1.200
 4623SOL    HW131011   3.233   4.458   1.260
 4623SOL    HW231012   3.207   4.392   1.126
 4624SOL     OW31013   1.634   0.883   0.055
 4624SOL    HW131014   1.612   0.809   7.801
 4624SOL    HW231015   1.594   0.861   0.139
 4625SOL     OW31016   0.361   0.131   6.629
 4625SOL    HW131017   0.328   0.155   6.715
 4625SOL    HW231018   0.456   0.124   6.640
 4626SOL     OW31019   5.757   0.023   5.689
 4626SOL    HW131020   5.837   0.006   5.640
 4626SOL    HW231021   5.688   0.021   5.622
 4627SOL     OW31022   2.322   0.395   7.056
 4627SOL    HW131023   2.286   0.446   6.983
 4627SOL    HW231024   2.390   0.340   7.017
 4628SOL     OW31025   3.409   0.796   1.629
 4628SOL    HW131026   3.431   0.747   1.550
 4628SOL    HW231027   3.358   0.871   1.598
 4629SOL     OW31028   5.113   0.111   6.352
 4629SOL    HW131029   5.088   0.136   6.263
 4629SOL    HW231030   5.134   0.194   6.394
 4630SOL     OW31031   0.748   4.550   6.623
 4630SOL    HW131032   0.658   4.536   6.593
 4630SOL    HW231033   0.745   4.635   6.667
 4631SOL     OW31034   6.295   4.782   0.853
 4631SOL    HW131035   6.390   4.779   0.864
 4631SOL    HW231036   6.281   4.795   0.759
 4632SOL     OW31037   2.981   0.164   0.329
 4632SOL    HW131038   3.005   0.214   0.407
 4632SOL    HW231039   3.052   0.181   0.267
 4633SOL     OW31040   5.274   3.449   0.941
 4633SOL    HW131041   5.285   3.528   0.887
 4633SOL    HW231042   5.359   3.406   0.938
 4634SOL     OW31043   1.012   5.032   5.395
 4634SOL    HW131044   1.093   5.001   5.356
 4634SOL    HW231045   0.961   5.066   5.322
 4635SOL     OW31046   0.656   3.966   2.334
 4635SOL    HW131047   0.575   4.017   2.340
 4635SOL    HW231048   0.697   3.975   2.420
 4636SOL     OW31049   3.085   1.482   6.324
 4636SOL    HW131050   3.155   1.522   6.375
 4636SOL    HW231051   3.128   1.410   6.277
 4637SOL     OW31052   4.592   5.587   0.116
 4637SOL    HW131053   4.658   5.653   0.138
 4637SOL    HW231054   4.521   5.602   0.179
 4638SOL     OW31055   2.667   0.476   0.340
 4638SOL    HW131056   2.702   0.393   0.307
 4638SOL    HW231057   2.629   0.518   0.264
 4639SOL     OW31058   3.097   5.197   0.249
 4639SOL    HW131059   3.176   5.251   0.243
 4639SOL    HW231060   3.109   5.146   0.328
 4640SOL     OW31061   4.534   6.147   5.929
 4640SOL    HW131062   4.600   6.213   5.907
 4640SOL    HW231063   4.543   6.081   5.860
 4641SOL     OW31064   3.941   4.438   6.141
 4641SOL    HW131065   3.903   4.407   6.058
 4641SOL    HW231066   3.986   4.519   6.118
 4642SOL     OW31067   6.385   0.599   7.056
 4642SOL    HW131068   6.423   0.573   7.140
 4642SOL    HW231069   0.006   0.582   6.992
 4643SOL     OW31070   5.218   2.413   0.137
 4643SOL    HW131071   5.280   2.446   0.072
 4643SOL    HW231072   5.274   2.375   0.206
 4644SOL     OW31073   0.565   3.929   7.244
 4644SOL    HW131074   0.612   3.983   7.308
 4644SOL    HW231075   0.555   3.845   7.287
 4645SOL     OW31076   2.573   3.413   6.150
 4645SOL    HW131077   2.479   3.407   6.132
 4645SOL    HW231078   2.585   3.363   6.231
 4646SOL     OW31079   6.035   2.904   5.843
 4646SOL    HW131080   5.971   2.938   5.781
 4646SOL    HW231081   6.085   2.840   5.794
 4647SOL     OW31082   6.028   1.918   0.916
 4647SOL    HW131083   5.945   1.927   0.870
 4647SOL    HW231084   6.003   1.906   1.008
 4648SOL     OW31085   3.118   4.131   0.591
 4648SOL    HW131086   3.130   4.223   0.612
 4648SOL    HW231087   3.203   4.104   0.556
 4649SOL     OW31088   3.964   4.560   6.896
 4649SOL    HW131089   3.878   4.542   6.935
 4649SOL    HW231090   4.014   4.599   6.968
 4650SOL     OW31091   2.539   0.252   1.232
 4650SOL    HW131092   2.536   0.221   1.142
 4650SOL    HW231093   2.524   0.173   1.285
 4651SOL     OW31094   4.945   3.388   6.015
 4651SOL    HW131095   4.923   3.400   5.922
 4651SOL    HW231096   4.889   3.317   6.044
 4652SOL     OW31097   5.459   3.420   6.102
 4652SOL    HW131098   5.367   3.393   6.108
 4652SOL    HW231099   5.488   3.389   6.017
 4653SOL     OW31100   3.624   0.610   0.381
 4653SOL    HW131101   3.701   0.578   0.429
 4653SOL    HW231102   3.564   0.535   0.379
 4654SOL     OW31103   2.462   5.566   0.427
 4654SOL    HW131104   2.404   5.590   0.355
 4654SOL    HW231105   2.513   5.646   0.445
 4655SOL     OW31106   0.178   5.205   6.734
 4655SOL    HW131107   0.162   5.242   6.821
 4655SOL    HW231108   0.174   5.110   6.746
 4656SOL     OW31109   0.895   4.315   1.812
 4656SOL    HW131110   0.801   4.328   1.822
 4656SOL    HW231111   0.918   4.366   1.734
 4657SOL     OW31112   2.546   5.010   1.364
 4657SOL    HW131113   2.613   4.975   1.305
 4657SOL    HW231114   2.532   5.100   1.333
 4658SOL     OW31115   5.923   3.526   5.649
 4658SOL    HW131116   5.843   3.474   5.655
 4658SOL    HW231117   5.984   3.471   5.600
 4659SOL     OW31118   2.057   3.841   6.413
 4659SOL    HW131119   2.112   3.918   6.398
 4659SOL    HW231120   2.045   3.839   6.508
 4660SOL     OW31121   0.068   6.192   6.745
 4660SOL    HW131122   0.052   6.135   6.820
 4660SOL    HW231123   0.031   6.144   6.670
 4661SOL     OW31124   5.718   0.124   7.339
 4661SOL    HW131125   5.699   0.051   7.397
 4661SOL    HW231126   5.761   0.189   7.394
 4662SOL     OW31127   4.136   1.838   5.989
 4662SOL    HW131128   4.181   1.828   6.073
 4662SOL    HW231129   4.205   1.863   5.928
 4663SOL     OW31130   5.970   1.483   0.921
 4663SOL    HW131131   5.879   1.476   0.891
 4663SOL    HW231132   6.019   1.511   0.844
 4664SOL     OW31133   4.687   5.388   0.416
 4664SOL    HW131134   4.631   5.404   0.492
 4664SOL    HW231135   4.757   5.453   0.424
 4665SOL     OW31136   0.544   0.852   6.746
 4665SOL    HW131137   0.531   0.817   6.658
 4665SOL    HW231138   0.634   0.828   6.768
 4666SOL     OW31139   3.261   4.881   6.404
 4666SOL    HW131140   3.173   4.908   6.377
 4666SOL    HW231141   3.277   4.800   6.355
 4667SOL     OW31142   2.614   2.757   6.442
 4667SOL    HW131143   2.546   2.692   6.423
 4667SOL    HW231144   2.584   2.801   6.522
 4668SOL     OW31145   4.328   1.934   5.807
 4668SOL    HW131146   4.324   2.005   5.742
 4668SOL    HW231147   4.375   1.864   5.763
 4669SOL     OW31148   1.516   2.369   1.392
 4669SOL    HW131149   1.502   2.448   1.444
 4669SOL    HW231150   1.530   2.300   1.457
 4670SOL     OW31151   3.178   0.335   0.913
 4670SOL    HW131152   3.202   0.330   1.006
 4670SOL    HW231153   3.135   0.252   0.895
 4671SOL     OW31154   6.135   4.077   0.856
 4671SOL    HW131155   6.213   4.021   0.853
 4671SOL    HW231156   6.096   4.070   0.768
 4672SOL     OW31157   1.766   1.269   7.004
 4672SOL    HW131158   1.753   1.256   6.910
 4672SOL    HW231159   1.735   1.188   7.044
 4673SOL     OW31160   2.976   2.480   2.234
 4673SOL    HW131161   3.009   2.400   2.276
 4673SOL    HW231162   2.985   2.548   2.301
 4674SOL     OW31163   0.320   2.551   0.751
 4674SOL    HW131164   0.374   2.550   0.671
 4674SOL    HW231165   0.355   2.624   0.802
 4675SOL     OW31166   1.762   3.337   6.971
 4675SOL    HW131167   1.684   3.283   6.988
 4675SOL    HW231168   1.820   3.319   7.045
 4676SOL     OW31169   4.722   4.428   6.057
 4676SOL    HW131170   4.701   4.425   6.150
 4676SOL    HW231171   4.788   4.497   6.050
 4677SOL     OW31172   5.259   4.138   6.539
 4677SOL    HW131173   5.177   4.091   6.526
 4677SOL    HW231174   5.233   4.225   6.570
 4678SOL     OW31175   6.386   1.507   0.231
 4678SOL    HW131176   0.023   1.484   0.194
 4678SOL    HW231177   6.407   1.547   0.315
 4679SOL     OW31178   0.324   2.094   1.055
 4679SOL    HW131179   0.407   2.065   1.091
 4679SOL    HW231180   0.348   2.142   0.975
 4680SOL     OW31181   0.899   2.119   0.081
 4680SOL    HW131182   0.810   2.092   0.059
 4680SOL    HW231183   0.939   2.142   7.800
 4681SOL     OW31184   1.164   2.544   6.269
 4681SOL    HW131185   1.194   2.594   6.345
 4681SOL    HW231186   1.085   2.589   6.240
 4682SOL     OW31187   2.880   0.143   6.946
 4682SOL    HW131188   2.845   0.205   7.011
 4682SOL    HW231189   2.820   0.069   6.949
 4683SOL     OW31190   3.596   5.607   5.452
 4683SOL    HW131191   3.637   5.538   5.399
 4683SOL    HW231192   3.516   5.629   5.404
 4684SOL     OW31193   4.000   1.497   7.217
 4684SOL    HW131194   4.075   1.451   7.180
 4684SOL    HW231195   3.960   1.541   7.143
 4685SOL     OW31196   4.264   2.945   6.986
 4685SOL    HW131197   4.291   3.009   6.920
 4685SOL    HW231198   4.168   2.942   6.977
 4686SOL     OW31199   2.992   1.933   1.437
 4686SOL    HW131200   2.989   1.906   1.345
 4686SOL    HW231201   3.036   2.018   1.436
 4687SOL     OW31202   0.113   0.188   7.140
 4687SOL    HW131203   0.154   0.179   7.054
 4687SOL    HW231204   0.152   0.267   7.178
 4688SOL     OW31205   1.937   5.540   6.673
 4688SOL    HW131206   1.874   5.597   6.630
 4688SOL    HW231207   1.915   5.546   6.766
 4689SOL     OW31208   3.923   6.209   6.745
 4689SOL    HW131209   3.927   6.261   6.825
 4689SOL    HW231210   3.952   6.268   6.676
 4690SOL     OW31211   3.786   4.292   0.494
 4690SOL    HW131212   3.703   4.332   0.467
 4690SOL    HW231213   3.803   4.226   0.427
 4691SOL     OW31214   5.893   0.497   7.156
 4691SOL    HW131215   5.973   0.547   7.173
 4691SOL    HW231216   5.910   0.411   7.193
 4692SOL     OW31217   2.464   2.202   5.968
 4692SOL    HW131218   2.487   2.195   5.876
 4692SOL    HW231219   2.543   2.236   6.010
 4693SOL     OW31220   4.103   0.659   0.990
 4693SOL    HW131221   4.075   0.569   0.970
 4693SOL    HW231222   4.117   0.659   1.085
 4694SOL     OW31223   2.791   2.408   7.615
 4694SOL    HW131224   2.814   2.346   7.685
 4694SOL    HW231225   2.832   2.490   7.642
 4695SOL     OW31226   6.014   1.722   0.490
 4695SOL    HW131227   6.063   1.800   0.465
 4695SOL    HW231228   5.926   1.754   0.512
 4696SOL     OW31229   4.536   0.731   0.831
 4696SOL    HW131230   4.623   0.701   0.858
 4696SOL    HW231231   4.511   0.794   0.899
 4697SOL     OW31232   3.707   4.289   6.486
 4697SOL    HW131233   3.725   4.369   6.436
 4697SOL    HW231234   3.707   4.219   6.421
 4698SOL     OW31235   2.902   3.184   7.223
 4698SOL    HW131236   2.887   3.269   7.263
 4698SOL    HW231237   2.953   3.203   7.145
 4699SOL     OW31238   2.313   1.825   6.240
 4699SOL    HW131239   2.297   1.897   6.179
 4699SOL    HW231240   2.383   1.774   6.198
 4700SOL     OW31241   6.258   3.663   1.556
 4700SOL    HW131242   6.330   3.724   1.540
 4700SOL    HW231243   6.290   3.606   1.626
 4701SOL     OW31244   1.974   4.212   1.391
 4701SOL    HW131245   1.987   4.235   1.299
 4701SOL    HW231246   2.042   4.147   1.410
 4702SOL     OW31247   6.061   3.325   7.408
 4702SOL    HW131248   5.996   3.305   7.475
 4702SOL    HW231249   6.137   3.359   7.456
 4703SOL     OW31250   6.448   4.128   0.225
 4703SOL    HW131251   6.381   4.080   0.176
 4703SOL    HW231252   0.053   4.059   0.266
 4704SOL     OW31253   5.159   2.079   6.317
 4704SOL    HW131254   5.156   2.155   6.260
 4704SOL    HW231255   5.069   2.045   6.317
 4705SOL     OW31256   3.407   5.963   6.869
 4705SOL    HW131257   3.389   5.995   6.781
 4705SOL    HW231258   3.462   6.031   6.908
 4706SOL     OW31259   1.723   5.469   6.052
 4706SOL    HW131260   1.793   5.524   6.017
 4706SOL    HW231261   1.653   5.531   6.076
 4707SOL     OW31262   5.608   0.558   1.267
 4707SOL    HW131263   5.598   0.464   1.247
 4707SOL    HW231264   5.623   0.598   1.182
 4708SOL     OW31265   1.077   4.430   0.716
 4708SOL    HW131266   1.082   4.340   0.685
 4708SOL    HW231267   1.031   4.424   0.800
 4709SOL     OW31268   3.811   3.007   0.212
 4709SOL    HW131269   3.844   3.095   0.230
 4709SOL    HW231270   3.879   2.966   0.160
 4710SOL     OW31271   3.941   6.116   5.987
 4710SOL    HW131272   4.017   6.103   5.930
 4710SOL    HW231273   3.892   6.034   5.980
 4711SOL     OW31274   0.799   0.434   6.849
 4711SOL    HW131275   0.828   0.343   6.863
 4711SOL    HW231276   0.878   0.486   6.864
 4712SOL     OW31277   3.313   3.335   1.653
 4712SOL    HW131278   3.319   3.247   1.690
 4712SOL    HW231279   3.333   3.393   1.726
 4713SOL     OW31280   0.273   4.492   6.127
 4713SOL    HW131281   0.309   4.415   6.082
 4713SOL    HW231282   0.242   4.549   6.056
 4714SOL     OW31283   3.160   2.413   1.553
 4714SOL    HW131284   3.233   2.467   1.524
 4714SOL    HW231285   3.122   2.462   1.627
 4715SOL     OW31286   0.547   6.236   0.417
 4715SOL    HW131287   0.477   6.263   0.475
 4715SOL    HW231288   0.509   6.241   0.329
 4716SOL     OW31289   5.337   2.053   7.081
 4716SOL    HW131290   5.421   2.027   7.042
 4716SOL    HW231291   5.340   2.017   7.169
 4717SOL     OW31292   3.468   3.863   6.740
 4717SOL    HW131293   3.543   3.841   6.685
 4717SOL    HW231294   3.465   3.958   6.740
 4718SOL     OW31295   2.755   1.974   7.648
 4718SOL    HW131296   2.738   2.024   7.727
 4718SOL    HW231297   2.768   1.884   7.678
 4719SOL     OW31298   4.912   3.295   0.031
 4719SOL    HW131299   4.935   3.218   7.781
 4719SOL    HW231300   4.867   3.259   0.107
 4720SOL     OW31301   2.661   3.058   7.175
 4720SOL    HW131302   2.684   2.976   7.131
 4720SOL    HW231303   2.745   3.101   7.192
 4721SOL     OW31304   1.193   3.168   0.904
 4721SOL    HW131305   1.240   3.226   0.964
 4721SOL    HW231306   1.221   3.080   0.930
 4722SOL     OW31307   0.601   5.913   5.486
 4722SOL    HW131308   0.507   5.892   5.490
 4722SOL    HW231309   0.606   5.993   5.434
 4723SOL     OW31310   4.039   0.399   5.883
 4723SOL    HW131311   4.123   0.363   5.912
 4723SOL    HW231312   4.063   0.470   5.823
 4724SOL     OW31313   2.363   4.995   0.024
 4724SOL    HW131314   2.345   4.953   0.108
 4724SOL    HW231315   2.307   5.073   0.024
 4725SOL     OW31316   4.283   2.798   0.131
 4725SOL    HW131317   4.291   2.713   0.087
 4725SOL    HW231318   4.282   2.862   0.060
 4726SOL     OW31319   0.997   0.048   7.311
 4726SOL    HW131320   0.978   6.418   7.260
 4726SOL    HW231321   0.912   0.088   7.328
 4727SOL     OW31322   5.084   3.003   0.179
 4727SOL    HW131323   5.173   3.035   0.189
 4727SOL    HW231324   5.082   2.963   0.093
 4728SOL     OW31325   0.813   4.302   1.364
 4728SOL    HW131326   0.861   4.272   1.286
 4728SOL    HW231327   0.722   4.278   1.346
 4729SOL     OW31328   0.167   4.862   2.700
 4729SOL    HW131329   0.090   4.817   2.734
 4729SOL    HW231330   0.142   4.954   2.698
 4730SOL     OW31331   5.346   4.431   1.429
 4730SOL    HW131332   5.401   4.473   1.495
 4730SOL    HW231333   5.257   4.440   1.463
 4731SOL     OW31334   1.839   0.974   6.675
 4731SOL    HW131335   1.894   0.997   6.600
 4731SOL    HW231336   1.777   0.910   6.640
 4732SOL     OW31337   5.258   0.975   7.705
 4732SOL    HW131338   5.177   0.946   7.748
 4732SOL    HW231339   5.281   0.902   7.647
 4733SOL     OW31340   0.127   4.790   0.848
 4733SOL    HW131341   0.120   4.735   0.771
 4733SOL    HW231342   0.182   4.863   0.821
 4734SOL     OW31343   1.952   4.885   5.695
 4734SOL    HW131344   1.939   4.839   5.778
 4734SOL    HW231345   1.897   4.838   5.633
 4735SOL     OW31346   3.536   3.625   7.444
 4735SOL    HW131347   3.463   3.567   7.420
 4735SOL    HW231348   3.580   3.580   7.515
 4736SOL     OW31349   4.578   4.783   6.441
 4736SOL    HW131350   4.585   4.729   6.520
 4736SOL    HW231351   4.656   4.761   6.391
 4737SOL     OW31352   2.963   2.819   0.826
 4737SOL    HW131353   3.049   2.781   0.846
 4737SOL    HW231354   2.912   2.807   0.906
 4738SOL     OW31355   1.482   4.904   1.532
 4738SOL    HW131356   1.413   4.837   1.535
 4738SOL    HW231357   1.486   4.938   1.622
 4739SOL     OW31358   2.549   0.080   5.654
 4739SOL    HW131359   2.529   0.115   5.568
 4739SOL    HW231360   2.639   0.046   5.646
 4740SOL     OW31361   1.576   2.880   0.915
 4740SOL    HW131362   1.607   2.814   0.977
 4740SOL    HW231363   1.647   2.944   0.910
 4741SOL     OW31364   4.153   0.779   0.520
 4741SOL    HW131365   4.210   0.743   0.588
 4741SOL    HW231366   4.084   0.824   0.568
 4742SOL     OW31367   6.007   5.147   0.519
 4742SOL    HW131368   6.087   5.199   0.516
 4742SOL    HW231369   5.993   5.130   0.612
 4743SOL     OW31370   3.001   4.863   0.153
 4743SOL    HW131371   3.094   4.878   0.136
 4743SOL    HW231372   2.993   4.863   0.248
 4744SOL     OW31373   4.145   2.859   6.485
 4744SOL    HW131374   4.069   2.889   6.436
 4744SOL    HW231375   4.111   2.787   6.539
 4745SOL     OW31376   0.049   3.848   7.160
 4745SOL    HW131377   6.418   3.799   7.178
 4745SOL    HW231378   0.100   3.792   7.101
 4746SOL     OW31379   2.704   5.154   0.667
 4746SOL    HW131380   2.753   5.081   0.705
 4746SOL    HW231381   2.684   5.126   0.578
 4747SOL     OW31382   3.211   3.600   1.144
 4747SOL    HW131383   3.168   3.630   1.224
 4747SOL    HW231384   3.238   3.510   1.163
 4748SOL     OW31385   1.762   5.255   6.211
 4748SOL    HW131386   1.787   5.302   6.291
 4748SOL    HW231387   1.730   5.324   6.152
 4749SOL     OW31388   4.041   2.488   1.280
 4749SOL    HW131389   4.113   2.425   1.282
 4749SOL    HW231390   4.080   2.568   1.244
 4750SOL     OW31391   3.037   4.066   7.259
 4750SOL    HW131392   3.102   4.045   7.192
 4750SOL    HW231393   3.088   4.099   7.333
 4751SOL     OW31394   4.279   3.854   6.287
 4751SOL    HW131395   4.241   3.899   6.212
 4751SOL    HW231396   4.287   3.763   6.258
 4752SOL     OW31397   5.094   5.858   6.520
 4752SOL    HW131398   5.151   5.840   6.445
 4752SOL    HW231399   5.005   5.851   6.484
 4753SOL     OW31400   5.542   1.653   1.850
 4753SOL    HW131401   5.508   1.719   1.910
 4753SOL    HW231402   5.546   1.572   1.902
 4754SOL     OW31403   5.588   0.488   6.187
 4754SOL    HW131404   5.508   0.536   6.163
 4754SOL    HW231405   5.626   0.462   6.103
 4755SOL     OW31406   5.399   5.886   7.681
 4755SOL    HW131407   5.423   5.966   7.636
 4755SOL    HW231408   5.303   5.890   7.688
 4756SOL     OW31409   2.836   4.086   7.064
 4756SOL    HW131410   2.755   4.122   7.101
 4756SOL    HW231411   2.896   4.079   7.138
 4757SOL     OW31412   3.931   1.606   6.966
 4757SOL    HW131413   3.989   1.548   6.918
 4757SOL    HW231414   3.949   1.693   6.931
 4758SOL     OW31415   2.171   4.204   7.420
 4758SOL    HW131416   2.101   4.140   7.413
 4758SOL    HW231417   2.152   4.270   7.353
 4759SOL     OW31418   3.580   3.677   6.230
 4759SOL    HW131419   3.521   3.744   6.196
 4759SOL    HW231420   3.535   3.642   6.307
 4760SOL     OW31421   2.198   0.346   7.448
 4760SOL    HW131422   2.194   0.440   7.465
 4760SOL    HW231423   2.187   0.306   7.534
 4761SOL     OW31424   1.546   5.521   0.777
 4761SOL    HW131425   1.481   5.510   0.846
 4761SOL    HW231426   1.529   5.450   0.716
 4762SOL     OW31427   5.994   5.062   1.416
 4762SOL    HW131428   5.922   5.102   1.465
 4762SOL    HW231429   5.953   4.991   1.366
 4763SOL     OW31430   1.030   2.487   6.859
 4763SOL    HW131431   0.982   2.427   6.802
 4763SOL    HW231432   0.962   2.532   6.910
 4764SOL     OW31433   5.253   5.797   1.397
 4764SOL    HW131434   5.194   5.797   1.472
 4764SOL    HW231435   5.310   5.873   1.411
 4765SOL     OW31436   3.925   5.480   0.748
 4765SOL    HW131437   3.860   5.417   0.780
 4765SOL    HW231438   4.009   5.434   0.758
 4766SOL     OW31439   1.514   0.033   7.527
 4766SOL    HW131440   1.502   0.116   7.573
 4766SOL    HW231441   1.502   0.055   7.435
 4767SOL     OW31442   3.259   4.910   7.599
 4767SOL    HW131443   3.261   4.901   7.695
 4767SOL    HW231444   3.295   4.997   7.582
 4768SOL     OW31445   5.358   6.029   1.175
 4768SOL    HW131446   5.354   6.028   1.271
 4768SOL    HW231447   5.266   6.030   1.148
 4769SOL     OW31448   4.639   3.181   7.226
 4769SOL    HW131449   4.673   3.215   7.143
 4769SOL    HW231450   4.637   3.086   7.213
 4770SOL     OW31451   3.986   1.430   2.522
 4770SOL    HW131452   3.928   1.358   2.496
 4770SOL    HW231453   4.073   1.390   2.528
 4771SOL     OW31454   6.086   1.320   0.568
 4771SOL    HW131455   6.031   1.242   0.566
 4771SOL    HW231456   6.066   1.364   0.486
 4772SOL     OW31457   2.398   6.441   0.083
 4772SOL    HW131458   2.424   6.427   7.795
 4772SOL    HW231459   2.441   6.371   0.132
 4773SOL     OW31460   3.526   4.992   1.080
 4773SOL    HW131461   3.469   5.049   1.029
 4773SOL    HW231462   3.609   5.039   1.085
 4774SOL     OW31463   1.078   3.254   7.790
 4774SOL    HW131464   1.144   3.197   7.750
 4774SOL    HW231465   1.111   3.269   0.076
 4775SOL     OW31466   1.910   4.506   1.041
 4775SOL    HW131467   1.975   4.500   0.972
 4775SOL    HW231468   1.954   4.555   1.111
 4776SOL     OW31469   3.875   1.108   0.849
 4776SOL    HW131470   3.917   1.037   0.800
 4776SOL    HW231471   3.849   1.068   0.932
 4777SOL     OW31472   1.286   5.980   7.145
 4777SOL    HW131473   1.220   5.937   7.199
 4777SOL    HW231474   1.263   5.956   7.055
 4778SOL     OW31475   4.782   0.065   1.483
 4778SOL    HW131476   4.761   0.157   1.500
 4778SOL    HW231477   4.845   0.068   1.411
 4779SOL     OW31478   5.054   3.075   6.605
 4779SOL    HW131479   5.111   3.150   6.620
 4779SOL    HW231480   5.065   3.056   6.512
 4780SOL     OW31481   5.093   5.909   7.413
 4780SOL    HW131482   5.005   5.946   7.412
 4780SOL    HW231483   5.119   5.910   7.505
 4781SOL     OW31484   3.897   1.951   0.742
 4781SOL    HW131485   3.848   1.955   0.660
 4781SOL    HW231486   3.916   1.858   0.754
 4782SOL     OW31487   4.270   5.703   1.155
 4782SOL    HW131488   4.187   5.751   1.148
 4782SOL    HW231489   4.319   5.750   1.222
 4783SOL     OW31490   3.045   1.465   0.659
 4783SOL    HW131491   3.124   1.489   0.609
 4783SOL    HW231492   3.061   1.502   0.746
 4784SOL     OW31493   5.937   1.609   7.746
 4784SOL    HW131494   5.884   1.654   0.010
 4784SOL    HW231495   6.023   1.598   7.788
 4785SOL     OW31496   3.995   2.993   0.704
 4785SOL    HW131497   4.048   3.060   0.661
 4785SOL    HW231498   4.050   2.915   0.703
 4786SOL     OW31499   4.248   0.269   6.682
 4786SOL    HW131500   4.171   0.318   6.653
 4786SOL    HW231501   4.312   0.337   6.705
 4787SOL     OW31502   5.135   0.730   1.349
 4787SOL    HW131503   5.183   0.776   1.280
 4787SOL    HW231504   5.143   0.786   1.426
 4788SOL     OW31505   1.346   2.424   0.180
 4788SOL    HW131506   1.366   2.358   0.114
 4788SOL    HW231507   1.266   2.392   0.222
 4789SOL     OW31508   3.911   0.284   0.656
 4789SOL    HW131509   3.875   0.207   0.613
 4789SOL    HW231510   3.999   0.258   0.684
 4790SOL     OW31511   3.361   3.873   6.429
 4790SOL    HW131512   3.386   3.875   6.336
 4790SOL    HW231513   3.395   3.788   6.460
 4791SOL     OW31514   3.456   2.378   0.934
 4791SOL    HW131515   3.453   2.471   0.957
 4791SOL    HW231516   3.532   2.344   0.982
 4792SOL     OW31517   3.348   4.413   6.438
 4792SOL    HW131518   3.372   4.436   6.527
 4792SOL    HW231519   3.340   4.498   6.393
 4793SOL     OW31520   5.020   6.108   7.139
 4793SOL    HW131521   5.084   6.053   7.095
 4793SOL    HW231522   5.070   6.183   7.171
 4794SOL     OW31523   6.013   0.418   6.911
 4794SOL    HW131524   5.983   0.426   7.002
 4794SOL    HW231525   6.042   0.327   6.903
 4795SOL     OW31526   6.206   5.222   1.080
 4795SOL    HW131527   6.147   5.150   1.060
 4795SOL    HW231528   6.180   5.252   1.167
 4796SOL     OW31529   0.001   1.231   2.029
 4796SOL    HW131530   0.000   1.158   1.968
 4796SOL    HW231531   0.054   1.298   1.986
 4797SOL     OW31532   0.987   4.619   6.508
 4797SOL    HW131533   0.903   4.596   6.547
 4797SOL    HW231534   0.981   4.592   6.417
 4798SOL     OW31535   2.937   6.438   5.915
 4798SOL    HW131536   3.007   6.393   5.963
 4798SOL    HW231537   2.858   6.421   5.966
 4799SOL     OW31538   6.290   3.001   0.568
 4799SOL    HW131539   6.218   3.014   0.630
 4799SOL    HW231540   6.302   3.087   0.528
 4800SOL     OW31541   5.080   2.808   6.667
 4800SOL    HW131542   5.069   2.903   6.654
 4800SOL    HW231543   5.133   2.780   6.593
 4801SOL     OW31544   0.713   1.096   5.597
 4801SOL    HW131545   0.687   1.054   5.516
 4801SOL    HW231546   0.653   1.062   5.663
 4802SOL     OW31547   1.004   1.535   5.700
 4802SOL    HW131548   1.066   1.530   5.773
 4802SOL    HW231549   0.963   1.448   5.697
 4803SOL     OW31550   0.047   4.779   2.190
 4803SOL    HW131551   0.120   4.835   2.219
 4803SOL    HW231552   6.417   4.824   2.221
 4804SOL     OW31553   1.040   5.950   0.464
 4804SOL    HW131554   0.959   5.902   0.482
 4804SOL    HW231555   1.041   5.959   0.369
 4805SOL     OW31556   3.037   1.824   5.151
 4805SOL    HW131557   2.974   1.853   5.085
 4805SOL    HW231558   2.983   1.797   5.225
 4806SOL     OW31559   2.618   4.644   6.353
 4806SOL    HW131560   2.541   4.695   6.379
 4806SOL    HW231561   2.686   4.709   6.338
 4807SOL     OW31562   4.866   3.488   1.070
 4807SOL    HW131563   4.791   3.494   1.010
 4807SOL    HW231564   4.927   3.430   1.025
 4808SOL     OW31565   0.424   5.929   1.067
 4808SOL    HW131566   0.328   5.931   1.069
 4808SOL    HW231567   0.450   5.943   1.158
 4809SOL     OW31568   2.727   3.282   1.368
 4809SOL    HW131569   2.711   3.211   1.305
 4809SOL    HW231570   2.694   3.248   1.451
 4810SOL     OW31571   1.544   4.528   7.001
 4810SOL    HW131572   1.548   4.488   6.914
 4810SOL    HW231573   1.628   4.573   7.011
 4811SOL     OW31574   6.435   3.559   1.789
 4811SOL    HW131575   0.032   3.529   1.710
 4811SOL    HW231576   0.044   3.530   1.861
 4812SOL     OW31577   4.817   2.853   1.006
 4812SOL    HW131578   4.827   2.784   1.070
 4812SOL    HW231579   4.879   2.921   1.033
 4813SOL     OW31580   2.262   0.927   1.397
 4813SOL    HW131581   2.227   1.000   1.449
 4813SOL    HW231582   2.348   0.958   1.367
 4814SOL     OW31583   1.859   3.191   7.243
 4814SOL    HW131584   1.778   3.154   7.278
 4814SOL    HW231585   1.888   3.254   7.309
 4815SOL     OW31586   0.180   1.083   5.931
 4815SOL    HW131587   0.274   1.103   5.931
 4815SOL    HW231588   0.175   0.993   5.964
 4816SOL     OW31589   6.031   5.669   1.986
 4816SOL    HW131590   6.017   5.574   1.984
 4816SOL    HW231591   6.024   5.692   2.079
 4817SOL     OW31592   6.419   2.143   7.131
 4817SOL    HW131593   0.027   2.145   7.209
 4817SOL    HW231594   6.343   2.196   7.154
 4818SOL     OW31595   3.922   1.303   0.509
 4818SOL    HW131596   4.016   1.311   0.525
 4818SOL    HW231597   3.909   1.212   0.483
 4819SOL     OW31598   0.387   4.304   7.058
 4819SOL    HW131599   0.362   4.213   7.075
 4819SOL    HW231600   0.398   4.308   6.963
 4820SOL     OW31601   0.065   2.087   0.400
 4820SOL    HW131602   0.147   2.126   0.372
 4820SOL    HW231603   0.078   2.067   0.492
 4821SOL     OW31604   3.253   5.512   6.721
 4821SOL    HW131605   3.208   5.458   6.786
 4821SOL    HW231606   3.279   5.591   6.769
 4822SOL     OW31607   0.131   4.584   1.586
 4822SOL    HW131608   0.125   4.573   1.491
 4822SOL    HW231609   0.201   4.525   1.613
 4823SOL     OW31610   5.677   6.116   6.716
 4823SOL    HW131611   5.702   6.193   6.768
 4823SOL    HW231612   5.582   6.117   6.715
 4824SOL     OW31613   1.945   0.093   7.645
 4824SOL    HW131614   2.024   0.133   7.681
 4824SOL    HW231615   1.960   0.090   7.550
 4825SOL     OW31616   0.334   4.303   5.662
 4825SOL    HW131617   0.341   4.218   5.706
 4825SOL    HW231618   0.267   4.351   5.711
 4826SOL     OW31619   0.054   2.683   6.813
 4826SOL    HW131620   0.019   2.708   6.727
 4826SOL    HW231621   6.446   2.729   6.876
 4827SOL     OW31622   4.066   1.668   6.605
 4827SOL    HW131623   4.159   1.688   6.593
 4827SOL    HW231624   4.037   1.730   6.672
 4828SOL     OW31625   2.944   4.853   0.434
 4828SOL    HW131626   2.852   4.852   0.406
 4828SOL    HW231627   2.946   4.794   0.510
 4829SOL     OW31628   5.193   1.860   6.568
 4829SOL    HW131629   5.121   1.883   6.627
 4829SOL    HW231630   5.245   1.941   6.561
 4830SOL     OW31631   5.772   0.884   6.260
 4830SOL    HW131632   5.711   0.842   6.321
 4830SOL    HW231633   5.726   0.887   6.177
 4831SOL     OW31634   1.293   4.373   6.382
 4831SOL    HW131635   1.284   4.453   6.330
 4831SOL    HW231636   1.388   4.363   6.394
 4832SOL     OW31637   1.999   3.133   1.334
 4832SOL    HW131638   2.059   3.077   1.383
 4832SOL    HW231639   1.939   3.168   1.400
 4833SOL     OW31640   5.206   3.191   5.276
 4833SOL    HW131641   5.111   3.196   5.282
 4833SOL    HW231642   5.223   3.106   5.237
 4834SOL     OW31643   2.880   4.245   0.342
 4834SOL    HW131644   2.969   4.259   0.311
 4834SOL    HW231645   2.847   4.332   0.362
 4835SOL     OW31646   3.345   0.494   0.762
 4835SOL    HW131647   3.277   0.447   0.811
 4835SOL    HW231648   3.311   0.498   0.672
 4836SOL     OW31649   2.240   4.476   6.185
 4836SOL    HW131650   2.319   4.443   6.228
 4836SOL    HW231651   2.263   4.479   6.092
 4837SOL     OW31652   4.791   1.054   7.354
 4837SOL    HW131653   4.858   1.120   7.375
 4837SOL    HW231654   4.736   1.096   7.288
 4838SOL     OW31655   4.913   5.288   7.749
 4838SOL    HW131656   4.847   5.298   0.015
 4838SOL    HW231657   4.986   5.344   7.777
 4839SOL     OW31658   3.135   2.179   1.416
 4839SOL    HW131659   3.074   2.189   1.343
 4839SOL    HW231660   3.131   2.264   1.461
 4840SOL     OW31661   1.693   3.695   0.185
 4840SOL    HW131662   1.711   3.715   0.277
 4840SOL    HW231663   1.598   3.701   0.177
 4841SOL     OW31664   1.110   2.616   1.869
 4841SOL    HW131665   1.201   2.597   1.895
 4841SOL    HW231666   1.118   2.673   1.793
 4842SOL     OW31667   4.174   3.673   7.588
 4842SOL    HW131668   4.260   3.711   7.572
 4842SOL    HW231669   4.144   3.714   7.670
 4843SOL     OW31670   4.952   4.761   0.798
 4843SOL    HW131671   4.973   4.781   0.707
 4843SOL    HW231672   4.865   4.799   0.811
 4844SOL     OW31673   0.910   2.344   6.134
 4844SOL    HW131674   0.979   2.321   6.197
 4844SOL    HW231675   0.855   2.265   6.129
 4845SOL     OW31676   4.351   2.521   5.753
 4845SOL    HW131677   4.262   2.546   5.726
 4845SOL    HW231678   4.402   2.526   5.672
 4846SOL     OW31679   2.328   5.891   7.348
 4846SOL    HW131680   2.400   5.918   7.405
 4846SOL    HW231681   2.370   5.834   7.282
 4847SOL     OW31682   2.046   0.786   6.337
 4847SOL    HW131683   2.043   0.691   6.325
 4847SOL    HW231684   2.037   0.821   6.248
 4848SOL     OW31685   5.995   6.409   6.293
 4848SOL    HW131686   6.053   6.335   6.308
 4848SOL    HW231687   6.039   0.035   6.334
 4849SOL     OW31688   4.162   4.304   2.501
 4849SOL    HW131689   4.080   4.344   2.527
 4849SOL    HW231690   4.224   4.377   2.496
 4850SOL     OW31691   4.112   3.908   2.057
 4850SOL    HW131692   4.118   3.875   1.967
 4850SOL    HW231693   4.124   3.830   2.112
 4851SOL     OW31694   4.528   4.664   2.605
 4851SOL    HW131695   4.556   4.579   2.640
 4851SOL    HW231696   4.609   4.713   2.595
 4852SOL     OW31697   0.756   4.120   2.126
 4852SOL    HW131698   0.718   4.069   2.198
 4852SOL    HW231699   0.714   4.205   2.132
 4853SOL     OW31700   3.588   3.853   0.912
 4853SOL    HW131701   3.654   3.888   0.972
 4853SOL    HW231702   3.540   3.789   0.964
 4854SOL     OW31703   3.930   5.718   7.469
 4854SOL    HW131704   3.841   5.707   7.502
 4854SOL    HW231705   3.921   5.775   7.393
 4855SOL     OW31706   5.879   4.671   5.894
 4855SOL    HW131707   5.952   4.612   5.911
 4855SOL    HW231708   5.801   4.621   5.919
 4856SOL     OW31709   2.554   2.250   0.266
 4856SOL    HW131710   2.464   2.259   0.296
 4856SOL    HW231711   2.568   2.327   0.211
 4857SOL     OW31712   5.746   1.722   0.115
 4857SOL    HW131713   5.666   1.744   0.066
 4857SOL    HW231714   5.764   1.799   0.168
 4858SOL     OW31715   5.191   4.278   7.214
 4858SOL    HW131716   5.249   4.349   7.241
 4858SOL    HW231717   5.230   4.243   7.134
 4859SOL     OW31718   2.358   5.458   0.656
 4859SOL    HW131719   2.379   5.365   0.663
 4859SOL    HW231720   2.399   5.486   0.574
 4860SOL     OW31721   0.383   4.062   6.555
 4860SOL    HW131722   0.359   4.153   6.534
 4860SOL    HW231723   0.467   4.069   6.600
 4861SOL     OW31724   1.353   0.201   1.288
 4861SOL    HW131725   1.409   0.262   1.336
 4861SOL    HW231726   1.337   0.130   1.350
 4862SOL     OW31727   5.312   6.417   6.481
 4862SOL    HW131728   5.270   6.339   6.517
 4862SOL    HW231729   5.241   0.016   6.436
 4863SOL     OW31730   1.133   5.648   1.311
 4863SOL    HW131731   1.045   5.617   1.292
 4863SOL    HW231732   1.130   5.678   1.402
 4864SOL     OW31733   4.576   4.690   0.044
 4864SOL    HW131734   4.605   4.760   7.788
 4864SOL    HW231735   4.506   4.646   7.799
 4865SOL     OW31736   2.172   1.918   0.341
 4865SOL    HW131737   2.223   1.843   0.373
 4865SOL    HW231738   2.114   1.940   0.414
 4866SOL     OW31739   6.088   1.708   6.192
 4866SOL    HW131740   6.019   1.770   6.170
 4866SOL    HW231741   6.043   1.637   6.238
 4867SOL     OW31742   5.869   0.796   0.706
 4867SOL    HW131743   5.780   0.808   0.672
 4867SOL    HW231744   5.862   0.821   0.798
 4868SOL     OW31745   2.153   2.986   1.512
 4868SOL    HW131746   2.097   2.945   1.577
 4868SOL    HW231747   2.206   2.915   1.477
 4869SOL     OW31748   1.900   2.037   6.647
 4869SOL    HW131749   1.969   2.065   6.587
 4869SOL    HW231750   1.899   1.941   6.640
 4870SOL     OW31751   5.421   2.744   1.850
 4870SOL    HW131752   5.515   2.726   1.843
 4870SOL    HW231753   5.394   2.700   1.931
 4871SOL     OW31754   4.249   3.380   1.171
 4871SOL    HW131755   4.173   3.393   1.228
 4871SOL    HW231756   4.300   3.312   1.215
 4872SOL     OW31757   0.106   3.754   6.102
 4872SOL    HW131758   0.055   3.763   6.021
 4872SOL    HW231759   0.072   3.674   6.143
 4873SOL     OW31760   5.768   3.080   6.847
 4873SOL    HW131761   5.775   3.019   6.920
 4873SOL    HW231762   5.790   3.166   6.884
 4874SOL     OW31763   2.200   5.003   6.440
 4874SOL    HW131764   2.185   5.002   6.534
 4874SOL    HW231765   2.148   5.077   6.408
 4875SOL     OW31766   2.915   6.096   6.021
 4875SOL    HW131767   2.984   6.139   5.970
 4875SOL    HW231768   2.875   6.034   5.959
 4876SOL     OW31769   5.390   2.063   0.762
 4876SOL    HW131770   5.436   2.090   0.841
 4876SOL    HW231771   5.324   2.000   0.792
 4877SOL     OW31772   1.298   5.363   0.395
 4877SOL    HW131773   1.346   5.337   0.474
 4877SOL    HW231774   1.363   5.358   0.325
 4878SOL     OW31775   6.189   3.383   6.290
 4878SOL    HW131776   6.217   3.370   6.380
 4878SOL    HW231777   6.095   3.369   6.291
 4879SOL     OW31778   0.541   0.856   0.521
 4879SOL    HW131779   0.515   0.948   0.519
 4879SOL    HW231780   0.588   0.842   0.439
 4880SOL     OW31781   1.987   2.217   7.163
 4880SOL    HW131782   2.028   2.145   7.211
 4880SOL    HW231783   2.052   2.287   7.165
 4881SOL     OW31784   1.375   3.980   0.034
 4881SOL    HW131785   1.449   4.036   0.012
 4881SOL    HW231786   1.333   3.961   7.752
 4882SOL     OW31787   0.056   2.656   1.877
 4882SOL    HW131788   0.022   2.581   1.827
 4882SOL    HW231789   0.068   2.621   1.966
 4883SOL     OW31790   4.830   1.285   1.179
 4883SOL    HW131791   4.906   1.248   1.225
 4883SOL    HW231792   4.805   1.361   1.232
 4884SOL     OW31793   0.979   0.063   1.187
 4884SOL    HW131794   0.916   0.074   1.116
 4884SOL    HW231795   0.929   0.022   1.257
 4885SOL     OW31796   3.020   4.904   6.825
 4885SOL    HW131797   2.993   4.981   6.774
 4885SOL    HW231798   2.967   4.909   6.905
 4886SOL     OW31799   2.472   4.085   1.890
 4886SOL    HW131800   2.477   4.084   1.794
 4886SOL    HW231801   2.386   4.048   1.910
 4887SOL     OW31802   1.824   3.296   6.351
 4887SOL    HW131803   1.830   3.387   6.321
 4887SOL    HW231804   1.907   3.256   6.323
 4888SOL     OW31805   1.378   5.620   7.672
 4888SOL    HW131806   1.314   5.691   7.684
 4888SOL    HW231807   1.462   5.665   7.667
 4889SOL     OW31808   0.076   3.246   0.832
 4889SOL    HW131809   0.162   3.258   0.792
 4889SOL    HW231810   0.075   3.154   0.858
 4890SOL     OW31811   5.961   2.326   6.457
 4890SOL    HW131812   5.958   2.231   6.462
 4890SOL    HW231813   6.054   2.348   6.463
 4891SOL     OW31814   0.912   5.849   1.641
 4891SOL    HW131815   0.844   5.804   1.691
 4891SOL    HW231816   0.880   5.939   1.633
 4892SOL     OW31817   4.338   3.059   7.491
 4892SOL    HW131818   4.407   3.124   7.503
 4892SOL    HW231819   4.323   3.057   7.396
 4893SOL     OW31820   5.159   1.930   1.150
 4893SOL    HW131821   5.087   1.989   1.171
 4893SOL    HW231822   5.123   1.842   1.164
 4894SOL     OW31823   5.810   2.141   1.025
 4894SOL    HW131824   5.856   2.090   1.092
 4894SOL    HW231825   5.792   2.078   0.955
 4895SOL     OW31826   4.184   3.982   6.061
 4895SOL    HW131827   4.125   3.955   5.990
 4895SOL    HW231828   4.252   4.033   6.017
 4896SOL     OW31829   3.302   3.352   1.189
 4896SOL    HW131830   3.259   3.274   1.154
 4896SOL    HW231831   3.384   3.319   1.227
 4897SOL     OW31832   4.315   3.010   0.308
 4897SOL    HW131833   4.309   2.932   0.253
 4897SOL    HW231834   4.315   2.975   0.398
 4898SOL     OW31835   5.346   3.672   0.788
 4898SOL    HW131836   5.306   3.752   0.754
 4898SOL    HW231837   5.416   3.651   0.725
 4899SOL     OW31838   2.493   6.355   5.858
 4899SOL    HW131839   2.493   6.268   5.819
 4899SOL    HW231840   2.516   6.414   5.786
 4900SOL     OW31841   4.347   3.733   6.542
 4900SOL    HW131842   4.315   3.769   6.459
 4900SOL    HW231843   4.442   3.747   6.538
 4901SOL     OW31844   4.324   3.489   6.910
 4901SOL    HW131845   4.355   3.434   6.982
 4901SOL    HW231846   4.336   3.579   6.941
 4902SOL     OW31847   6.345   0.022   0.660
 4902SOL    HW131848   6.355   0.112   0.692
 4902SOL    HW231849   6.384   6.416   0.729
 4903SOL     OW31850   4.784   5.775   0.249
 4903SOL    HW131851   4.855   5.839   0.255
 4903SOL    HW231852   4.712   5.815   0.299
 4904SOL     OW31853   2.246   4.108   1.323
 4904SOL    HW131854   2.230   4.150   1.239
 4904SOL    HW231855   2.311   4.040   1.305
 4905SOL     OW31856   5.345   4.702   7.617
 4905SOL    HW131857   5.322   4.610   7.635
 4905SOL    HW231858   5.432   4.713   7.655
 4906SOL     OW31859   4.291   1.904   1.432
 4906SOL    HW131860   4.261   1.908   1.341
 4906SOL    HW231861   4.211   1.916   1.484
 4907SOL     OW31862   5.727   4.053   1.180
 4907SOL    HW131863   5.639   4.033   1.147
 4907SOL    HW231864   5.785   4.036   1.106
 4908SOL     OW31865   2.261   2.061   6.985
 4908SOL    HW131866   2.311   1.984   6.959
 4908SOL    HW231867   2.173   2.028   7.003
 4909SOL     OW31868   2.179   0.254   0.965
 4909SOL    HW131869   2.261   0.252   0.916
 4909SOL    HW231870   2.151   0.345   0.961
 4910SOL     OW31871   6.247   2.191   0.335
 4910SOL    HW131872   6.342   2.176   0.325
 4910SOL    HW231873   6.218   2.219   0.248
 4911SOL     OW31874   0.846   6.004   7.565
 4911SOL    HW131875   0.927   6.045   7.533
 4911SOL    HW231876   0.849   6.016   7.660
 4912SOL     OW31877   5.621   5.066   6.771
 4912SOL    HW131878   5.674   5.092   6.696
 4912SOL    HW231879   5.599   5.148   6.815
 4913SOL     OW31880   1.541   3.828   6.439
 4913SOL    HW131881   1.614   3.781   6.479
 4913SOL    HW231882   1.537   3.795   6.349
 4914SOL     OW31883   5.167   3.917   7.425
 4914SOL    HW131884   5.137   4.007   7.436
 4914SOL    HW231885   5.212   3.896   7.507
 4915SOL     OW31886   6.328   1.611   1.626
 4915SOL    HW131887   6.348   1.571   1.541
 4915SOL    HW231888   6.361   1.700   1.619
 4916SOL     OW31889   4.467   1.353   7.006
 4916SOL    HW131890   4.448   1.294   6.933
 4916SOL    HW231891   4.507   1.430   6.965
 4917SOL     OW31892   2.136   2.527   2.313
 4917SOL    HW131893   2.078   2.521   2.388
 4917SOL    HW231894   2.220   2.556   2.349
 4918SOL     OW31895   0.177   4.128   1.703
 4918SOL    HW131896   0.199   4.046   1.660
 4918SOL    HW231897   0.126   4.176   1.638
 4919SOL     OW31898   3.379   2.191   1.274
 4919SOL    HW131899   3.303   2.189   1.333
 4919SOL    HW231900   3.435   2.260   1.309
 4920SOL     OW31901   2.054   3.517   6.706
 4920SOL    HW131902   2.127   3.491   6.651
 4920SOL    HW231903   2.063   3.465   6.786
 4921SOL     OW31904   5.506   1.931   1.556
 4921SOL    HW131905   5.472   1.932   1.466
 4921SOL    HW231906   5.549   1.846   1.564
 4922SOL     OW31907   0.967   2.212   0.642
 4922SOL    HW131908   0.885   2.246   0.677
 4922SOL    HW231909   0.940   2.139   0.586
 4923SOL     OW31910   2.248   5.866   1.688
 4923SOL    HW131911   2.310   5.876   1.761
 4923SOL    HW231912   2.166   5.839   1.730
 4924SOL     OW31913   6.151   6.330   2.169
 4924SOL    HW131914   6.070   6.376   2.187
 4924SOL    HW231915   6.204   6.393   2.121
 4925SOL     OW31916   4.016   4.319   0.059
 4925SOL    HW131917   4.000   4.319   7.767
 4925SOL    HW231918   3.950   4.379   0.095
 4926SOL     OW31919   6.133   2.469   2.257
 4926SOL    HW131920   6.130   2.533   2.329
 4926SOL    HW231921   6.047   2.426   2.260
 4927SOL     OW31922   2.612   5.709   2.201
 4927SOL    HW131923   2.542   5.696   2.138
 4927SOL    HW231924   2.576   5.769   2.266
 4928SOL     OW31925   5.253   3.902   0.670
 4928SOL    HW131926   5.159   3.885   0.674
 4928SOL    HW231927   5.264   3.989   0.707
 4929SOL     OW31928   6.013   4.096   7.015
 4929SOL    HW131929   5.951   4.031   7.050
 4929SOL    HW231930   5.966   4.136   6.942
 4930SOL     OW31931   4.672   2.113   2.582
 4930SOL    HW131932   4.625   2.189   2.548
 4930SOL    HW231933   4.726   2.084   2.508
 4931SOL     OW31934   1.288   0.006   1.464
 4931SOL    HW131935   1.206   0.027   1.509
 4931SOL    HW231936   1.342   6.411   1.530
 4932SOL     OW31937   0.088   0.640   0.528
 4932SOL    HW131938   0.007   0.611   0.569
 4932SOL    HW231939   0.065   0.723   0.486
 4933SOL     OW31940   1.640   1.475   7.135
 4933SOL    HW131941   1.692   1.401   7.102
 4933SOL    HW231942   1.593   1.439   7.210
 4934SOL     OW31943   6.041   1.686   1.446
 4934SOL    HW131944   6.069   1.773   1.416
 4934SOL    HW231945   6.083   1.625   1.387
 4935SOL     OW31946   4.279   4.485   1.878
 4935SOL    HW131947   4.279   4.580   1.875
 4935SOL    HW231948   4.194   4.459   1.843
 4936SOL     OW31949   1.436   4.486   7.608
 4936SOL    HW131950   1.468   4.566   7.650
 4936SOL    HW231951   1.392   4.516   7.529
 4937SOL     OW31952   2.766   1.556   2.032
 4937SOL    HW131953   2.719   1.634   2.005
 4937SOL    HW231954   2.699   1.500   2.072
 4938SOL     OW31955   5.716   0.178   6.751
 4938SOL    HW131956   5.741   0.100   6.702
 4938SOL    HW231957   5.623   0.167   6.769
 4939SOL     OW31958   4.806   1.755   7.721
 4939SOL    HW131959   4.772   1.798   7.800
 4939SOL    HW231960   4.879   1.702   7.753
 4940SOL     OW31961   5.449   5.505   7.221
 4940SOL    HW131962   5.532   5.531   7.260
 4940SOL    HW231963   5.463   5.512   7.126
 4941SOL     OW31964   3.585   0.167   6.909
 4941SOL    HW131965   3.541   0.100   6.960
 4941SOL    HW231966   3.555   0.153   6.819
 4942SOL     OW31967   1.301   1.775   7.180
 4942SOL    HW131968   1.344   1.707   7.233
 4942SOL    HW231969   1.249   1.825   7.242
 4943SOL     OW31970   5.480   2.708   0.103
 4943SOL    HW131971   5.510   2.787   0.058
 4943SOL    HW231972   5.423   2.741   0.172
 4944SOL     OW31973   2.339   4.815   0.554
 4944SOL    HW131974   2.366   4.809   0.646
 4944SOL    HW231975   2.398   4.754   0.508
 4945SOL     OW31976   5.041   1.139   1.300
 4945SOL    HW131977   5.032   1.078   1.227
 4945SOL    HW231978   5.002   1.093   1.374
 4946SOL     OW31979   0.701   4.543   0.040
 4946SOL    HW131980   0.789   4.536   0.002
 4946SOL    HW231981   0.711   4.602   0.114
 4947SOL     OW31982   5.494   2.145   0.521
 4947SOL    HW131983   5.514   2.234   0.551
 4947SOL    HW231984   5.467   2.099   0.600
 4948SOL     OW31985   3.366   0.333   7.776
 4948SOL    HW131986   3.447   0.314   0.020
 4948SOL    HW231987   3.387   0.319   7.684
 4949SOL     OW31988   1.734   1.060   5.802
 4949SOL    HW131989   1.813   1.009   5.786
 4949SOL    HW231990   1.666   0.994   5.818
 4950SOL     OW31991   0.207   3.228   1.952
 4950SOL    HW131992   0.194   3.323   1.963
 4950SOL    HW231993   0.255   3.201   2.030
 4951SOL     OW31994   4.345   0.132   7.717
 4951SOL    HW131995   4.324   0.157   7.627
 4951SOL    HW231996   4.260   0.117   7.758
 4952SOL     OW31997   5.065   5.127   1.321
 4952SOL    HW131998   5.161   5.126   1.327
 4952SOL    HW231999   5.041   5.217   1.341
 4953SOL     OW32000   0.530   1.660   6.761
 4953SOL    HW132001   0.454   1.718   6.767
 4953SOL    HW232002   0.494   1.575   6.735
 4954SOL     OW32003   2.238   4.563   7.435
 4954SOL    HW132004   2.292   4.626   7.386
 4954SOL    HW232005   2.201   4.506   7.367
 4955SOL     OW32006   4.520   4.741   5.457
 4955SOL    HW132007   4.443   4.736   5.400
 4955SOL    HW232008   4.517   4.659   5.507
 4956SOL     OW32009   1.734   0.242   7.330
 4956SOL    HW132010   1.709   0.327   7.365
 4956SOL    HW232011   1.650   0.198   7.313
 4957SOL     OW32012   3.427   4.770   5.763
 4957SOL    HW132013   3.403   4.823   5.839
 4957SOL    HW232014   3.519   4.790   5.747
 4958SOL     OW32015   2.951   3.789   0.533
 4958SOL    HW132016   3.029   3.795   0.478
 4958SOL    HW232017   2.912   3.876   0.530
 4959SOL     OW32018   0.097   4.415   1.087
 4959SOL    HW132019   0.073   4.437   0.997
 4959SOL    HW232020   0.162   4.346   1.079
 4960SOL     OW32021   5.164   3.647   5.287
 4960SOL    HW132022   5.203   3.566   5.320
 4960SOL    HW232023   5.232   3.714   5.302
 4961SOL     OW32024   1.390   1.198   0.750
 4961SOL    HW132025   1.353   1.111   0.738
 4961SOL    HW232026   1.442   1.213   0.671
 4962SOL     OW32027   4.127   1.407   7.785
 4962SOL    HW132028   4.059   1.382   0.046
 4962SOL    HW232029   4.158   1.323   7.750
 4963SOL     OW32030   3.286   3.291   0.022
 4963SOL    HW132031   3.325   3.293   7.737
 4963SOL    HW232032   3.358   3.315   0.081
 4964SOL     OW32033   4.264   4.311   6.215
 4964SOL    HW132034   4.219   4.338   6.295
 4964SOL    HW232035   4.281   4.392   6.168
 4965SOL     OW32036   0.712   5.637   1.450
 4965SOL    HW132037   0.677   5.685   1.524
 4965SOL    HW232038   0.747   5.704   1.392
 4966SOL     OW32039   4.044   3.972   1.016
 4966SOL    HW132040   4.118   4.022   1.050
 4966SOL    HW232041   4.051   3.886   1.059
 4967SOL     OW32042   2.352   1.339   6.980
 4967SOL    HW132043   2.332   1.395   7.055
 4967SOL    HW232044   2.398   1.264   7.018
 4968SOL     OW32045   5.609   6.145   5.721
 4968SOL    HW132046   5.583   6.075   5.661
 4968SOL    HW232047   5.544   6.215   5.706
 4969SOL     OW32048   1.486   1.504   6.907
 4969SOL    HW132049   1.509   1.591   6.874
 4969SOL    HW232050   1.538   1.496   6.988
 4970SOL     OW32051   0.883   5.341   0.412
 4970SOL    HW132052   0.898   5.429   0.447
 4970SOL    HW232053   0.793   5.342   0.380
 4971SOL     OW32054   1.497   5.251   7.031
 4971SOL    HW132055   1.453   5.319   6.981
 4971SOL    HW232056   1.589   5.255   7.004
 4972SOL     OW32057   5.761   6.387   5.286
 4972SOL    HW132058   5.815   6.310   5.267
 4972SOL    HW232059   5.817   0.013   5.265
 4973SOL     OW32060   3.721   2.566   1.975
 4973SOL    HW132061   3.638   2.520   1.959
 4973SOL    HW232062   3.771   2.508   2.031
 4974SOL     OW32063   6.058   2.025   6.986
 4974SOL    HW132064   6.042   1.940   6.945
 4974SOL    HW232065   6.049   2.089   6.915
 4975SOL     OW32066   3.538   5.279   2.293
 4975SOL    HW132067   3.588   5.355   2.324
 4975SOL    HW232068   3.506   5.306   2.207
 4976SOL     OW32069   3.160   2.318   7.169
 4976SOL    HW132070   3.116   2.387   7.218
 4976SOL    HW232071   3.113   2.238   7.193
 4977SOL     OW32072   3.844   2.289   0.134
 4977SOL    HW132073   3.934   2.258   0.122
 4977SOL    HW232074   3.812   2.243   0.211
 4978SOL     OW32075   0.811   5.777   0.239
 4978SOL    HW132076   0.761   5.721   0.298
 4978SOL    HW232077   0.767   5.862   0.245
 4979SOL     OW32078   4.319   1.216   0.763
 4979SOL    HW132079   4.298   1.264   0.683
 4979SOL    HW232080   4.413   1.202   0.759
 4980SOL     OW32081   1.549   4.320   0.687
 4980SOL    HW132082   1.478   4.380   0.663
 4980SOL    HW232083   1.610   4.373   0.738
 4981SOL     OW32084   1.074   0.839   7.455
 4981SOL    HW132085   1.018   0.916   7.469
 4981SOL    HW232086   1.013   0.765   7.455
 4982SOL     OW32087   1.494   0.119   7.264
 4982SOL    HW132088   1.525   0.086   7.180
 4982SOL    HW232089   1.401   0.139   7.250
 4983SOL     OW32090   2.606   4.915   7.712
 4983SOL    HW132091   2.524   4.946   7.751
 4983SOL    HW232092   2.579   4.846   7.651
 4984SOL     OW32093   3.397   0.704   7.601
 4984SOL    HW132094   3.476   0.651   7.613
 4984SOL    HW232095   3.327   0.654   7.643
 4985SOL     OW32096   3.334   2.757   7.038
 4985SOL    HW132097   3.316   2.664   7.028
 4985SOL    HW232098   3.413   2.772   6.985
 4986SOL     OW32099   5.830   6.431   0.855
 4986SOL    HW132100   5.793   6.343   0.853
 4986SOL    HW232101   5.826   0.013   0.764
 4987SOL     OW32102   5.261   5.748   1.845
 4987SOL    HW132103   5.255   5.792   1.931
 4987SOL    HW232104   5.216   5.808   1.785
 4988SOL     OW32105   2.270   0.844   4.882
 4988SOL    HW132106   2.320   0.890   4.814
 4988SOL    HW232107   2.280   0.752   4.860
 4989SOL     OW32108   6.399   4.632   6.589
 4989SOL    HW132109   0.047   4.635   6.580
 4989SOL    HW232110   6.368   4.701   6.531
 4990SOL     OW32111   2.805   6.415   5.675
 4990SOL    HW132112   2.858   6.419   5.755
 4990SOL    HW232113   2.839   0.039   5.621
 4991SOL     OW32114   4.670   2.736   7.346
 4991SOL    HW132115   4.671   2.799   7.274
 4991SOL    HW232116   4.596   2.763   7.401
 4992SOL     OW32117   3.930   1.664   5.390
 4992SOL    HW132118   3.984   1.598   5.347
 4992SOL    HW232119   3.884   1.617   5.459
 4993SOL     OW32120   6.214   3.520   6.886
 4993SOL    HW132121   6.161   3.461   6.833
 4993SOL    HW232122   6.232   3.595   6.829
 4994SOL     OW32123   3.562   4.414   0.406
 4994SOL    HW132124   3.578   4.490   0.349
 4994SOL    HW232125   3.516   4.450   0.482
 4995SOL     OW32126   0.517   5.266   1.177
 4995SOL    HW132127   0.423   5.269   1.161
 4995SOL    HW232128   0.539   5.353   1.209
 4996SOL     OW32129   2.646   2.779   7.555
 4996SOL    HW132130   2.610   2.850   7.503
 4996SOL    HW232131   2.735   2.769   7.524
 4997SOL     OW32132   5.957   6.251   7.192
 4997SOL    HW132133   5.921   6.334   7.161
 4997SOL    HW232134   6.049   6.254   7.166
 4998SOL     OW32135   3.810   2.243   7.666
 4998SOL    HW132136   3.811   2.252   7.762
 4998SOL    HW232137   3.894   2.281   7.638
 4999SOL     OW32138   4.909   4.039   5.453
 4999SOL    HW132139   4.816   4.026   5.470
 4999SOL    HW232140   4.924   4.132   5.469
 5000SOL     OW32141   4.983   2.007   0.069
 5000SOL    HW132142   4.896   1.968   0.082
 5000SOL    HW232143   4.995   2.009   7.777
 5001SOL     OW32144   1.704   1.359   6.404
 5001SOL    HW132145   1.782   1.327   6.449
 5001SOL    HW232146   1.706   1.454   6.416
 5002SOL     OW32147   4.916   3.669   7.096
 5002SOL    HW132148   4.924   3.576   7.077
 5002SOL    HW232149   4.954   3.680   7.183
 5003SOL     OW32150   2.535   4.858   2.135
 5003SOL    HW132151   2.448   4.840   2.168
 5003SOL    HW232152   2.583   4.893   2.210
 5004SOL     OW32153   4.341   2.135   5.619
 5004SOL    HW132154   4.338   2.109   5.527
 5004SOL    HW232155   4.419   2.190   5.626
 5005SOL     OW32156   2.970   2.076   2.239
 5005SOL    HW132157   2.875   2.081   2.240
 5005SOL    HW232158   2.999   2.148   2.295
 5006SOL     OW32159   3.820   2.084   1.592
 5006SOL    HW132160   3.817   2.090   1.496
 5006SOL    HW232161   3.745   2.031   1.615
 5007SOL     OW32162   1.226   5.654   0.150
 5007SOL    HW132163   1.179   5.587   0.100
 5007SOL    HW232164   1.226   5.731   0.093
 5008SOL     OW32165   2.081   5.862   6.411
 5008SOL    HW132166   2.081   5.885   6.504
 5008SOL    HW232167   1.989   5.868   6.385
 5009SOL     OW32168   3.703   3.222   6.882
 5009SOL    HW132169   3.731   3.177   6.802
 5009SOL    HW232170   3.631   3.168   6.914
 5010SOL     OW32171   0.070   3.668   6.759
 5010SOL    HW132172   6.427   3.690   6.740
 5010SOL    HW232173   0.121   3.741   6.723
 5011SOL     OW32174   5.278   2.376   6.634
 5011SOL    HW132175   5.206   2.381   6.698
 5011SOL    HW232176   5.241   2.412   6.554
 5012SOL     OW32177   3.866   3.683   0.744
 5012SOL    HW132178   3.882   3.636   0.826
 5012SOL    HW232179   3.940   3.661   0.689
 5013SOL     OW32180   3.434   3.588   6.437
 5013SOL    HW132181   3.348   3.575   6.477
 5013SOL    HW232182   3.497   3.560   6.504
 5014SOL     OW32183   5.959   2.418   7.125
 5014SOL    HW132184   6.039   2.395   7.173
 5014SOL    HW232185   5.984   2.413   7.033
 5015SOL     OW32186   5.469   2.890   7.076
 5015SOL    HW132187   5.457   2.917   6.985
 5015SOL    HW232188   5.514   2.963   7.118
 5016SOL     OW32189   5.180   2.954   0.561
 5016SOL    HW132190   5.174   2.873   0.611
 5016SOL    HW232191   5.273   2.960   0.536
 5017SOL     OW32192   5.174   2.769   6.208
 5017SOL    HW132193   5.109   2.713   6.166
 5017SOL    HW232194   5.253   2.761   6.154
 5018SOL     OW32195   3.603   1.040   6.344
 5018SOL    HW132196   3.682   1.026   6.397
 5018SOL    HW232197   3.567   0.952   6.333
 5019SOL     OW32198   0.634   2.727   1.263
 5019SOL    HW132199   0.543   2.718   1.234
 5019SOL    HW232200   0.630   2.712   1.357
 5020SOL     OW32201   5.226   2.284   0.759
 5020SOL    HW132202   5.281   2.343   0.810
 5020SOL    HW232203   5.275   2.202   0.757
 5021SOL     OW32204   1.705   2.924   0.163
 5021SOL    HW132205   1.748   2.862   0.222
 5021SOL    HW232206   1.679   2.997   0.219
 5022SOL     OW32207   4.115   0.868   1.754
 5022SOL    HW132208   4.125   0.946   1.809
 5022SOL    HW232209   4.173   0.803   1.793
 5023SOL     OW32210   2.580   2.555   0.992
 5023SOL    HW132211   2.661   2.516   0.960
 5023SOL    HW232212   2.560   2.624   0.929
 5024SOL     OW32213   2.373   2.904   7.053
 5024SOL    HW132214   2.295   2.867   7.093
 5024SOL    HW232215   2.444   2.847   7.083
 5025SOL     OW32216   2.088   4.812   6.833
 5025SOL    HW132217   2.077   4.809   6.928
 5025SOL    HW232218   2.056   4.727   6.803
 5026SOL     OW32219   5.206   1.108   1.772
 5026SOL    HW132220   5.115   1.134   1.755
 5026SOL    HW232221   5.223   1.137   1.862
 5027SOL     OW32222   0.036   5.397   7.335
 5027SOL    HW132223   6.409   5.449   7.306
 5027SOL    HW232224   0.103   5.413   7.268
 5028SOL     OW32225   5.768   2.867   6.223
 5028SOL    HW132226   5.736   2.850   6.135
 5028SOL    HW232227   5.701   2.925   6.262
 5029SOL     OW32228   4.702   2.592   5.692
 5029SOL    HW132229   4.757   2.516   5.672
 5029SOL    HW232230   4.625   2.580   5.636
 5030SOL     OW32231   3.468   3.214   5.316
 5030SOL    HW132232   3.479   3.119   5.324
 5030SOL    HW232233   3.450   3.244   5.405
 5031SOL     OW32234   5.910   6.031   0.531
 5031SOL    HW132235   5.831   5.980   0.510
 5031SOL    HW232236   5.965   5.971   0.580
 5032SOL     OW32237   4.036   0.612   0.332
 5032SOL    HW132238   4.079   0.671   0.393
 5032SOL    HW232239   4.106   0.582   0.274
 5033SOL     OW32240   0.810   5.787   0.909
 5033SOL    HW132241   0.841   5.696   0.904
 5033SOL    HW232242   0.889   5.839   0.895
 5034SOL     OW32243   1.827   0.609   1.186
 5034SOL    HW132244   1.905   0.554   1.189
 5034SOL    HW232245   1.763   0.557   1.138
 5035SOL     OW32246   1.073   4.878   6.459
 5035SOL    HW132247   1.167   4.861   6.453
 5035SOL    HW232248   1.036   4.797   6.493
 5036SOL     OW32249   0.349   6.391   1.061
 5036SOL    HW132250   0.301   0.022   1.036
 5036SOL    HW232251   0.351   6.394   1.157
 5037SOL     OW32252   1.091   5.824   5.623
 5037SOL    HW132253   1.001   5.804   5.596
 5037SOL    HW232254   1.131   5.738   5.638
 5038SOL     OW32255   4.713   6.295   7.433
 5038SOL    HW132256   4.798   6.281   7.476
 5038SOL    HW232257   4.651   6.247   7.487
 5039SOL     OW32258   3.518   4.286   5.364
 5039SOL    HW132259   3.484   4.203   5.396
 5039SOL    HW232260   3.572   4.319   5.436
 5040SOL     OW32261   3.685   1.339   1.200
 5040SOL    HW132262   3.742   1.282   1.252
 5040SOL    HW232263   3.642   1.279   1.138
 5041SOL     OW32264   3.928   1.913   5.817
 5041SOL    HW132265   3.998   1.877   5.872
 5041SOL    HW232266   3.858   1.848   5.822
 5042SOL     OW32267   2.514   2.829   7.793
 5042SOL    HW132268   2.556   2.817   7.708
 5042SOL    HW232269   2.535   2.750   0.039
 5043SOL     OW32270   1.081   0.992   0.246
 5043SOL    HW132271   1.019   0.962   0.312
 5043SOL    HW232272   1.045   1.076   0.216
 5044SOL     OW32273   1.118   5.047   1.893
 5044SOL    HW132274   1.146   5.082   1.978
 5044SOL    HW232275   1.048   5.106   1.865
 5045SOL     OW32276   5.584   0.533   0.708
 5045SOL    HW132277   5.668   0.531   0.754
 5045SOL    HW232278   5.603   0.501   0.620
 5046SOL     OW32279   1.476   2.340   2.091
 5046SOL    HW132280   1.557   2.338   2.041
 5046SOL    HW232281   1.468   2.251   2.127
 5047SOL     OW32282   3.831   3.372   1.607
 5047SOL    HW132283   3.926   3.376   1.616
 5047SOL    HW232284   3.804   3.463   1.597
 5048SOL     OW32285   5.567   5.191   1.659
 5048SOL    HW132286   5.500   5.131   1.628
 5048SOL    HW232287   5.579   5.169   1.751
 5049SOL     OW32288   6.222   0.766   1.520
 5049SOL    HW132289   6.128   0.782   1.510
 5049SOL    HW232290   6.250   0.828   1.587
 5050SOL     OW32291   2.453   3.453   2.305
 5050SOL    HW132292   2.522   3.390   2.323
 5050SOL    HW232293   2.413   3.471   2.390
 5051SOL     OW32294   1.903   6.352   0.054
 5051SOL    HW132295   1.982   6.367   0.106
 5051SOL    HW232296   1.910   6.412   7.783
 5052SOL     OW32297   3.783   5.025   7.095
 5052SOL    HW132298   3.874   5.040   7.072
 5052SOL    HW232299   3.737   5.101   7.060
 5053SOL     OW32300   0.902   0.226   1.465
 5053SOL    HW132301   0.851   0.155   1.424
 5053SOL    HW232302   0.971   0.181   1.513
 5054SOL     OW32303   5.555   1.049   0.785
 5054SOL    HW132304   5.566   0.959   0.754
 5054SOL    HW232305   5.594   1.103   0.715
 5055SOL     OW32306   6.430   4.111   7.179
 5055SOL    HW132307   6.386   4.138   7.098
 5055SOL    HW232308   0.013   4.023   7.161
 5056SOL     OW32309   0.071   2.978   0.904
 5056SOL    HW132310   6.424   2.974   0.917
 5056SOL    HW232311   0.084   2.943   0.816
 5057SOL     OW32312   4.794   4.057   0.121
 5057SOL    HW132313   4.708   4.066   0.160
 5057SOL    HW232314   4.847   4.126   0.160
 5058SOL     OW32315   4.403   3.208   5.328
 5058SOL    HW132316   4.355   3.257   5.395
 5058SOL    HW232317   4.335   3.179   5.266
 5059SOL     OW32318   5.691   0.400   5.957
 5059SOL    HW132319   5.666   0.309   5.938
 5059SOL    HW232320   5.784   0.404   5.932
 5060SOL     OW32321   2.750   1.200   0.419
 5060SOL    HW132322   2.840   1.232   0.420
 5060SOL    HW232323   2.697   1.275   0.391
 5061SOL     OW32324   1.605   0.486   1.045
 5061SOL    HW132325   1.594   0.518   0.956
 5061SOL    HW232326   1.526   0.434   1.062
 5062SOL     OW32327   0.252   4.178   2.106
 5062SOL    HW132328   0.322   4.236   2.135
 5062SOL    HW232329   0.221   4.135   2.186
 5063SOL     OW32330   5.741   2.253   7.058
 5063SOL    HW132331   5.806   2.319   7.082
 5063SOL    HW232332   5.755   2.182   7.121
 5064SOL     OW32333   2.971   2.279   0.304
 5064SOL    HW132334   2.951   2.362   0.345
 5064SOL    HW232335   2.910   2.216   0.343
 5065SOL     OW32336   1.031   0.388   7.202
 5065SOL    HW132337   1.040   0.397   7.297
 5065SOL    HW232338   1.081   0.461   7.167
 5066SOL     OW32339   3.227   2.732   0.884
 5066SOL    HW132340   3.294   2.700   0.944
 5066SOL    HW232341   3.235   2.676   0.807
 5067SOL     OW32342   0.658   3.303   6.392
 5067SOL    HW132343   0.672   3.291   6.298
 5067SOL    HW232344   0.725   3.366   6.418
 5068SOL     OW32345   3.617   0.655   0.114
 5068SOL    HW132346   3.614   0.632   0.207
 5068SOL    HW232347   3.556   0.729   0.106
 5069SOL     OW32348   5.385   1.012   5.936
 5069SOL    HW132349   5.314   0.995   5.999
 5069SOL    HW232350   5.343   1.003   5.851
 5070SOL     OW32351   4.425   1.719   1.988
 5070SOL    HW132352   4.414   1.630   2.022
 5070SOL    HW232353   4.507   1.749   2.027
 5071SOL     OW32354   0.601   4.347   5.718
 5071SOL    HW132355   0.609   4.258   5.753
 5071SOL    HW232356   0.508   4.357   5.699
 5072SOL     OW32357   3.048   1.136   5.764
 5072SOL    HW132358   3.018   1.216   5.808
 5072SOL    HW232359   2.978   1.072   5.779
 5073SOL     OW32360   6.062   5.857   0.681
 5073SOL    HW132361   6.132   5.816   0.630
 5073SOL    HW232362   6.095   5.858   0.771
 5074SOL     OW32363   4.813   2.394   6.171
 5074SOL    HW132364   4.874   2.461   6.140
 5074SOL    HW232365   4.729   2.439   6.176
 5075SOL     OW32366   3.815   4.814   1.053
 5075SOL    HW132367   3.804   4.901   1.092
 5075SOL    HW232368   3.867   4.766   1.117
 5076SOL     OW32369   3.376   4.657   6.290
 5076SOL    HW132370   3.462   4.682   6.326
 5076SOL    HW232371   3.397   4.612   6.208
 5077SOL     OW32372   0.362   5.449   5.660
 5077SOL    HW132373   0.321   5.383   5.605
 5077SOL    HW232374   0.428   5.402   5.710
 5078SOL     OW32375   4.273   0.664   0.748
 5078SOL    HW132376   4.224   0.661   0.830
 5078SOL    HW232377   4.364   0.678   0.775
 5079SOL     OW32378   0.352   0.795   5.671
 5079SOL    HW132379   0.261   0.775   5.646
 5079SOL    HW232380   0.379   0.719   5.722
 5080SOL     OW32381   0.879   5.434   6.395
 5080SOL    HW132382   0.871   5.390   6.310
 5080SOL    HW232383   0.796   5.479   6.407
 5081SOL     OW32384   2.243   5.448   7.327
 5081SOL    HW132385   2.151   5.476   7.329
 5081SOL    HW232386   2.280   5.481   7.409
 5082SOL     OW32387   4.978   1.595   6.677
 5082SOL    HW132388   4.994   1.644   6.596
 5082SOL    HW232389   5.060   1.600   6.725
 5083SOL     OW32390   3.170   3.816   0.372
 5083SOL    HW132391   3.172   3.773   0.287
 5083SOL    HW232392   3.249   3.785   0.416
 5084SOL     OW32393   1.016   2.984   1.742
 5084SOL    HW132394   0.953   2.946   1.803
 5084SOL    HW232395   1.067   2.910   1.711
 5085SOL     OW32396   3.005   1.970   7.512
 5085SOL    HW132397   2.922   1.988   7.557
 5085SOL    HW232398   3.070   1.967   7.582
 5086SOL     OW32399   0.337   5.118   7.338
 5086SOL    HW132400   0.400   5.137   7.406
 5086SOL    HW232401   0.254   5.104   7.384
 5087SOL     OW32402   4.164   1.511   0.781
 5087SOL    HW132403   4.118   1.450   0.839
 5087SOL    HW232404   4.189   1.458   0.706
 5088SOL     OW32405   1.410   5.357   7.728
 5088SOL    HW132406   1.405   5.450   7.707
 5088SOL    HW232407   1.331   5.319   7.690
 5089SOL     OW32408   0.463   3.972   1.764
 5089SOL    HW132409   0.450   4.053   1.813
 5089SOL    HW232410   0.499   3.911   1.827
 5090SOL     OW32411   1.186   0.779   0.974
 5090SOL    HW132412   1.092   0.771   0.986
 5090SOL    HW232413   1.224   0.715   1.035
 5091SOL     OW32414   3.893   6.060   7.504
 5091SOL    HW132415   3.968   6.046   7.447
 5091SOL    HW232416   3.817   6.051   7.446
 5092SOL     OW32417   5.423   1.944   5.324
 5092SOL    HW132418   5.496   1.894   5.288
 5092SOL    HW232419   5.436   2.033   5.291
 5093SOL     OW32420   5.446   1.543   7.687
 5093SOL    HW132421   5.464   1.632   7.719
 5093SOL    HW232422   5.381   1.509   7.749
 5094SOL     OW32423   4.782   3.530   7.421
 5094SOL    HW132424   4.850   3.597   7.414
 5094SOL    HW232425   4.700   3.576   7.400
 5095SOL     OW32426   6.022   1.080   0.247
 5095SOL    HW132427   6.091   1.147   0.242
 5095SOL    HW232428   5.960   1.105   0.179
 5096SOL     OW32429   5.579   2.626   5.713
 5096SOL    HW132430   5.644   2.696   5.722
 5096SOL    HW232431   5.631   2.549   5.691
 5097SOL     OW32432   1.831   0.999   5.028
 5097SOL    HW132433   1.906   0.939   5.025
 5097SOL    HW232434   1.861   1.071   5.085
 5098SOL     OW32435   2.586   3.023   0.168
 5098SOL    HW132436   2.674   3.043   0.135
 5098SOL    HW232437   2.551   2.961   0.105
 5099SOL     OW32438   2.391   1.973   0.802
 5099SOL    HW132439   2.415   1.887   0.766
 5099SOL    HW232440   2.474   2.019   0.809
 5100SOL     OW32441   5.594   0.472   7.752
 5100SOL    HW132442   5.620   0.390   7.793
 5100SOL    HW232443   5.676   0.521   7.742
 5101SOL     OW32444   0.757   6.130   0.554
 5101SOL    HW132445   0.820   6.155   0.486
 5101SOL    HW232446   0.673   6.162   0.522
 5102SOL     OW32447   0.182   5.466   6.302
 5102SOL    HW132448   0.211   5.381   6.268
 5102SOL    HW232449   0.146   5.445   6.389
 5103SOL     OW32450   5.734   4.311   1.262
 5103SOL    HW132451   5.738   4.217   1.249
 5103SOL    HW232452   5.756   4.324   1.354
 5104SOL     OW32453   4.781   0.238   0.104
 5104SOL    HW132454   4.747   0.323   0.132
 5104SOL    HW232455   4.732   0.174   0.157
 5105SOL     OW32456   6.424   1.612   1.340
 5105SOL    HW132457   0.063   1.644   1.363
 5105SOL    HW232458   6.386   1.683   1.288
 5106SOL     OW32459   3.006   5.118   5.563
 5106SOL    HW132460   2.928   5.173   5.565
 5106SOL    HW232461   2.978   5.035   5.601
 5107SOL     OW32462   0.073   2.461   6.980
 5107SOL    HW132463   0.078   2.538   6.924
 5107SOL    HW232464   0.049   2.389   6.920
 5108SOL     OW32465   2.956   3.508   0.544
 5108SOL    HW132466   2.935   3.496   0.637
 5108SOL    HW232467   2.946   3.602   0.529
 5109SOL     OW32468   1.572   1.761   6.838
 5109SOL    HW132469   1.531   1.827   6.895
 5109SOL    HW232470   1.528   1.772   6.754
 5110SOL     OW32471   2.758   4.081   1.916
 5110SOL    HW132472   2.665   4.095   1.933
 5110SOL    HW232473   2.760   4.021   1.842
 5111SOL     OW32474   1.482   5.359   0.193
 5111SOL    HW132475   1.460   5.352   0.100
 5111SOL    HW232476   1.507   5.451   0.205
 5112SOL     OW32477   2.052   4.099   0.695
 5112SOL    HW132478   1.958   4.116   0.688
 5112SOL    HW232479   2.070   4.036   0.625
 5113SOL     OW32480   3.667   4.865   7.536
 5113SOL    HW132481   3.735   4.835   7.476
 5113SOL    HW232482   3.707   4.859   7.623
 5114SOL     OW32483   2.879   2.491   0.468
 5114SOL    HW132484   2.929   2.473   0.547
 5114SOL    HW232485   2.789   2.503   0.499
 5115SOL     OW32486   3.472   2.646   1.001
 5115SOL    HW132487   3.538   2.678   0.939
 5115SOL    HW232488   3.498   2.682   1.085
 5116SOL     OW32489   3.915   5.609   1.168
 5116SOL    HW132490   3.964   5.687   1.195
 5116SOL    HW232491   3.844   5.602   1.231
 5117SOL     OW32492   2.556   0.393   0.583
 5117SOL    HW132493   2.638   0.352   0.610
 5117SOL    HW232494   2.580   0.446   0.507
 5118SOL     OW32495   4.612   0.424   0.229
 5118SOL    HW132496   4.664   0.461   0.301
 5118SOL    HW232497   4.521   0.432   0.259
 5119SOL     OW32498   3.259   6.016   6.634
 5119SOL    HW132499   3.207   5.936   6.625
 5119SOL    HW232500   3.195   6.082   6.663
 5120SOL     OW32501   1.677   2.679   1.065
 5120SOL    HW132502   1.713   2.634   0.989
 5120SOL    HW232503   1.704   2.625   1.140
 5121SOL     OW32504   3.952   0.870   0.698
 5121SOL    HW132505   3.982   0.810   0.766
 5121SOL    HW232506   3.858   0.857   0.693
 5122SOL     OW32507   3.240   1.815   6.803
 5122SOL    HW132508   3.286   1.847   6.880
 5122SOL    HW232509   3.310   1.787   6.744
 5123SOL     OW32510   4.726   2.044   6.856
 5123SOL    HW132511   4.662   1.980   6.825
 5123SOL    HW232512   4.709   2.123   6.806
 5124SOL     OW32513   4.488   3.982   0.493
 5124SOL    HW132514   4.433   3.975   0.572
 5124SOL    HW232515   4.447   3.922   0.430
 5125SOL     OW32516   0.950   4.673   0.275
 5125SOL    HW132517   0.959   4.657   0.369
 5125SOL    HW232518   0.861   4.705   0.264
 5126SOL     OW32519   3.752   4.656   1.429
 5126SOL    HW132520   3.822   4.674   1.367
 5126SOL    HW232521   3.681   4.622   1.375
 5127SOL     OW32522   0.935   2.392   5.500
 5127SOL    HW132523   0.937   2.487   5.507
 5127SOL    HW232524   1.019   2.363   5.534
 5128SOL     OW32525   3.006   0.626   7.401
 5128SOL    HW132526   3.065   0.552   7.413
 5128SOL    HW232527   3.062   0.703   7.406
 5129SOL     OW32528   2.277   5.035   5.483
 5129SOL    HW132529   2.356   4.988   5.512
 5129SOL    HW232530   2.303   5.127   5.481
 5130SOL     OW32531   0.719   4.498   7.271
 5130SOL    HW132532   0.693   4.410   7.242
 5130SOL    HW232533   0.764   4.483   7.353
 5131SOL     OW32534   4.350   4.595   7.181
 5131SOL    HW132535   4.405   4.601   7.103
 5131SOL    HW232536   4.389   4.525   7.233
 5132SOL     OW32537   2.439   6.178   6.965
 5132SOL    HW132538   2.421   6.272   6.973
 5132SOL    HW232539   2.473   6.168   6.876
 5133SOL     OW32540   2.672   6.011   0.081
 5133SOL    HW132541   2.676   5.933   0.135
 5133SOL    HW232542   2.755   6.012   0.033
 5134SOL     OW32543   2.832   1.020   6.410
 5134SOL    HW132544   2.921   1.034   6.377
 5134SOL    HW232545   2.786   1.102   6.391
 5135SOL     OW32546   4.884   1.970   6.338
 5135SOL    HW132547   4.822   1.937   6.273
 5135SOL    HW232548   4.858   2.061   6.352
 5136SOL     OW32549   0.165   3.966   0.380
 5136SOL    HW132550   0.190   3.911   0.306
 5136SOL    HW232551   0.243   4.019   0.399
 5137SOL     OW32552   2.394   0.086   6.388
 5137SOL    HW132553   2.470   0.098   6.331
 5137SOL    HW232554   2.425   0.113   6.475
 5138SOL     OW32555   6.342   1.810   6.150
 5138SOL    HW132556   6.390   1.727   6.155
 5138SOL    HW232557   6.251   1.785   6.166
 5139SOL     OW32558   0.856   1.168   1.217
 5139SOL    HW132559   0.775   1.129   1.186
 5139SOL    HW232560   0.844   1.178   1.312
 5140SOL     OW32561   2.416   4.126   1.001
 5140SOL    HW132562   2.429   4.032   0.989
 5140SOL    HW232563   2.324   4.141   0.980
 5141SOL     OW32564   1.276   5.007   7.618
 5141SOL    HW132565   1.226   5.087   7.634
 5141SOL    HW232566   1.211   4.944   7.589
 5142SOL     OW32567   1.442   1.069   7.778
 5142SOL    HW132568   1.515   1.008   7.781
 5142SOL    HW232569   1.400   1.060   0.061
 5143SOL     OW32570   6.094   4.093   1.725
 5143SOL    HW132571   6.007   4.108   1.764
 5143SOL    HW232572   6.081   4.018   1.666
 5144SOL     OW32573   5.251   0.302   7.255
 5144SOL    HW132574   5.336   0.262   7.236
 5144SOL    HW232575   5.244   0.298   7.350
 5145SOL     OW32576   3.229   3.315   6.578
 5145SOL    HW132577   3.302   3.321   6.639
 5145SOL    HW232578   3.201   3.406   6.566
 5146SOL     OW32579   4.582   3.725   0.764
 5146SOL    HW132580   4.607   3.702   0.674
 5146SOL    HW232581   4.623   3.657   0.817
 5147SOL     OW32582   1.830   1.275   5.664
 5147SOL    HW132583   1.793   1.202   5.713
 5147SOL    HW232584   1.813   1.254   5.572
 5148SOL     OW32585   4.370   4.040   5.435
 5148SOL    HW132586   4.315   4.001   5.503
 5148SOL    HW232587   4.353   3.988   5.357
 5149SOL     OW32588   3.978   1.621   1.909
 5149SOL    HW132589   3.952   1.557   1.843
 5149SOL    HW232590   3.915   1.610   1.980
 5150SOL     OW32591   5.356   3.229   7.208
 5150SOL    HW132592   5.335   3.201   7.119
 5150SOL    HW232593   5.301   3.306   7.222
 5151SOL     OW32594   3.137   6.432   5.584
 5151SOL    HW132595   3.142   0.050   5.514
 5151SOL    HW232596   3.212   0.004   5.640
 5152SOL     OW32597   1.642   0.703   7.094
 5152SOL    HW132598   1.611   0.708   7.003
 5152SOL    HW232599   1.728   0.746   7.092
 5153SOL     OW32600   2.365   2.558   7.051
 5153SOL    HW132601   2.314   2.603   6.984
 5153SOL    HW232602   2.412   2.489   7.004
 5154SOL     OW32603   4.365   2.214   1.954
 5154SOL    HW132604   4.356   2.306   1.928
 5154SOL    HW232605   4.311   2.166   1.891
 5155SOL     OW32606   0.140   3.678   1.220
 5155SOL    HW132607   0.183   3.620   1.284
 5155SOL    HW232608   0.047   3.673   1.242
 5156SOL     OW32609   5.586   2.387   1.311
 5156SOL    HW132610   5.615   2.384   1.219
 5156SOL    HW232611   5.667   2.393   1.361
 5157SOL     OW32612   3.875   4.745   6.260
 5157SOL    HW132613   3.796   4.751   6.206
 5157SOL    HW232614   3.946   4.730   6.197
 5158SOL     OW32615   2.057   4.346   0.481
 5158SOL    HW132616   1.998   4.324   0.410
 5158SOL    HW232617   2.129   4.283   0.473
 5159SOL     OW32618   4.501   6.282   1.242
 5159SOL    HW132619   4.516   6.245   1.329
 5159SOL    HW232620   4.458   6.366   1.258
 5160SOL     OW32621   3.550   3.895   1.535
 5160SOL    HW132622   3.516   3.810   1.509
 5160SOL    HW232623   3.612   3.876   1.605
 5161SOL     OW32624   5.852   5.571   7.140
 5161SOL    HW132625   5.801   5.594   7.218
 5161SOL    HW232626   5.862   5.476   7.145
 5162SOL     OW32627   1.046   1.185   1.019
 5162SOL    HW132628   1.023   1.123   0.950
 5162SOL    HW232629   0.982   1.168   1.089
 5163SOL     OW32630   3.992   1.587   5.743
 5163SOL    HW132631   4.067   1.620   5.694
 5163SOL    HW232632   3.930   1.560   5.676
 5164SOL     OW32633   1.535   6.200   0.863
 5164SOL    HW132634   1.599   6.270   0.877
 5164SOL    HW232635   1.588   6.120   0.862
 5165SOL     OW32636   1.121   2.141   7.273
 5165SOL    HW132637   1.057   2.202   7.310
 5165SOL    HW232638   1.193   2.141   7.336
 5166SOL     OW32639   2.629   0.316   7.435
 5166SOL    HW132640   2.617   0.384   7.368
 5166SOL    HW232641   2.556   0.256   7.422
 5167SOL     OW32642   4.179   3.402   7.578
 5167SOL    HW132643   4.177   3.371   7.488
 5167SOL    HW232644   4.170   3.497   7.572
 5168SOL     OW32645   5.406   1.902   1.290
 5168SOL    HW132646   5.333   1.931   1.235
 5168SOL    HW232647   5.482   1.902   1.231
 5169SOL     OW32648   4.668   1.325   7.514
 5169SOL    HW132649   4.638   1.237   7.537
 5169SOL    HW232650   4.602   1.358   7.453
 5170SOL     OW32651   3.266   5.393   5.215
 5170SOL    HW132652   3.198   5.437   5.165
 5170SOL    HW232653   3.224   5.315   5.251
 5171SOL     OW32654   0.514   4.530   6.470
 5171SOL    HW132655   0.502   4.625   6.469
 5171SOL    HW232656   0.572   4.513   6.396
 5172SOL     OW32657   5.094   4.469   1.529
 5172SOL    HW132658   5.045   4.387   1.522
 5172SOL    HW232659   5.061   4.511   1.608
 5173SOL     OW32660   6.101   5.634   1.134
 5173SOL    HW132661   6.178   5.589   1.169
 5173SOL    HW232662   6.032   5.568   1.136
 5174SOL     OW32663   1.822   5.850   6.312
 5174SOL    HW132664   1.802   5.825   6.222
 5174SOL    HW232665   1.760   5.920   6.333
 5175SOL     OW32666   2.839   0.900   6.068
 5175SOL    HW132667   2.866   0.901   5.976
 5175SOL    HW232668   2.872   0.817   6.102
 5176SOL     OW32669   4.026   3.749   6.403
 5176SOL    HW132670   4.089   3.817   6.383
 5176SOL    HW232671   3.953   3.765   6.344
 5177SOL     OW32672   3.995   5.373   7.750
 5177SOL    HW132673   4.085   5.372   7.784
 5177SOL    HW232674   3.957   5.290   7.779
 5178SOL     OW32675   2.846   2.533   7.203
 5178SOL    HW132676   2.863   2.504   7.113
 5178SOL    HW232677   2.755   2.562   7.201
 5179SOL     OW32678   2.777   2.287   6.618
 5179SOL    HW132679   2.769   2.260   6.710
 5179SOL    HW232680   2.692   2.327   6.598
 5180SOL     OW32681   1.169   4.815   5.977
 5180SOL    HW132682   1.120   4.814   6.059
 5180SOL    HW232683   1.212   4.729   5.974
 5181SOL     OW32684   1.723   6.016   6.998
 5181SOL    HW132685   1.651   5.955   7.012
 5181SOL    HW232686   1.799   5.971   7.035
 5182SOL     OW32687   1.808   1.287   0.491
 5182SOL    HW132688   1.798   1.193   0.473
 5182SOL    HW232689   1.721   1.315   0.519
 5183SOL     OW32690   3.362   6.263   1.247
 5183SOL    HW132691   3.310   6.199   1.200
 5183SOL    HW232692   3.446   6.219   1.263
 5184SOL     OW32693   0.548   1.342   1.076
 5184SOL    HW132694   0.453   1.329   1.081
 5184SOL    HW232695   0.561   1.393   0.996
 5185SOL     OW32696   3.798   5.852   6.336
 5185SOL    HW132697   3.782   5.916   6.405
 5185SOL    HW232698   3.884   5.815   6.357
 5186SOL     OW32699   4.478   1.934   0.720
 5186SOL    HW132700   4.408   1.869   0.719
 5186SOL    HW232701   4.554   1.888   0.683
 5187SOL     OW32702   3.608   5.830   5.820
 5187SOL    HW132703   3.592   5.905   5.762
 5187SOL    HW232704   3.660   5.866   5.892
 5188SOL     OW32705   4.453   0.759   6.037
 5188SOL    HW132706   4.440   0.731   6.128
 5188SOL    HW232707   4.522   0.824   6.041
 5189SOL     OW32708   1.479   5.600   7.033
 5189SOL    HW132709   1.520   5.588   6.947
 5189SOL    HW232710   1.492   5.693   7.052
 5190SOL     OW32711   6.130   4.047   6.444
 5190SOL    HW132712   6.193   4.025   6.374
 5190SOL    HW232713   6.079   4.119   6.408
 5191SOL     OW32714   4.455   1.934   7.737
 5191SOL    HW132715   4.505   2.009   7.771
 5191SOL    HW232716   4.447   1.952   7.643
 5192SOL     OW32717   2.346   0.998   5.098
 5192SOL    HW132718   2.334   0.944   5.176
 5192SOL    HW232719   2.324   0.941   5.025
 5193SOL     OW32720   2.872   0.670   1.189
 5193SOL    HW132721   2.851   0.730   1.117
 5193SOL    HW232722   2.920   0.598   1.148
 5194SOL     OW32723   2.982   3.479   0.131
 5194SOL    HW132724   2.969   3.390   0.098
 5194SOL    HW232725   3.036   3.468   0.209
 5195SOL     OW32726   1.761   4.979   6.551
 5195SOL    HW132727   1.771   5.003   6.643
 5195SOL    HW232728   1.737   4.886   6.553
 5196SOL     OW32729   0.124   2.012   0.663
 5196SOL    HW132730   0.088   2.036   0.748
 5196SOL    HW232731   0.216   1.990   0.680
 5197SOL     OW32732   1.176   4.553   0.023
 5197SOL    HW132733   1.210   4.468   7.797
 5197SOL    HW232734   1.229   4.575   0.100
 5198SOL     OW32735   4.242   4.559   0.775
 5198SOL    HW132736   4.188   4.634   0.752
 5198SOL    HW232737   4.228   4.495   0.705
 5199SOL     OW32738   1.596   2.072   7.534
 5199SOL    HW132739   1.678   2.082   7.583
 5199SOL    HW232740   1.599   1.983   7.501
 5200SOL     OW32741   4.564   5.812   0.424
 5200SOL    HW132742   4.507   5.837   0.497
 5200SOL    HW232743   4.510   5.755   0.370
 5201SOL     OW32744   6.263   3.245   5.301
 5201SOL    HW132745   6.266   3.150   5.298
 5201SOL    HW232746   6.202   3.269   5.232
 5202SOL     OW32747   0.304   5.974   0.756
 5202SOL    HW132748   0.395   5.952   0.777
 5202SOL    HW232749   0.298   6.069   0.769
 5203SOL     OW32750   3.668   3.555   6.584
 5203SOL    HW132751   3.676   3.532   6.677
 5203SOL    HW232752   3.688   3.648   6.580
 5204SOL     OW32753   2.179   0.139   0.679
 5204SOL    HW132754   2.151   0.117   0.590
 5204SOL    HW232755   2.167   0.234   0.685
 5205SOL     OW32756   6.333   1.821   1.183
 5205SOL    HW132757   6.309   1.805   1.091
 5205SOL    HW232758   6.418   1.865   1.178
 5206SOL     OW32759   6.235   3.763   0.493
 5206SOL    HW132760   6.291   3.836   0.520
 5206SOL    HW232761   6.158   3.769   0.549
 5207SOL     OW32762   5.297   5.420   1.449
 5207SOL    HW132763   5.231   5.437   1.382
 5207SOL    HW232764   5.258   5.453   1.530
 5208SOL     OW32765   6.205   2.105   0.821
 5208SOL    HW132766   6.150   2.041   0.866
 5208SOL    HW232767   6.294   2.080   0.844
 5209SOL     OW32768   4.649   0.946   5.978
 5209SOL    HW132769   4.716   0.916   5.915
 5209SOL    HW232770   4.673   1.036   5.997
 5210SOL     OW32771   1.064   4.209   6.118
 5210SOL    HW132772   1.002   4.137   6.111
 5210SOL    HW232773   1.133   4.176   6.176
 5211SOL     OW32774   4.089   5.552   7.314
 5211SOL    HW132775   4.101   5.475   7.370
 5211SOL    HW232776   4.040   5.614   7.368
 5212SOL     OW32777   3.837   5.190   6.293
 5212SOL    HW132778   3.904   5.156   6.234
 5212SOL    HW232779   3.864   5.160   6.380
 5213SOL     OW32780   3.774   2.316   6.729
 5213SOL    HW132781   3.690   2.363   6.726
 5213SOL    HW232782   3.836   2.381   6.762
 5214SOL     OW32783   4.551   3.971   0.875
 5214SOL    HW132784   4.467   3.991   0.835
 5214SOL    HW232785   4.577   3.888   0.835
 5215SOL     OW32786   6.077   0.479   7.436
 5215SOL    HW132787   6.110   0.390   7.437
 5215SOL    HW232788   5.982   0.470   7.441
 5216SOL     OW32789   1.749   2.080   1.117
 5216SOL    HW132790   1.759   2.036   1.032
 5216SOL    HW232791   1.656   2.069   1.138
 5217SOL     OW32792   2.512   1.700   0.709
 5217SOL    HW132793   2.553   1.615   0.690
 5217SOL    HW232794   2.586   1.757   0.732
 5218SOL     OW32795   5.762   1.504   0.278
 5218SOL    HW132796   5.764   1.580   0.219
 5218SOL    HW232797   5.674   1.467   0.267
 5219SOL     OW32798   5.322   2.783   0.312
 5219SOL    HW132799   5.227   2.775   0.305
 5219SOL    HW232800   5.345   2.733   0.390
 5220SOL     OW32801   0.329   3.817   1.083
 5220SOL    HW132802   0.268   3.884   1.052
 5220SOL    HW232803   0.275   3.758   1.136
 5221SOL     OW32804   0.744   3.094   6.830
 5221SOL    HW132805   0.688   3.132   6.762
 5221SOL    HW232806   0.724   3.145   6.908
 5222SOL     OW32807   1.787   3.451   6.714
 5222SOL    HW132808   1.777   3.425   6.806
 5222SOL    HW232809   1.880   3.472   6.706
 5223SOL     OW32810   3.542   0.636   0.896
 5223SOL    HW132811   3.621   0.595   0.859
 5223SOL    HW232812   3.470   0.598   0.845
 5224SOL     OW32813   5.404   2.491   7.759
 5224SOL    HW132814   5.476   2.428   7.764
 5224SOL    HW232815   5.439   2.572   7.796
 5225SOL     OW32816   6.006   3.612   5.904
 5225SOL    HW132817   6.034   3.525   5.932
 5225SOL    HW232818   5.983   3.600   5.811
 5226SOL     OW32819   0.428   0.588   0.219
 5226SOL    HW132820   0.415   0.678   0.190
 5226SOL    HW232821   0.340   0.554   0.232
 5227SOL     OW32822   2.983   3.146   6.111
 5227SOL    HW132823   2.948   3.140   6.199
 5227SOL    HW232824   2.920   3.201   6.064
 5228SOL     OW32825   1.521   0.727   7.334
 5228SOL    HW132826   1.561   0.719   7.247
 5228SOL    HW232827   1.430   0.749   7.316
 5229SOL     OW32828   2.753   4.725   5.937
 5229SOL    HW132829   2.682   4.662   5.949
 5229SOL    HW232830   2.724   4.778   5.862
 5230SOL     OW32831   4.569   1.961   5.463
 5230SOL    HW132832   4.643   1.994   5.411
 5230SOL    HW232833   4.492   1.989   5.415
 5231SOL     OW32834   3.344   4.506   7.362
 5231SOL    HW132835   3.402   4.556   7.304
 5231SOL    HW232836   3.396   4.431   7.389
 5232SOL     OW32837   1.608   6.394   6.774
 5232SOL    HW132838   1.608   6.434   6.861
 5232SOL    HW232839   1.517   6.403   6.744
 5233SOL     OW32840   4.647   2.466   7.326
 5233SOL    HW132841   4.687   2.435   7.245
 5233SOL    HW232842   4.659   2.561   7.324
 5234SOL     OW32843   5.805   1.634   2.209
 5234SOL    HW132844   5.879   1.612   2.152
 5234SOL    HW232845   5.824   1.723   2.239
 5235SOL     OW32846   1.845   1.751   0.032
 5235SOL    HW132847   1.824   1.678   7.775
 5235SOL    HW232848   1.764   1.802   0.036
 5236SOL     OW32849   0.120   0.565   6.851
 5236SOL    HW132850   0.103   0.583   6.759
 5236SOL    HW232851   0.206   0.604   6.868
 5237SOL     OW32852   0.810   6.052   6.086
 5237SOL    HW132853   0.840   6.073   5.998
 5237SOL    HW232854   0.746   6.121   6.106
 5238SOL     OW32855   6.249   3.709   6.014
 5238SOL    HW132856   6.267   3.799   5.986
 5238SOL    HW232857   6.176   3.681   5.959
 5239SOL     OW32858   1.762   3.928   7.000
 5239SOL    HW132859   1.828   3.898   7.062
 5239SOL    HW232860   1.694   3.967   7.054
 5240SOL     OW32861   4.404   3.207   1.306
 5240SOL    HW132862   4.493   3.192   1.276
 5240SOL    HW232863   4.376   3.123   1.342
 5241SOL     OW32864   3.373   5.559   0.400
 5241SOL    HW132865   3.417   5.604   0.328
 5241SOL    HW232866   3.318   5.626   0.441
 5242SOL     OW32867   0.376   4.270   5.992
 5242SOL    HW132868   0.383   4.207   5.920
 5242SOL    HW232869   0.466   4.296   6.012
 5243SOL     OW32870   1.689   1.113   0.208
 5243SOL    HW132871   1.677   1.054   0.134
 5243SOL    HW232872   1.660   1.198   0.176
 5244SOL     OW32873   3.729   1.748   5.224
 5244SOL    HW132874   3.797   1.712   5.281
 5244SOL    HW232875   3.775   1.816   5.173
 5245SOL     OW32876   4.430   2.888   1.777
 5245SOL    HW132877   4.376   2.911   1.852
 5245SOL    HW232878   4.400   2.800   1.752
 5246SOL     OW32879   3.744   2.728   5.761
 5246SOL    HW132880   3.791   2.657   5.718
 5246SOL    HW232881   3.679   2.684   5.816
 5247SOL     OW32882   4.091   4.663   7.118
 5247SOL    HW132883   4.181   4.641   7.144
 5247SOL    HW232884   4.096   4.752   7.085
 5248SOL     OW32885   0.548   3.680   0.981
 5248SOL    HW132886   0.473   3.726   1.017
 5248SOL    HW232887   0.517   3.591   0.964
 5249SOL     OW32888   3.902   6.232   7.225
 5249SOL    HW132889   3.826   6.174   7.230
 5249SOL    HW232890   3.977   6.175   7.244
 5250SOL     OW32891   0.045   4.233   1.485
 5250SOL    HW132892   0.008   4.247   1.397
 5250SOL    HW232893   6.420   4.252   1.544
 5251SOL     OW32894   4.079   2.149   0.040
 5251SOL    HW132895   4.114   2.155   7.754
 5251SOL    HW232896   4.139   2.089   0.085
 5252SOL     OW32897   3.533   2.548   1.685
 5252SOL    HW132898   3.513   2.638   1.712
 5252SOL    HW232899   3.523   2.497   1.765
 5253SOL     OW32900   1.568   0.941   4.989
 5253SOL    HW132901   1.663   0.957   4.992
 5253SOL    HW232902   1.559   0.846   4.987
 5254SOL     OW32903   1.442   1.937   7.004
 5254SOL    HW132904   1.383   1.884   7.059
 5254SOL    HW232905   1.514   1.961   7.063
 5255SOL     OW32906   0.556   1.698   7.614
 5255SOL    HW132907   0.477   1.665   7.657
 5255SOL    HW232908   0.526   1.774   7.564
 5256SOL     OW32909   4.587   6.004   0.020
 5256SOL    HW132910   4.505   5.957   0.034
 5256SOL    HW232911   4.614   6.033   0.107
 5257SOL     OW32912   4.151   4.915   5.990
 5257SOL    HW132913   4.242   4.933   6.014
 5257SOL    HW232914   4.100   4.983   6.035
 5258SOL     OW32915   3.127   0.300   6.289
 5258SOL    HW132916   3.118   0.353   6.210
 5258SOL    HW232917   3.091   0.214   6.264
 5259SOL     OW32918   4.150   5.341   5.447
 5259SOL    HW132919   4.230   5.392   5.432
 5259SOL    HW232920   4.079   5.405   5.444
 5260SOL     OW32921   0.424   3.376   7.065
 5260SOL    HW132922   0.402   3.456   7.016
 5260SOL    HW232923   0.341   3.329   7.072
 5261SOL     OW32924   4.147   3.497   0.363
 5261SOL    HW132925   4.103   3.534   0.286
 5261SOL    HW232926   4.154   3.404   0.343
 5262SOL     OW32927   5.112   2.724   1.122
 5262SOL    HW132928   5.021   2.696   1.133
 5262SOL    HW232929   5.145   2.732   1.212
 5263SOL     OW32930   6.296   1.050   6.619
 5263SOL    HW132931   6.341   1.130   6.647
 5263SOL    HW232932   6.289   0.998   6.699
 5264SOL     OW32933   5.693   4.501   1.732
 5264SOL    HW132934   5.603   4.524   1.710
 5264SOL    HW232935   5.694   4.494   1.827
 5265SOL     OW32936   0.095   3.144   6.392
 5265SOL    HW132937   0.011   3.101   6.404
 5265SOL    HW232938   0.076   3.237   6.406
 5266SOL     OW32939   4.196   6.126   7.083
 5266SOL    HW132940   4.207   6.216   7.054
 5266SOL    HW232941   4.222   6.073   7.007
 5267SOL     OW32942   2.934   3.146   2.431
 5267SOL    HW132943   2.998   3.084   2.397
 5267SOL    HW232944   2.979   3.230   2.430
 5268SOL     OW32945   2.355   2.442   5.410
 5268SOL    HW132946   2.266   2.414   5.387
 5268SOL    HW232947   2.390   2.479   5.330
 5269SOL     OW32948   4.182   5.080   7.428
 5269SOL    HW132949   4.231   5.084   7.347
 5269SOL    HW232950   4.151   4.990   7.434
 5270SOL     OW32951   0.012   5.286   1.610
 5270SOL    HW132952   0.009   5.309   1.702
 5270SOL    HW232953   0.027   5.191   1.609
 5271SOL     OW32954   4.908   2.394   6.572
 5271SOL    HW132955   4.920   2.474   6.522
 5271SOL    HW232956   4.965   2.403   6.648
 5272SOL     OW32957   4.661   0.007   6.392
 5272SOL    HW132958   4.747   6.413   6.385
 5272SOL    HW232959   4.631   0.014   6.301
 5273SOL     OW32960   5.716   1.312   1.362
 5273SOL    HW132961   5.646   1.376   1.356
 5273SOL    HW232962   5.761   1.318   1.278
 5274SOL     OW32963   1.970   2.317   7.623
 5274SOL    HW132964   2.024   2.387   7.661
 5274SOL    HW232965   1.945   2.350   7.537
 5275SOL     OW32966   2.373   2.008   1.089
 5275SOL    HW132967   2.368   2.018   0.994
 5275SOL    HW232968   2.390   1.915   1.103
 5276SOL     OW32969   4.104   3.702   7.325
 5276SOL    HW132970   4.090   3.696   7.419
 5276SOL    HW232971   4.017   3.719   7.289
 5277SOL     OW32972   2.229   5.425   1.027
 5277SOL    HW132973   2.200   5.392   1.112
 5277SOL    HW232974   2.207   5.355   0.965
 5278SOL     OW32975   4.180   2.250   6.414
 5278SOL    HW132976   4.230   2.246   6.333
 5278SOL    HW232977   4.124   2.327   6.404
 5279SOL     OW32978   4.594   4.754   5.928
 5279SOL    HW132979   4.687   4.775   5.933
 5279SOL    HW232980   4.564   4.758   6.019
 5280SOL     OW32981   0.855   3.618   6.685
 5280SOL    HW132982   0.841   3.712   6.689
 5280SOL    HW232983   0.939   3.604   6.729
 5281SOL     OW32984   0.080   1.810   5.482
 5281SOL    HW132985   0.034   1.819   5.399
 5281SOL    HW232986   0.163   1.768   5.460
 5282SOL     OW32987   2.561   3.936   6.042
 5282SOL    HW132988   2.628   3.994   6.005
 5282SOL    HW232989   2.605   3.852   6.055
 5283SOL     OW32990   3.969   5.657   7.753
 5283SOL    HW132991   3.983   5.562   7.744
 5283SOL    HW232992   3.969   5.689   7.663
 5284SOL     OW32993   4.434   2.125   6.681
 5284SOL    HW132994   4.473   2.157   6.600
 5284SOL    HW232995   4.440   2.199   6.742
 5285SOL     OW32996   3.252   2.526   6.574
 5285SOL    HW132997   3.285   2.615   6.571
 5285SOL    HW232998   3.232   2.504   6.482
 5286SOL     OW32999   4.800   5.296   6.751
 5286SOL    HW133000   4.828   5.264   6.666
 5286SOL    HW233001   4.826   5.227   6.813
 5287SOL     OW33002   5.002   2.964   5.353
 5287SOL    HW133003   4.927   2.914   5.386
 5287SOL    HW233004   4.970   3.054   5.348
 5288SOL     OW33005   4.503   2.292   2.454
 5288SOL    HW133006   4.447   2.370   2.451
 5288SOL    HW233007   4.504   2.260   2.364
 5289SOL     OW33008   0.973   3.904   1.142
 5289SOL    HW133009   0.908   3.834   1.144
 5289SOL    HW233010   1.057   3.860   1.155
 5290SOL     OW33011   3.865   1.971   0.035
 5290SOL    HW133012   3.937   2.035   0.034
 5290SOL    HW233013   3.902   1.894   7.793
 5291SOL     OW33014   3.230   4.057   1.145
 5291SOL    HW133015   3.317   4.022   1.165
 5291SOL    HW233016   3.247   4.129   1.084
 5292SOL     OW33017   2.467   1.129   7.106
 5292SOL    HW133018   2.429   1.090   7.185
 5292SOL    HW233019   2.561   1.131   7.123
 5293SOL     OW33020   1.791   4.701   5.567
 5293SOL    HW133021   1.794   4.644   5.490
 5293SOL    HW233022   1.753   4.647   5.636
 5294SOL     OW33023   0.065   2.868   1.317
 5294SOL    HW133024   0.128   2.893   1.249
 5294SOL    HW233025   6.428   2.895   1.282
 5295SOL     OW33026   5.835   3.688   0.395
 5295SOL    HW133027   5.916   3.698   0.345
 5295SOL    HW233028   5.864   3.677   0.485
 5296SOL     OW33029   1.248   0.230   0.841
 5296SOL    HW133030   1.158   0.203   0.822
 5296SOL    HW233031   1.298   0.149   0.838
 5297SOL     OW33032   3.369   5.040   6.868
 5297SOL    HW133033   3.300   5.004   6.923
 5297SOL    HW233034   3.379   5.130   6.898
 5298SOL     OW33035   3.634   6.329   1.512
 5298SOL    HW133036   3.572   6.278   1.564
 5298SOL    HW233037   3.635   6.285   1.427
 5299SOL     OW33038   0.248   3.082   7.270
 5299SOL    HW133039   0.222   3.137   7.195
 5299SOL    HW233040   0.266   2.996   7.231
 5300SOL     OW33041   1.754   0.324   5.868
 5300SOL    HW133042   1.731   0.358   5.781
 5300SOL    HW233043   1.740   0.229   5.861
 5301SOL     OW33044   5.074   3.551   1.692
 5301SOL    HW133045   5.169   3.553   1.708
 5301SOL    HW233046   5.043   3.474   1.740
 5302SOL     OW33047   5.550   3.233   7.707
 5302SOL    HW133048   5.596   3.302   7.753
 5302SOL    HW233049   5.551   3.260   7.615
 5303SOL     OW33050   1.590   5.465   1.128
 5303SOL    HW133051   1.600   5.557   1.151
 5303SOL    HW233052   1.509   5.461   1.079
 5304SOL     OW33053   2.545   6.145   1.175
 5304SOL    HW133054   2.519   6.070   1.228
 5304SOL    HW233055   2.478   6.211   1.192
 5305SOL     OW33056   4.097   3.706   6.676
 5305SOL    HW133057   4.052   3.716   6.592
 5305SOL    HW233058   4.190   3.716   6.654
 5306SOL     OW33059   6.108   3.064   5.551
 5306SOL    HW133060   6.023   3.040   5.587
 5306SOL    HW233061   6.149   2.980   5.528
 5307SOL     OW33062   3.952   6.302   0.491
 5307SOL    HW133063   3.964   6.250   0.571
 5307SOL    HW233064   4.035   6.293   0.444
 5308SOL     OW33065   4.613   4.344   0.358
 5308SOL    HW133066   4.529   4.389   0.367
 5308SOL    HW233067   4.665   4.402   0.302
 5309SOL     OW33068   1.377   6.362   0.585
 5309SOL    HW133069   1.332   6.377   0.668
 5309SOL    HW233070   1.458   6.413   0.592
 5310SOL     OW33071   1.748   0.299   7.678
 5310SOL    HW133072   1.814   0.230   7.677
 5310SOL    HW233073   1.799   0.380   7.674
 5311SOL     OW33074   0.561   4.971   1.847
 5311SOL    HW133075   0.596   5.003   1.764
 5311SOL    HW233076   0.629   4.911   1.880
 5312SOL     OW33077   0.364   6.331   0.587
 5312SOL    HW133078   0.335   6.305   0.674
 5312SOL    HW233079   0.328   6.419   0.575
 5313SOL     OW33080   4.454   4.874   7.615
 5313SOL    HW133081   4.429   4.832   7.532
 5313SOL    HW233082   4.515   4.943   7.589
 5314SOL     OW33083   5.685   3.541   1.302
 5314SOL    HW133084   5.616   3.549   1.367
 5314SOL    HW233085   5.765   3.564   1.349
 5315SOL     OW33086   1.510   4.931   1.255
 5315SOL    HW133087   1.490   4.930   1.348
 5315SOL    HW233088   1.547   5.017   1.238
 5316SOL     OW33089   5.060   2.003   2.436
 5316SOL    HW133090   5.131   1.982   2.497
 5316SOL    HW233091   5.100   1.994   2.349
 5317SOL     OW33092   5.011   2.100   7.586
 5317SOL    HW133093   5.011   2.147   7.503
 5317SOL    HW233094   5.029   2.168   7.652
 5318SOL     OW33095   1.440   2.717   0.470
 5318SOL    HW133096   1.493   2.709   0.549
 5318SOL    HW233097   1.443   2.811   0.449
 5319SOL     OW33098   3.601   4.545   1.213
 5319SOL    HW133099   3.580   4.598   1.136
 5319SOL    HW233100   3.669   4.484   1.182
 5320SOL     OW33101   6.034   0.577   0.626
 5320SOL    HW133102   5.967   0.643   0.648
 5320SOL    HW233103   6.036   0.576   0.530
 5321SOL     OW33104   1.409   4.994   2.262
 5321SOL    HW133105   1.394   4.939   2.339
 5321SOL    HW233106   1.465   4.942   2.205
 5322SOL     OW33107   2.542   1.390   0.066
 5322SOL    HW133108   2.496   1.465   0.029
 5322SOL    HW233109   2.482   1.316   0.053
 5323SOL     OW33110   2.851   1.846   1.658
 5323SOL    HW133111   2.892   1.875   1.577
 5323SOL    HW233112   2.757   1.847   1.641
 5324SOL     OW33113   2.391   5.956   5.911
 5324SOL    HW133114   2.411   6.002   5.992
 5324SOL    HW233115   2.425   6.013   5.842
 5325SOL     OW33116   0.909   4.948   1.519
 5325SOL    HW133117   0.955   4.879   1.567
 5325SOL    HW233118   0.876   4.905   1.441
 5326SOL     OW33119   2.930   4.865   5.679
 5326SOL    HW133120   2.837   4.875   5.698
 5326SOL    HW233121   2.937   4.779   5.637
 5327SOL     OW33122   4.921   5.634   6.966
 5327SOL    HW133123   4.933   5.701   7.033
 5327SOL    HW233124   4.998   5.641   6.910
 5328SOL     OW33125   1.072   0.894   6.341
 5328SOL    HW133126   1.032   0.862   6.422
 5328SOL    HW233127   1.126   0.821   6.311
 5329SOL     OW33128   6.132   6.263   6.606
 5329SOL    HW133129   6.168   6.263   6.517
 5329SOL    HW233130   6.052   6.211   6.600
 5330SOL     OW33131   4.547   5.436   1.254
 5330SOL    HW133132   4.525   5.458   1.345
 5330SOL    HW233133   4.620   5.374   1.262
 5331SOL     OW33134   2.610   3.514   1.266
 5331SOL    HW133135   2.678   3.564   1.222
 5331SOL    HW233136   2.655   3.437   1.301
 5332SOL     OW33137   1.359   0.180   0.286
 5332SOL    HW133138   1.441   0.139   0.312
 5332SOL    HW233139   1.352   0.258   0.341
 5333SOL     OW33140   3.756   3.469   6.187
 5333SOL    HW133141   3.698   3.545   6.191
 5333SOL    HW233142   3.758   3.435   6.277
 5334SOL     OW33143   5.096   1.991   2.155
 5334SOL    HW133144   5.004   1.967   2.143
 5334SOL    HW233145   5.097   2.086   2.152
 5335SOL     OW33146   4.456   5.428   7.207
 5335SOL    HW133147   4.456   5.390   7.295
 5335SOL    HW233148   4.524   5.494   7.209
 5336SOL     OW33149   2.573   4.731   7.484
 5336SOL    HW133150   2.649   4.776   7.446
 5336SOL    HW233151   2.502   4.748   7.423
 5337SOL     OW33152   2.737   6.309   7.756
 5337SOL    HW133153   2.827   6.282   7.738
 5337SOL    HW233154   2.707   6.247   0.021
 5338SOL     OW33155   2.155   1.258   7.635
 5338SOL    HW133156   2.168   1.326   7.568
 5338SOL    HW233157   2.105   1.302   7.704
 5339SOL     OW33158   3.047   3.192   0.110
 5339SOL    HW133159   3.128   3.219   0.067
 5339SOL    HW233160   3.073   3.173   0.200
 5340SOL     OW33161   2.324   3.137   5.998
 5340SOL    HW133162   2.316   3.216   6.051
 5340SOL    HW233163   2.246   3.086   6.019
 5341SOL     OW33164   5.529   6.056   0.721
 5341SOL    HW133165   5.526   5.972   0.766
 5341SOL    HW233166   5.610   6.097   0.753
 5342SOL     OW33167   5.605   4.848   1.866
 5342SOL    HW133168   5.604   4.944   1.875
 5342SOL    HW233169   5.513   4.824   1.855
 5343SOL     OW33170   4.844   1.494   6.888
 5343SOL    HW133171   4.750   1.512   6.880
 5343SOL    HW233172   4.883   1.535   6.811
 5344SOL     OW33173   3.427   3.341   7.600
 5344SOL    HW133174   3.391   3.383   7.522
 5344SOL    HW233175   3.507   3.390   7.619
 5345SOL     OW33176   5.443   0.728   2.443
 5345SOL    HW133177   5.483   0.694   2.363
 5345SOL    HW233178   5.438   0.652   2.501
 5346SOL     OW33179   3.174   0.054   0.637
 5346SOL    HW133180   3.130   6.433   0.587
 5346SOL    HW233181   3.254   0.012   0.670
 5347SOL     OW33182   0.725   1.051   1.700
 5347SOL    HW133183   0.785   1.081   1.769
 5347SOL    HW233184   0.756   0.962   1.679
 5348SOL     OW33185   4.200   4.376   0.568
 5348SOL    HW133186   4.150   4.315   0.515
 5348SOL    HW233187   4.268   4.409   0.508
 5349SOL     OW33188   5.698   3.982   6.859
 5349SOL    HW133189   5.747   4.058   6.828
 5349SOL    HW233190   5.743   3.956   6.940
 5350SOL     OW33191   3.886   3.775   7.177
 5350SOL    HW133192   3.908   3.753   7.087
 5350SOL    HW233193   3.911   3.867   7.186
 5351SOL     OW33194   3.729   2.862   6.441
 5351SOL    HW133195   3.814   2.881   6.401
 5351SOL    HW233196   3.675   2.937   6.416
 5352SOL     OW33197   6.382   6.233   0.252
 5352SOL    HW133198   0.008   6.260   0.197
 5352SOL    HW233199   6.415   6.157   0.300
 5353SOL     OW33200   5.666   5.125   0.203
 5353SOL    HW133201   5.680   5.060   0.134
 5353SOL    HW233202   5.754   5.146   0.235
 5354SOL     OW33203   4.208   2.602   6.224
 5354SOL    HW133204   4.145   2.669   6.196
 5354SOL    HW233205   4.157   2.545   6.282
 5355SOL     OW33206   6.383   1.911   0.230
 5355SOL    HW133207   6.307   1.881   0.280
 5355SOL    HW233208   6.434   1.962   0.293
 5356SOL     OW33209   4.612   0.465   1.908
 5356SOL    HW133210   4.576   0.554   1.905
 5356SOL    HW233211   4.686   0.471   1.967
 5357SOL     OW33212   0.657   4.758   7.324
 5357SOL    HW133213   0.668   4.666   7.302
 5357SOL    HW233214   0.594   4.790   7.259
 5358SOL     OW33215   6.263   5.733   0.543
 5358SOL    HW133216   6.212   5.703   0.468
 5358SOL    HW233217   6.349   5.754   0.506
 5359SOL     OW33218   5.708   1.456   0.550
 5359SOL    HW133219   5.641   1.524   0.552
 5359SOL    HW233220   5.751   1.466   0.465
 5360SOL     OW33221   0.828   6.419   1.408
 5360SOL    HW133222   0.735   6.399   1.408
 5360SOL    HW233223   0.858   6.396   1.495
 5361SOL     OW33224   0.142   6.304   0.102
 5361SOL    HW133225   0.196   6.373   0.062
 5361SOL    HW233226   0.187   6.223   0.080
 5362SOL     OW33227   2.460   4.468   0.689
 5362SOL    HW133228   2.490   4.436   0.604
 5362SOL    HW233229   2.392   4.406   0.716
 5363SOL     OW33230   5.733   2.562   7.734
 5363SOL    HW133231   5.696   2.486   7.780
 5363SOL    HW233232   5.747   2.531   7.645
 5364SOL     OW33233   3.553   5.562   7.342
 5364SOL    HW133234   3.611   5.491   7.315
 5364SOL    HW233235   3.464   5.527   7.331
 5365SOL     OW33236   4.346   2.518   1.439
 5365SOL    HW133237   4.358   2.487   1.529
 5365SOL    HW233238   4.327   2.438   1.389
 5366SOL     OW33239   6.271   3.407   7.559
 5366SOL    HW133240   6.332   3.372   7.624
 5366SOL    HW233241   6.256   3.497   7.586
 5367SOL     OW33242   0.273   5.015   0.787
 5367SOL    HW133243   0.220   5.083   0.745
 5367SOL    HW233244   0.345   5.064   0.828
 5368SOL     OW33245   6.087   2.751   6.960
 5368SOL    HW133246   6.007   2.707   6.990
 5368SOL    HW233247   6.072   2.843   6.978
 5369SOL     OW33248   3.367   4.683   6.594
 5369SOL    HW133249   3.350   4.757   6.535
 5369SOL    HW233250   3.285   4.672   6.642
 5370SOL     OW33251   1.648   1.031   7.083
 5370SOL    HW133252   1.724   0.973   7.091
 5370SOL    HW233253   1.596   0.992   7.013
 5371SOL     OW33254   3.322   5.128   0.953
 5371SOL    HW133255   3.308   5.222   0.966
 5371SOL    HW233256   3.260   5.085   1.012
 5372SOL     OW33257   1.874   2.706   0.278
 5372SOL    HW133258   1.875   2.691   0.184
 5372SOL    HW233259   1.846   2.623   0.315
 5373SOL     OW33260   4.345   4.112   5.873
 5373SOL    HW133261   4.405   4.183   5.896
 5373SOL    HW233262   4.400   4.046   5.830
 5374SOL     OW33263   2.167   1.431   7.422
 5374SOL    HW133264   2.246   1.453   7.373
 5374SOL    HW233265   2.112   1.384   7.359
 5375SOL     OW33266   1.175   5.609   0.422
 5375SOL    HW133267   1.216   5.522   0.419
 5375SOL    HW233268   1.187   5.644   0.334
 5376SOL     OW33269   1.650   6.231   7.153
 5376SOL    HW133270   1.702   6.213   7.231
 5376SOL    HW233271   1.672   6.161   7.092
 5377SOL     OW33272   4.120   3.351   6.787
 5377SOL    HW133273   4.191   3.407   6.816
 5377SOL    HW233274   4.048   3.370   6.848
 5378SOL     OW33275   5.392   2.947   6.053
 5378SOL    HW133276   5.468   3.004   6.045
 5378SOL    HW233277   5.321   2.996   6.011
 5379SOL     OW33278   1.966   2.017   0.523
 5379SOL    HW133279   1.879   2.022   0.562
 5379SOL    HW233280   2.026   2.032   0.596
 5380SOL     OW33281   0.254   4.047   7.755
 5380SOL    HW133282   0.313   4.033   7.681
 5380SOL    HW233283   0.168   4.061   7.714
 5381SOL     OW33284   4.503   1.606   6.066
 5381SOL    HW133285   4.572   1.542   6.046
 5381SOL    HW233286   4.530   1.685   6.018
 5382SOL     OW33287   6.189   5.676   6.607
 5382SOL    HW133288   6.130   5.623   6.661
 5382SOL    HW233289   6.157   5.766   6.616
 5383SOL     OW33290   2.914   6.263   7.445
 5383SOL    HW133291   2.939   6.269   7.537
 5383SOL    HW233292   2.965   6.331   7.402
 5384SOL     OW33293   2.332   5.612   7.052
 5384SOL    HW133294   2.380   5.615   7.135
 5384SOL    HW233295   2.400   5.602   6.985
 5385SOL     OW33296   2.018   4.915   2.166
 5385SOL    HW133297   1.941   4.900   2.112
 5385SOL    HW233298   2.063   4.831   2.170
 5386SOL     OW33299   3.132   1.000   0.367
 5386SOL    HW133300   3.077   0.936   0.323
 5386SOL    HW233301   3.089   1.016   0.451
 5387SOL     OW33302   4.132   6.305   1.905
 5387SOL    HW133303   4.162   6.343   1.823
 5387SOL    HW233304   4.046   6.346   1.920
 5388SOL     OW33305   0.082   6.104   6.294
 5388SOL    HW133306   0.112   6.026   6.247
 5388SOL    HW233307   0.021   6.146   6.235
 5389SOL     OW33308   3.798   2.037   1.315
 5389SOL    HW133309   3.841   1.952   1.321
 5389SOL    HW233310   3.713   2.018   1.274
 5390SOL     OW33311   3.206   0.595   5.848
 5390SOL    HW133312   3.165   0.661   5.792
 5390SOL    HW233313   3.299   0.620   5.850
 5391SOL     OW33314   2.883   5.681   7.573
 5391SOL    HW133315   2.855   5.746   7.509
 5391SOL    HW233316   2.804   5.663   7.625
 5392SOL     OW33317   1.037   4.786   1.915
 5392SOL    HW133318   1.064   4.877   1.903
 5392SOL    HW233319   1.119   4.736   1.919
 5393SOL     OW33320   5.297   2.786   2.279
 5393SOL    HW133321   5.304   2.774   2.374
 5393SOL    HW233322   5.363   2.852   2.259
 5394SOL     OW33323   1.814   4.994   7.347
 5394SOL    HW133324   1.777   5.080   7.367
 5394SOL    HW233325   1.779   4.937   7.415
 5395SOL     OW33326   6.408   4.984   0.402
 5395SOL    HW133327   0.005   5.044   0.462
 5395SOL    HW233328   0.029   4.951   0.345
 5396SOL     OW33329   1.572   3.213   1.157
 5396SOL    HW133330   1.644   3.275   1.144
 5396SOL    HW233331   1.614   3.133   1.189
 5397SOL     OW33332   1.068   5.238   7.141
 5397SOL    HW133333   1.008   5.192   7.200
 5397SOL    HW233334   1.127   5.285   7.199
 5398SOL     OW33335   5.938   2.903   0.422
 5398SOL    HW133336   5.874   2.836   0.398
 5398SOL    HW233337   6.023   2.862   0.405
 5399SOL     OW33338   4.025   2.769   7.585
 5399SOL    HW133339   3.981   2.699   7.632
 5399SOL    HW233340   4.103   2.728   7.547
 5400SOL     OW33341   2.911   5.119   1.219
 5400SOL    HW133342   2.856   5.041   1.230
 5400SOL    HW233343   3.001   5.085   1.215
 5401SOL     OW33344   3.908   4.008   1.740
 5401SOL    HW133345   3.881   4.075   1.678
 5401SOL    HW233346   3.835   3.945   1.740
 5402SOL     OW33347   3.811   3.121   6.653
 5402SOL    HW133348   3.732   3.138   6.601
 5402SOL    HW233349   3.881   3.165   6.606
 5403SOL     OW33350   2.120   3.642   6.247
 5403SOL    HW133351   2.200   3.603   6.283
 5403SOL    HW233352   2.101   3.715   6.305
 5404SOL     OW33353   0.325   3.644   1.681
 5404SOL    HW133354   0.337   3.637   1.776
 5404SOL    HW233355   0.260   3.577   1.660
 5405SOL     OW33356   1.105   2.897   0.660
 5405SOL    HW133357   1.179   2.913   0.719
 5405SOL    HW233358   1.110   2.968   0.596
 5406SOL     OW33359   3.477   4.177   0.294
 5406SOL    HW133360   3.439   4.135   0.371
 5406SOL    HW233361   3.507   4.262   0.324
 5407SOL     OW33362   4.455   5.038   6.485
 5407SOL    HW133363   4.526   5.078   6.435
 5407SOL    HW233364   4.481   4.946   6.495
 5408SOL     OW33365   4.809   2.757   5.881
 5408SOL    HW133366   4.750   2.758   5.956
 5408SOL    HW233367   4.768   2.696   5.820
 5409SOL     OW33368   4.760   4.460   7.181
 5409SOL    HW133369   4.819   4.385   7.172
 5409SOL    HW233370   4.812   4.525   7.229
 5410SOL     OW33371   4.355   4.022   2.100
 5410SOL    HW133372   4.352   4.117   2.089
 5410SOL    HW233373   4.267   3.992   2.080
 5411SOL     OW33374   5.489   6.011   1.970
 5411SOL    HW133375   5.490   5.963   2.052
 5411SOL    HW233376   5.435   6.088   1.987
 5412SOL     OW33377   4.048   5.785   6.462
 5412SOL    HW133378   4.103   5.862   6.476
 5412SOL    HW233379   4.019   5.761   6.550
 5413SOL     OW33380   4.538   4.994   1.673
 5413SOL    HW133381   4.466   4.942   1.708
 5413SOL    HW233382   4.610   4.979   1.734
 5414SOL     OW33383   5.976   4.587   2.073
 5414SOL    HW133384   5.892   4.632   2.068
 5414SOL    HW233385   6.032   4.645   2.123
 5415SOL     OW33386   2.508   0.040   1.410
 5415SOL    HW133387   2.455   0.109   1.449
 5415SOL    HW233388   2.540   6.437   1.484
 5416SOL     OW33389   4.907   2.358   0.401
 5416SOL    HW133390   4.923   2.413   0.324
 5416SOL    HW233391   4.873   2.418   0.467
 5417SOL     OW33392   1.769   1.226   5.401
 5417SOL    HW133393   1.693   1.272   5.363
 5417SOL    HW233394   1.828   1.214   5.327
 5418SOL     OW33395   5.220   4.883   6.535
 5418SOL    HW133396   5.201   4.967   6.576
 5418SOL    HW233397   5.135   4.842   6.521
 5419SOL     OW33398   6.422   1.590   1.891
 5419SOL    HW133399   0.042   1.522   1.893
 5419SOL    HW233400   6.387   1.585   1.802
 5420SOL     OW33401   4.574   4.010   6.673
 5420SOL    HW133402   4.619   4.030   6.591
 5420SOL    HW233403   4.481   4.023   6.652
 5421SOL     OW33404   4.763   2.380   7.100
 5421SOL    HW133405   4.745   2.430   7.020
 5421SOL    HW233406   4.830   2.316   7.074
 5422SOL     OW33407   5.226   2.629   5.503
 5422SOL    HW133408   5.144   2.595   5.539
 5422SOL    HW233409   5.205   2.649   5.412
 5423SOL     OW33410   0.932   5.746   6.331
 5423SOL    HW133411   0.988   5.739   6.408
 5423SOL    HW233412   0.966   5.680   6.271
 5424SOL     OW33413   3.113   4.852   1.750
 5424SOL    HW133414   3.065   4.863   1.668
 5424SOL    HW233415   3.081   4.769   1.786
 5425SOL     OW33416   6.020   5.870   0.213
 5425SOL    HW133417   6.072   5.798   0.249
 5425SOL    HW233418   6.051   5.879   0.123
 5426SOL     OW33419   5.495   5.181   6.077
 5426SOL    HW133420   5.574   5.135   6.107
 5426SOL    HW233421   5.482   5.150   5.987
 5427SOL     OW33422   0.850   6.054   0.035
 5427SOL    HW133423   0.933   6.058   0.083
 5427SOL    HW233424   0.785   6.027   0.100
 5428SOL     OW33425   3.469   5.563   1.471
 5428SOL    HW133426   3.451   5.626   1.541
 5428SOL    HW233427   3.501   5.485   1.517
 5429SOL     OW33428   2.632   2.096   0.845
 5429SOL    HW133429   2.670   2.130   0.926
 5429SOL    HW233430   2.651   2.163   0.780
 5430SOL     OW33431   6.335   4.365   6.589
 5430SOL    HW133432   6.369   4.333   6.506
 5430SOL    HW233433   6.357   4.458   6.590
 5431SOL     OW33434   5.324   3.117   7.463
 5431SOL    HW133435   5.266   3.182   7.502
 5431SOL    HW233436   5.323   3.137   7.369
 5432SOL     OW33437   6.405   4.279   6.238
 5432SOL    HW133438   0.022   4.244   6.178
 5432SOL    HW233439   6.340   4.209   6.248
 5433SOL     OW33440   0.663   6.398   6.414
 5433SOL    HW133441   0.636   6.327   6.471
 5433SOL    HW233442   0.653   0.029   6.467
 5434SOL     OW33443   2.918   1.206   1.666
 5434SOL    HW133444   2.960   1.226   1.749
 5434SOL    HW233445   2.951   1.120   1.641
 5435SOL     OW33446   1.421   3.727   0.806
 5435SOL    HW133447   1.418   3.818   0.838
 5435SOL    HW233448   1.334   3.711   0.771
 5436SOL     OW33449   1.571   0.843   5.833
 5436SOL    HW133450   1.500   0.856   5.770
 5436SOL    HW233451   1.608   0.758   5.812
 5437SOL     OW33452   0.055   3.402   6.672
 5437SOL    HW133453   0.068   3.488   6.711
 5437SOL    HW233454   0.076   3.414   6.579
 5438SOL     OW33455   4.261   1.387   0.553
 5438SOL    HW133456   4.235   1.366   0.463
 5438SOL    HW233457   4.332   1.450   0.543
 5439SOL     OW33458   0.288   2.246   7.769
 5439SOL    HW133459   0.324   2.185   0.031
 5439SOL    HW233460   0.276   2.193   7.690
 5440SOL     OW33461   1.483   4.894   0.626
 5440SOL    HW133462   1.544   4.868   0.695
 5440SOL    HW233463   1.521   4.973   0.588
 5441SOL     OW33464   4.648   4.452   0.928
 5441SOL    HW133465   4.654   4.360   0.902
 5441SOL    HW233466   4.679   4.453   1.019
 5442SOL     OW33467   6.227   1.759   0.820
 5442SOL    HW133468   6.158   1.815   0.855
 5442SOL    HW233469   6.181   1.688   0.776
 5443SOL     OW33470   0.207   4.247   0.578
 5443SOL    HW133471   0.271   4.317   0.593
 5443SOL    HW233472   0.231   4.180   0.642
 5444SOL     OW33473   1.687   0.781   6.559
 5444SOL    HW133474   1.645   0.818   6.481
 5444SOL    HW233475   1.673   0.687   6.551
 5445SOL     OW33476   3.419   5.765   1.650
 5445SOL    HW133477   3.395   5.811   1.570
 5445SOL    HW233478   3.401   5.828   1.720
 5446SOL     OW33479   1.915   3.841   7.620
 5446SOL    HW133480   1.958   3.760   7.591
 5446SOL    HW233481   1.982   3.886   7.672
 5447SOL     OW33482   5.822   6.094   1.601
 5447SOL    HW133483   5.808   6.172   1.547
 5447SOL    HW233484   5.823   6.126   1.691
 5448SOL     OW33485   4.162   2.270   0.819
 5448SOL    HW133486   4.107   2.291   0.743
 5448SOL    HW233487   4.139   2.337   0.884
 5449SOL     OW33488   3.600   2.428   0.097
 5449SOL    HW133489   3.605   2.473   0.012
 5449SOL    HW233490   3.685   2.386   0.106
 5450SOL     OW33491   5.784   4.280   0.819
 5450SOL    HW133492   5.704   4.333   0.812
 5450SOL    HW233493   5.752   4.191   0.835
 5451SOL     OW33494   4.107   5.613   6.932
 5451SOL    HW133495   4.145   5.641   6.849
 5451SOL    HW233496   4.179   5.621   6.995
 5452SOL     OW33497   2.681   6.345   0.858
 5452SOL    HW133498   2.596   6.387   0.864
 5452SOL    HW233499   2.665   6.255   0.886
 5453SOL     OW33500   0.114   5.961   7.383
 5453SOL    HW133501   0.113   5.869   7.410
 5453SOL    HW233502   0.087   6.009   7.461
 5454SOL     OW33503   2.176   5.649   7.757
 5454SOL    HW133504   2.101   5.614   7.709
 5454SOL    HW233505   2.147   5.735   7.787
 5455SOL     OW33506   0.889   6.127   2.022
 5455SOL    HW133507   0.824   6.103   2.088
 5455SOL    HW233508   0.838   6.174   1.955
 5456SOL     OW33509   4.938   5.352   5.938
 5456SOL    HW133510   5.019   5.325   5.895
 5456SOL    HW233511   4.869   5.309   5.887
 5457SOL     OW33512   6.254   3.352   6.551
 5457SOL    HW133513   6.339   3.362   6.594
 5457SOL    HW233514   6.191   3.343   6.623
 5458SOL     OW33515   5.216   0.035   5.750
 5458SOL    HW133516   5.135   0.083   5.737
 5458SOL    HW233517   5.282   0.103   5.767
 5459SOL     OW33518   4.640   4.012   5.533
 5459SOL    HW133519   4.603   3.968   5.610
 5459SOL    HW233520   4.564   4.042   5.484
 5460SOL     OW33521   1.519   0.805   0.292
 5460SOL    HW133522   1.500   0.719   0.254
 5460SOL    HW233523   1.566   0.785   0.374
 5461SOL     OW33524   2.466   3.034   6.211
 5461SOL    HW133525   2.435   3.075   6.131
 5461SOL    HW233526   2.403   2.963   6.228
 5462SOL     OW33527   5.557   4.678   1.129
 5462SOL    HW133528   5.551   4.583   1.117
 5462SOL    HW233529   5.643   4.701   1.095
 5463SOL     OW33530   2.962   4.601   1.109
 5463SOL    HW133531   3.029   4.544   1.147
 5463SOL    HW233532   2.889   4.595   1.170
 5464SOL     OW33533   3.973   0.827   6.016
 5464SOL    HW133534   4.006   0.906   5.974
 5464SOL    HW233535   4.048   0.767   6.017
 5465SOL     OW33536   2.503   2.376   6.601
 5465SOL    HW133537   2.446   2.317   6.651
 5465SOL    HW233538   2.503   2.457   6.652
 5466SOL     OW33539   2.558   0.530   6.391
 5466SOL    HW133540   2.567   0.587   6.467
 5466SOL    HW233541   2.481   0.563   6.345
 5467SOL     OW33542   2.356   2.390   1.353
 5467SOL    HW133543   2.269   2.408   1.317
 5467SOL    HW233544   2.339   2.353   1.440
 5468SOL     OW33545   3.503   6.429   1.802
 5468SOL    HW133546   3.443   6.392   1.866
 5468SOL    HW233547   3.578   0.012   1.854
 5469SOL     OW33548   6.131   1.926   1.342
 5469SOL    HW133549   6.159   2.014   1.368
 5469SOL    HW233550   6.204   1.893   1.290
 5470SOL     OW33551   1.333   2.745   0.109
 5470SOL    HW133552   1.249   2.775   0.144
 5470SOL    HW233553   1.361   2.677   0.170
 5471SOL     OW33554   2.610   5.891   5.589
 5471SOL    HW133555   2.664   5.820   5.622
 5471SOL    HW233556   2.653   5.918   5.508
 5472SOL     OW33557   2.223   1.005   0.705
 5472SOL    HW133558   2.291   1.010   0.638
 5472SOL    HW233559   2.161   1.074   0.683
 5473SOL     OW33560   5.230   1.755   2.125
 5473SOL    HW133561   5.311   1.777   2.078
 5473SOL    HW233562   5.187   1.839   2.139
 5474SOL     OW33563   0.957   4.627   0.554
 5474SOL    HW133564   0.970   4.710   0.599
 5474SOL    HW233565   1.007   4.563   0.605
 5475SOL     OW33566   3.677   0.491   1.513
 5475SOL    HW133567   3.683   0.395   1.517
 5475SOL    HW233568   3.678   0.519   1.604
 5476SOL     OW33569   0.058   0.601   6.578
 5476SOL    HW133570   6.419   0.640   6.565
 5476SOL    HW233571   0.115   0.649   6.519
 5477SOL     OW33572   5.105   5.164   0.944
 5477SOL    HW133573   5.063   5.248   0.964
 5477SOL    HW233574   5.047   5.098   0.982
 5478SOL     OW33575   5.418   4.060   5.392
 5478SOL    HW133576   5.410   4.082   5.485
 5478SOL    HW233577   5.330   4.071   5.356
 5479SOL     OW33578   6.364   5.639   0.783
 5479SOL    HW133579   6.331   5.554   0.809
 5479SOL    HW233580   6.323   5.657   0.698
 5480SOL     OW33581   5.821   0.513   0.864
 5480SOL    HW133582   5.910   0.536   0.888
 5480SOL    HW233583   5.829   0.431   0.815
 5481SOL     OW33584   6.369   1.843   0.594
 5481SOL    HW133585   6.329   1.818   0.678
 5481SOL    HW233586   6.443   1.899   0.619
 5482SOL     OW33587   0.970   2.088   6.839
 5482SOL    HW133588   0.954   2.032   6.914
 5482SOL    HW233589   0.971   2.029   6.764
 5483SOL     OW33590   4.049   3.000   1.789
 5483SOL    HW133591   3.966   3.047   1.801
 5483SOL    HW233592   4.088   3.039   1.711
 5484SOL     OW33593   5.723   0.715   7.116
 5484SOL    HW133594   5.773   0.635   7.133
 5484SOL    HW233595   5.655   0.715   7.183
 5485SOL     OW33596   3.476   5.448   0.028
 5485SOL    HW133597   3.559   5.440   7.785
 5485SOL    HW233598   3.412   5.407   7.773
 5486SOL     OW33599   5.078   4.067   1.058
 5486SOL    HW133600   5.108   4.067   1.149
 5486SOL    HW233601   5.024   4.145   1.050
 5487SOL     OW33602   3.343   0.809   6.056
 5487SOL    HW133603   3.394   0.751   5.999
 5487SOL    HW233604   3.289   0.861   5.996
 5488SOL     OW33605   6.231   5.926   6.320
 5488SOL    HW133606   6.248   5.916   6.227
 5488SOL    HW233607   6.297   5.872   6.363
 5489SOL     OW33608   4.972   3.800   1.772
 5489SOL    HW133609   4.995   3.709   1.753
 5489SOL    HW233610   4.925   3.796   1.855
 5490SOL     OW33611   2.301   1.084   0.248
 5490SOL    HW133612   2.332   1.120   0.164
 5490SOL    HW233613   2.254   1.005   0.224
 5491SOL     OW33614   3.248   1.179   7.188
 5491SOL    HW133615   3.328   1.192   7.239
 5491SOL    HW233616   3.271   1.206   7.099
 5492SOL     OW33617   3.953   4.778   0.401
 5492SOL    HW133618   4.039   4.781   0.358
 5492SOL    HW233619   3.944   4.688   0.432
 5493SOL     OW33620   2.023   6.260   6.941
 5493SOL    HW133621   2.063   6.336   6.898
 5493SOL    HW233622   1.945   6.242   6.889
 5494SOL     OW33623   5.966   0.261   6.640
 5494SOL    HW133624   5.877   0.242   6.670
 5494SOL    HW233625   6.022   0.231   6.712
 5495SOL     OW33626   6.215   0.646   6.575
 5495SOL    HW133627   6.216   0.634   6.670
 5495SOL    HW233628   6.139   0.597   6.544
 5496SOL     OW33629   5.582   4.172   6.050
 5496SOL    HW133630   5.511   4.154   5.987
 5496SOL    HW233631   5.653   4.207   5.996
 5497SOL     OW33632   0.099   2.170   5.966
 5497SOL    HW133633   0.084   2.257   5.928
 5497SOL    HW233634   0.012   2.143   5.997
 5498SOL     OW33635   3.123   1.569   0.897
 5498SOL    HW133636   3.212   1.587   0.926
 5498SOL    HW233637   3.068   1.591   0.972
 5499SOL     OW33638   1.308   0.126   0.021
 5499SOL    HW133639   1.369   0.181   7.775
 5499SOL    HW233640   1.327   0.143   0.113
 5500SOL     OW33641   0.184   4.250   7.326
 5500SOL    HW133642   0.172   4.254   7.421
 5500SOL    HW233643   0.106   4.204   7.294
 5501SOL     OW33644   4.896   2.726   6.856
 5501SOL    HW133645   4.954   2.747   6.783
 5501SOL    HW233646   4.866   2.811   6.888
 5502SOL     OW33647   5.381   4.957   6.859
 5502SOL    HW133648   5.458   4.997   6.820
 5502SOL    HW233649   5.394   4.863   6.846
 5503SOL     OW33650   0.845   6.116   1.608
 5503SOL    HW133651   0.751   6.125   1.592
 5503SOL    HW233652   0.874   6.205   1.631
 5504SOL     OW33653   0.257   0.178   6.887
 5504SOL    HW133654   0.302   0.097   6.908
 5504SOL    HW233655   0.311   0.246   6.928
 5505SOL     OW33656   3.467   5.507   6.293
 5505SOL    HW133657   3.434   5.446   6.227
 5505SOL    HW233658   3.542   5.463   6.332
 5506SOL     OW33659   6.337   0.634   0.933
 5506SOL    HW133660   6.263   0.598   0.981
 5506SOL    HW233661   6.413   0.616   0.989
 5507SOL     OW33662   3.834   1.542   0.964
 5507SOL    HW133663   3.891   1.465   0.955
 5507SOL    HW233664   3.746   1.508   0.949
 5508SOL     OW33665   1.795   6.197   6.802
 5508SOL    HW133666   1.760   6.129   6.859
 5508SOL    HW233667   1.723   6.258   6.790
 5509SOL     OW33668   0.474   4.672   0.870
 5509SOL    HW133669   0.399   4.661   0.929
 5509SOL    HW233670   0.512   4.756   0.896
 5510SOL     OW33671   3.777   4.368   7.423
 5510SOL    HW133672   3.825   4.399   7.346
 5510SOL    HW233673   3.808   4.279   7.437
 5511SOL     OW33674   0.611   4.070   0.184
 5511SOL    HW133675   0.522   4.103   0.195
 5511SOL    HW233676   0.614   4.039   0.093
 5512SOL     OW33677   2.124   4.422   0.172
 5512SOL    HW133678   2.038   4.386   0.189
 5512SOL    HW233679   2.179   4.346   0.151
 5513SOL     OW33680   5.247   4.679   2.099
 5513SOL    HW133681   5.281   4.590   2.101
 5513SOL    HW233682   5.153   4.669   2.109
 5514SOL     OW33683   6.269   2.523   2.031
 5514SOL    HW133684   6.225   2.508   2.114
 5514SOL    HW233685   6.362   2.523   2.053
 5515SOL     OW33686   0.349   3.639   0.015
 5515SOL    HW133687   0.428   3.662   7.768
 5515SOL    HW233688   0.290   3.601   7.752
 5516SOL     OW33689   3.496   5.040   2.417
 5516SOL    HW133690   3.514   5.128   2.384
 5516SOL    HW233691   3.544   5.035   2.500
 5517SOL     OW33692   2.178   2.697   0.358
 5517SOL    HW133693   2.126   2.719   0.435
 5517SOL    HW233694   2.114   2.670   0.292
 5518SOL     OW33695   5.264   3.423   5.405
 5518SOL    HW133696   5.345   3.408   5.454
 5518SOL    HW233697   5.250   3.342   5.356
 5519SOL     OW33698   6.066   2.636   2.473
 5519SOL    HW133699   6.102   2.721   2.448
 5519SOL    HW233700   6.134   2.596   2.528
 5520SOL     OW33701   2.775   1.582   5.618
 5520SOL    HW133702   2.752   1.661   5.570
 5520SOL    HW233703   2.863   1.599   5.652
 5521SOL     OW33704   3.031   6.250   5.348
 5521SOL    HW133705   3.051   6.224   5.438
 5521SOL    HW233706   3.084   6.329   5.333
 5522SOL     OW33707   3.358   4.934   5.969
 5522SOL    HW133708   3.265   4.933   5.948
 5522SOL    HW233709   3.362   4.973   6.057
 5523SOL     OW33710   3.227   2.340   7.602
 5523SOL    HW133711   3.301   2.329   7.543
 5523SOL    HW233712   3.178   2.258   7.595
 5524SOL     OW33713   2.318   5.696   5.902
 5524SOL    HW133714   2.341   5.664   5.815
 5524SOL    HW233715   2.342   5.789   5.901
 5525SOL     OW33716   4.721   2.514   6.867
 5525SOL    HW133717   4.785   2.584   6.858
 5525SOL    HW233718   4.637   2.555   6.848
 5526SOL     OW33719   3.938   5.144   6.547
 5526SOL    HW133720   3.995   5.069   6.562
 5526SOL    HW233721   3.997   5.219   6.542
 5527SOL     OW33722   0.268   2.061   7.561
 5527SOL    HW133723   0.345   2.026   7.517
 5527SOL    HW233724   0.243   1.994   7.625
 5528SOL     OW33725   3.357   2.250   0.715
 5528SOL    HW133726   3.381   2.297   0.635
 5528SOL    HW233727   3.390   2.305   0.786
 5529SOL     OW33728   3.685   0.536   1.780
 5529SOL    HW133729   3.675   0.578   1.865
 5529SOL    HW233730   3.673   0.443   1.798
 5530SOL     OW33731   2.787   6.125   6.743
 5530SOL    HW133732   2.788   6.050   6.802
 5530SOL    HW233733   2.695   6.147   6.733
 5531SOL     OW33734   1.215   0.376   6.504
 5531SOL    HW133735   1.175   0.356   6.588
 5531SOL    HW233736   1.273   0.302   6.486
 5532SOL     OW33737   0.735   6.271   1.850
 5532SOL    HW133738   0.686   6.347   1.881
 5532SOL    HW233739   0.788   6.304   1.777
 5533SOL     OW33740   3.825   3.914   6.831
 5533SOL    HW133741   3.871   3.835   6.857
 5533SOL    HW233742   3.879   3.986   6.862
 5534SOL     OW33743   4.861   0.657   7.080
 5534SOL    HW133744   4.895   0.746   7.082
 5534SOL    HW233745   4.884   0.624   6.993
 5535SOL     OW33746   6.402   3.533   0.210
 5535SOL    HW133747   0.045   3.506   0.194
 5535SOL    HW233748   6.393   3.530   0.305
 5536SOL     OW33749   2.153   2.797   7.169
 5536SOL    HW133750   2.077   2.855   7.160
 5536SOL    HW233751   2.121   2.725   7.223
 5537SOL     OW33752   3.627   0.560   7.661
 5537SOL    HW133753   3.628   0.575   7.755
 5537SOL    HW233754   3.674   0.478   7.649
 5538SOL     OW33755   3.509   1.140   0.573
 5538SOL    HW133756   3.492   1.073   0.639
 5538SOL    HW233757   3.583   1.189   0.607
 5539SOL     OW33758   0.007   5.966   5.868
 5539SOL    HW133759   6.405   5.955   5.787
 5539SOL    HW233760   0.021   6.060   5.875
 5540SOL     OW33761   3.272   1.855   1.777
 5540SOL    HW133762   3.344   1.887   1.832
 5540SOL    HW233763   3.279   1.906   1.696
 5541SOL     OW33764   0.331   5.859   6.679
 5541SOL    HW133765   0.316   5.908   6.760
 5541SOL    HW233766   0.316   5.923   6.609
 5542SOL     OW33767   2.611   3.331   7.366
 5542SOL    HW133768   2.632   3.343   7.274
 5542SOL    HW233769   2.694   3.345   7.412
 5543SOL     OW33770   1.445   1.043   6.629
 5543SOL    HW133771   1.439   1.132   6.664
 5543SOL    HW233772   1.476   1.054   6.539
 5544SOL     OW33773   1.918   1.939   7.453
 5544SOL    HW133774   1.893   1.992   7.528
 5544SOL    HW233775   1.987   1.989   7.410
 5545SOL     OW33776   4.036   3.091   5.993
 5545SOL    HW133777   3.979   3.022   5.961
 5545SOL    HW233778   3.981   3.141   6.055
 5546SOL     OW33779   0.183   2.497   0.207
 5546SOL    HW133780   0.107   2.494   0.149
 5546SOL    HW233781   0.242   2.430   0.173
 5547SOL     OW33782   3.216   5.587   7.626
 5547SOL    HW133783   3.158   5.559   7.555
 5547SOL    HW233784   3.251   5.505   7.661
 5548SOL     OW33785   5.633   5.838   7.502
 5548SOL    HW133786   5.614   5.928   7.476
 5548SOL    HW233787   5.570   5.819   7.571
 5549SOL     OW33788   6.383   6.425   5.613
 5549SOL    HW133789   0.021   0.004   5.647
 5549SOL    HW233790   6.379   6.330   5.630
 5550SOL     OW33791   2.534   0.582   0.996
 5550SOL    HW133792   2.547   0.635   0.917
 5550SOL    HW233793   2.612   0.599   1.049
 5551SOL     OW33794   2.267   1.202   5.980
 5551SOL    HW133795   2.354   1.244   5.982
 5551SOL    HW233796   2.251   1.176   6.070
 5552SOL     OW33797   0.280   3.899   1.582
 5552SOL    HW133798   0.287   3.804   1.591
 5552SOL    HW233799   0.352   3.933   1.635
 5553SOL     OW33800   3.559   2.786   6.883
 5553SOL    HW133801   3.632   2.826   6.835
 5553SOL    HW233802   3.559   2.695   6.855
 5554SOL     OW33803   2.172   5.153   0.573
 5554SOL    HW133804   2.223   5.181   0.649
 5554SOL    HW233805   2.237   5.145   0.503
 5555SOL     OW33806   0.377   4.740   0.608
 5555SOL    HW133807   0.391   4.650   0.579
 5555SOL    HW233808   0.407   4.741   0.699
 5556SOL     OW33809   2.548   2.867   1.110
 5556SOL    HW133810   2.521   2.911   1.030
 5556SOL    HW233811   2.472   2.814   1.135
 5557SOL     OW33812   5.146   3.469   2.002
 5557SOL    HW133813   5.087   3.420   1.944
 5557SOL    HW233814   5.221   3.491   1.946
 5558SOL     OW33815   5.703   3.929   0.401
 5558SOL    HW133816   5.684   3.937   0.494
 5558SOL    HW233817   5.751   3.846   0.393
 5559SOL     OW33818   3.974   5.364   1.034
 5559SOL    HW133819   3.884   5.338   1.016
 5559SOL    HW233820   3.965   5.442   1.089
 5560SOL     OW33821   0.336   4.031   7.116
 5560SOL    HW133822   0.275   4.016   7.189
 5560SOL    HW233823   0.420   3.999   7.148
 5561SOL     OW33824   2.085   1.382   1.492
 5561SOL    HW133825   2.166   1.408   1.536
 5561SOL    HW233826   2.016   1.426   1.540
 5562SOL     OW33827   6.394   6.264   1.230
 5562SOL    HW133828   0.017   6.290   1.289
 5562SOL    HW233829   6.380   6.341   1.174
 5563SOL     OW33830   4.408   5.538   2.289
 5563SOL    HW133831   4.338   5.495   2.339
 5563SOL    HW233832   4.451   5.467   2.242
 5564SOL     OW33833   1.871   2.480   6.786
 5564SOL    HW133834   1.879   2.395   6.829
 5564SOL    HW233835   1.818   2.533   6.846
 5565SOL     OW33836   1.390   4.530   0.927
 5565SOL    HW133837   1.371   4.526   0.833
 5565SOL    HW233838   1.475   4.573   0.933
 5566SOL     OW33839   3.524   1.188   1.034
 5566SOL    HW133840   3.520   1.093   1.019
 5566SOL    HW233841   3.437   1.210   1.068
 5567SOL     OW33842   2.605   0.087   7.192
 5567SOL    HW133843   2.664   0.160   7.171
 5567SOL    HW233844   2.532   0.129   7.238
 5568SOL     OW33845   5.383   5.006   1.576
 5568SOL    HW133846   5.358   5.055   1.498
 5568SOL    HW233847   5.300   4.982   1.617
 5569SOL     OW33848   2.483   5.449   0.915
 5569SOL    HW133849   2.404   5.451   0.970
 5569SOL    HW233850   2.450   5.458   0.825
 5570SOL     OW33851   3.592   5.385   1.054
 5570SOL    HW133852   3.533   5.338   1.114
 5570SOL    HW233853   3.573   5.478   1.070
 5571SOL     OW33854   2.413   0.916   6.227
 5571SOL    HW133855   2.349   0.987   6.225
 5571SOL    HW233856   2.461   0.929   6.309
 5572SOL     OW33857   4.091   4.057   0.115
 5572SOL    HW133858   4.024   4.033   0.180
 5572SOL    HW233859   4.061   4.141   0.079
 5573SOL     OW33860   0.104   5.717   6.932
 5573SOL    HW133861   0.031   5.671   6.973
 5573SOL    HW233862   0.079   5.809   6.936
 5574SOL     OW33863   5.073   3.802   2.132
 5574SOL    HW133864   5.128   3.872   2.096
 5574SOL    HW233865   4.988   3.813   2.087
 5575SOL     OW33866   1.669   0.388   6.306
 5575SOL    HW133867   1.735   0.373   6.239
 5575SOL    HW233868   1.601   0.440   6.262
 5576SOL     OW33869   3.297   0.266   6.504
 5576SOL    HW133870   3.322   0.357   6.517
 5576SOL    HW233871   3.254   0.264   6.419
 5577SOL     OW33872   6.174   3.558   2.173
 5577SOL    HW133873   6.185   3.580   2.080
 5577SOL    HW233874   6.135   3.470   2.171
 5578SOL     OW33875   5.628   1.723   6.113
 5578SOL    HW133876   5.626   1.707   6.207
 5578SOL    HW233877   5.551   1.677   6.079
 5579SOL     OW33878   1.647   2.516   7.698
 5579SOL    HW133879   1.559   2.553   7.697
 5579SOL    HW233880   1.653   2.467   7.616
 5580SOL     OW33881   1.239   6.306   7.464
 5580SOL    HW133882   1.284   6.304   7.548
 5580SOL    HW233883   1.303   6.274   7.401
 5581SOL     OW33884   6.322   5.442   1.432
 5581SOL    HW133885   6.373   5.386   1.490
 5581SOL    HW233886   6.261   5.382   1.389
 5582SOL     OW33887   4.648   2.012   5.725
 5582SOL    HW133888   4.645   2.107   5.730
 5582SOL    HW233889   4.622   1.991   5.635
 5583SOL     OW33890   5.688   5.751   7.007
 5583SOL    HW133891   5.753   5.691   7.042
 5583SOL    HW233892   5.739   5.823   6.969
 5584SOL     OW33893   0.835   3.970   0.908
 5584SOL    HW133894   0.894   3.968   0.833
 5584SOL    HW233895   0.891   3.954   0.984
 5585SOL     OW33896   4.616   3.881   1.393
 5585SOL    HW133897   4.604   3.878   1.298
 5585SOL    HW233898   4.572   3.962   1.420
 5586SOL     OW33899   2.791   4.851   7.357
 5586SOL    HW133900   2.764   4.942   7.374
 5586SOL    HW233901   2.868   4.838   7.412
 5587SOL     OW33902   3.594   5.297   5.958
 5587SOL    HW133903   3.512   5.305   6.007
 5587SOL    HW233904   3.600   5.204   5.937
 5588SOL     OW33905   0.051   5.751   0.409
 5588SOL    HW133906   0.115   5.684   0.431
 5588SOL    HW233907   0.024   5.731   0.320
 5589SOL     OW33908   4.767   5.433   6.424
 5589SOL    HW133909   4.809   5.422   6.338
 5589SOL    HW233910   4.806   5.366   6.479
 5590SOL     OW33911   6.113   5.291   1.330
 5590SOL    HW133912   6.087   5.204   1.362
 5590SOL    HW233913   6.033   5.343   1.334
 5591SOL     OW33914   1.517   4.629   1.706
 5591SOL    HW133915   1.501   4.626   1.801
 5591SOL    HW233916   1.433   4.651   1.668
 5592SOL     OW33917   0.665   5.053   1.613
 5592SOL    HW133918   0.611   5.004   1.552
 5592SOL    HW233919   0.755   5.031   1.589
 5593SOL     OW33920   5.423   5.934   6.767
 5593SOL    HW133921   5.353   5.870   6.783
 5593SOL    HW233922   5.413   5.957   6.674
 5594SOL     OW33923   0.150   3.172   6.794
 5594SOL    HW133924   0.120   3.250   6.747
 5594SOL    HW233925   0.221   3.138   6.739
 5595SOL     OW33926   0.106   3.997   6.548
 5595SOL    HW133927   0.198   4.012   6.569
 5595SOL    HW233928   0.106   3.981   6.453
 5596SOL     OW33929   4.489   4.177   7.621
 5596SOL    HW133930   4.567   4.121   7.626
 5596SOL    HW233931   4.441   4.160   7.702
 5597SOL     OW33932   0.926   2.931   0.411
 5597SOL    HW133933   0.858   2.998   0.418
 5597SOL    HW233934   0.892   2.857   0.461
 5598SOL     OW33935   4.388   0.082   1.284
 5598SOL    HW133936   4.461   0.142   1.265
 5598SOL    HW233937   4.327   0.135   1.334
 5599SOL     OW33938   0.798   0.888   7.079
 5599SOL    HW133939   0.847   0.947   7.138
 5599SOL    HW233940   0.737   0.946   7.033
 5600SOL     OW33941   5.776   6.112   1.091
 5600SOL    HW133942   5.754   6.043   1.153
 5600SOL    HW233943   5.864   6.140   1.116
 5601SOL     OW33944   5.586   5.935   7.190
 5601SOL    HW133945   5.506   5.912   7.238
 5601SOL    HW233946   5.603   5.859   7.134
 5602SOL     OW33947   4.814   6.248   1.523
 5602SOL    HW133948   4.867   6.221   1.449
 5602SOL    HW233949   4.798   6.341   1.508
 5603SOL     OW33950   2.571   5.175   5.673
 5603SOL    HW133951   2.605   5.146   5.758
 5603SOL    HW233952   2.548   5.095   5.628
 5604SOL     OW33953   2.241   2.051   0.111
 5604SOL    HW133954   2.182   2.126   0.118
 5604SOL    HW233955   2.224   2.000   0.190
 5605SOL     OW33956   1.260   3.930   7.595
 5605SOL    HW133957   1.186   3.874   7.621
 5605SOL    HW233958   1.219   4.003   7.549
 5606SOL     OW33959   4.154   1.861   1.176
 5606SOL    HW133960   4.221   1.797   1.153
 5606SOL    HW233961   4.145   1.916   1.098
 5607SOL     OW33962   5.551   5.245   6.422
 5607SOL    HW133963   5.589   5.324   6.384
 5607SOL    HW233964   5.457   5.261   6.423
 5608SOL     OW33965   5.098   3.806   6.317
 5608SOL    HW133966   5.168   3.758   6.361
 5608SOL    HW233967   5.055   3.741   6.262
 5609SOL     OW33968   0.263   2.021   6.143
 5609SOL    HW133969   0.217   2.077   6.081
 5609SOL    HW233970   0.201   2.007   6.215
 5610SOL     OW33971   5.076   5.455   0.291
 5610SOL    HW133972   5.154   5.463   0.347
 5610SOL    HW233973   5.050   5.363   0.301
 5611SOL     OW33974   3.100   6.303   6.455
 5611SOL    HW133975   3.142   6.349   6.528
 5611SOL    HW233976   3.013   6.282   6.486
 5612SOL     OW33977   3.963   2.851   1.455
 5612SOL    HW133978   4.047   2.814   1.480
 5612SOL    HW233979   3.985   2.935   1.413
 5613SOL     OW33980   4.673   5.626   2.348
 5613SOL    HW133981   4.687   5.703   2.293
 5613SOL    HW233982   4.580   5.606   2.339
 5614SOL     OW33983   6.137   1.644   2.598
 5614SOL    HW133984   6.145   1.587   2.521
 5614SOL    HW233985   6.077   1.596   2.656
 5615SOL     OW33986   0.624   6.333   7.291
 5615SOL    HW133987   0.540   6.326   7.246
 5615SOL    HW233988   0.622   6.261   7.355
 5616SOL     OW33989   6.115   1.458   2.396
 5616SOL    HW133990   6.028   1.442   2.358
 5616SOL    HW233991   6.176   1.421   2.332
 5617SOL     OW33992   2.470   0.239   0.183
 5617SOL    HW133993   2.566   0.240   0.187
 5617SOL    HW233994   2.448   0.152   0.150
 5618SOL     OW33995   2.128   5.633   6.084
 5618SOL    HW133996   2.049   5.616   6.033
 5618SOL    HW233997   2.198   5.641   6.019
 5619SOL     OW33998   2.089   2.283   0.142
 5619SOL    HW133999   1.997   2.268   0.166
 5619SOL    HW234000   2.087   2.352   0.076
 5620SOL     OW34001   1.698   5.072   5.821
 5620SOL    HW134002   1.769   5.117   5.868
 5620SOL    HW234003   1.669   5.135   5.755
 5621SOL     OW34004   2.165   5.035   1.703
 5621SOL    HW134005   2.115   4.977   1.645
 5621SOL    HW234006   2.101   5.066   1.767
 5622SOL     OW34007   4.807   2.226   6.381
 5622SOL    HW134008   4.814   2.278   6.301
 5622SOL    HW234009   4.850   2.278   6.448
 5623SOL     OW34010   0.921   1.891   1.084
 5623SOL    HW134011   0.859   1.958   1.055
 5623SOL    HW234012   0.917   1.894   1.179
 5624SOL     OW34013   4.691   1.885   6.170
 5624SOL    HW134014   4.671   1.856   6.081
 5624SOL    HW234015   4.605   1.907   6.208
 5625SOL     OW34016   2.234   5.346   0.292
 5625SOL    HW134017   2.207   5.309   0.208
 5625SOL    HW234018   2.291   5.279   0.331
 5626SOL     OW34019   2.924   0.651   6.157
 5626SOL    HW134020   2.870   0.589   6.205
 5626SOL    HW234021   2.991   0.598   6.114
 5627SOL     OW34022   5.393   6.027   1.451
 5627SOL    HW134023   5.461   6.092   1.435
 5627SOL    HW234024   5.379   6.029   1.545
 5628SOL     OW34025   0.953   4.148   0.070
 5628SOL    HW134026   1.035   4.117   0.109
 5628SOL    HW234027   0.941   4.236   0.105
 5629SOL     OW34028   1.070   3.785   6.025
 5629SOL    HW134029   1.155   3.814   6.058
 5629SOL    HW234030   1.054   3.702   6.072
 5630SOL     OW34031   4.695   6.375   2.417
 5630SOL    HW134032   4.634   6.429   2.467
 5630SOL    HW234033   4.768   6.434   2.396
 5631SOL     OW34034   4.028   0.878   2.118
 5631SOL    HW134035   3.946   0.927   2.126
 5631SOL    HW234036   4.081   0.931   2.058
 5632SOL     OW34037   4.291   6.415   7.337
 5632SOL    HW134038   4.340   6.429   7.256
 5632SOL    HW234039   4.284   6.320   7.344
 5633SOL     OW34040   0.453   1.274   7.319
 5633SOL    HW134041   0.427   1.206   7.381
 5633SOL    HW234042   0.440   1.234   7.233
 5634SOL     OW34043   4.897   6.211   0.116
 5634SOL    HW134044   4.914   6.147   0.046
 5634SOL    HW234045   4.868   6.289   0.071
 5635SOL     OW34046   4.439   6.032   1.141
 5635SOL    HW134047   4.457   6.121   1.171
 5635SOL    HW234048   4.359   6.039   1.090
 5636SOL     OW34049   1.282   2.343   1.831
 5636SOL    HW134050   1.264   2.311   1.919
 5636SOL    HW234051   1.345   2.414   1.844
 5637SOL     OW34052   1.191   6.074   0.648
 5637SOL    HW134053   1.277   6.078   0.605
 5637SOL    HW234054   1.135   6.027   0.587
 5638SOL     OW34055   0.075   2.823   7.482
 5638SOL    HW134056   0.070   2.788   7.571
 5638SOL    HW234057   0.160   2.794   7.449
 5639SOL     OW34058   4.170   5.563   6.348
 5639SOL    HW134059   4.129   5.643   6.382
 5639SOL    HW234060   4.255   5.559   6.392
 5640SOL     OW34061   0.687   6.173   6.829
 5640SOL    HW134062   0.651   6.093   6.868
 5640SOL    HW234063   0.642   6.181   6.745
 5641SOL     OW34064   5.409   0.219   5.797
 5641SOL    HW134065   5.490   0.188   5.838
 5641SOL    HW234066   5.437   0.278   5.727
 5642SOL     OW34067   2.997   1.827   0.062
 5642SOL    HW134068   2.925   1.783   0.015
 5642SOL    HW234069   2.984   1.805   0.154
 5643SOL     OW34070   3.829   3.169   1.799
 5643SOL    HW134071   3.819   3.241   1.737
 5643SOL    HW234072   3.742   3.130   1.806
 5644SOL     OW34073   2.647   3.261   2.367
 5644SOL    HW134074   2.660   3.176   2.325
 5644SOL    HW234075   2.726   3.275   2.419
 5645SOL     OW34076   2.132   3.222   2.153
 5645SOL    HW134077   2.088   3.291   2.203
 5645SOL    HW234078   2.128   3.253   2.062
 5646SOL     OW34079   3.294   5.461   7.295
 5646SOL    HW134080   3.215   5.472   7.348
 5646SOL    HW234081   3.295   5.368   7.272
 5647SOL     OW34082   4.895   6.047   2.184
 5647SOL    HW134083   4.976   6.069   2.138
 5647SOL    HW234084   4.920   6.043   2.276
 5648SOL     OW34085   1.580   0.091   1.771
 5648SOL    HW134086   1.653   0.071   1.829
 5648SOL    HW234087   1.610   0.166   1.720
 5649SOL     OW34088   2.914   0.800   0.700
 5649SOL    HW134089   2.861   0.871   0.664
 5649SOL    HW234090   2.892   0.724   0.646
 5650SOL     OW34091   3.157   4.668   2.053
 5650SOL    HW134092   3.095   4.656   1.981
 5650SOL    HW234093   3.240   4.636   2.020
 5651SOL     OW34094   3.237   5.371   1.052
 5651SOL    HW134095   3.245   5.465   1.071
 5651SOL    HW234096   3.143   5.356   1.042
 5652SOL     OW34097   3.868   0.883   1.654
 5652SOL    HW134098   3.957   0.872   1.687
 5652SOL    HW234099   3.812   0.848   1.724
 5653SOL     OW34100   1.690   0.307   1.621
 5653SOL    HW134101   1.780   0.340   1.620
 5653SOL    HW234102   1.643   0.371   1.675
 5654SOL     OW34103   2.566   4.102   7.639
 5654SOL    HW134104   2.550   4.023   7.690
 5654SOL    HW234105   2.659   4.099   7.619
 5655SOL     OW34106   3.763   5.722   0.146
 5655SOL    HW134107   3.825   5.712   0.073
 5655SOL    HW234108   3.770   5.814   0.171
 5656MOL     C134109   4.018   3.061   7.222
 5656MOL     C234110   4.039   3.164   7.326
 5656MOL     N134111   3.935   3.226   7.050
 5656MOL     N234112   4.106   3.270   7.294
 5656MOL     C334113   3.969   3.353   7.092
 5656MOL     C434114   4.035   3.383   7.228
 5656MOL     H134115   4.107   3.463   7.211
 5656MOL     H234116   3.958   3.422   7.296
 5656MOL     C534117   3.940   2.993   7.002
 5656MOL     C634118   3.963   2.858   7.035
 5656MOL     C734119   3.967   3.095   7.095
 5656MOL     C834120   4.015   2.825   7.160
 5656MOL     C934121   4.043   2.926   7.254
 5656MOL     H334122   3.940   2.779   6.963
 5656MOL     H434123   4.083   2.898   7.351
 5656MOL     H534124   3.899   3.017   6.905
 5656MOL     O134125   3.945   3.442   7.012
 5656MOL    C1034126   3.923   3.168   7.420
 5656MOL    C1134127   3.933   3.112   7.548
 5656MOL     N334128   3.806   3.217   7.373
 5656MOL    C1234129   3.820   3.107   7.630
 5656MOL    C1334130   3.698   3.213   7.451
 5656MOL    C1434131   3.701   3.158   7.579
 5656MOL     H634132   4.028   3.071   7.582
 5656MOL     H734133   3.825   3.065   7.730
 5656MOL     H834134   3.606   3.254   7.409
 5656MOL     H934135   3.610   3.157   7.639
 5656MOL    H1034136   3.871   3.228   6.971
 5656MOL    BR134137   4.048   2.642   7.202
 5656MOL     EP34138   4.084   2.449   7.246
   6.44792   6.44792   7.80269
