POPC bilayer and 5FIBZ with EP hydrated
34138
    1PA    C116    1   1.182   5.061   4.264
    1PA    H16R    2   1.276   5.034   4.215
    1PA    H16S    3   1.198   5.066   4.372
    1PA    H16T    4   1.152   5.160   4.229
    1PA    C115    5   1.073   4.958   4.229
    1PA    H15R    6   0.978   4.987   4.275
    1PA    H15S    7   1.058   4.959   4.121
    1PA    C114    8   1.110   4.816   4.272
    1PA    H14R    9   1.039   4.746   4.226
    1PA    H14S   10   1.209   4.790   4.234
    1PA    C113   11   1.105   4.796   4.424
    1PA    H13R   12   1.178   4.862   4.473
    1PA    H13S   13   1.006   4.823   4.462
    1PA    C112   14   1.137   4.651   4.461
    1PA    H12R   15   1.066   4.585   4.411
    1PA    H12S   16   1.237   4.625   4.424
    1PA    C111   17   1.130   4.627   4.613
    1PA    H11R   18   1.201   4.693   4.663
    1PA    H11S   19   1.030   4.650   4.649
    1PA    C110   20   1.165   4.481   4.644
    1PA    H10R   21   1.093   4.415   4.593
    1PA    H10S   22   1.264   4.458   4.604
    1PA     C19   23   1.163   4.450   4.794
    1PA     H9R   24   1.234   4.514   4.846
    1PA     H9S   25   1.063   4.470   4.835
    1PA     C18   26   1.200   4.303   4.816
    1PA     H8R   27   1.127   4.240   4.764
    1PA     H8S   28   1.297   4.283   4.771
    1PA     C17   29   1.205   4.262   4.964
    1PA     H7R   30   1.280   4.321   5.016
    1PA     H7S   31   1.108   4.281   5.011
    1PA     C16   32   1.239   4.113   4.972
    1PA     H6R   33   1.163   4.056   4.918
    1PA     H6S   34   1.335   4.096   4.922
    1PA     C15   35   1.248   4.059   5.116
    1PA     H5R   36   1.329   4.110   5.170
    1PA     H5S   37   1.155   4.078   5.169
    1PA     C14   38   1.276   3.908   5.111
    1PA     H4R   39   1.196   3.862   5.052
    1PA     H4S   40   1.369   3.889   5.057
    1PA     C13   41   1.281   3.841   5.249
    1PA     H3R   42   1.199   3.876   5.312
    1PA     H3S   43   1.267   3.734   5.234
    1PA     C12   44   1.416   3.863   5.318
    1PA     H2R   45   1.497   3.857   5.245
    1PA     H2S   46   1.419   3.964   5.362
    2PC     C11   47   1.442   3.762   5.426
    2PC     O12   48   1.553   3.719   5.450
    2PC     O11   49   1.332   3.725   5.493
    2PC      C1   50   1.344   3.622   5.594
    2PC      HR   51   1.386   3.531   5.550
    2PC      HS   52   1.409   3.657   5.674
    2PC      C2   53   1.203   3.593   5.648
    2PC      HX   54   1.157   3.688   5.675
    2PC      C3   55   1.204   3.499   5.769
    2PC      HA   56   1.233   3.398   5.739
    2PC      HB   57   1.275   3.536   5.844
    2PC     O31   58   1.072   3.498   5.825
    2PC     P31   59   1.039   3.409   5.954
    2PC     O32   60   1.147   3.470   6.055
    2PC     C31   61   1.185   3.391   6.169
    2PC     H1A   62   1.097   3.376   6.233
    2PC     H1B   63   1.223   3.294   6.137
    2PC     C32   64   1.294   3.471   6.242
    2PC     H2A   65   1.380   3.481   6.177
    2PC     H2B   66   1.256   3.571   6.264
    2PC     N31   67   1.345   3.416   6.372
    2PC     C33   68   1.459   3.502   6.418
    2PC     H3A   69   1.536   3.500   6.341
    2PC     H3B   70   1.422   3.604   6.432
    2PC     H3C   71   1.497   3.462   6.512
    2PC     C34   72   1.238   3.420   6.476
    2PC     H4A   73   1.279   3.384   6.571
    2PC     H4B   74   1.203   3.523   6.487
    2PC     H4C   75   1.156   3.355   6.444
    2PC     C35   76   1.395   3.276   6.355
    2PC     H5A   77   1.474   3.277   6.280
    2PC     H5B   78   1.313   3.212   6.324
    2PC     H5C   79   1.435   3.242   6.451
    2PC     O33   80   0.902   3.437   6.002
    2PC     O34   81   1.047   3.263   5.930
    2PC     O21   82   1.129   3.530   5.542
    2PC     C21   83   0.995   3.546   5.538
    2PC     O22   84   0.933   3.620   5.611
    3OL     C12   85   0.931   3.465   5.428
    3OL     H2R   86   0.822   3.470   5.440
    3OL     H2S   87   0.961   3.361   5.440
    3OL     C13   88   0.971   3.515   5.288
    3OL     H3R   89   0.925   3.449   5.213
    3OL     H3S   90   1.079   3.507   5.276
    3OL     C14   91   0.925   3.659   5.264
    3OL     H4R   92   0.971   3.723   5.340
    3OL     H4S   93   0.817   3.667   5.276
    3OL     C15   94   0.967   3.712   5.126
    3OL     H5R   95   1.070   3.683   5.106
    3OL     H5S   96   0.965   3.821   5.129
    3OL     C16   97   0.876   3.664   5.013
    3OL     H6R   98   0.773   3.693   5.034
    3OL     H6S   99   0.879   3.555   5.007
    3OL     C17  100   0.920   3.725   4.879
    3OL     H7R  101   1.022   3.693   4.856
    3OL     H7S  102   0.921   3.834   4.889
    3OL     C18  103   0.827   3.687   4.764
    3OL     H8R  104   0.853   3.748   4.677
    3OL     H8S  105   0.725   3.714   4.792
    3OL     C19  106   0.832   3.539   4.732
    3OL     H9R  107   0.816   3.474   4.818
    3OL    C110  108   0.853   3.484   4.614
    3OL    H10R  109   0.854   3.376   4.606
    3OL    C111  110   0.878   3.556   4.483
    3OL    H11R  111   0.963   3.510   4.433
    3OL    H11S  112   0.903   3.661   4.499
    3OL    C112  113   0.755   3.545   4.392
    3OL    H12R  114   0.667   3.581   4.446
    3OL    H12S  115   0.737   3.441   4.366
    3OL    C113  116   0.773   3.628   4.264
    3OL    H13R  117   0.862   3.594   4.212
    3OL    H13S  118   0.788   3.733   4.291
    3OL    C114  119   0.650   3.616   4.173
    3OL    H14R  120   0.561   3.644   4.230
    3OL    H14S  121   0.637   3.512   4.142
    3OL    C115  122   0.659   3.707   4.050
    3OL    H15R  123   0.681   3.809   4.084
    3OL    H15S  124   0.561   3.711   4.002
    3OL    C116  125   0.764   3.664   3.947
    3OL    H16R  126   0.859   3.642   3.996
    3OL    H16S  127   0.782   3.748   3.879
    3OL    C117  128   0.717   3.544   3.864
    3OL    H17R  129   0.625   3.569   3.811
    3OL    H17S  130   0.697   3.459   3.929
    3OL    C118  131   0.824   3.504   3.761
    3OL    H18R  132   0.789   3.420   3.701
    3OL    H18S  133   0.917   3.474   3.811
    3OL    H18T  134   0.847   3.588   3.694
    1PA    C116  135   0.982   3.343   4.081
    1PA    H16R  136   0.885   3.381   4.049
    1PA    H16S  137   1.059   3.385   4.016
    1PA    H16T  138   1.001   3.377   4.183
    1PA    C115  139   0.985   3.190   4.073
    1PA    H15R  140   0.973   3.160   3.969
    1PA    H15S  141   1.081   3.152   4.108
    1PA    C114  142   0.871   3.126   4.155
    1PA    H14R  143   0.777   3.177   4.132
    1PA    H14S  144   0.860   3.022   4.124
    1PA    C113  145   0.898   3.130   4.306
    1PA    H13R  146   0.990   3.076   4.328
    1PA    H13S  147   0.912   3.233   4.338
    1PA    C112  148   0.781   3.068   4.384
    1PA    H12R  149   0.690   3.125   4.366
    1PA    H12S  150   0.764   2.966   4.349
    1PA    C111  151   0.812   3.066   4.534
    1PA    H11R  152   0.904   3.011   4.551
    1PA    H11S  153   0.827   3.168   4.570
    1PA    C110  154   0.698   3.001   4.614
    1PA    H10R  155   0.606   3.058   4.601
    1PA    H10S  156   0.680   2.900   4.576
    1PA     C19  157   0.734   2.994   4.763
    1PA     H9R  158   0.830   2.941   4.772
    1PA     H9S  159   0.749   3.094   4.803
    1PA     C18  160   0.629   2.919   4.846
    1PA     H8R  161   0.595   2.830   4.792
    1PA     H8S  162   0.678   2.885   4.938
    1PA     C17  163   0.510   3.008   4.882
    1PA     H7R  164   0.546   3.095   4.938
    1PA     H7S  165   0.464   3.045   4.790
    1PA     C16  166   0.403   2.935   4.964
    1PA     H6R  167   0.317   3.001   4.973
    1PA     H6S  168   0.371   2.846   4.911
    1PA     C15  169   0.453   2.897   5.105
    1PA     H5R  170   0.535   2.826   5.095
    1PA     H5S  171   0.493   2.985   5.156
    1PA     C14  172   0.344   2.830   5.189
    1PA     H4R  173   0.296   2.752   5.130
    1PA     H4S  174   0.390   2.781   5.275
    1PA     C13  175   0.235   2.927   5.240
    1PA     H3R  176   0.191   2.981   5.156
    1PA     H3S  177   0.155   2.869   5.285
    1PA     C12  178   0.287   3.028   5.343
    1PA     H2R  179   0.366   3.089   5.300
    1PA     H2S  180   0.206   3.097   5.370
    2PC     C11  181   0.337   2.962   5.469
    2PC     O12  182   0.265   2.901   5.545
    2PC     O11  183   0.468   2.981   5.488
    2PC      C1  184   0.533   2.925   5.603
    2PC      HR  185   0.633   2.970   5.613
    2PC      HS  186   0.476   2.950   5.693
    2PC      C2  187   0.547   2.772   5.590
    2PC      HX  188   0.449   2.727   5.580
    2PC      C3  189   0.618   2.715   5.713
    2PC      HA  190   0.559   2.741   5.802
    2PC      HB  191   0.626   2.606   5.707
    2PC     O31  192   0.749   2.774   5.723
    2PC     P31  193   0.819   2.794   5.866
    2PC     O32  194   0.960   2.725   5.832
    2PC     C31  195   1.082   2.795   5.861
    2PC     H1A  196   1.079   2.894   5.814
    2PC     H1B  197   1.094   2.808   5.969
    2PC     C32  198   1.198   2.715   5.802
    2PC     H2A  199   1.174   2.690   5.698
    2PC     H2B  200   1.288   2.777   5.801
    2PC     N31  201   1.239   2.586   5.867
    2PC     C33  202   1.124   2.491   5.878
    2PC     H3A  203   1.048   2.535   5.944
    2PC     H3B  204   1.083   2.474   5.778
    2PC     H3C  205   1.160   2.397   5.921
    2PC     C34  206   1.345   2.522   5.784
    2PC     H4A  207   1.431   2.589   5.777
    2PC     H4B  208   1.375   2.428   5.832
    2PC     H4C  209   1.304   2.501   5.685
    2PC     C35  210   1.296   2.610   6.004
    2PC     H5A  211   1.385   2.672   5.994
    2PC     H5B  212   1.321   2.513   6.048
    2PC     H5C  213   1.221   2.661   6.065
    2PC     O33  214   0.822   2.938   5.899
    2PC     O34  215   0.753   2.724   5.978
    2PC     O21  216   0.625   2.745   5.472
    2PC     C21  217   0.627   2.620   5.422
    2PC     O22  218   0.563   2.528   5.469
    3OL     C12  219   0.713   2.610   5.299
    3OL     H2R  220   0.816   2.636   5.326
    3OL     H2S  221   0.679   2.685   5.227
    3OL     C13  222   0.710   2.470   5.235
    3OL     H3R  223   0.609   2.449   5.199
    3OL     H3S  224   0.734   2.396   5.311
    3OL     C14  225   0.810   2.455   5.120
    3OL     H4R  226   0.803   2.354   5.081
    3OL     H4S  227   0.912   2.469   5.157
    3OL     C15  228   0.784   2.555   5.005
    3OL     H5R  229   0.804   2.656   5.039
    3OL     H5S  230   0.679   2.550   4.976
    3OL     C16  231   0.872   2.524   4.883
    3OL     H6R  232   0.852   2.422   4.849
    3OL     H6S  233   0.978   2.530   4.911
    3OL     C17  234   0.843   2.623   4.770
    3OL     H7R  235   0.871   2.724   4.802
    3OL     H7S  236   0.736   2.624   4.749
    3OL     C18  237   0.918   2.588   4.641
    3OL     H8R  238   0.892   2.485   4.613
    3OL     H8S  239   1.026   2.591   4.660
    3OL     C19  240   0.877   2.680   4.529
    3OL     H9R  241   0.770   2.698   4.524
    3OL    C110  242   0.956   2.741   4.443
    3OL    H10R  243   0.910   2.808   4.369
    3OL    C111  244   1.105   2.727   4.430
    3OL    H11R  245   1.144   2.650   4.498
    3OL    H11S  246   1.153   2.821   4.457
    3OL    C112  247   1.147   2.690   4.287
    3OL    H12R  248   1.098   2.597   4.258
    3OL    H12S  249   1.255   2.672   4.286
    3OL    C113  250   1.113   2.801   4.186
    3OL    H13R  251   1.162   2.894   4.216
    3OL    H13S  252   1.006   2.818   4.184
    3OL    C114  253   1.160   2.761   4.045
    3OL    H14R  254   1.109   2.670   4.014
    3OL    H14S  255   1.267   2.740   4.048
    3OL    C115  256   1.134   2.873   3.944
    3OL    H15R  257   1.183   2.964   3.979
    3OL    H15S  258   1.027   2.894   3.938
    3OL    C116  259   1.189   2.838   3.805
    3OL    H16R  260   1.290   2.798   3.815
    3OL    H16S  261   1.197   2.930   3.746
    3OL    C117  262   1.099   2.739   3.730
    3OL    H17R  263   0.999   2.781   3.719
    3OL    H17S  264   1.090   2.647   3.788
    3OL    C118  265   1.156   2.708   3.591
    3OL    H18R  266   1.255   2.662   3.600
    3OL    H18S  267   1.165   2.799   3.532
    3OL    H18T  268   1.090   2.638   3.538
    1PA    C116  269   0.852   4.344   4.304
    1PA    H16R  270   0.786   4.337   4.217
    1PA    H16S  271   0.921   4.260   4.302
    1PA    H16T  272   0.909   4.436   4.295
    1PA    C115  273   0.770   4.345   4.433
    1PA    H15R  274   0.836   4.352   4.520
    1PA    H15S  275   0.707   4.434   4.434
    1PA    C114  276   0.680   4.221   4.446
    1PA    H14R  277   0.604   4.242   4.522
    1PA    H14S  278   0.628   4.203   4.352
    1PA    C113  279   0.760   4.096   4.487
    1PA    H13R  280   0.839   4.079   4.415
    1PA    H13S  281   0.808   4.113   4.584
    1PA    C112  282   0.672   3.970   4.494
    1PA    H12R  283   0.617   3.960   4.400
    1PA    H12S  284   0.737   3.883   4.503
    1PA    C111  285   0.575   3.972   4.613
    1PA    H11R  286   0.632   3.984   4.705
    1PA    H11S  287   0.508   4.058   4.604
    1PA    C110  288   0.493   3.843   4.618
    1PA    H10R  289   0.441   3.831   4.522
    1PA    H10S  290   0.559   3.757   4.629
    1PA     C19  291   0.388   3.844   4.730
    1PA     H9R  292   0.324   3.932   4.719
    1PA     H9S  293   0.324   3.756   4.718
    1PA     C18  294   0.450   3.842   4.870
    1PA     H8R  295   0.518   3.756   4.878
    1PA     H8S  296   0.509   3.932   4.885
    1PA     C17  297   0.343   3.832   4.979
    1PA     H7R  298   0.272   3.915   4.968
    1PA     H7S  299   0.287   3.739   4.968
    1PA     C16  300   0.407   3.838   5.118
    1PA     H6R  301   0.483   3.760   5.126
    1PA     H6S  302   0.458   3.934   5.130
    1PA     C15  303   0.306   3.820   5.232
    1PA     H5R  304   0.248   3.728   5.216
    1PA     H5S  305   0.361   3.808   5.325
    1PA     C14  306   0.211   3.940   5.246
    1PA     H4R  307   0.270   4.032   5.254
    1PA     H4S  308   0.148   3.948   5.158
    1PA     C13  309   0.123   3.926   5.371
    1PA     H3R  310   0.065   3.834   5.365
    1PA     H3S  311   0.187   3.919   5.460
    1PA     C12  312   0.029   4.046   5.385
    1PA     H2R  313   0.087   4.139   5.386
    1PA     H2S  314   6.410   4.050   5.299
    2PC     C11  315   6.395   4.043   5.511
    2PC     O12  316   6.426   3.981   5.611
    2PC     O11  317   6.282   4.115   5.499
    2PC      C1  318   6.191   4.127   5.609
    2PC      HR  319   6.157   4.028   5.641
    2PC      HS  320   6.243   4.175   5.693
    2PC      C2  321   6.071   4.213   5.567
    2PC      HX  322   6.106   4.300   5.512
    2PC      C3  323   5.992   4.262   5.689
    2PC      HA  324   6.051   4.337   5.742
    2PC      HB  325   5.898   4.308   5.656
    2PC     O31  326   5.964   4.153   5.778
    2PC     P31  327   5.896   4.183   5.920
    2PC     O32  328   5.860   4.032   5.958
    2PC     C31  329   5.885   3.985   6.092
    2PC     H1A  330   5.992   3.995   6.114
    2PC     H1B  331   5.827   4.045   6.163
    2PC     C32  332   5.841   3.838   6.096
    2PC     H2A  333   5.734   3.832   6.076
    2PC     H2B  334   5.894   3.784   6.017
    2PC     N31  335   5.865   3.762   6.223
    2PC     C33  336   6.010   3.757   6.258
    2PC     H3A  337   6.064   3.709   6.176
    2PC     H3B  338   6.047   3.859   6.273
    2PC     H3C  339   6.022   3.700   6.350
    2PC     C34  340   5.787   3.824   6.336
    2PC     H4A  341   5.682   3.825   6.308
    2PC     H4B  342   5.802   3.763   6.425
    2PC     H4C  343   5.824   3.925   6.353
    2PC     C35  344   5.816   3.622   6.204
    2PC     H5A  345   5.709   3.624   6.185
    2PC     H5B  346   5.837   3.565   6.295
    2PC     H5C  347   5.869   3.578   6.119
    2PC     O33  348   5.990   4.248   6.014
    2PC     O34  349   5.773   4.266   5.911
    2PC     O21  350   5.983   4.135   5.483
    2PC     C21  351   6.007   4.130   5.351
    2PC     O22  352   6.091   4.197   5.294
    3OL     C12  353   5.914   4.036   5.280
    3OL     H2R  354   5.812   4.052   5.317
    3OL     H2S  355   5.942   3.933   5.306
    3OL     C13  356   5.917   4.055   5.128
    3OL     H3R  357   6.020   4.045   5.094
    3OL     H3S  358   5.884   4.156   5.102
    3OL     C14  359   5.833   3.951   5.052
    3OL     H4R  360   5.858   3.851   5.086
    3OL     H4S  361   5.858   3.958   4.946
    3OL     C15  362   5.682   3.974   5.068
    3OL     H5R  363   5.657   4.077   5.042
    3OL     H5S  364   5.652   3.958   5.172
    3OL     C16  365   5.604   3.879   4.976
    3OL     H6R  366   5.628   3.775   5.002
    3OL     H6S  367   5.636   3.895   4.873
    3OL     C17  368   5.452   3.899   4.986
    3OL     H7R  369   5.429   4.005   4.975
    3OL     H7S  370   5.417   3.868   5.085
    3OL     C18  371   5.380   3.819   4.877
    3OL     H8R  372   5.406   3.713   4.890
    3OL     H8S  373   5.419   3.850   4.780
    3OL     C19  374   5.231   3.834   4.886
    3OL     H9R  375   5.189   3.811   4.984
    3OL    C110  376   5.150   3.872   4.788
    3OL    H10R  377   5.043   3.879   4.809
    3OL    C111  378   5.190   3.900   4.646
    3OL    H11R  379   5.286   3.855   4.623
    3OL    H11S  380   5.198   4.008   4.631
    3OL    C112  381   5.086   3.845   4.547
    3OL    H12R  382   4.993   3.902   4.555
    3OL    H12S  383   5.063   3.741   4.571
    3OL    C113  384   5.141   3.853   4.404
    3OL    H13R  385   5.232   3.793   4.398
    3OL    H13S  386   5.169   3.956   4.381
    3OL    C114  387   5.041   3.803   4.299
    3OL    H14R  388   4.952   3.866   4.300
    3OL    H14S  389   5.010   3.701   4.323
    3OL    C115  390   5.106   3.806   4.160
    3OL    H15R  391   5.197   3.745   4.163
    3OL    H15S  392   5.136   3.909   4.137
    3OL    C116  393   5.014   3.753   4.050
    3OL    H16R  394   4.926   3.817   4.042
    3OL    H16S  395   4.980   3.652   4.076
    3OL    C117  396   5.088   3.749   3.916
    3OL    H17R  397   5.176   3.685   3.924
    3OL    H17S  398   5.124   3.849   3.890
    3OL    C118  399   4.998   3.697   3.803
    3OL    H18R  400   4.912   3.762   3.790
    3OL    H18S  401   4.964   3.596   3.825
    3OL    H18T  402   5.054   3.695   3.709
    1PA    C116  403   1.486   3.116   3.848
    1PA    H16R  404   1.581   3.081   3.887
    1PA    H16S  405   1.505   3.194   3.774
    1PA    H16T  406   1.436   3.033   3.797
    1PA    C115  407   1.397   3.170   3.961
    1PA    H15R  408   1.304   3.207   3.919
    1PA    H15S  409   1.373   3.087   4.029
    1PA    C114  410   1.468   3.282   4.039
    1PA    H14R  411   1.560   3.245   4.083
    1PA    H14S  412   1.495   3.361   3.969
    1PA    C113  413   1.378   3.341   4.148
    1PA    H13R  414   1.421   3.436   4.181
    1PA    H13S  415   1.279   3.363   4.107
    1PA    C112  416   1.365   3.248   4.270
    1PA    H12R  417   1.327   3.151   4.238
    1PA    H12S  418   1.464   3.233   4.314
    1PA    C111  419   1.270   3.308   4.375
    1PA    H11R  420   1.307   3.405   4.408
    1PA    H11S  421   1.171   3.322   4.331
    1PA    C110  422   1.259   3.213   4.496
    1PA    H10R  423   1.226   3.115   4.462
    1PA    H10S  424   1.357   3.202   4.541
    1PA     C19  425   1.160   3.267   4.600
    1PA     H9R  426   1.193   3.365   4.635
    1PA     H9S  427   1.061   3.278   4.555
    1PA     C18  428   1.152   3.170   4.719
    1PA     H8R  429   1.120   3.072   4.683
    1PA     H8S  430   1.251   3.158   4.763
    1PA     C17  431   1.054   3.218   4.827
    1PA     H7R  432   1.085   3.316   4.864
    1PA     H7S  433   0.954   3.229   4.784
    1PA     C16  434   1.051   3.118   4.943
    1PA     H6R  435   1.020   3.020   4.905
    1PA     H6S  436   1.152   3.107   4.984
    1PA     C15  437   0.955   3.160   5.055
    1PA     H5R  438   0.984   3.259   5.092
    1PA     H5S  439   0.854   3.167   5.017
    1PA     C14  440   0.961   3.059   5.170
    1PA     H4R  441   0.939   2.959   5.132
    1PA     H4S  442   1.063   3.057   5.212
    1PA     C13  443   0.861   3.094   5.281
    1PA     H3R  444   0.878   3.195   5.317
    1PA     H3S  445   0.760   3.092   5.239
    1PA     C12  446   0.868   2.995   5.398
    1PA     H2R  447   0.787   3.020   5.468
    1PA     H2S  448   0.850   2.893   5.363
    2PC     C11  449   0.997   2.998   5.476
    2PC     O12  450   1.044   2.900   5.528
    2PC     O11  451   1.050   3.122   5.486
    2PC      C1  452   1.164   3.145   5.570
    2PC      HR  453   1.181   3.253   5.575
    2PC      HS  454   1.144   3.108   5.670
    2PC      C2  455   1.290   3.079   5.512
    2PC      HX  456   1.276   2.971   5.503
    2PC      C3  457   1.412   3.105   5.603
    2PC      HA  458   1.394   3.056   5.700
    2PC      HB  459   1.503   3.063   5.560
    2PC     O31  460   1.429   3.246   5.624
    2PC     P31  461   1.520   3.296   5.746
    2PC     O32  462   1.655   3.213   5.720
    2PC     C31  463   1.764   3.228   5.813
    2PC     H1A  464   1.724   3.229   5.915
    2PC     H1B  465   1.831   3.143   5.801
    2PC     C32  466   1.839   3.358   5.781
    2PC     H2A  467   1.891   3.346   5.685
    2PC     H2B  468   1.768   3.439   5.771
    2PC     N31  469   1.941   3.406   5.880
    2PC     C33  470   2.044   3.301   5.907
    2PC     H3A  471   2.087   3.269   5.812
    2PC     H3B  472   2.121   3.344   5.971
    2PC     H3C  473   1.996   3.217   5.958
    2PC     C34  474   2.008   3.527   5.822
    2PC     H4A  475   2.061   3.497   5.731
    2PC     H4B  476   1.932   3.601   5.799
    2PC     H4C  477   2.078   3.566   5.896
    2PC     C35  478   1.875   3.444   6.009
    2PC     H5A  479   1.952   3.481   6.077
    2PC     H5B  480   1.825   3.357   6.052
    2PC     H5C  481   1.802   3.523   5.988
    2PC     O33  482   1.544   3.442   5.746
    2PC     O34  483   1.457   3.264   5.876
    2PC     O21  484   1.312   3.136   5.382
    2PC     C21  485   1.402   3.080   5.299
    2PC     O22  486   1.465   2.979   5.324
    3OL     C12  487   1.408   3.147   5.164
    3OL     H2R  488   1.344   3.091   5.095
    3OL     H2S  489   1.510   3.142   5.126
    3OL     C13  490   1.360   3.293   5.168
    3OL     H3R  491   1.418   3.348   5.243
    3OL     H3S  492   1.256   3.296   5.199
    3OL     C14  493   1.375   3.362   5.032
    3OL     H4R  494   1.320   3.305   4.956
    3OL     H4S  495   1.480   3.364   5.002
    3OL     C15  496   1.318   3.504   5.040
    3OL     H5R  497   1.373   3.562   5.115
    3OL     H5S  498   1.214   3.498   5.074
    3OL     C16  499   1.320   3.578   4.905
    3OL     H6R  500   1.251   3.662   4.912
    3OL     H6S  501   1.283   3.512   4.826
    3OL     C17  502   1.460   3.630   4.869
    3OL     H7R  503   1.529   3.546   4.856
    3OL     H7S  504   1.498   3.691   4.951
    3OL     C18  505   1.458   3.714   4.741
    3OL     H8R  506   1.425   3.652   4.658
    3OL     H8S  507   1.560   3.747   4.719
    3OL     C19  508   1.370   3.836   4.757
    3OL     H9R  509   1.395   3.898   4.843
    3OL    C110  510   1.264   3.867   4.684
    3OL    H10R  511   1.207   3.956   4.710
    3OL    C111  512   1.219   3.797   4.558
    3OL    H11R  513   1.145   3.721   4.582
    3OL    H11S  514   1.303   3.749   4.508
    3OL    C112  515   1.156   3.900   4.463
    3OL    H12R  516   1.222   3.986   4.454
    3OL    H12S  517   1.061   3.935   4.505
    3OL    C113  518   1.132   3.842   4.322
    3OL    H13R  519   1.063   3.757   4.328
    3OL    H13S  520   1.226   3.806   4.281
    3OL    C114  521   1.074   3.951   4.231
    3OL    H14R  522   1.140   4.038   4.232
    3OL    H14S  523   0.977   3.983   4.270
    3OL    C115  524   1.057   3.902   4.086
    3OL    H15R  525   0.987   3.819   4.082
    3OL    H15S  526   1.154   3.865   4.051
    3OL    C116  527   1.012   4.016   3.994
    3OL    H16R  528   1.029   3.986   3.890
    3OL    H16S  529   1.074   4.104   4.012
    3OL    C117  530   0.864   4.052   4.012
    3OL    H17R  531   0.843   4.077   4.116
    3OL    H17S  532   0.802   3.966   3.985
    3OL    C118  533   0.826   4.172   3.923
    3OL    H18R  534   0.884   4.260   3.951
    3OL    H18S  535   0.720   4.195   3.935
    3OL    H18T  536   0.845   4.149   3.818
    1PA    C116  537   0.572   3.175   3.881
    1PA    H16R  538   0.499   3.116   3.825
    1PA    H16S  539   0.658   3.112   3.902
    1PA    H16T  540   0.604   3.258   3.817
    1PA    C115  541   0.510   3.229   4.010
    1PA    H15R  542   0.584   3.289   4.064
    1PA    H15S  543   0.426   3.294   3.986
    1PA    C114  544   0.462   3.114   4.100
    1PA    H14R  545   0.388   3.055   4.047
    1PA    H14S  546   0.546   3.048   4.123
    1PA    C113  547   0.402   3.167   4.231
    1PA    H13R  548   0.477   3.222   4.287
    1PA    H13S  549   0.320   3.236   4.208
    1PA    C112  550   0.348   3.051   4.316
    1PA    H12R  551   0.276   2.994   4.257
    1PA    H12S  552   0.430   2.984   4.342
    1PA    C111  553   0.280   3.100   4.444
    1PA    H11R  554   0.352   3.154   4.506
    1PA    H11S  555   0.200   3.170   4.418
    1PA    C110  556   0.221   2.983   4.524
    1PA    H10R  557   0.152   2.927   4.460
    1PA    H10S  558   0.301   2.915   4.554
    1PA     C19  559   0.146   3.032   4.648
    1PA     H9R  560   0.216   3.082   4.716
    1PA     H9S  561   0.071   3.105   4.618
    1PA     C18  562   0.078   2.916   4.722
    1PA     H8R  563   0.013   2.862   4.653
    1PA     H8S  564   0.153   2.846   4.758
    1PA     C17  565   6.442   2.969   4.839
    1PA     H7R  566   0.059   3.017   4.913
    1PA     H7S  567   6.374   3.046   4.802
    1PA     C16  568   6.358   2.860   4.908
    1PA     H6R  569   6.291   2.909   4.979
    1PA     H6S  570   6.295   2.810   4.834
    1PA     C15  571   6.443   2.758   4.983
    1PA     H5R  572   0.054   2.698   4.913
    1PA     H5S  573   0.066   2.811   5.047
    1PA     C14  574   6.359   2.665   5.072
    1PA     H4R  575   6.427   2.611   5.139
    1PA     H4S  576   6.293   2.725   5.136
    1PA     C13  577   6.277   2.563   4.992
    1PA     H3R  578   6.205   2.616   4.930
    1PA     H3S  579   6.343   2.508   4.925
    1PA     C12  580   6.202   2.465   5.083
    1PA     H2R  581   6.137   2.521   5.151
    1PA     H2S  582   6.137   2.401   5.022
    2PC     C11  583   6.293   2.377   5.164
    2PC     O12  584   6.405   2.344   5.129
    2PC     O11  585   6.236   2.338   5.279
    2PC      C1  586   6.320   2.289   5.386
    2PC      HR  587   6.256   2.236   5.458
    2PC      HS  588   6.394   2.218   5.348
    2PC      C2  589   6.388   2.405   5.459
    2PC      HX  590   6.435   2.368   5.550
    2PC      C3  591   6.289   2.516   5.495
    2PC      HA  592   6.252   2.564   5.404
    2PC      HB  593   6.204   2.476   5.551
    2PC     O31  594   6.358   2.614   5.575
    2PC     P31  595   6.285   2.751   5.616
    2PC     O32  596   6.417   2.814   5.682
    2PC     C31  597   6.409   2.876   5.812
    2PC     H1A  598   6.341   2.819   5.876
    2PC     H1B  599   0.060   2.874   5.858
    2PC     C32  600   6.361   3.021   5.798
    2PC     H2A  601   6.264   3.023   5.749
    2PC     H2B  602   6.349   3.063   5.898
    2PC     N31  603   0.001   3.117   5.724
    2PC     C33  604   0.142   3.114   5.775
    2PC     H3A  605   0.140   3.133   5.883
    2PC     H3B  606   0.185   3.016   5.754
    2PC     H3C  607   0.199   3.192   5.724
    2PC     C34  608   0.002   3.087   5.577
    2PC     H4A  609   0.045   2.988   5.561
    2PC     H4B  610   6.347   3.089   5.541
    2PC     H4C  611   0.061   3.164   5.526
    2PC     C35  612   6.395   3.255   5.742
    2PC     H5A  613   0.010   3.325   5.687
    2PC     H5B  614   6.396   3.279   5.849
    2PC     H5C  615   6.293   3.257   5.704
    2PC     O33  616   6.233   2.833   5.505
    2PC     O34  617   6.174   2.730   5.712
    2PC     O21  618   0.039   2.465   5.374
    2PC     C21  619   0.158   2.405   5.354
    2PC     O22  620   0.194   2.305   5.413
    3OL     C12  621   0.241   2.478   5.252
    3OL     H2R  622   0.318   2.536   5.304
    3OL     H2S  623   0.177   2.548   5.199
    3OL     C13  624   0.306   2.382   5.151
    3OL     H3R  625   0.233   2.307   5.120
    3OL     H3S  626   0.389   2.329   5.199
    3OL     C14  627   0.356   2.459   5.028
    3OL     H4R  628   0.423   2.539   5.058
    3OL     H4S  629   0.271   2.504   4.977
    3OL     C15  630   0.429   2.365   4.931
    3OL     H5R  631   0.366   2.278   4.910
    3OL     H5S  632   0.521   2.328   4.979
    3OL     C16  633   0.464   2.435   4.799
    3OL     H6R  634   0.518   2.528   4.819
    3OL     H6S  635   0.371   2.461   4.747
    3OL     C17  636   0.550   2.344   4.710
    3OL     H7R  637   0.501   2.246   4.700
    3OL     H7S  638   0.646   2.327   4.759
    3OL     C18  639   0.574   2.403   4.571
    3OL     H8R  640   0.654   2.346   4.522
    3OL     H8S  641   0.610   2.506   4.581
    3OL     C19  642   0.449   2.401   4.487
    3OL     H9R  643   0.361   2.444   4.535
    3OL    C110  644   0.436   2.348   4.367
    3OL    H10R  645   0.339   2.350   4.318
    3OL    C111  646   0.548   2.289   4.285
    3OL    H11R  647   0.577   2.192   4.327
    3OL    H11S  648   0.636   2.354   4.287
    3OL    C112  649   0.504   2.269   4.139
    3OL    H12R  650   0.479   2.366   4.095
    3OL    H12S  651   0.413   2.208   4.138
    3OL    C113  652   0.612   2.201   4.055
    3OL    H13R  653   0.638   2.105   4.100
    3OL    H13S  654   0.702   2.263   4.054
    3OL    C114  655   0.564   2.178   3.911
    3OL    H14R  656   0.538   2.274   3.865
    3OL    H14S  657   0.473   2.117   3.913
    3OL    C115  658   0.671   2.107   3.827
    3OL    H15R  659   0.698   2.013   3.875
    3OL    H15S  660   0.761   2.169   3.823
    3OL    C116  661   0.620   2.080   3.685
    3OL    H16R  662   0.597   2.174   3.636
    3OL    H16S  663   0.528   2.021   3.690
    3OL    C117  664   0.725   2.004   3.603
    3OL    H17R  665   0.748   1.909   3.652
    3OL    H17S  666   0.818   2.062   3.598
    3OL    C118  667   0.675   1.976   3.460
    3OL    H18R  668   0.652   2.070   3.409
    3OL    H18S  669   0.585   1.915   3.463
    3OL    H18T  670   0.751   1.923   3.403
    1PA    C116  671   0.362   3.933   4.003
    1PA    H16R  672   0.342   3.828   3.978
    1PA    H16S  673   0.467   3.942   4.033
    1PA    H16T  674   0.347   3.993   3.913
    1PA    C115  675   0.270   3.981   4.116
    1PA    H15R  676   0.292   4.086   4.136
    1PA    H15S  677   0.166   3.976   4.083
    1PA    C114  678   0.289   3.901   4.245
    1PA    H14R  679   0.395   3.884   4.264
    1PA    H14S  680   0.250   3.960   4.329
    1PA    C113  681   0.213   3.767   4.241
    1PA    H13R  682   0.107   3.787   4.224
    1PA    H13S  683   0.250   3.706   4.158
    1PA    C112  684   0.229   3.690   4.373
    1PA    H12R  685   0.335   3.667   4.389
    1PA    H12S  686   0.196   3.753   4.456
    1PA    C111  687   0.148   3.559   4.370
    1PA    H11R  688   0.043   3.582   4.353
    1PA    H11S  689   0.182   3.499   4.286
    1PA    C110  690   0.164   3.477   4.499
    1PA    H10R  691   0.121   3.378   4.482
    1PA    H10S  692   0.270   3.464   4.521
    1PA     C19  693   0.092   3.542   4.618
    1PA     H9R  694   0.136   3.639   4.641
    1PA     H9S  695   6.436   3.559   4.592
    1PA     C18  696   0.095   3.453   4.744
    1PA     H8R  697   0.027   3.496   4.818
    1PA     H8S  698   0.058   3.354   4.719
    1PA     C17  699   0.235   3.442   4.806
    1PA     H7R  700   0.304   3.395   4.736
    1PA     H7S  701   0.273   3.543   4.827
    1PA     C16  702   0.230   3.361   4.936
    1PA     H6R  703   0.163   3.408   5.008
    1PA     H6S  704   0.189   3.262   4.914
    1PA     C15  705   0.369   3.341   5.000
    1PA     H5R  706   0.360   3.265   5.077
    1PA     H5S  707   0.439   3.304   4.925
    1PA     C14  708   0.424   3.470   5.063
    1PA     H4R  709   0.438   3.544   4.983
    1PA     H4S  710   0.352   3.512   5.133
    1PA     C13  711   0.559   3.448   5.131
    1PA     H3R  712   0.622   3.385   5.068
    1PA     H3S  713   0.610   3.544   5.141
    1PA     C12  714   0.547   3.385   5.271
    1PA     H2R  715   0.485   3.295   5.267
    1PA     H2S  716   0.646   3.354   5.305
    2PC     C11  717   0.490   3.480   5.373
    2PC     O12  718   0.377   3.474   5.415
    2PC     O11  719   0.578   3.576   5.407
    2PC      C1  720   0.544   3.666   5.514
    2PC      HR  721   0.446   3.712   5.497
    2PC      HS  722   0.541   3.611   5.608
    2PC      C2  723   0.652   3.775   5.520
    2PC      HX  724   0.749   3.725   5.511
    2PC      C3  725   0.648   3.855   5.651
    2PC      HA  726   0.682   3.791   5.733
    2PC      HB  727   0.716   3.940   5.643
    2PC     O31  728   0.515   3.902   5.679
    2PC     P31  729   0.497   4.007   5.798
    2PC     O32  730   0.513   3.912   5.927
    2PC     C31  731   0.401   3.833   5.970
    2PC     H1A  732   0.317   3.899   5.993
    2PC     H1B  733   0.372   3.763   5.891
    2PC     C32  734   0.443   3.757   6.097
    2PC     H2A  735   0.477   3.829   6.171
    2PC     H2B  736   0.356   3.705   6.137
    2PC     N31  737   0.551   3.654   6.084
    2PC     C33  738   0.508   3.542   5.994
    2PC     H3A  739   0.492   3.583   5.894
    2PC     H3B  740   0.587   3.467   5.992
    2PC     H3C  741   0.416   3.499   6.033
    2PC     C34  742   0.680   3.712   6.035
    2PC     H4A  743   0.756   3.633   6.036
    2PC     H4B  744   0.665   3.748   5.933
    2PC     H4C  745   0.709   3.794   6.100
    2PC     C35  746   0.578   3.597   6.220
    2PC     H5A  747   0.616   3.677   6.285
    2PC     H5B  748   0.653   3.518   6.211
    2PC     H5C  749   0.485   3.557   6.260
    2PC     O33  750   0.604   4.109   5.801
    2PC     O34  751   0.371   4.084   5.801
    2PC     O21  752   0.636   3.863   5.407
    2PC     C21  753   0.740   3.939   5.370
    2PC     O22  754   0.849   3.934   5.423
    3OL     C12  755   0.706   4.029   5.254
    3OL     H2R  756   0.616   4.085   5.280
    3OL     H2S  757   0.683   3.966   5.168
    3OL     C13  758   0.820   4.126   5.220
    3OL     H3R  759   0.907   4.072   5.182
    3OL     H3S  760   0.851   4.178   5.311
    3OL     C14  761   0.774   4.232   5.117
    3OL     H4R  762   0.846   4.314   5.119
    3OL     H4S  763   0.678   4.272   5.148
    3OL     C15  764   0.766   4.176   4.974
    3OL     H5R  765   0.706   4.086   4.971
    3OL     H5S  766   0.867   4.150   4.942
    3OL     C16  767   0.709   4.281   4.878
    3OL     H6R  768   0.741   4.257   4.776
    3OL     H6S  769   0.749   4.380   4.902
    3OL     C17  770   0.555   4.282   4.881
    3OL     H7R  771   0.520   4.292   4.984
    3OL     H7S  772   0.518   4.187   4.843
    3OL     C18  773   0.496   4.396   4.797
    3OL     H8R  774   0.389   4.378   4.785
    3OL     H8S  775   0.539   4.394   4.697
    3OL     C19  776   0.514   4.529   4.866
    3OL     H9R  777   0.453   4.542   4.955
    3OL    C110  778   0.593   4.628   4.828
    3OL    H10R  779   0.595   4.719   4.888
    3OL    C111  780   0.686   4.629   4.709
    3OL    H11R  781   0.686   4.533   4.657
    3OL    H11S  782   0.788   4.645   4.744
    3OL    C112  783   0.652   4.741   4.610
    3OL    H12R  784   0.721   4.736   4.526
    3OL    H12S  785   0.665   4.837   4.659
    3OL    C113  786   0.508   4.730   4.557
    3OL    H13R  787   0.437   4.739   4.640
    3OL    H13S  788   0.492   4.633   4.511
    3OL    C114  789   0.479   4.842   4.456
    3OL    H14R  790   0.546   4.830   4.370
    3OL    H14S  791   0.500   4.938   4.501
    3OL    C115  792   0.333   4.839   4.408
    3OL    H15R  793   0.267   4.854   4.494
    3OL    H15S  794   0.311   4.741   4.365
    3OL    C116  795   0.308   4.949   4.305
    3OL    H16R  796   0.373   4.935   4.218
    3OL    H16S  797   0.334   5.046   4.349
    3OL    C117  798   0.162   4.954   4.259
    3OL    H17R  799   0.145   5.047   4.204
    3OL    H17S  800   0.095   4.955   4.346
    3OL    C118  801   0.125   4.836   4.168
    3OL    H18R  802   0.191   4.834   4.080
    3OL    H18S  803   0.022   4.846   4.133
    3OL    H18T  804   0.134   4.741   4.221
    1PA    C116  805   5.318   2.400   3.489
    1PA    H16R  806   5.374   2.344   3.414
    1PA    H16S  807   5.347   2.505   3.482
    1PA    H16T  808   5.211   2.392   3.467
    1PA    C115  809   5.348   2.345   3.629
    1PA    H15R  810   5.322   2.239   3.634
    1PA    H15S  811   5.456   2.353   3.646
    1PA    C114  812   5.275   2.424   3.739
    1PA    H14R  813   5.330   2.413   3.833
    1PA    H14S  814   5.277   2.530   3.714
    1PA    C113  815   5.130   2.378   3.760
    1PA    H13R  816   5.077   2.459   3.811
    1PA    H13S  817   5.081   2.363   3.664
    1PA    C112  818   5.123   2.251   3.845
    1PA    H12R  819   5.177   2.170   3.795
    1PA    H12S  820   5.174   2.268   3.940
    1PA    C111  821   4.980   2.203   3.873
    1PA    H11R  822   4.930   2.179   3.779
    1PA    H11S  823   4.986   2.111   3.932
    1PA    C110  824   4.897   2.306   3.950
    1PA    H10R  825   4.955   2.344   4.035
    1PA    H10S  826   4.875   2.391   3.886
    1PA     C19  827   4.766   2.246   4.002
    1PA     H9R  828   4.712   2.199   3.920
    1PA     H9S  829   4.788   2.169   4.076
    1PA     C18  830   4.678   2.355   4.066
    1PA     H8R  831   4.734   2.411   4.140
    1PA     H8S  832   4.649   2.426   3.988
    1PA     C17  833   4.551   2.297   4.129
    1PA     H7R  834   4.476   2.377   4.136
    1PA     H7S  835   4.508   2.219   4.065
    1PA     C16  836   4.576   2.242   4.270
    1PA     H6R  837   4.652   2.163   4.266
    1PA     H6S  838   4.616   2.322   4.332
    1PA     C15  839   4.447   2.187   4.332
    1PA     H5R  840   4.370   2.264   4.333
    1PA     H5S  841   4.410   2.106   4.268
    1PA     C14  842   4.468   2.132   4.474
    1PA     H4R  843   4.379   2.077   4.503
    1PA     H4S  844   4.552   2.062   4.474
    1PA     C13  845   4.493   2.244   4.576
    1PA     H3R  846   4.585   2.298   4.551
    1PA     H3S  847   4.411   2.315   4.574
    1PA     C12  848   4.507   2.186   4.718
    1PA     H2R  849   4.414   2.135   4.746
    1PA     H2S  850   4.587   2.112   4.720
    2PC     C11  851   4.537   2.291   4.821
    2PC     O12  852   4.542   2.410   4.798
    2PC     O11  853   4.558   2.238   4.943
    2PC      C1  854   4.570   2.328   5.054
    2PC      HR  855   4.644   2.406   5.032
    2PC      HS  856   4.474   2.376   5.072
    2PC      C2  857   4.614   2.249   5.178
    2PC      HX  858   4.568   2.150   5.174
    2PC      C3  859   4.573   2.319   5.308
    2PC      HA  860   4.468   2.296   5.328
    2PC      HB  861   4.633   2.284   5.392
    2PC     O31  862   4.587   2.462   5.297
    2PC     P31  863   4.506   2.557   5.397
    2PC     O32  864   4.365   2.560   5.321
    2PC     C31  865   4.252   2.621   5.385
    2PC     H1A  866   4.163   2.602   5.324
    2PC     H1B  867   4.238   2.577   5.484
    2PC     C32  868   4.275   2.773   5.398
    2PC     H2A  869   4.341   2.791   5.483
    2PC     H2B  870   4.325   2.809   5.308
    2PC     N31  871   4.155   2.859   5.416
    2PC     C33  872   4.201   2.998   5.450
    2PC     H3A  873   4.114   3.062   5.464
    2PC     H3B  874   4.260   2.994   5.542
    2PC     H3C  875   4.262   3.034   5.367
    2PC     C34  876   4.075   2.866   5.289
    2PC     H4A  877   4.139   2.906   5.210
    2PC     H4B  878   4.040   2.766   5.264
    2PC     H4C  879   3.990   2.932   5.306
    2PC     C35  880   4.067   2.812   5.528
    2PC     H5A  881   3.985   2.883   5.541
    2PC     H5B  882   4.127   2.806   5.618
    2PC     H5C  883   4.027   2.713   5.502
    2PC     O33  884   4.495   2.506   5.535
    2PC     O34  885   4.569   2.691   5.407
    2PC     O21  886   4.758   2.235   5.171
    2PC     C21  887   4.821   2.144   5.246
    2PC     O22  888   4.767   2.070   5.326
    3OL     C12  889   4.969   2.140   5.218
    3OL     H2R  890   5.022   2.114   5.310
    3OL     H2S  891   5.002   2.240   5.187
    3OL     C13  892   5.001   2.038   5.108
    3OL     H3R  893   4.940   2.059   5.021
    3OL     H3S  894   4.976   1.938   5.143
    3OL     C14  895   5.149   2.044   5.069
    3OL     H4R  896   5.212   2.028   5.157
    3OL     H4S  897   5.172   2.143   5.029
    3OL     C15  898   5.182   1.938   4.963
    3OL     H5R  899   5.119   1.954   4.875
    3OL     H5S  900   5.160   1.839   5.002
    3OL     C16  901   5.330   1.945   4.922
    3OL     H6R  902   5.392   1.932   5.011
    3OL     H6S  903   5.353   2.044   4.881
    3OL     C17  904   5.368   1.838   4.819
    3OL     H7R  905   5.341   1.739   4.857
    3OL     H7S  906   5.477   1.839   4.807
    3OL     C18  907   5.303   1.860   4.682
    3OL     H8R  908   5.318   1.964   4.653
    3OL     H8S  909   5.195   1.844   4.689
    3OL     C19  910   5.366   1.772   4.577
    3OL     H9R  911   5.473   1.787   4.564
    3OL    C110  912   5.305   1.684   4.500
    3OL    H10R  913   5.363   1.629   4.427
    3OL    C111  914   5.159   1.646   4.505
    3OL    H11R  915   5.113   1.673   4.600
    3OL    H11S  916   5.151   1.537   4.497
    3OL    C112  917   5.079   1.708   4.390
    3OL    H12R  918   4.978   1.666   4.391
    3OL    H12S  919   5.124   1.681   4.294
    3OL    C113  920   5.071   1.861   4.402
    3OL    H13R  921   5.172   1.902   4.403
    3OL    H13S  922   5.025   1.887   4.498
    3OL    C114  923   4.993   1.929   4.288
    3OL    H14R  924   5.045   1.913   4.193
    3OL    H14S  925   4.995   2.037   4.307
    3OL    C115  926   4.846   1.885   4.278
    3OL    H15R  927   4.784   1.973   4.258
    3OL    H15S  928   4.813   1.845   4.374
    3OL    C116  929   4.822   1.781   4.168
    3OL    H16R  930   4.725   1.733   4.186
    3OL    H16S  931   4.898   1.703   4.172
    3OL    C117  932   4.819   1.846   4.028
    3OL    H17R  933   4.914   1.896   4.009
    3OL    H17S  934   4.741   1.921   4.024
    3OL    C118  935   4.794   1.741   3.919
    3OL    H18R  936   4.872   1.664   3.921
    3OL    H18S  937   4.795   1.788   3.821
    3OL    H18T  938   4.698   1.692   3.934
    1PA    C116  939   2.132   4.272   3.462
    1PA    H16R  940   2.208   4.205   3.422
    1PA    H16S  941   2.165   4.376   3.447
    1PA    H16T  942   2.039   4.257   3.406
    1PA    C115  943   2.108   4.245   3.611
    1PA    H15R  944   2.031   4.312   3.649
    1PA    H15S  945   2.072   4.143   3.623
    1PA    C114  946   2.237   4.264   3.692
    1PA    H14R  947   2.315   4.197   3.654
    1PA    H14S  948   2.273   4.366   3.680
    1PA    C113  949   2.212   4.235   3.841
    1PA    H13R  950   2.135   4.302   3.877
    1PA    H13S  951   2.176   4.133   3.851
    1PA    C112  952   2.340   4.252   3.924
    1PA    H12R  953   2.418   4.186   3.884
    1PA    H12S  954   2.377   4.354   3.917
    1PA    C111  955   2.315   4.215   4.071
    1PA    H11R  956   2.259   4.122   4.076
    1PA    H11S  957   2.411   4.198   4.121
    1PA    C110  958   2.240   4.326   4.145
    1PA    H10R  959   2.305   4.414   4.155
    1PA    H10S  960   2.152   4.356   4.088
    1PA     C19  961   2.195   4.281   4.285
    1PA     H9R  962   2.131   4.193   4.275
    1PA     H9S  963   2.281   4.253   4.345
    1PA     C18  964   2.116   4.393   4.354
    1PA     H8R  965   2.183   4.477   4.374
    1PA     H8S  966   2.037   4.429   4.288
    1PA     C17  967   2.053   4.345   4.485
    1PA     H7R  968   1.987   4.260   4.465
    1PA     H7S  969   2.131   4.311   4.554
    1PA     C16  970   1.972   4.459   4.549
    1PA     H6R  971   2.038   4.546   4.560
    1PA     H6S  972   1.890   4.488   4.483
    1PA     C15  973   1.919   4.423   4.688
    1PA     H5R  974   2.001   4.385   4.749
    1PA     H5S  975   1.882   4.514   4.736
    1PA     C14  976   1.805   4.320   4.687
    1PA     H4R  977   1.718   4.362   4.636
    1PA     H4S  978   1.836   4.230   4.633
    1PA     C13  979   1.769   4.283   4.831
    1PA     H3R  980   1.858   4.243   4.880
    1PA     H3S  981   1.740   4.373   4.885
    1PA     C12  982   1.656   4.179   4.840
    1PA     H2R  983   1.562   4.224   4.807
    1PA     H2S  984   1.678   4.095   4.774
    2PC     C11  985   1.639   4.127   4.980
    2PC     O12  986   1.590   4.019   5.005
    2PC     O11  987   1.676   4.215   5.074
    2PC      C1  988   1.671   4.179   5.213
    2PC      HR  989   1.689   4.268   5.273
    2PC      HS  990   1.571   4.141   5.238
    2PC      C2  991   1.777   4.073   5.247
    2PC      HX  992   1.759   3.982   5.190
    2PC      C3  993   1.771   4.042   5.398
    2PC      HA  994   1.669   4.015   5.426
    2PC      HB  995   1.837   3.959   5.424
    2PC     O31  996   1.810   4.161   5.469
    2PC     P31  997   1.812   4.161   5.629
    2PC     O32  998   1.969   4.161   5.658
    2PC     C31  999   2.046   4.044   5.625
    2PC     H1A 1000   2.011   3.960   5.686
    2PC     H1B 1001   2.033   4.021   5.519
    2PC     C32 1002   2.193   4.076   5.655
    2PC     H2A 1003   2.220   4.168   5.602
    2PC     H2B 1004   2.204   4.094   5.762
    2PC     N31 1005   2.297   3.974   5.618
    2PC     C33 1006   2.273   3.844   5.689
    2PC     H3A 1007   2.355   3.777   5.665
    2PC     H3B 1008   2.270   3.863   5.796
    2PC     H3C 1009   2.178   3.802   5.655
    2PC     C34 1010   2.301   3.951   5.470
    2PC     H4A 1011   2.204   3.912   5.438
    2PC     H4B 1012   2.322   4.046   5.421
    2PC     H4C 1013   2.380   3.879   5.450
    2PC     C35 1014   2.431   4.028   5.659
    2PC     H5A 1015   2.507   3.954   5.633
    2PC     H5B 1016   2.430   4.045   5.767
    2PC     H5C 1017   2.449   4.122   5.607
    2PC     O33 1018   1.744   4.282   5.680
    2PC     O34 1019   1.740   4.046   5.690
    2PC     O21 1020   1.906   4.127   5.213
    2PC     C21 1021   2.017   4.053   5.227
    2PC     O22 1022   2.019   3.937   5.263
    3OL     C12 1023   2.143   4.127   5.190
    3OL     H2R 1024   2.229   4.063   5.207
    3OL     H2S 1025   2.153   4.214   5.256
    3OL     C13 1026   2.141   4.174   5.044
    3OL     H3R 1027   2.055   4.239   5.028
    3OL     H3S 1028   2.130   4.088   4.978
    3OL     C14 1029   2.269   4.250   5.008
    3OL     H4R 1030   2.354   4.180   5.006
    3OL     H4S 1031   2.290   4.326   5.083
    3OL     C15 1032   2.254   4.317   4.870
    3OL     H5R 1033   2.170   4.387   4.876
    3OL     H5S 1034   2.229   4.241   4.795
    3OL     C16 1035   2.379   4.394   4.827
    3OL     H6R 1036   2.464   4.326   4.819
    3OL     H6S 1037   2.403   4.470   4.902
    3OL     C17 1038   2.353   4.461   4.691
    3OL     H7R 1039   2.266   4.527   4.700
    3OL     H7S 1040   2.329   4.384   4.617
    3OL     C18 1041   2.473   4.541   4.641
    3OL     H8R 1042   2.561   4.477   4.637
    3OL     H8S 1043   2.495   4.621   4.713
    3OL     C19 1044   2.441   4.603   4.508
    3OL     H9R 1045   2.353   4.668   4.508
    3OL    C110 1046   2.506   4.587   4.393
    3OL    H10R 1047   2.469   4.639   4.305
    3OL    C111 1048   2.630   4.505   4.370
    3OL    H11R 1049   2.665   4.455   4.460
    3OL    H11S 1050   2.710   4.571   4.337
    3OL    C112 1051   2.605   4.399   4.261
    3OL    H12R 1052   2.557   4.447   4.175
    3OL    H12S 1053   2.537   4.323   4.298
    3OL    C113 1054   2.737   4.335   4.216
    3OL    H13R 1055   2.785   4.288   4.301
    3OL    H13S 1056   2.803   4.414   4.179
    3OL    C114 1057   2.714   4.231   4.106
    3OL    H14R 1058   2.654   4.273   4.025
    3OL    H14S 1059   2.657   4.148   4.148
    3OL    C115 1060   2.846   4.177   4.050
    3OL    H15R 1061   2.827   4.083   3.997
    3OL    H15S 1062   2.915   4.154   4.132
    3OL    C116 1063   2.911   4.276   3.953
    3OL    H16R 1064   2.843   4.293   3.869
    3OL    H16S 1065   2.927   4.372   4.002
    3OL    C117 1066   3.045   4.225   3.899
    3OL    H17R 1067   3.031   4.130   3.848
    3OL    H17S 1068   3.114   4.208   3.982
    3OL    C118 1069   3.106   4.327   3.801
    3OL    H18R 1070   3.040   4.341   3.715
    3OL    H18S 1071   3.120   4.424   3.850
    3OL    H18T 1072   3.203   4.292   3.766
    1PA    C116 1073   6.214   3.705   5.339
    1PA    H16R 1074   6.322   3.686   5.342
    1PA    H16S 1075   6.164   3.633   5.404
    1PA    H16T 1076   6.196   3.805   5.377
    1PA    C115 1077   6.162   3.691   5.195
    1PA    H15R 1078   6.181   3.590   5.159
    1PA    H15S 1079   6.053   3.706   5.195
    1PA    C114 1080   6.228   3.794   5.102
    1PA    H14R 1081   6.208   3.895   5.138
    1PA    H14S 1082   6.336   3.778   5.103
    1PA    C113 1083   6.175   3.779   4.959
    1PA    H13R 1084   6.197   3.679   4.921
    1PA    H13S 1085   6.067   3.790   4.960
    1PA    C112 1086   6.234   3.884   4.863
    1PA    H12R 1087   6.177   3.881   4.770
    1PA    H12S 1088   6.221   3.983   4.906
    1PA    C111 1089   6.382   3.858   4.831
    1PA    H11R 1090   6.442   3.868   4.922
    1PA    H11S 1091   6.393   3.755   4.797
    1PA    C110 1092   6.435   3.951   4.722
    1PA    H10R 1093   0.088   3.919   4.694
    1PA    H10S 1094   6.373   3.940   4.633
    1PA     C19 1095   6.440   4.100   4.760
    1PA     H9R 1096   0.023   4.157   4.672
    1PA     H9S 1097   6.341   4.135   4.788
    1PA     C18 1098   0.092   4.128   4.874
    1PA     H8R 1099   0.058   4.079   4.965
    1PA     H8S 1100   0.189   4.087   4.847
    1PA     C17 1101   0.107   4.279   4.899
    1PA     H7R 1102   0.143   4.326   4.808
    1PA     H7S 1103   0.010   4.324   4.923
    1PA     C16 1104   0.208   4.306   5.012
    1PA     H6R 1105   0.290   4.234   5.005
    1PA     H6S 1106   0.252   4.405   4.998
    1PA     C15 1107   0.146   4.298   5.152
    1PA     H5R 1108   0.071   4.218   5.155
    1PA     H5S 1109   0.224   4.273   5.223
    1PA     C14 1110   0.082   4.432   5.192
    1PA     H4R 1111   0.159   4.509   5.190
    1PA     H4S 1112   0.005   4.459   5.120
    1PA     C13 1113   0.022   4.426   5.333
    1PA     H3R 1114   6.393   4.348   5.338
    1PA     H3S 1115   0.099   4.400   5.406
    1PA     C12 1116   6.408   4.561   5.369
    1PA     H2R 1117   0.034   4.640   5.357
    1PA     H2S 1118   6.326   4.583   5.300
    2PC     C11 1119   6.356   4.568   5.510
    2PC     O12 1120   6.425   4.548   5.609
    2PC     O11 1121   6.227   4.604   5.515
    2PC      C1 1122   6.169   4.646   5.640
    2PC      HR 1123   6.061   4.656   5.627
    2PC      HS 1124   6.188   4.571   5.718
    2PC      C2 1125   6.229   4.782   5.680
    2PC      HX 1126   6.337   4.772   5.693
    2PC      C3 1127   6.171   4.836   5.812
    2PC      HA 1128   6.068   4.868   5.797
    2PC      HB 1129   6.177   4.761   5.890
    2PC     O31 1130   6.254   4.949   5.847
    2PC     P31 1131   6.217   5.036   5.976
    2PC     O32 1132   6.264   5.181   5.925
    2PC     C31 1133   6.405   5.201   5.905
    2PC     H1A 1134   0.005   5.213   6.002
    2PC     H1B 1135   0.000   5.114   5.854
    2PC     C32 1136   6.427   5.326   5.819
    2PC     H2A 1137   6.402   5.415   5.878
    2PC     H2B 1138   0.085   5.332   5.792
    2PC     N31 1139   6.350   5.338   5.691
    2PC     C33 1140   6.345   5.209   5.615
    2PC     H3A 1141   6.447   5.179   5.592
    2PC     H3B 1142   6.296   5.134   5.678
    2PC     H3C 1143   6.288   5.225   5.524
    2PC     C34 1144   6.210   5.384   5.718
    2PC     H4A 1145   6.215   5.482   5.768
    2PC     H4B 1146   6.158   5.393   5.623
    2PC     H4C 1147   6.160   5.312   5.783
    2PC     C35 1148   6.416   5.441   5.603
    2PC     H5A 1149   0.070   5.409   5.582
    2PC     H5B 1150   6.415   5.536   5.657
    2PC     H5C 1151   6.358   5.450   5.511
    2PC     O33 1152   6.072   5.036   6.006
    2PC     O34 1153   6.284   4.992   6.100
    2PC     O21 1154   6.196   4.876   5.577
    2PC     C21 1155   6.291   4.907   5.486
    2PC     O22 1156   6.409   4.882   5.499
    3OL     C12 1157   6.236   4.980   5.366
    3OL     H2R 1158   6.311   5.050   5.330
    3OL     H2S 1159   6.147   5.037   5.394
    3OL     C13 1160   6.201   4.878   5.257
    3OL     H3R 1161   6.114   4.820   5.286
    3OL     H3S 1162   6.285   4.808   5.246
    3OL     C14 1163   6.178   4.946   5.121
    3OL     H4R 1164   6.268   5.001   5.093
    3OL     H4S 1165   6.096   5.018   5.129
    3OL     C15 1166   6.146   4.841   5.014
    3OL     H5R 1167   6.049   4.794   5.037
    3OL     H5S 1168   6.222   4.763   5.017
    3OL     C16 1169   6.142   4.903   4.874
    3OL     H6R 1170   6.239   4.949   4.852
    3OL     H6S 1171   6.065   4.980   4.869
    3OL     C17 1172   6.113   4.794   4.770
    3OL     H7R 1173   6.012   4.755   4.785
    3OL     H7S 1174   6.183   4.712   4.783
    3OL     C18 1175   6.125   4.848   4.626
    3OL     H8R 1176   6.228   4.883   4.610
    3OL     H8S 1177   6.059   4.934   4.614
    3OL     C19 1178   6.086   4.740   4.528
    3OL     H9R 1179   5.982   4.709   4.536
    3OL    C110 1180   6.164   4.679   4.440
    3OL    H10R 1181   6.120   4.601   4.378
    3OL    C111 1182   6.309   4.709   4.411
    3OL    H11R 1183   6.342   4.802   4.456
    3OL    H11S 1184   6.319   4.721   4.303
    3OL    C112 1185   6.401   4.594   4.453
    3OL    H12R 1186   0.051   4.607   4.407
    3OL    H12S 1187   6.360   4.500   4.414
    3OL    C113 1188   6.418   4.581   4.605
    3OL    H13R 1189   0.013   4.483   4.628
    3OL    H13S 1190   6.320   4.585   4.655
    3OL    C114 1191   0.063   4.690   4.661
    3OL    H14R 1192   0.021   4.788   4.642
    3OL    H14S 1193   0.159   4.684   4.610
    3OL    C115 1194   0.087   4.673   4.812
    3OL    H15R 1195   0.129   4.575   4.832
    3OL    H15S 1196   6.439   4.680   4.865
    3OL    C116 1197   0.183   4.781   4.863
    3OL    H16R 1198   0.141   4.880   4.846
    3OL    H16S 1199   0.276   4.775   4.806
    3OL    C117 1200   0.217   4.765   5.012
    3OL    H17R 1201   0.302   4.831   5.036
    3OL    H17S 1202   0.249   4.663   5.032
    3OL    C118 1203   0.100   4.803   5.103
    3OL    H18R 1204   0.066   4.905   5.083
    3OL    H18S 1205   0.131   4.798   5.208
    3OL    H18T 1206   0.016   4.734   5.089
    1PA    C116 1207   5.624   3.786   3.724
    1PA    H16R 1208   5.685   3.877   3.720
    1PA    H16S 1209   5.582   3.768   3.625
    1PA    H16T 1210   5.688   3.702   3.751
    1PA    C115 1211   5.511   3.803   3.827
    1PA    H15R 1212   5.450   3.889   3.799
    1PA    H15S 1213   5.447   3.715   3.825
    1PA    C114 1214   5.566   3.823   3.969
    1PA    H14R 1215   5.628   3.737   3.996
    1PA    H14S 1216   5.629   3.912   3.972
    1PA    C113 1217   5.451   3.838   4.069
    1PA    H13R 1218   5.389   3.923   4.038
    1PA    H13S 1219   5.388   3.749   4.065
    1PA    C112 1220   5.499   3.863   4.212
    1PA    H12R 1221   5.579   3.937   4.212
    1PA    H12S 1222   5.416   3.906   4.269
    1PA    C111 1223   5.544   3.734   4.282
    1PA    H11R 1224   5.462   3.662   4.284
    1PA    H11S 1225   5.626   3.689   4.226
    1PA    C110 1226   5.590   3.764   4.425
    1PA    H10R 1227   5.670   3.838   4.422
    1PA    H10S 1228   5.507   3.806   4.483
    1PA     C19 1229   5.642   3.637   4.495
    1PA     H9R 1230   5.560   3.566   4.508
    1PA     H9S 1231   5.718   3.590   4.432
    1PA     C18 1232   5.703   3.671   4.632
    1PA     H8R 1233   5.779   3.748   4.618
    1PA     H8S 1234   5.627   3.711   4.698
    1PA     C17 1235   5.769   3.548   4.696
    1PA     H7R 1236   5.692   3.475   4.723
    1PA     H7S 1237   5.834   3.501   4.622
    1PA     C16 1238   5.851   3.585   4.820
    1PA     H6R 1239   5.920   3.665   4.794
    1PA     H6S 1240   5.783   3.625   4.896
    1PA     C15 1241   5.929   3.468   4.879
    1PA     H5R 1242   5.976   3.501   4.972
    1PA     H5S 1243   5.860   3.387   4.904
    1PA     C14 1244   6.038   3.416   4.784
    1PA     H4R 1245   5.992   3.370   4.696
    1PA     H4S 1246   6.097   3.501   4.748
    1PA     C13 1247   6.134   3.314   4.847
    1PA     H3R 1248   6.204   3.283   4.770
    1PA     H3S 1249   6.195   3.363   4.924
    1PA     C12 1250   6.065   3.189   4.904
    1PA     H2R 1251   5.978   3.163   4.844
    1PA     H2S 1252   6.134   3.105   4.898
    2PC     C11 1253   6.025   3.204   5.049
    2PC     O12 1254   6.074   3.285   5.124
    2PC     O11 1255   5.928   3.118   5.085
    2PC      C1 1256   5.880   3.119   5.220
    2PC      HR 1257   5.819   3.030   5.237
    2PC      HS 1258   5.964   3.117   5.290
    2PC      C2 1259   5.794   3.244   5.242
    2PC      HX 1260   5.854   3.334   5.224
    2PC      C3 1261   5.737   3.250   5.385
    2PC      HA 1262   5.665   3.169   5.401
    2PC      HB 1263   5.818   3.242   5.458
    2PC     O31 1264   5.671   3.377   5.400
    2PC     P31 1265   5.608   3.419   5.541
    2PC     O32 1266   5.618   3.577   5.517
    2PC     C31 1267   5.608   3.664   5.631
    2PC     H1A 1268   5.509   3.655   5.675
    2PC     H1B 1269   5.684   3.636   5.704
    2PC     C32 1270   5.632   3.807   5.579
    2PC     H2A 1271   5.697   3.803   5.492
    2PC     H2B 1272   5.536   3.850   5.549
    2PC     N31 1273   5.696   3.903   5.674
    2PC     C33 1274   5.616   3.914   5.801
    2PC     H3A 1275   5.660   3.993   5.863
    2PC     H3B 1276   5.514   3.941   5.775
    2PC     H3C 1277   5.620   3.819   5.853
    2PC     C34 1278   5.836   3.859   5.703
    2PC     H4A 1279   5.833   3.766   5.760
    2PC     H4B 1280   5.888   3.845   5.609
    2PC     H4C 1281   5.886   3.937   5.762
    2PC     C35 1282   5.700   4.039   5.610
    2PC     H5A 1283   5.598   4.069   5.586
    2PC     H5B 1284   5.761   4.033   5.520
    2PC     H5C 1285   5.744   4.109   5.682
    2PC     O33 1286   5.467   3.378   5.561
    2PC     O34 1287   5.690   3.378   5.657
    2PC     O21 1288   5.684   3.237   5.149
    2PC     C21 1289   5.632   3.350   5.098
    2PC     O22 1290   5.676   3.461   5.117
    3OL     C12 1291   5.512   3.321   5.012
    3OL     H2R 1292   5.459   3.235   5.052
    3OL     H2S 1293   5.548   3.294   4.912
    3OL     C13 1294   5.417   3.441   5.004
    3OL     H3R 1295   5.473   3.531   4.977
    3OL     H3S 1296   5.374   3.458   5.103
    3OL     C14 1297   5.304   3.418   4.904
    3OL     H4R 1298   5.224   3.490   4.924
    3OL     H4S 1299   5.261   3.318   4.918
    3OL     C15 1300   5.351   3.436   4.759
    3OL     H5R 1301   5.431   3.365   4.736
    3OL     H5S 1302   5.391   3.537   4.746
    3OL     C16 1303   5.236   3.414   4.660
    3OL     H6R 1304   5.152   3.479   4.687
    3OL     H6S 1305   5.201   3.311   4.667
    3OL     C17 1306   5.280   3.445   4.516
    3OL     H7R 1307   5.365   3.381   4.489
    3OL     H7S 1308   5.313   3.549   4.511
    3OL     C18 1309   5.165   3.423   4.417
    3OL     H8R 1310   5.077   3.475   4.455
    3OL     H8S 1311   5.141   3.317   4.411
    3OL     C19 1312   5.201   3.480   4.282
    3OL     H9R 1313   5.228   3.586   4.284
    3OL    C110 1314   5.202   3.415   4.167
    3OL    H10R 1315   5.229   3.468   4.076
    3OL    C111 1316   5.169   3.269   4.149
    3OL    H11R 1317   5.070   3.247   4.188
    3OL    H11S 1318   5.242   3.209   4.204
    3OL    C112 1319   5.175   3.230   4.001
    3OL    H12R 1320   5.268   3.267   3.957
    3OL    H12S 1321   5.092   3.277   3.947
    3OL    C113 1322   5.169   3.078   3.983
    3OL    H13R 1323   5.076   3.039   4.026
    3OL    H13S 1324   5.252   3.032   4.035
    3OL    C114 1325   5.175   3.040   3.834
    3OL    H14R 1326   5.262   3.089   3.789
    3OL    H14S 1327   5.086   3.077   3.783
    3OL    C115 1328   5.186   2.888   3.815
    3OL    H15R 1329   5.101   2.840   3.864
    3OL    H15S 1330   5.276   2.851   3.863
    3OL    C116 1331   5.186   2.848   3.667
    3OL    H16R 1332   5.098   2.889   3.617
    3OL    H16S 1333   5.178   2.739   3.661
    3OL    C117 1334   5.314   2.893   3.594
    3OL    H17R 1335   5.401   2.852   3.646
    3OL    H17S 1336   5.322   3.001   3.596
    3OL    C118 1337   5.314   2.845   3.448
    3OL    H18R 1338   5.309   2.736   3.444
    3OL    H18S 1339   5.406   2.877   3.399
    3OL    H18T 1340   5.229   2.886   3.394
    1PA    C116 1341   6.021   3.746   4.396
    1PA    H16R 1342   5.959   3.766   4.309
    1PA    H16S 1343   6.118   3.795   4.382
    1PA    H16T 1344   5.973   3.790   4.484
    1PA    C115 1345   6.040   3.595   4.416
    1PA    H15R 1346   6.096   3.578   4.508
    1PA    H15S 1347   5.942   3.548   4.428
    1PA    C114 1348   6.112   3.532   4.297
    1PA    H14R 1349   6.057   3.554   4.205
    1PA    H14S 1350   6.211   3.577   4.285
    1PA    C113 1351   6.125   3.380   4.310
    1PA    H13R 1352   6.028   3.336   4.333
    1PA    H13S 1353   6.157   3.339   4.214
    1PA    C112 1354   6.229   3.340   4.417
    1PA    H12R 1355   6.323   3.389   4.393
    1PA    H12S 1356   6.198   3.375   4.515
    1PA    C111 1357   6.253   3.189   4.421
    1PA    H11R 1358   6.264   3.150   4.320
    1PA    H11S 1359   6.348   3.172   4.473
    1PA    C110 1360   6.143   3.111   4.495
    1PA    H10R 1361   6.129   3.154   4.595
    1PA    H10S 1362   6.049   3.120   4.441
    1PA     C19 1363   6.184   2.964   4.508
    1PA     H9R 1364   6.194   2.919   4.408
    1PA     H9S 1365   6.282   2.960   4.555
    1PA     C18 1366   6.087   2.881   4.593
    1PA     H8R 1367   6.141   2.793   4.629
    1PA     H8S 1368   6.057   2.938   4.681
    1PA     C17 1369   5.964   2.835   4.514
    1PA     H7R 1370   5.906   2.922   4.484
    1PA     H7S 1371   5.994   2.783   4.423
    1PA     C16 1372   5.874   2.742   4.598
    1PA     H6R 1373   5.858   2.786   4.696
    1PA     H6S 1374   5.776   2.735   4.549
    1PA     C15 1375   5.933   2.601   4.610
    1PA     H5R 1376   5.945   2.559   4.510
    1PA     H5S 1377   6.032   2.605   4.655
    1PA     C14 1378   5.844   2.507   4.692
    1PA     H4R 1379   5.741   2.514   4.658
    1PA     H4S 1380   5.877   2.404   4.675
    1PA     C13 1381   5.852   2.536   4.843
    1PA     H3R 1382   5.956   2.531   4.875
    1PA     H3S 1383   5.816   2.637   4.862
    1PA     C12 1384   5.768   2.436   4.923
    1PA     H2R 1385   5.664   2.440   4.891
    1PA     H2S 1386   5.804   2.334   4.906
    2PC     C11 1387   5.775   2.465   5.071
    2PC     O12 1388   5.870   2.438   5.141
    2PC     O11 1389   5.661   2.519   5.118
    2PC      C1 1390   5.651   2.556   5.256
    2PC      HR 1391   5.545   2.565   5.282
    2PC      HS 1392   5.695   2.478   5.319
    2PC      C2 1393   5.719   2.691   5.283
    2PC      HX 1394   5.823   2.691   5.248
    2PC      C3 1395   5.716   2.722   5.433
    2PC      HA 1396   5.612   2.726   5.467
    2PC      HB 1397   5.770   2.645   5.488
    2PC     O31 1398   5.779   2.850   5.458
    2PC     P31 1399   5.767   2.910   5.606
    2PC     O32 1400   5.624   2.981   5.591
    2PC     C31 1401   5.558   3.023   5.712
    2PC     H1A 1402   5.550   2.939   5.781
    2PC     H1B 1403   5.618   3.101   5.758
    2PC     C32 1404   5.419   3.078   5.677
    2PC     H2A 1405   5.375   3.121   5.767
    2PC     H2B 1406   5.429   3.158   5.604
    2PC     N31 1407   5.317   2.983   5.622
    2PC     C33 1408   5.295   2.867   5.715
    2PC     H3A 1409   5.214   2.806   5.674
    2PC     H3B 1410   5.387   2.809   5.721
    2PC     H3C 1411   5.267   2.906   5.813
    2PC     C34 1412   5.187   3.056   5.606
    2PC     H4A 1413   5.157   3.095   5.703
    2PC     H4B 1414   5.202   3.138   5.535
    2PC     H4C 1415   5.113   2.986   5.568
    2PC     C35 1416   5.357   2.931   5.487
    2PC     H5A 1417   5.450   2.874   5.498
    2PC     H5B 1418   5.372   3.016   5.420
    2PC     H5C 1419   5.277   2.867   5.450
    2PC     O33 1420   5.765   2.805   5.710
    2PC     O34 1421   5.875   3.004   5.643
    2PC     O21 1422   5.641   2.793   5.217
    2PC     C21 1423   5.676   2.836   5.096
    2PC     O22 1424   5.780   2.807   5.040
    3OL     C12 1425   5.568   2.925   5.038
    3OL     H2R 1426   5.573   3.022   5.088
    3OL     H2S 1427   5.472   2.881   5.066
    3OL     C13 1428   5.571   2.941   4.886
    3OL     H3R 1429   5.476   2.986   4.856
    3OL     H3S 1430   5.578   2.843   4.838
    3OL     C14 1431   5.685   3.031   4.836
    3OL     H4R 1432   5.780   2.976   4.837
    3OL     H4S 1433   5.696   3.117   4.902
    3OL     C15 1434   5.654   3.080   4.694
    3OL     H5R 1435   5.560   3.135   4.695
    3OL     H5S 1436   5.642   2.994   4.628
    3OL     C16 1437   5.765   3.171   4.640
    3OL     H6R 1438   5.855   3.112   4.620
    3OL     H6S 1439   5.791   3.245   4.716
    3OL     C17 1440   5.724   3.247   4.513
    3OL     H7R 1441   5.807   3.310   4.481
    3OL     H7S 1442   5.640   3.313   4.536
    3OL     C18 1443   5.684   3.155   4.396
    3OL     H8R 1444   5.597   3.096   4.425
    3OL     H8S 1445   5.766   3.086   4.375
    3OL     C19 1446   5.652   3.236   4.273
    3OL     H9R 1447   5.661   3.344   4.284
    3OL    C110 1448   5.617   3.185   4.156
    3OL    H10R 1449   5.597   3.252   4.072
    3OL    C111 1450   5.598   3.038   4.128
    3OL    H11R 1451   5.513   3.024   4.062
    3OL    H11S 1452   5.575   2.985   4.221
    3OL    C112 1453   5.724   2.978   4.063
    3OL    H12R 1454   5.810   2.998   4.127
    3OL    H12S 1455   5.741   3.029   3.968
    3OL    C113 1456   5.712   2.828   4.038
    3OL    H13R 1457   5.797   2.796   3.978
    3OL    H13S 1458   5.622   2.807   3.980
    3OL    C114 1459   5.710   2.746   4.168
    3OL    H14R 1460   5.621   2.771   4.226
    3OL    H14S 1461   5.797   2.772   4.229
    3OL    C115 1462   5.710   2.595   4.140
    3OL    H15R 1463   5.801   2.569   4.086
    3OL    H15S 1464   5.625   2.570   4.076
    3OL    C116 1465   5.702   2.516   4.271
    3OL    H16R 1466   5.608   2.541   4.321
    3OL    H16S 1467   5.783   2.545   4.338
    3OL    C117 1468   5.706   2.364   4.247
    3OL    H17R 1469   5.639   2.337   4.165
    3OL    H17S 1470   5.670   2.313   4.336
    3OL    C118 1471   5.848   2.315   4.217
    3OL    H18R 1472   5.916   2.341   4.299
    3OL    H18S 1473   5.887   2.361   4.126
    3OL    H18T 1474   5.849   2.207   4.204
    1PA    C116 1475   6.076   2.130   4.456
    1PA    H16R 1476   5.972   2.163   4.454
    1PA    H16S 1477   6.127   2.172   4.368
    1PA    H16T 1478   6.123   2.170   4.546
    1PA    C115 1479   6.082   1.977   4.455
    1PA    H15R 1480   6.028   1.938   4.541
    1PA    H15S 1481   6.032   1.939   4.365
    1PA    C114 1482   6.227   1.925   4.459
    1PA    H14R 1483   6.280   1.957   4.369
    1PA    H14S 1484   6.279   1.968   4.545
    1PA    C113 1485   6.228   1.772   4.469
    1PA    H13R 1486   6.183   1.742   4.564
    1PA    H13S 1487   6.168   1.729   4.389
    1PA    C112 1488   6.371   1.716   4.460
    1PA    H12R 1489   6.413   1.739   4.362
    1PA    H12S 1490   6.434   1.765   4.535
    1PA    C111 1491   6.371   1.565   4.483
    1PA    H11R 1492   6.342   1.543   4.586
    1PA    H11S 1493   6.294   1.520   4.419
    1PA    C110 1494   0.057   1.498   4.452
    1PA    H10R 1495   0.048   1.390   4.469
    1PA    H10S 1496   0.079   1.510   4.345
    1PA     C19 1497   0.177   1.552   4.532
    1PA     H9R 1498   0.266   1.498   4.501
    1PA     H9S 1499   0.193   1.657   4.504
    1PA     C18 1500   0.163   1.543   4.684
    1PA     H8R 1501   0.254   1.583   4.729
    1PA     H8S 1502   0.080   1.607   4.717
    1PA     C17 1503   0.142   1.400   4.735
    1PA     H7R 1504   0.046   1.361   4.700
    1PA     H7S 1505   0.220   1.336   4.694
    1PA     C16 1506   0.147   1.391   4.888
    1PA     H6R 1507   0.143   1.286   4.918
    1PA     H6S 1508   0.242   1.431   4.923
    1PA     C15 1509   0.032   1.467   4.957
    1PA     H5R 1510   0.039   1.573   4.933
    1PA     H5S 1511   6.384   1.430   4.919
    1PA     C14 1512   0.037   1.448   5.109
    1PA     H4R 1513   0.023   1.343   5.133
    1PA     H4S 1514   0.135   1.479   5.147
    1PA     C13 1515   6.375   1.531   5.177
    1PA     H3R 1516   6.390   1.637   5.154
    1PA     H3S 1517   6.278   1.502   5.137
    1PA     C12 1518   6.376   1.511   5.330
    1PA     H2R 1519   6.361   1.406   5.353
    1PA     H2S 1520   0.025   1.541   5.370
    2PC     C11 1521   6.270   1.590   5.401
    2PC     O12 1522   6.267   1.603   5.522
    2PC     O11 1523   6.174   1.641   5.321
    2PC      C1 1524   6.072   1.724   5.379
    2PC      HR 1525   5.990   1.733   5.308
    2PC      HS 1526   6.034   1.676   5.469
    2PC      C2 1527   6.128   1.863   5.413
    2PC      HX 1528   6.217   1.854   5.477
    2PC      C3 1529   6.023   1.945   5.489
    2PC      HA 1530   5.937   1.964   5.426
    2PC      HB 1531   5.991   1.890   5.578
    2PC     O31 1532   6.081   2.070   5.531
    2PC     P31 1533   5.989   2.175   5.609
    2PC     O32 1534   6.100   2.261   5.686
    2PC     C31 1535   6.069   2.314   5.816
    2PC     H1A 1536   5.977   2.374   5.810
    2PC     H1B 1537   6.054   2.232   5.886
    2PC     C32 1538   6.187   2.401   5.860
    2PC     H2A 1539   6.276   2.338   5.869
    2PC     H2B 1540   6.206   2.476   5.783
    2PC     N31 1541   6.175   2.477   5.989
    2PC     C33 1542   6.148   2.387   6.105
    2PC     H3A 1543   6.052   2.337   6.090
    2PC     H3B 1544   6.228   2.313   6.112
    2PC     H3C 1545   6.146   2.447   6.196
    2PC     C34 1546   6.305   2.549   6.014
    2PC     H4A 1547   6.325   2.614   5.929
    2PC     H4B 1548   6.295   2.608   6.106
    2PC     H4C 1549   6.384   2.475   6.026
    2PC     C35 1550   6.067   2.580   5.981
    2PC     H5A 1551   6.092   2.651   5.903
    2PC     H5B 1552   6.059   2.630   6.078
    2PC     H5C 1553   5.972   2.530   5.958
    2PC     O33 1554   5.905   2.256   5.518
    2PC     O34 1555   5.892   2.109   5.700
    2PC     O21 1556   6.159   1.932   5.291
    2PC     C21 1557   6.282   1.922   5.238
    2PC     O22 1558   6.372   1.855   5.284
    3OL     C12 1559   6.302   2.012   5.119
    3OL     H2R 1560   6.396   2.065   5.132
    3OL     H2S 1561   6.222   2.087   5.117
    3OL     C13 1562   6.304   1.934   4.987
    3OL     H3R 1563   6.203   1.901   4.961
    3OL     H3S 1564   6.365   1.845   4.999
    3OL     C14 1565   6.362   2.017   4.872
    3OL     H4R 1566   6.375   1.954   4.784
    3OL     H4S 1567   0.014   2.051   4.902
    3OL     C15 1568   6.274   2.138   4.835
    3OL     H5R 1569   6.253   2.197   4.924
    3OL     H5S 1570   6.179   2.102   4.797
    3OL     C16 1571   6.338   2.230   4.730
    3OL     H6R 1572   6.267   2.310   4.708
    3OL     H6S 1573   6.355   2.175   4.637
    3OL     C17 1574   0.022   2.292   4.779
    3OL     H7R 1575   0.103   2.219   4.770
    3OL     H7S 1576   0.013   2.318   4.884
    3OL     C18 1577   0.060   2.419   4.701
    3OL     H8R 1578   0.149   2.460   4.748
    3OL     H8S 1579   6.428   2.492   4.714
    3OL     C19 1580   0.089   2.393   4.556
    3OL     H9R 1581   0.140   2.299   4.535
    3OL    C110 1582   0.059   2.472   4.454
    3OL    H10R 1583   0.086   2.442   4.354
    3OL    C111 1584   6.437   2.606   4.463
    3OL    H11R 1585   0.055   2.684   4.426
    3OL    H11S 1586   6.413   2.632   4.567
    3OL    C112 1587   6.307   2.607   4.382
    3OL    H12R 1588   6.244   2.689   4.417
    3OL    H12S 1589   6.251   2.514   4.399
    3OL    C113 1590   6.334   2.625   4.232
    3OL    H13R 1591   6.399   2.546   4.196
    3OL    H13S 1592   6.385   2.720   4.217
    3OL    C114 1593   6.203   2.625   4.152
    3OL    H14R 1594   6.135   2.700   4.192
    3OL    H14S 1595   6.154   2.528   4.161
    3OL    C115 1596   6.230   2.655   4.004
    3OL    H15R 1597   6.301   2.583   3.962
    3OL    H15S 1598   6.278   2.753   3.997
    3OL    C116 1599   6.101   2.658   3.920
    3OL    H16R 1600   6.119   2.717   3.830
    3OL    H16S 1601   6.023   2.710   3.977
    3OL    C117 1602   6.052   2.519   3.880
    3OL    H17R 1603   5.948   2.527   3.847
    3OL    H17S 1604   6.054   2.451   3.965
    3OL    C118 1605   6.135   2.461   3.764
    3OL    H18R 1606   6.239   2.446   3.794
    3OL    H18S 1607   6.132   2.527   3.678
    3OL    H18T 1608   6.094   2.364   3.734
    1PA    C116 1609   3.856   6.408   3.609
    1PA    H16R 1610   3.952   0.004   3.582
    1PA    H16S 1611   3.818   0.012   3.697
    1PA    H16T 1612   3.786   6.425   3.526
    1PA    C115 1613   3.872   6.258   3.636
    1PA    H15R 1614   3.917   6.212   3.548
    1PA    H15S 1615   3.942   6.243   3.718
    1PA    C114 1616   3.739   6.188   3.665
    1PA    H14R 1617   3.667   6.215   3.587
    1PA    H14S 1618   3.752   6.080   3.659
    1PA    C113 1619   3.679   6.224   3.802
    1PA    H13R 1620   3.679   6.332   3.816
    1PA    H13S 1621   3.575   6.191   3.805
    1PA    C112 1622   3.755   6.156   3.917
    1PA    H12R 1623   3.750   6.047   3.905
    1PA    H12S 1624   3.860   6.184   3.915
    1PA    C111 1625   3.695   6.196   4.053
    1PA    H11R 1626   3.698   6.304   4.061
    1PA    H11S 1627   3.590   6.165   4.059
    1PA    C110 1628   3.775   6.136   4.170
    1PA    H10R 1629   3.882   6.146   4.151
    1PA    H10S 1630   3.753   6.195   4.259
    1PA     C19 1631   3.738   5.990   4.197
    1PA     H9R 1632   3.634   5.982   4.228
    1PA     H9S 1633   3.749   5.932   4.104
    1PA     C18 1634   3.829   5.926   4.303
    1PA     H8R 1635   3.807   5.819   4.308
    1PA     H8S 1636   3.933   5.936   4.273
    1PA     C17 1637   3.810   5.986   4.443
    1PA     H7R 1638   3.834   6.093   4.441
    1PA     H7S 1639   3.706   5.976   4.474
    1PA     C16 1640   3.902   5.916   4.544
    1PA     H6R 1641   3.876   5.810   4.549
    1PA     H6S 1642   4.005   5.924   4.511
    1PA     C15 1643   3.889   5.977   4.684
    1PA     H5R 1644   3.913   6.084   4.680
    1PA     H5S 1645   3.786   5.967   4.720
    1PA     C14 1646   3.985   5.908   4.782
    1PA     H4R 1647   3.963   5.801   4.784
    1PA     H4S 1648   4.088   5.919   4.745
    1PA     C13 1649   3.976   5.965   4.924
    1PA     H3R 1650   3.995   6.073   4.923
    1PA     H3S 1651   3.875   5.949   4.963
    1PA     C12 1652   4.079   5.894   5.014
    1PA     H2R 1653   4.067   5.786   5.002
    1PA     H2S 1654   4.180   5.919   4.981
    2PC     C11 1655   4.066   5.927   5.160
    2PC     O12 1656   4.013   6.026   5.206
    2PC     O11 1657   4.122   5.828   5.234
    2PC      C1 1658   4.119   5.833   5.377
    2PC      HR 1659   4.169   5.923   5.414
    2PC      HS 1660   4.015   5.832   5.412
    2PC      C2 1661   4.193   5.707   5.424
    2PC      HX 1662   4.156   5.623   5.365
    2PC      C3 1663   4.174   5.676   5.573
    2PC      HA 1664   4.069   5.659   5.596
    2PC      HB 1665   4.231   5.586   5.599
    2PC     O31 1666   4.221   5.787   5.653
    2PC     P31 1667   4.254   5.760   5.807
    2PC     O32 1668   4.112   5.718   5.868
    2PC     C31 1669   4.112   5.654   5.997
    2PC     H1A 1670   4.154   5.554   5.989
    2PC     H1B 1671   4.174   5.714   6.065
    2PC     C32 1672   3.968   5.651   6.051
    2PC     H2A 1673   3.971   5.626   6.157
    2PC     H2B 1674   3.925   5.750   6.040
    2PC     N31 1675   3.871   5.555   5.989
    2PC     C33 1676   3.856   5.577   5.842
    2PC     H3A 1677   3.952   5.557   5.794
    2PC     H3B 1678   3.780   5.508   5.804
    2PC     H3C 1679   3.826   5.680   5.824
    2PC     C34 1680   3.912   5.413   6.015
    2PC     H4A 1681   3.836   5.348   5.973
    2PC     H4B 1682   4.008   5.395   5.966
    2PC     H4C 1683   3.921   5.398   6.123
    2PC     C35 1684   3.737   5.578   6.052
    2PC     H5A 1685   3.665   5.511   6.005
    2PC     H5B 1686   3.708   5.682   6.035
    2PC     H5C 1687   3.744   5.557   6.159
    2PC     O33 1688   4.360   5.657   5.823
    2PC     O34 1689   4.308   5.882   5.870
    2PC     O21 1690   4.333   5.726   5.396
    2PC     C21 1691   4.415   5.620   5.394
    2PC     O22 1692   4.379   5.505   5.411
    3OL     C12 1693   4.556   5.664   5.365
    3OL     H2R 1694   4.580   5.744   5.436
    3OL     H2S 1695   4.560   5.708   5.265
    3OL     C13 1696   4.660   5.552   5.377
    3OL     H3R 1697   4.649   5.481   5.295
    3OL     H3S 1698   4.643   5.498   5.470
    3OL     C14 1699   4.803   5.608   5.380
    3OL     H4R 1700   4.870   5.531   5.420
    3OL     H4S 1701   4.808   5.692   5.450
    3OL     C15 1702   4.855   5.652   5.242
    3OL     H5R 1703   4.787   5.726   5.199
    3OL     H5S 1704   4.858   5.565   5.176
    3OL     C16 1705   4.995   5.712   5.256
    3OL     H6R 1706   5.061   5.640   5.304
    3OL     H6S 1707   4.990   5.800   5.320
    3OL     C17 1708   5.054   5.752   5.120
    3OL     H7R 1709   4.991   5.827   5.072
    3OL     H7S 1710   5.058   5.665   5.054
    3OL     C18 1711   5.196   5.809   5.138
    3OL     H8R 1712   5.260   5.734   5.186
    3OL     H8S 1713   5.191   5.894   5.206
    3OL     C19 1714   5.255   5.855   5.007
    3OL     H9R 1715   5.226   5.956   4.978
    3OL    C110 1716   5.341   5.789   4.931
    3OL    H10R 1717   5.378   5.837   4.840
    3OL    C111 1718   5.392   5.649   4.953
    3OL    H11R 1719   5.354   5.609   5.047
    3OL    H11S 1720   5.501   5.651   4.960
    3OL    C112 1721   5.351   5.555   4.839
    3OL    H12R 1722   5.243   5.557   4.827
    3OL    H12S 1723   5.379   5.453   4.867
    3OL    C113 1724   5.419   5.589   4.706
    3OL    H13R 1725   5.527   5.581   4.715
    3OL    H13S 1726   5.396   5.693   4.680
    3OL    C114 1727   5.370   5.500   4.591
    3OL    H14R 1728   5.409   5.539   4.497
    3OL    H14S 1729   5.261   5.505   4.585
    3OL    C115 1730   5.415   5.354   4.607
    3OL    H15R 1731   5.379   5.312   4.701
    3OL    H15S 1732   5.524   5.352   4.610
    3OL    C116 1733   5.367   5.265   4.491
    3OL    H16R 1734   5.422   5.170   4.496
    3OL    H16S 1735   5.391   5.312   4.396
    3OL    C117 1736   5.217   5.234   4.500
    3OL    H17R 1737   5.160   5.326   4.494
    3OL    H17S 1738   5.195   5.186   4.595
    3OL    C118 1739   5.174   5.141   4.385
    3OL    H18R 1740   5.193   5.188   4.288
    3OL    H18S 1741   5.067   5.119   4.393
    3OL    H18T 1742   5.229   5.046   4.389
    1PA    C116 1743   6.198   5.045   4.219
    1PA    H16R 1744   6.093   5.024   4.239
    1PA    H16S 1745   6.250   4.949   4.209
    1PA    H16T 1746   6.206   5.099   4.125
    1PA    C115 1747   6.260   5.127   4.334
    1PA    H15R 1748   6.254   5.068   4.426
    1PA    H15S 1749   6.365   5.145   4.312
    1PA    C114 1750   6.186   5.260   4.352
    1PA    H14R 1751   6.190   5.316   4.258
    1PA    H14S 1752   6.081   5.241   4.373
    1PA    C113 1753   6.246   5.347   4.463
    1PA    H13R 1754   6.351   5.367   4.440
    1PA    H13S 1755   6.195   5.444   4.463
    1PA    C112 1756   6.234   5.284   4.602
    1PA    H12R 1757   6.130   5.258   4.621
    1PA    H12S 1758   6.293   5.192   4.605
    1PA    C111 1759   6.285   5.380   4.710
    1PA    H11R 1760   6.386   5.414   4.683
    1PA    H11S 1761   6.221   5.468   4.714
    1PA    C110 1762   6.293   5.314   4.849
    1PA    H10R 1763   6.349   5.221   4.840
    1PA    H10S 1764   6.350   5.378   4.916
    1PA     C19 1765   6.156   5.285   4.912
    1PA     H9R 1766   6.090   5.238   4.839
    1PA     H9S 1767   6.171   5.212   4.992
    1PA     C18 1768   6.090   5.409   4.972
    1PA     H8R 1769   6.156   5.453   5.047
    1PA     H8S 1770   6.074   5.484   4.894
    1PA     C17 1771   5.956   5.372   5.036
    1PA     H7R 1772   5.888   5.335   4.959
    1PA     H7S 1773   5.972   5.292   5.109
    1PA     C16 1774   5.891   5.492   5.108
    1PA     H6R 1775   5.958   5.528   5.186
    1PA     H6S 1776   5.876   5.573   5.036
    1PA     C15 1777   5.756   5.451   5.169
    1PA     H5R 1778   5.689   5.418   5.089
    1PA     H5S 1779   5.772   5.366   5.236
    1PA     C14 1780   5.691   5.567   5.245
    1PA     H4R 1781   5.757   5.600   5.326
    1PA     H4S 1782   5.679   5.651   5.177
    1PA     C13 1783   5.553   5.529   5.301
    1PA     H3R 1784   5.503   5.620   5.335
    1PA     H3S 1785   5.492   5.489   5.220
    1PA     C12 1786   5.557   5.428   5.416
    1PA     H2R 1787   5.455   5.401   5.444
    1PA     H2S 1788   5.607   5.336   5.385
    2PC     C11 1789   5.625   5.485   5.538
    2PC     O12 1790   5.570   5.557   5.619
    2PC     O11 1791   5.754   5.447   5.547
    2PC      C1 1792   5.833   5.496   5.656
    2PC      HR 1793   5.938   5.470   5.640
    2PC      HS 1794   5.826   5.605   5.659
    2PC      C2 1795   5.789   5.436   5.791
    2PC      HX 1796   5.680   5.438   5.801
    2PC      C3 1797   5.849   5.518   5.906
    2PC      HA 1798   5.807   5.619   5.905
    2PC      HB 1799   5.826   5.472   6.002
    2PC     O31 1800   5.991   5.526   5.887
    2PC     P31 1801   6.078   5.619   5.985
    2PC     O32 1802   6.166   5.507   6.057
    2PC     C31 1803   6.128   5.467   6.190
    2PC     H1A 1804   6.142   5.551   6.258
    2PC     H1B 1805   6.023   5.437   6.190
    2PC     C32 1806   6.219   5.350   6.231
    2PC     H2A 1807   6.211   5.271   6.155
    2PC     H2B 1808   6.322   5.385   6.234
    2PC     N31 1809   6.190   5.285   6.363
    2PC     C33 1810   6.199   5.384   6.475
    2PC     H3A 1811   6.178   5.332   6.569
    2PC     H3B 1812   6.299   5.426   6.477
    2PC     H3C 1813   6.125   5.462   6.459
    2PC     C34 1814   6.054   5.223   6.362
    2PC     H4A 1815   5.979   5.302   6.349
    2PC     H4B 1816   6.048   5.152   6.280
    2PC     H4C 1817   6.038   5.173   6.458
    2PC     C35 1818   6.292   5.178   6.386
    2PC     H5A 1819   6.390   5.224   6.391
    2PC     H5B 1820   6.287   5.107   6.303
    2PC     H5C 1821   6.268   5.128   6.480
    2PC     O33 1822   6.163   5.713   5.908
    2PC     O34 1823   5.995   5.702   6.075
    2PC     O21 1824   5.837   5.301   5.802
    2PC     C21 1825   5.768   5.201   5.746
    2PC     O22 1826   5.660   5.213   5.693
    3OL     C12 1827   5.843   5.070   5.758
    3OL     H2R 1828   5.832   5.035   5.860
    3OL     H2S 1829   5.949   5.088   5.741
    3OL     C13 1830   5.792   4.962   5.661
    3OL     H3R 1831   5.685   4.948   5.674
    3OL     H3S 1832   5.841   4.867   5.686
    3OL     C14 1833   5.824   4.997   5.515
    3OL     H4R 1834   5.932   5.010   5.503
    3OL     H4S 1835   5.776   5.091   5.488
    3OL     C15 1836   5.775   4.886   5.421
    3OL     H5R 1837   5.668   4.871   5.433
    3OL     H5S 1838   5.824   4.792   5.449
    3OL     C16 1839   5.808   4.915   5.274
    3OL     H6R 1840   5.793   4.824   5.216
    3OL     H6S 1841   5.914   4.943   5.265
    3OL     C17 1842   5.720   5.026   5.214
    3OL     H7R 1843   5.738   5.120   5.266
    3OL     H7S 1844   5.615   5.000   5.228
    3OL     C18 1845   5.750   5.043   5.065
    3OL     H8R 1846   5.737   4.947   5.014
    3OL     H8S 1847   5.854   5.073   5.053
    3OL     C19 1848   5.660   5.147   5.003
    3OL     H9R 1849   5.605   5.209   5.073
    3OL    C110 1850   5.642   5.165   4.873
    3OL    H10R 1851   5.574   5.243   4.839
    3OL    C111 1852   5.711   5.089   4.762
    3OL    H11R 1853   5.635   5.037   4.703
    3OL    H11S 1854   5.778   5.012   4.801
    3OL    C112 1855   5.790   5.183   4.671
    3OL    H12R 1856   5.882   5.212   4.722
    3OL    H12S 1857   5.733   5.274   4.652
    3OL    C113 1858   5.825   5.117   4.537
    3OL    H13R 1859   5.857   5.014   4.553
    3OL    H13S 1860   5.909   5.171   4.492
    3OL    C114 1861   5.707   5.120   4.438
    3OL    H14R 1862   5.677   5.224   4.422
    3OL    H14S 1863   5.623   5.067   4.482
    3OL    C115 1864   5.744   5.056   4.304
    3OL    H15R 1865   5.769   4.951   4.319
    3OL    H15S 1866   5.834   5.105   4.265
    3OL    C116 1867   5.633   5.070   4.199
    3OL    H16R 1868   5.671   5.036   4.103
    3OL    H16S 1869   5.605   5.175   4.189
    3OL    C117 1870   5.508   4.988   4.233
    3OL    H17R 1871   5.465   5.021   4.328
    3OL    H17S 1872   5.534   4.882   4.244
    3OL    C118 1873   5.401   5.003   4.124
    3OL    H18R 1874   5.439   4.964   4.028
    3OL    H18S 1875   5.374   5.108   4.111
    3OL    H18T 1876   5.311   4.947   4.150
    1PA    C116 1877   1.884   3.220   4.091
    1PA    H16R 1878   1.896   3.327   4.108
    1PA    H16S 1879   1.800   3.205   4.023
    1PA    H16T 1880   1.974   3.181   4.044
    1PA    C115 1881   1.857   3.147   4.224
    1PA    H15R 1882   1.766   3.187   4.269
    1PA    H15S 1883   1.841   3.041   4.204
    1PA    C114 1884   1.975   3.165   4.321
    1PA    H14R 1885   2.067   3.127   4.275
    1PA    H14S 1886   1.990   3.272   4.338
    1PA    C113 1887   1.951   3.096   4.455
    1PA    H13R 1888   2.020   3.137   4.529
    1PA    H13S 1889   1.850   3.118   4.490
    1PA    C112 1890   1.971   2.944   4.448
    1PA    H12R 1891   1.904   2.900   4.373
    1PA    H12S 1892   2.073   2.922   4.417
    1PA    C111 1893   1.944   2.879   4.585
    1PA    H11R 1894   2.012   2.921   4.659
    1PA    H11S 1895   1.842   2.902   4.616
    1PA    C110 1896   1.962   2.727   4.579
    1PA    H10R 1897   1.894   2.684   4.504
    1PA    H10S 1898   2.064   2.705   4.547
    1PA     C19 1899   1.936   2.662   4.716
    1PA     H9R 1900   2.001   2.708   4.790
    1PA     H9S 1901   1.832   2.681   4.745
    1PA     C18 1902   1.962   2.511   4.712
    1PA     H8R 1903   1.894   2.463   4.641
    1PA     H8S 1904   2.063   2.494   4.676
    1PA     C17 1905   1.948   2.447   4.851
    1PA     H7R 1906   1.999   2.350   4.849
    1PA     H7S 1907   1.999   2.508   4.925
    1PA     C16 1908   1.802   2.424   4.893
    1PA     H6R 1909   1.748   2.518   4.890
    1PA     H6S 1910   1.754   2.356   4.822
    1PA     C15 1911   1.796   2.365   5.034
    1PA     H5R 1912   1.851   2.271   5.037
    1PA     H5S 1913   1.843   2.434   5.104
    1PA     C14 1914   1.651   2.340   5.078
    1PA     H4R 1915   1.593   2.432   5.068
    1PA     H4S 1916   1.605   2.266   5.012
    1PA     C13 1917   1.644   2.290   5.223
    1PA     H3R 1918   1.698   2.196   5.232
    1PA     H3S 1919   1.693   2.363   5.288
    1PA     C12 1920   1.499   2.271   5.268
    1PA     H2R 1921   1.443   2.363   5.250
    1PA     H2S 1922   1.453   2.192   5.209
    2PC     C11 1923   1.483   2.236   5.414
    2PC     O12 1924   1.377   2.248   5.472
    2PC     O11 1925   1.593   2.185   5.471
    2PC      C1 1926   1.588   2.140   5.608
    2PC      HR 1927   1.690   2.125   5.644
    2PC      HS 1928   1.541   2.217   5.670
    2PC      C2 1929   1.511   2.008   5.619
    2PC      HX 1930   1.408   2.023   5.586
    2PC      C3 1931   1.509   1.956   5.763
    2PC      HA 1932   1.460   2.029   5.827
    2PC      HB 1933   1.452   1.863   5.768
    2PC     O31 1934   1.643   1.933   5.811
    2PC     P31 1935   1.664   1.867   5.955
    2PC     O32 1936   1.637   1.986   6.059
    2PC     C31 1937   1.510   1.992   6.125
    2PC     H1A 1938   1.432   2.008   6.050
    2PC     H1B 1939   1.489   1.898   6.177
    2PC     C32 1940   1.509   2.109   6.225
    2PC     H2A 1941   1.540   2.200   6.173
    2PC     H2B 1942   1.408   2.123   6.261
    2PC     N31 1943   1.595   2.099   6.348
    2PC     C33 1944   1.563   1.975   6.426
    2PC     H3A 1945   1.457   1.975   6.450
    2PC     H3B 1946   1.589   1.888   6.366
    2PC     H3C 1947   1.622   1.976   6.518
    2PC     C34 1948   1.740   2.100   6.313
    2PC     H4A 1949   1.798   2.099   6.405
    2PC     H4B 1950   1.762   2.012   6.253
    2PC     H4C 1951   1.762   2.191   6.256
    2PC     C35 1952   1.566   2.218   6.434
    2PC     H5A 1953   1.460   2.218   6.460
    2PC     H5B 1954   1.592   2.309   6.379
    2PC     H5C 1955   1.627   2.211   6.525
    2PC     O33 1956   1.575   1.751   5.977
    2PC     O34 1957   1.802   1.817   5.972
    2PC     O21 1958   1.576   1.914   5.531
    2PC     C21 1959   1.518   1.796   5.501
    2PC     O22 1960   1.419   1.751   5.554
    3OL     C12 1961   1.589   1.725   5.389
    3OL     H2R 1962   1.598   1.620   5.415
    3OL     H2S 1963   1.690   1.766   5.378
    3OL     C13 1964   1.513   1.739   5.256
    3OL     H3R 1965   1.415   1.693   5.267
    3OL     H3S 1966   1.567   1.682   5.180
    3OL     C14 1967   1.497   1.885   5.212
    3OL     H4R 1968   1.595   1.933   5.206
    3OL     H4S 1969   1.440   1.939   5.288
    3OL     C15 1970   1.423   1.899   5.079
    3OL     H5R 1971   1.403   2.005   5.062
    3OL     H5S 1972   1.327   1.848   5.085
    3OL     C16 1973   1.503   1.845   4.959
    3OL     H6R 1974   1.528   1.740   4.976
    3OL     H6S 1975   1.597   1.900   4.950
    3OL     C17 1976   1.422   1.857   4.830
    3OL     H7R 1977   1.404   1.963   4.807
    3OL     H7S 1978   1.325   1.810   4.845
    3OL     C18 1979   1.494   1.791   4.712
    3OL     H8R 1980   1.526   1.691   4.743
    3OL     H8S 1981   1.582   1.848   4.684
    3OL     C19 1982   1.398   1.775   4.596
    3OL     H9R 1983   1.295   1.758   4.624
    3OL    C110 1984   1.429   1.779   4.467
    3OL    H10R 1985   1.350   1.767   4.394
    3OL    C111 1986   1.567   1.800   4.408
    3OL    H11R 1987   1.618   1.704   4.403
    3OL    H11S 1988   1.626   1.868   4.470
    3OL    C112 1989   1.554   1.858   4.266
    3OL    H12R 1990   1.498   1.951   4.272
    3OL    H12S 1991   1.496   1.790   4.204
    3OL    C113 1992   1.690   1.887   4.201
    3OL    H13R 1993   1.749   1.949   4.269
    3OL    H13S 1994   1.674   1.947   4.111
    3OL    C114 1995   1.773   1.762   4.166
    3OL    H14R 1996   1.787   1.702   4.256
    3OL    H14S 1997   1.872   1.794   4.134
    3OL    C115 1998   1.711   1.674   4.056
    3OL    H15R 1999   1.608   1.648   4.082
    3OL    H15S 2000   1.768   1.581   4.053
    3OL    C116 2001   1.716   1.740   3.918
    3OL    H16R 2002   1.819   1.762   3.891
    3OL    H16S 2003   1.663   1.836   3.922
    3OL    C117 2004   1.651   1.654   3.809
    3OL    H17R 2005   1.644   1.713   3.718
    3OL    H17S 2006   1.549   1.627   3.838
    3OL    C118 2007   1.732   1.527   3.779
    3OL    H18R 2008   1.688   1.475   3.693
    3OL    H18S 2009   1.731   1.459   3.864
    3OL    H18T 2010   1.835   1.552   3.755
    1PA    C116 2011   1.538   5.415   3.857
    1PA    H16R 2012   1.495   5.515   3.870
    1PA    H16S 2013   1.456   5.346   3.834
    1PA    H16T 2014   1.607   5.418   3.772
    1PA    C115 2015   1.611   5.371   3.984
    1PA    H15R 2016   1.652   5.271   3.969
    1PA    H15S 2017   1.694   5.439   4.004
    1PA    C114 2018   1.515   5.369   4.104
    1PA    H14R 2019   1.478   5.470   4.123
    1PA    H14S 2020   1.430   5.305   4.082
    1PA    C113 2021   1.586   5.316   4.230
    1PA    H13R 2022   1.623   5.215   4.211
    1PA    H13S 2023   1.672   5.379   4.253
    1PA    C112 2024   1.490   5.315   4.349
    1PA    H12R 2025   1.459   5.417   4.372
    1PA    H12S 2026   1.400   5.258   4.323
    1PA    C111 2027   1.555   5.252   4.473
    1PA    H11R 2028   1.588   5.151   4.449
    1PA    H11S 2029   1.643   5.310   4.501
    1PA    C110 2030   1.456   5.247   4.589
    1PA    H10R 2031   1.426   5.348   4.617
    1PA    H10S 2032   1.366   5.195   4.557
    1PA     C19 2033   1.512   5.174   4.712
    1PA     H9R 2034   1.429   5.154   4.780
    1PA     H9S 2035   1.553   5.077   4.681
    1PA     C18 2036   1.620   5.256   4.785
    1PA     H8R 2037   1.704   5.273   4.718
    1PA     H8S 2038   1.579   5.353   4.812
    1PA     C17 2039   1.671   5.185   4.911
    1PA     H7R 2040   1.703   5.084   4.886
    1PA     H7S 2041   1.759   5.238   4.948
    1PA     C16 2042   1.566   5.182   5.023
    1PA     H6R 2043   1.541   5.284   5.052
    1PA     H6S 2044   1.475   5.135   4.987
    1PA     C15 2045   1.617   5.105   5.145
    1PA     H5R 2046   1.645   5.004   5.115
    1PA     H5S 2047   1.705   5.153   5.186
    1PA     C14 2048   1.507   5.098   5.252
    1PA     H4R 2049   1.486   5.198   5.289
    1PA     H4S 2050   1.415   5.059   5.206
    1PA     C13 2051   1.549   5.007   5.369
    1PA     H3R 2052   1.565   4.905   5.333
    1PA     H3S 2053   1.644   5.043   5.408
    1PA     C12 2054   1.446   5.006   5.482
    1PA     H2R 2055   1.492   4.963   5.571
    1PA     H2S 2056   1.416   5.108   5.508
    2PC     C11 2057   1.321   4.927   5.452
    2PC     O12 2058   1.259   4.934   5.347
    2PC     O11 2059   1.285   4.850   5.556
    2PC      C1 2060   1.185   4.748   5.537
    2PC      HR 2061   1.131   4.735   5.630
    2PC      HS 2062   1.113   4.777   5.460
    2PC      C2 2063   1.254   4.616   5.498
    2PC      HX 2064   1.176   4.543   5.474
    2PC      C3 2065   1.339   4.562   5.614
    2PC      HA 2066   1.383   4.466   5.587
    2PC      HB 2067   1.419   4.633   5.637
    2PC     O31 2068   1.255   4.545   5.730
    2PC     P31 2069   1.318   4.487   5.865
    2PC     O32 2070   1.248   4.343   5.875
    2PC     C31 2071   1.218   4.267   5.756
    2PC     H1A 2072   1.155   4.328   5.690
    2PC     H1B 2073   1.310   4.239   5.705
    2PC     C32 2074   1.140   4.142   5.800
    2PC     H2A 2075   1.208   4.073   5.851
    2PC     H2B 2076   1.063   4.172   5.872
    2PC     N31 2077   1.069   4.064   5.694
    2PC     C33 2078   0.957   4.145   5.637
    2PC     H3A 2079   1.000   4.235   5.591
    2PC     H3B 2080   0.906   4.086   5.561
    2PC     H3C 2081   0.889   4.173   5.717
    2PC     C34 2082   1.162   4.021   5.585
    2PC     H4A 2083   1.203   4.109   5.537
    2PC     H4B 2084   1.242   3.960   5.628
    2PC     H4C 2085   1.104   3.963   5.513
    2PC     C35 2086   1.009   3.941   5.755
    2PC     H5A 2087   0.937   3.972   5.831
    2PC     H5B 2088   1.089   3.882   5.801
    2PC     H5C 2089   0.960   3.883   5.677
    2PC     O33 2090   1.466   4.480   5.869
    2PC     O34 2091   1.272   4.569   5.980
    2PC     O21 2092   1.338   4.639   5.385
    2PC     C21 2093   1.377   4.535   5.308
    2PC     O22 2094   1.327   4.425   5.313
    3OL     C12 2095   1.486   4.572   5.211
    3OL     H2R 2096   1.527   4.482   5.166
    3OL     H2S 2097   1.566   4.621   5.268
    3OL     C13 2098   1.436   4.667   5.102
    3OL     H3R 2099   1.383   4.751   5.148
    3OL     H3S 2100   1.365   4.615   5.037
    3OL     C14 2101   1.553   4.721   5.019
    3OL     H4R 2102   1.609   4.639   4.973
    3OL     H4S 2103   1.622   4.772   5.087
    3OL     C15 2104   1.508   4.822   4.913
    3OL     H5R 2105   1.590   4.891   4.891
    3OL     H5S 2106   1.426   4.882   4.953
    3OL     C16 2107   1.464   4.757   4.781
    3OL     H6R 2108   1.400   4.827   4.728
    3OL     H6S 2109   1.404   4.668   4.801
    3OL     C17 2110   1.582   4.722   4.690
    3OL     H7R 2111   1.644   4.644   4.737
    3OL     H7S 2112   1.645   4.810   4.677
    3OL     C18 2113   1.533   4.674   4.553
    3OL     H8R 2114   1.467   4.749   4.510
    3OL     H8S 2115   1.474   4.583   4.566
    3OL     C19 2116   1.649   4.645   4.461
    3OL     H9R 2117   1.694   4.547   4.474
    3OL    C110 2118   1.691   4.723   4.363
    3OL    H10R 2119   1.773   4.689   4.300
    3OL    C111 2120   1.641   4.862   4.333
    3OL    H11R 2121   1.724   4.924   4.299
    3OL    H11S 2122   1.603   4.909   4.424
    3OL    C112 2123   1.531   4.862   4.226
    3OL    H12R 2124   1.495   4.965   4.214
    3OL    H12S 2125   1.447   4.802   4.262
    3OL    C113 2126   1.578   4.808   4.091
    3OL    H13R 2127   1.623   4.710   4.105
    3OL    H13S 2128   1.655   4.873   4.049
    3OL    C114 2129   1.462   4.792   3.991
    3OL    H14R 2130   1.377   4.745   4.041
    3OL    H14S 2131   1.495   4.725   3.912
    3OL    C115 2132   1.418   4.926   3.929
    3OL    H15R 2133   1.500   4.968   3.871
    3OL    H15S 2134   1.395   4.997   4.008
    3OL    C116 2135   1.294   4.910   3.840
    3OL    H16R 2136   1.258   5.010   3.813
    3OL    H16S 2137   1.214   4.862   3.897
    3OL    C117 2138   1.322   4.831   3.712
    3OL    H17R 2139   1.356   4.730   3.736
    3OL    H17S 2140   1.400   4.880   3.654
    3OL    C118 2141   1.195   4.820   3.626
    3OL    H18R 2142   1.159   4.919   3.598
    3OL    H18S 2143   1.116   4.768   3.680
    3OL    H18T 2144   1.216   4.764   3.534
    1PA    C116 2145   2.370   2.693   3.840
    1PA    H16R 2146   2.390   2.702   3.947
    1PA    H16S 2147   2.333   2.592   3.821
    1PA    H16T 2148   2.292   2.764   3.813
    1PA    C115 2149   2.497   2.719   3.759
    1PA    H15R 2150   2.575   2.648   3.787
    1PA    H15S 2151   2.475   2.703   3.653
    1PA    C114 2152   2.550   2.863   3.776
    1PA    H14R 2153   2.625   2.882   3.700
    1PA    H14S 2154   2.469   2.934   3.761
    1PA    C113 2155   2.614   2.885   3.914
    1PA    H13R 2156   2.540   2.867   3.993
    1PA    H13S 2157   2.696   2.815   3.928
    1PA    C112 2158   2.667   3.029   3.927
    1PA    H12R 2159   2.743   3.047   3.851
    1PA    H12S 2160   2.585   3.099   3.910
    1PA    C111 2161   2.727   3.053   4.067
    1PA    H11R 2162   2.651   3.030   4.142
    1PA    H11S 2163   2.811   2.985   4.082
    1PA    C110 2164   2.773   3.198   4.081
    1PA    H10R 2165   2.846   3.220   4.003
    1PA    H10S 2166   2.689   3.266   4.067
    1PA     C19 2167   2.839   3.226   4.217
    1PA     H9R 2168   2.921   3.155   4.233
    1PA     H9S 2169   2.883   3.326   4.215
    1PA     C18 2170   2.740   3.218   4.334
    1PA     H8R 2171   2.657   3.286   4.316
    1PA     H8S 2172   2.699   3.117   4.341
    1PA     C17 2173   2.808   3.253   4.467
    1PA     H7R 2174   2.891   3.185   4.485
    1PA     H7S 2175   2.849   3.354   4.462
    1PA     C16 2176   2.707   3.244   4.582
    1PA     H6R 2177   2.625   3.313   4.564
    1PA     H6S 2178   2.665   3.143   4.585
    1PA     C15 2179   2.772   3.276   4.718
    1PA     H5R 2180   2.856   3.209   4.736
    1PA     H5S 2181   2.810   3.379   4.717
    1PA     C14 2182   2.667   3.260   4.829
    1PA     H4R 2183   2.582   3.326   4.809
    1PA     H4S 2184   2.630   3.158   4.829
    1PA     C13 2185   2.726   3.293   4.967
    1PA     H3R 2186   2.812   3.230   4.988
    1PA     H3S 2187   2.760   3.397   4.968
    1PA     C12 2188   2.618   3.273   5.075
    1PA     H2R 2189   2.528   3.327   5.047
    1PA     H2S 2190   2.593   3.167   5.083
    2PC     C11 2191   2.664   3.323   5.209
    2PC     O12 2192   2.609   3.416   5.266
    2PC     O11 2193   2.773   3.261   5.255
    2PC      C1 2194   2.830   3.308   5.379
    2PC      HR 2195   2.844   3.416   5.373
    2PC      HS 2196   2.763   3.284   5.461
    2PC      C2 2197   2.966   3.240   5.400
    2PC      HX 2198   2.951   3.135   5.426
    2PC      C3 2199   3.045   3.313   5.511
    2PC      HA 2200   3.067   3.414   5.477
    2PC      HB 2201   2.987   3.317   5.603
    2PC     O31 2202   3.168   3.243   5.537
    2PC     P31 2203   3.284   3.318   5.617
    2PC     O32 2204   3.257   3.271   5.768
    2PC     C31 2205   3.309   3.355   5.872
    2PC     H1A 2206   3.419   3.354   5.868
    2PC     H1B 2207   3.273   3.457   5.858
    2PC     C32 2208   3.260   3.301   6.007
    2PC     H2A 2209   3.151   3.304   6.008
    2PC     H2B 2210   3.291   3.197   6.018
    2PC     N31 2211   3.305   3.372   6.131
    2PC     C33 2212   3.289   3.520   6.120
    2PC     H3A 2213   3.185   3.543   6.098
    2PC     H3B 2214   3.317   3.565   6.216
    2PC     H3C 2215   3.354   3.558   6.041
    2PC     C34 2216   3.220   3.325   6.246
    2PC     H4A 2217   3.253   3.376   6.336
    2PC     H4B 2218   3.116   3.351   6.223
    2PC     H4C 2219   3.230   3.217   6.256
    2PC     C35 2220   3.448   3.340   6.163
    2PC     H5A 2221   3.511   3.376   6.081
    2PC     H5B 2222   3.458   3.231   6.173
    2PC     H5C 2223   3.474   3.389   6.256
    2PC     O33 2224   3.418   3.279   5.567
    2PC     O34 2225   3.275   3.466   5.604
    2PC     O21 2226   3.039   3.255   5.277
    2PC     C21 2227   3.100   3.148   5.223
    2PC     O22 2228   3.109   3.038   5.274
    3OL     C12 2229   3.149   3.181   5.084
    3OL     H2R 2230   3.234   3.250   5.093
    3OL     H2S 2231   3.069   3.234   5.032
    3OL     C13 2232   3.190   3.058   5.002
    3OL     H3R 2233   3.110   2.984   5.002
    3OL     H3S 2234   3.280   3.013   5.045
    3OL     C14 2235   3.220   3.102   4.857
    3OL     H4R 2236   3.295   3.181   4.860
    3OL     H4S 2237   3.129   3.144   4.814
    3OL     C15 2238   3.271   2.988   4.768
    3OL     H5R 2239   3.194   2.910   4.760
    3OL     H5S 2240   3.360   2.944   4.813
    3OL     C16 2241   3.304   3.044   4.629
    3OL     H6R 2242   3.376   3.126   4.641
    3OL     H6S 2243   3.215   3.087   4.583
    3OL     C17 2244   3.367   2.939   4.536
    3OL     H7R 2245   3.444   2.884   4.591
    3OL     H7S 2246   3.417   2.991   4.455
    3OL     C18 2247   3.265   2.841   4.476
    3OL     H8R 2248   3.221   2.781   4.556
    3OL     H8S 2249   3.318   2.771   4.411
    3OL     C19 2250   3.155   2.909   4.399
    3OL     H9R 2251   3.059   2.911   4.450
    3OL    C110 2252   3.166   2.964   4.279
    3OL    H10R 2253   3.079   3.010   4.234
    3OL    C111 2254   3.292   2.972   4.196
    3OL    H11R 2255   3.375   2.918   4.242
    3OL    H11S 2256   3.322   3.076   4.189
    3OL    C112 2257   3.269   2.919   4.054
    3OL    H12R 2258   3.356   2.942   3.992
    3OL    H12S 2259   3.184   2.973   4.010
    3OL    C113 2260   3.239   2.769   4.049
    3OL    H13R 2261   3.200   2.745   3.950
    3OL    H13S 2262   3.162   2.744   4.122
    3OL    C114 2263   3.365   2.684   4.073
    3OL    H14R 2264   3.406   2.706   4.172
    3OL    H14S 2265   3.441   2.710   3.999
    3OL    C115 2266   3.332   2.534   4.065
    3OL    H15R 2267   3.289   2.511   3.967
    3OL    H15S 2268   3.256   2.512   4.140
    3OL    C116 2269   3.454   2.446   4.093
    3OL    H16R 2270   3.421   2.342   4.106
    3OL    H16S 2271   3.499   2.476   4.188
    3OL    C117 2272   3.561   2.449   3.983
    3OL    H17R 2273   3.649   2.394   4.018
    3OL    H17S 2274   3.593   2.551   3.964
    3OL    C118 2275   3.513   2.384   3.852
    3OL    H18R 2276   3.595   2.380   3.780
    3OL    H18S 2277   3.432   2.442   3.808
    3OL    H18T 2278   3.477   2.283   3.871
    1PA    C116 2279   4.097   3.888   3.676
    1PA    H16R 2280   4.198   3.872   3.637
    1PA    H16S 2281   4.069   3.992   3.657
    1PA    H16T 2282   4.029   3.823   3.621
    1PA    C115 2283   4.094   3.858   3.826
    1PA    H15R 2284   4.126   3.755   3.844
    1PA    H15S 2285   4.165   3.924   3.876
    1PA    C114 2286   3.955   3.881   3.887
    1PA    H14R 2287   3.964   3.884   3.996
    1PA    H14S 2288   3.916   3.978   3.855
    1PA    C113 2289   3.857   3.769   3.850
    1PA    H13R 2290   3.852   3.759   3.741
    1PA    H13S 2291   3.893   3.674   3.890
    1PA    C112 2292   3.716   3.798   3.902
    1PA    H12R 2293   3.718   3.813   4.011
    1PA    H12S 2294   3.682   3.892   3.858
    1PA    C111 2295   3.616   3.687   3.865
    1PA    H11R 2296   3.525   3.735   3.828
    1PA    H11S 2297   3.655   3.627   3.783
    1PA    C110 2298   3.578   3.597   3.983
    1PA    H10R 2299   3.536   3.659   4.063
    1PA    H10S 2300   3.499   3.529   3.950
    1PA     C19 2301   3.694   3.514   4.038
    1PA     H9R 2302   3.737   3.452   3.959
    1PA     H9S 2303   3.773   3.580   4.074
    1PA     C18 2304   3.645   3.426   4.153
    1PA     H8R 2305   3.597   3.488   4.229
    1PA     H8S 2306   3.569   3.356   4.116
    1PA     C17 2307   3.759   3.346   4.218
    1PA     H7R 2308   3.803   3.279   4.144
    1PA     H7S 2309   3.837   3.414   4.252
    1PA     C16 2310   3.706   3.265   4.337
    1PA     H6R 2311   3.665   3.333   4.411
    1PA     H6S 2312   3.626   3.199   4.303
    1PA     C15 2313   3.818   3.181   4.401
    1PA     H5R 2314   3.863   3.117   4.324
    1PA     H5S 2315   3.897   3.246   4.440
    1PA     C14 2316   3.764   3.091   4.513
    1PA     H4R 2317   3.674   3.039   4.479
    1PA     H4S 2318   3.839   3.015   4.536
    1PA     C13 2319   3.734   3.169   4.642
    1PA     H3R 2320   3.826   3.217   4.677
    1PA     H3S 2321   3.662   3.249   4.622
    1PA     C12 2322   3.678   3.077   4.751
    1PA     H2R 2323   3.581   3.038   4.722
    1PA     H2S 2324   3.745   2.992   4.766
    2PC     C11 2325   3.665   3.152   4.881
    2PC     O12 2326   3.566   3.216   4.913
    2PC     O11 2327   3.774   3.138   4.958
    2PC      C1 2328   3.777   3.206   5.085
    2PC      HR 2329   3.762   3.313   5.072
    2PC      HS 2330   3.697   3.166   5.149
    2PC      C2 2331   3.913   3.180   5.151
    2PC      HX 2332   3.936   3.073   5.145
    2PC      C3 2333   3.912   3.227   5.297
    2PC      HA 2334   3.839   3.169   5.354
    2PC      HB 2335   4.010   3.216   5.342
    2PC     O31 2336   3.873   3.366   5.301
    2PC     P31 2337   3.880   3.443   5.441
    2PC     O32 2338   3.791   3.571   5.408
    2PC     C31 2339   3.649   3.560   5.425
    2PC     H1A 2340   3.613   3.471   5.371
    2PC     H1B 2341   3.626   3.550   5.531
    2PC     C32 2342   3.584   3.686   5.367
    2PC     H2A 2343   3.633   3.774   5.408
    2PC     H2B 2344   3.598   3.687   5.258
    2PC     N31 2345   3.437   3.705   5.390
    2PC     C33 2346   3.410   3.731   5.536
    2PC     H3A 2347   3.303   3.751   5.547
    2PC     H3B 2348   3.438   3.642   5.593
    2PC     H3C 2349   3.469   3.818   5.567
    2PC     C34 2350   3.390   3.823   5.311
    2PC     H4A 2351   3.405   3.803   5.205
    2PC     H4B 2352   3.284   3.839   5.332
    2PC     H4C 2353   3.447   3.911   5.342
    2PC     C35 2354   3.359   3.585   5.348
    2PC     H5A 2355   3.389   3.500   5.409
    2PC     H5B 2356   3.378   3.565   5.242
    2PC     H5C 2357   3.253   3.605   5.364
    2PC     O33 2358   3.823   3.363   5.552
    2PC     O34 2359   4.019   3.473   5.483
    2PC     O21 2360   4.013   3.254   5.077
    2PC     C21 2361   4.143   3.233   5.101
    2PC     O22 2362   4.186   3.151   5.180
    3OL     C12 2363   4.235   3.325   5.025
    3OL     H2R 2364   4.320   3.267   4.989
    3OL     H2S 2365   4.273   3.401   5.094
    3OL     C13 2366   4.167   3.394   4.906
    3OL     H3R 2367   4.090   3.462   4.943
    3OL     H3S 2368   4.118   3.319   4.844
    3OL     C14 2369   4.268   3.472   4.821
    3OL     H4R 2370   4.342   3.403   4.781
    3OL     H4S 2371   4.321   3.546   4.882
    3OL     C15 2372   4.195   3.543   4.706
    3OL     H5R 2373   4.133   3.624   4.746
    3OL     H5S 2374   4.128   3.472   4.657
    3OL     C16 2375   4.293   3.600   4.602
    3OL     H6R 2376   4.357   3.519   4.565
    3OL     H6S 2377   4.357   3.675   4.649
    3OL     C17 2378   4.215   3.661   4.486
    3OL     H7R 2379   4.157   3.746   4.521
    3OL     H7S 2380   4.144   3.587   4.446
    3OL     C18 2381   4.308   3.706   4.372
    3OL     H8R 2382   4.366   3.620   4.337
    3OL     H8S 2383   4.378   3.780   4.410
    3OL     C19 2384   4.225   3.767   4.261
    3OL     H9R 2385   4.175   3.859   4.289
    3OL    C110 2386   4.205   3.717   4.141
    3OL    H10R 2387   4.140   3.770   4.072
    3OL    C111 2388   4.267   3.592   4.083
    3OL    H11R 2389   4.360   3.566   4.133
    3OL    H11S 2390   4.291   3.611   3.978
    3OL    C112 2391   4.170   3.473   4.091
    3OL    H12R 2392   4.071   3.504   4.057
    3OL    H12S 2393   4.161   3.441   4.195
    3OL    C113 2394   4.219   3.356   4.004
    3OL    H13R 2395   4.321   3.331   4.031
    3OL    H13S 2396   4.219   3.388   3.899
    3OL    C114 2397   4.129   3.233   4.019
    3OL    H14R 2398   4.025   3.262   4.003
    3OL    H14S 2399   4.136   3.194   4.121
    3OL    C115 2400   4.165   3.122   3.919
    3OL    H15R 2401   4.169   3.163   3.819
    3OL    H15S 2402   4.084   3.048   3.920
    3OL    C116 2403   4.297   3.052   3.953
    3OL    H16R 2404   4.291   3.006   4.052
    3OL    H16S 2405   4.377   3.127   3.957
    3OL    C117 2406   4.336   2.947   3.848
    3OL    H17R 2407   4.439   2.915   3.867
    3OL    H17S 2408   4.334   2.991   3.749
    3OL    C118 2409   4.246   2.823   3.852
    3OL    H18R 2410   4.281   2.749   3.779
    3OL    H18S 2411   4.143   2.848   3.827
    3OL    H18T 2412   4.248   2.777   3.951
    1PA    C116 2413   4.071   1.858   4.253
    1PA    H16R 2414   4.115   1.783   4.187
    1PA    H16S 2415   4.151   1.902   4.313
    1PA    H16T 2416   4.026   1.937   4.192
    1PA    C115 2417   3.966   1.794   4.345
    1PA    H15R 2418   4.015   1.721   4.410
    1PA    H15S 2419   3.921   1.871   4.408
    1PA    C114 2420   3.857   1.723   4.263
    1PA    H14R 2421   3.811   1.794   4.193
    1PA    H14S 2422   3.901   1.642   4.205
    1PA    C113 2423   3.748   1.667   4.357
    1PA    H13R 2424   3.794   1.596   4.427
    1PA    H13S 2425   3.707   1.749   4.416
    1PA    C112 2426   3.635   1.598   4.280
    1PA    H12R 2427   3.591   1.668   4.208
    1PA    H12S 2428   3.675   1.513   4.224
    1PA    C111 2429   3.528   1.551   4.379
    1PA    H11R 2430   3.573   1.483   4.451
    1PA    H11S 2431   3.491   1.638   4.434
    1PA    C110 2432   3.409   1.482   4.311
    1PA    H10R 2433   3.362   1.551   4.240
    1PA    H10S 2434   3.443   1.394   4.256
    1PA     C19 2435   3.306   1.440   4.417
    1PA     H9R 2436   3.353   1.370   4.487
    1PA     H9S 2437   3.276   1.528   4.475
    1PA     C18 2438   3.181   1.375   4.356
    1PA     H8R 2439   3.134   1.445   4.287
    1PA     H8S 2440   3.210   1.286   4.299
    1PA     C17 2441   3.082   1.336   4.467
    1PA     H7R 2442   3.129   1.264   4.534
    1PA     H7S 2443   3.058   1.425   4.526
    1PA     C16 2444   2.953   1.277   4.409
    1PA     H6R 2445   2.907   1.350   4.342
    1PA     H6S 2446   2.976   1.187   4.351
    1PA     C15 2447   2.854   1.242   4.521
    1PA     H5R 2448   2.899   1.169   4.589
    1PA     H5S 2449   2.832   1.332   4.580
    1PA     C14 2450   2.723   1.185   4.464
    1PA     H4R 2451   2.681   1.256   4.393
    1PA     H4S 2452   2.744   1.092   4.410
    1PA     C13 2453   2.621   1.159   4.576
    1PA     H3R 2454   2.663   1.089   4.648
    1PA     H3S 2455   2.601   1.253   4.628
    1PA     C12 2456   2.490   1.103   4.519
    1PA     H2R 2457   2.450   1.171   4.444
    1PA     H2S 2458   2.510   1.007   4.469
    2PC     C11 2459   2.387   1.080   4.626
    2PC     O12 2460   2.395   0.991   4.709
    2PC     O11 2461   2.282   1.163   4.615
    2PC      C1 2462   2.173   1.155   4.708
    2PC      HR 2463   2.089   1.212   4.667
    2PC      HS 2464   2.142   1.051   4.720
    2PC      C2 2465   2.211   1.215   4.844
    2PC      HX 2466   2.293   1.160   4.890
    2PC      C3 2467   2.091   1.213   4.940
    2PC      HA 2468   2.009   1.274   4.899
    2PC      HB 2469   2.057   1.111   4.956
    2PC     O31 2470   2.133   1.268   5.066
    2PC     P31 2471   2.024   1.294   5.181
    2PC     O32 2472   2.118   1.285   5.310
    2PC     C31 2473   2.150   1.154   5.359
    2PC     H1A 2474   2.063   1.113   5.411
    2PC     H1B 2475   2.175   1.090   5.274
    2PC     C32 2476   2.272   1.162   5.453
    2PC     H2A 2477   2.302   1.061   5.479
    2PC     H2B 2478   2.354   1.210   5.400
    2PC     N31 2479   2.257   1.235   5.583
    2PC     C33 2480   2.385   1.220   5.659
    2PC     H3A 2481   2.375   1.273   5.754
    2PC     H3B 2482   2.403   1.114   5.675
    2PC     H3C 2483   2.466   1.263   5.600
    2PC     C34 2484   2.231   1.382   5.561
    2PC     H4A 2485   2.134   1.393   5.514
    2PC     H4B 2486   2.234   1.433   5.657
    2PC     H4C 2487   2.309   1.420   5.495
    2PC     C35 2488   2.145   1.177   5.664
    2PC     H5A 2489   2.051   1.197   5.613
    2PC     H5B 2490   2.146   1.222   5.763
    2PC     H5C 2491   2.162   1.069   5.671
    2PC     O33 2492   1.959   1.427   5.177
    2PC     O34 2493   1.914   1.194   5.184
    2PC     O21 2494   2.244   1.354   4.825
    2PC     C21 2495   2.373   1.390   4.821
    2PC     O22 2496   2.467   1.313   4.829
    3OL     C12 2497   2.393   1.538   4.800
    3OL     H2R 2498   2.380   1.558   4.694
    3OL     H2S 2499   2.496   1.563   4.828
    3OL     C13 2500   2.295   1.624   4.882
    3OL     H3R 2501   2.302   1.595   4.987
    3OL     H3S 2502   2.193   1.605   4.849
    3OL     C14 2503   2.326   1.774   4.870
    3OL     H4R 2504   2.429   1.793   4.903
    3OL     H4S 2505   2.260   1.829   4.937
    3OL     C15 2506   2.308   1.826   4.726
    3OL     H5R 2507   2.207   1.805   4.692
    3OL     H5S 2508   2.377   1.774   4.660
    3OL     C16 2509   2.335   1.977   4.717
    3OL     H6R 2510   2.436   2.000   4.753
    3OL     H6S 2511   2.265   2.029   4.783
    3OL     C17 2512   2.317   2.030   4.575
    3OL     H7R 2513   2.320   2.139   4.577
    3OL     H7S 2514   2.219   2.001   4.536
    3OL     C18 2515   2.427   1.981   4.479
    3OL     H8R 2516   2.420   1.872   4.469
    3OL     H8S 2517   2.524   2.004   4.522
    3OL     C19 2518   2.410   2.043   4.343
    3OL     H9R 2519   2.309   2.041   4.304
    3OL    C110 2520   2.505   2.104   4.273
    3OL    H10R 2521   2.479   2.149   4.178
    3OL    C111 2522   2.650   2.114   4.310
    3OL    H11R 2523   2.710   2.105   4.219
    3OL    H11S 2524   2.680   2.031   4.375
    3OL    C112 2525   2.682   2.248   4.378
    3OL    H12R 2526   2.636   2.252   4.477
    3OL    H12S 2527   2.637   2.328   4.319
    3OL    C113 2528   2.832   2.275   4.387
    3OL    H13R 2529   2.847   2.381   4.409
    3OL    H13S 2530   2.877   2.257   4.290
    3OL    C114 2531   2.906   2.191   4.493
    3OL    H14R 2532   3.013   2.191   4.470
    3OL    H14S 2533   2.874   2.087   4.485
    3OL    C115 2534   2.885   2.239   4.637
    3OL    H15R 2535   2.936   2.169   4.704
    3OL    H15S 2536   2.779   2.234   4.661
    3OL    C116 2537   2.936   2.381   4.667
    3OL    H16R 2538   2.915   2.400   4.772
    3OL    H16S 2539   2.880   2.455   4.611
    3OL    C117 2540   3.087   2.400   4.645
    3OL    H17R 2541   3.140   2.305   4.658
    3OL    H17S 2542   3.125   2.468   4.722
    3OL    C118 2543   3.120   2.461   4.508
    3OL    H18R 2544   3.090   2.395   4.427
    3OL    H18S 2545   3.228   2.477   4.500
    3OL    H18T 2546   3.071   2.557   4.496
    1PA    C116 2547   5.923   1.168   3.915
    1PA    H16R 2548   5.950   1.233   3.998
    1PA    H16S 2549   5.859   1.224   3.847
    1PA    H16T 2550   6.015   1.141   3.862
    1PA    C115 2551   5.852   1.042   3.965
    1PA    H15R 2552   5.834   0.974   3.882
    1PA    H15S 2553   5.917   0.991   4.037
    1PA    C114 2554   5.719   1.077   4.033
    1PA    H14R 2555   5.738   1.150   4.113
    1PA    H14S 2556   5.653   1.125   3.960
    1PA    C113 2557   5.651   0.952   4.091
    1PA    H13R 2558   5.635   0.880   4.011
    1PA    H13S 2559   5.717   0.905   4.164
    1PA    C112 2560   5.516   0.983   4.157
    1PA    H12R 2561   5.448   1.028   4.084
    1PA    H12S 2562   5.471   0.888   4.188
    1PA    C111 2563   5.530   1.075   4.279
    1PA    H11R 2564   5.606   1.034   4.347
    1PA    H11S 2565   5.566   1.173   4.246
    1PA    C110 2566   5.399   1.096   4.355
    1PA    H10R 2567   5.411   1.181   4.422
    1PA    H10S 2568   5.318   1.121   4.285
    1PA     C19 2569   5.360   0.973   4.439
    1PA     H9R 2570   5.332   0.890   4.373
    1PA     H9S 2571   5.447   0.941   4.497
    1PA     C18 2572   5.244   1.006   4.533
    1PA     H8R 2573   5.270   1.092   4.595
    1PA     H8S 2574   5.157   1.034   4.474
    1PA     C17 2575   5.207   0.888   4.625
    1PA     H7R 2576   5.115   0.914   4.678
    1PA     H7S 2577   5.186   0.800   4.564
    1PA     C16 2578   5.317   0.857   4.728
    1PA     H6R 2579   5.406   0.819   4.677
    1PA     H6S 2580   5.345   0.949   4.780
    1PA     C15 2581   5.269   0.754   4.830
    1PA     H5R 2582   5.178   0.790   4.878
    1PA     H5S 2583   5.245   0.660   4.780
    1PA     C14 2584   5.375   0.729   4.938
    1PA     H4R 2585   5.464   0.683   4.894
    1PA     H4S 2586   5.406   0.825   4.980
    1PA     C13 2587   5.320   0.640   5.050
    1PA     H3R 2588   5.225   0.682   5.083
    1PA     H3S 2589   5.298   0.540   5.010
    1PA     C12 2590   5.417   0.629   5.167
    1PA     H2R 2591   5.503   0.568   5.140
    1PA     H2S 2592   5.455   0.729   5.193
    2PC     C11 2593   5.353   0.572   5.292
    2PC     O12 2594   5.408   0.492   5.365
    2PC     O11 2595   5.231   0.623   5.316
    2PC      C1 2596   5.163   0.584   5.436
    2PC      HR 2597   5.155   0.475   5.441
    2PC      HS 2598   5.220   0.619   5.522
    2PC      C2 2599   5.023   0.647   5.434
    2PC      HX 2600   5.029   0.743   5.383
    2PC      C3 2601   4.970   0.669   5.576
    2PC      HA 2602   5.039   0.735   5.630
    2PC      HB 2603   4.872   0.716   5.573
    2PC     O31 2604   4.962   0.543   5.646
    2PC     P31 2605   4.933   0.542   5.803
    2PC     O32 2606   4.775   0.524   5.814
    2PC     C31 2607   4.717   0.395   5.841
    2PC     H1A 2608   4.610   0.400   5.825
    2PC     H1B 2609   4.759   0.322   5.772
    2PC     C32 2610   4.746   0.349   5.985
    2PC     H2A 2611   4.715   0.245   5.995
    2PC     H2B 2612   4.853   0.354   6.005
    2PC     N31 2613   4.679   0.421   6.098
    2PC     C33 2614   4.530   0.404   6.093
    2PC     H3A 2615   4.490   0.457   6.006
    2PC     H3B 2616   4.507   0.297   6.086
    2PC     H3C 2617   4.488   0.445   6.185
    2PC     C34 2618   4.729   0.364   6.227
    2PC     H4A 2619   4.707   0.257   6.228
    2PC     H4B 2620   4.837   0.379   6.232
    2PC     H4C 2621   4.680   0.414   6.310
    2PC     C35 2622   4.709   0.568   6.098
    2PC     H5A 2623   4.661   0.613   6.185
    2PC     H5B 2624   4.671   0.612   6.006
    2PC     H5C 2625   4.818   0.580   6.105
    2PC     O33 2626   5.013   0.438   5.872
    2PC     O34 2627   4.974   0.668   5.870
    2PC     O21 2628   4.935   0.560   5.360
    2PC     C21 2629   4.818   0.608   5.315
    2PC     O22 2630   4.778   0.721   5.336
    3OL     C12 2631   4.740   0.506   5.237
    3OL     H2R 2632   4.740   0.411   5.292
    3OL     H2S 2633   4.791   0.488   5.142
    3OL     C13 2634   4.595   0.550   5.211
    3OL     H3R 2635   4.595   0.644   5.154
    3OL     H3S 2636   4.547   0.570   5.306
    3OL     C14 2637   4.513   0.444   5.136
    3OL     H4R 2638   4.407   0.466   5.152
    3OL     H4S 2639   4.532   0.346   5.179
    3OL     C15 2640   4.543   0.441   4.985
    3OL     H5R 2641   4.648   0.417   4.972
    3OL     H5S 2642   4.526   0.539   4.941
    3OL     C16 2643   4.459   0.335   4.912
    3OL     H6R 2644   4.431   0.255   4.980
    3OL     H6S 2645   4.523   0.290   4.835
    3OL     C17 2646   4.335   0.390   4.841
    3OL     H7R 2647   4.295   0.311   4.777
    3OL     H7S 2648   4.364   0.472   4.775
    3OL     C18 2649   4.225   0.435   4.937
    3OL     H8R 2650   4.263   0.514   5.002
    3OL     H8S 2651   4.195   0.352   5.001
    3OL     C19 2652   4.105   0.490   4.863
    3OL     H9R 2653   4.106   0.598   4.849
    3OL    C110 2654   3.999   0.421   4.824
    3OL    H10R 2655   3.917   0.472   4.776
    3OL    C111 2656   3.985   0.271   4.831
    3OL    H11R 2657   3.913   0.246   4.910
    3OL    H11S 2658   4.079   0.223   4.857
    3OL    C112 2659   3.933   0.212   4.699
    3OL    H12R 2660   3.834   0.253   4.678
    3OL    H12S 2661   3.922   0.104   4.710
    3OL    C113 2662   4.026   0.241   4.580
    3OL    H13R 2663   4.124   0.196   4.599
    3OL    H13S 2664   4.041   0.349   4.570
    3OL    C114 2665   3.966   0.187   4.450
    3OL    H14R 2666   3.868   0.232   4.436
    3OL    H14S 2667   3.952   0.079   4.458
    3OL    C115 2668   4.051   0.220   4.327
    3OL    H15R 2669   4.079   0.325   4.328
    3OL    H15S 2670   3.989   0.204   4.238
    3OL    C116 2671   4.176   0.132   4.316
    3OL    H16R 2672   4.148   0.026   4.315
    3OL    H16S 2673   4.239   0.148   4.404
    3OL    C117 2674   4.259   0.165   4.190
    3OL    H17R 2675   4.357   0.119   4.200
    3OL    H17S 2676   4.273   0.273   4.183
    3OL    C118 2677   4.193   0.113   4.062
    3OL    H18R 2678   4.176   0.005   4.068
    3OL    H18S 2679   4.258   0.133   3.976
    3OL    H18T 2680   4.097   0.163   4.044
    1PA    C116 2681   1.694   4.109   3.765
    1PA    H16R 2682   1.668   4.119   3.660
    1PA    H16S 2683   1.803   4.115   3.774
    1PA    H16T 2684   1.650   4.193   3.820
    1PA    C115 2685   1.643   3.975   3.821
    1PA    H15R 2686   1.535   3.969   3.807
    1PA    H15S 2687   1.689   3.893   3.765
    1PA    C114 2688   1.677   3.962   3.970
    1PA    H14R 2689   1.785   3.972   3.984
    1PA    H14S 2690   1.629   4.042   4.026
    1PA    C113 2691   1.630   3.826   4.025
    1PA    H13R 2692   1.522   3.819   4.016
    1PA    H13S 2693   1.675   3.746   3.967
    1PA    C112 2694   1.670   3.810   4.173
    1PA    H12R 2695   1.779   3.820   4.182
    1PA    H12S 2696   1.625   3.889   4.232
    1PA    C111 2697   1.627   3.673   4.228
    1PA    H11R 2698   1.518   3.666   4.227
    1PA    H11S 2699   1.666   3.594   4.163
    1PA    C110 2700   1.680   3.653   4.370
    1PA    H10R 2701   1.789   3.663   4.369
    1PA    H10S 2702   1.640   3.730   4.436
    1PA     C19 2703   1.644   3.514   4.425
    1PA     H9R 2704   1.535   3.506   4.436
    1PA     H9S 2705   1.676   3.437   4.355
    1PA     C18 2706   1.712   3.490   4.561
    1PA     H8R 2707   1.820   3.502   4.548
    1PA     H8S 2708   1.679   3.566   4.633
    1PA     C17 2709   1.683   3.350   4.616
    1PA     H7R 2710   1.576   3.340   4.638
    1PA     H7S 2711   1.708   3.276   4.540
    1PA     C16 2712   1.765   3.326   4.743
    1PA     H6R 2713   1.870   3.349   4.723
    1PA     H6S 2714   1.731   3.392   4.822
    1PA     C15 2715   1.756   3.180   4.791
    1PA     H5R 2716   1.653   3.157   4.819
    1PA     H5S 2717   1.785   3.113   4.710
    1PA     C14 2718   1.849   3.158   4.911
    1PA     H4R 2719   1.949   3.193   4.884
    1PA     H4S 2720   1.815   3.217   4.996
    1PA     C13 2721   1.863   3.010   4.951
    1PA     H3R 2722   1.894   2.951   4.864
    1PA     H3S 2723   1.943   3.003   5.025
    1PA     C12 2724   1.734   2.952   5.011
    1PA     H2R 2725   1.697   3.018   5.089
    1PA     H2S 2726   1.656   2.942   4.935
    2PC     C11 2727   1.762   2.816   5.071
    2PC     O12 2728   1.837   2.734   5.023
    2PC     O11 2729   1.699   2.799   5.189
    2PC      C1 2730   1.728   2.680   5.263
    2PC      HR 2731   1.695   2.592   5.207
    2PC      HS 2732   1.836   2.674   5.279
    2PC      C2 2733   1.656   2.687   5.399
    2PC      HX 2734   1.660   2.790   5.435
    2PC      C3 2735   1.721   2.592   5.500
    2PC      HA 2736   1.672   2.494   5.496
    2PC      HB 2737   1.828   2.579   5.479
    2PC     O31 2738   1.708   2.649   5.631
    2PC     P31 2739   1.743   2.559   5.759
    2PC     O32 2740   1.900   2.580   5.777
    2PC     C31 2741   1.956   2.538   5.902
    2PC     H1A 2742   1.920   2.606   5.980
    2PC     H1B 2743   1.922   2.437   5.926
    2PC     C32 2744   2.109   2.542   5.897
    2PC     H2A 2745   2.142   2.642   5.867
    2PC     H2B 2746   2.148   2.523   5.997
    2PC     N31 2747   2.178   2.445   5.807
    2PC     C33 2748   2.156   2.479   5.663
    2PC     H3A 2749   2.207   2.405   5.601
    2PC     H3B 2750   2.048   2.477   5.643
    2PC     H3C 2751   2.196   2.579   5.644
    2PC     C34 2752   2.326   2.450   5.833
    2PC     H4A 2753   2.376   2.381   5.765
    2PC     H4B 2754   2.361   2.552   5.815
    2PC     H4C 2755   2.344   2.421   5.936
    2PC     C35 2756   2.133   2.304   5.831
    2PC     H5A 2757   2.149   2.280   5.937
    2PC     H5B 2758   2.192   2.237   5.768
    2PC     H5C 2759   2.027   2.296   5.806
    2PC     O33 2760   1.665   2.609   5.875
    2PC     O34 2761   1.712   2.415   5.739
    2PC     O21 2762   1.520   2.647   5.376
    2PC     C21 2763   1.424   2.686   5.462
    2PC     O22 2764   1.442   2.752   5.562
    3OL     C12 2765   1.286   2.639   5.420
    3OL     H2R 2766   1.216   2.670   5.498
    3OL     H2S 2767   1.284   2.530   5.415
    3OL     C13 2768   1.241   2.700   5.287
    3OL     H3R 2769   1.279   2.802   5.278
    3OL     H3S 2770   1.132   2.705   5.286
    3OL     C14 2771   1.286   2.615   5.166
    3OL     H4R 2772   1.236   2.518   5.172
    3OL     H4S 2773   1.394   2.597   5.169
    3OL     C15 2774   1.248   2.682   5.033
    3OL     H5R 2775   1.149   2.727   5.041
    3OL     H5S 2776   1.242   2.605   4.956
    3OL     C16 2777   1.353   2.787   4.992
    3OL     H6R 2778   1.450   2.739   4.978
    3OL     H6S 2779   1.364   2.859   5.072
    3OL     C17 2780   1.311   2.862   4.865
    3OL     H7R 2781   1.373   2.951   4.855
    3OL     H7S 2782   1.208   2.896   4.875
    3OL     C18 2783   1.323   2.780   4.736
    3OL     H8R 2784   1.283   2.838   4.653
    3OL     H8S 2785   1.260   2.691   4.743
    3OL     C19 2786   1.465   2.739   4.707
    3OL     H9R 2787   1.494   2.642   4.747
    3OL    C110 2788   1.554   2.808   4.637
    3OL    H10R 2789   1.653   2.766   4.621
    3OL    C111 2790   1.532   2.945   4.577
    3OL    H11R 2791   1.591   3.017   4.634
    3OL    H11S 2792   1.428   2.977   4.584
    3OL    C112 2793   1.579   2.953   4.431
    3OL    H12R 2794   1.683   2.918   4.425
    3OL    H12S 2795   1.578   3.057   4.400
    3OL    C113 2796   1.491   2.870   4.336
    3OL    H13R 2797   1.388   2.905   4.345
    3OL    H13S 2798   1.492   2.765   4.365
    3OL    C114 2799   1.536   2.885   4.190
    3OL    H14R 2800   1.551   2.991   4.167
    3OL    H14S 2801   1.456   2.849   4.125
    3OL    C115 2802   1.664   2.806   4.160
    3OL    H15R 2803   1.648   2.700   4.182
    3OL    H15S 2804   1.745   2.841   4.224
    3OL    C116 2805   1.704   2.822   4.013
    3OL    H16R 2806   1.717   2.927   3.988
    3OL    H16S 2807   1.623   2.783   3.950
    3OL    C117 2808   1.833   2.745   3.979
    3OL    H17R 2809   1.840   2.733   3.871
    3OL    H17S 2810   1.830   2.645   4.023
    3OL    C118 2811   1.958   2.820   4.027
    3OL    H18R 2812   1.960   2.827   4.136
    3OL    H18S 2813   1.962   2.921   3.985
    3OL    H18T 2814   2.048   2.767   3.994
    1PA    C116 2815   0.456   0.042   4.608
    1PA    H16R 2816   0.436   0.011   4.711
    1PA    H16S 2817   0.391   0.127   4.585
    1PA    H16T 2818   0.559   0.075   4.601
    1PA    C115 2819   0.428   6.374   4.511
    1PA    H15R 2820   0.325   6.339   4.523
    1PA    H15S 2821   0.436   6.413   4.409
    1PA    C114 2822   0.527   6.258   4.526
    1PA    H14R 2823   0.508   6.185   4.448
    1PA    H14S 2824   0.628   6.296   4.510
    1PA    C113 2825   0.524   6.189   4.663
    1PA    H13R 2826   0.601   6.112   4.665
    1PA    H13S 2827   0.550   6.261   4.741
    1PA    C112 2828   0.389   6.125   4.699
    1PA    H12R 2829   0.395   6.091   4.803
    1PA    H12S 2830   0.309   6.199   4.694
    1PA    C111 2831   0.354   6.005   4.609
    1PA    H11R 2832   0.350   6.039   4.505
    1PA    H11S 2833   0.433   5.930   4.615
    1PA    C110 2834   0.218   5.943   4.644
    1PA    H10R 2835   0.143   6.022   4.646
    1PA    H10S 2836   0.189   5.874   4.564
    1PA     C19 2837   0.215   5.868   4.778
    1PA     H9R 2838   0.256   5.931   4.857
    1PA     H9S 2839   0.110   5.850   4.803
    1PA     C18 2840   0.290   5.735   4.773
    1PA     H8R 2841   0.250   5.672   4.693
    1PA     H8S 2842   0.395   5.754   4.749
    1PA     C17 2843   0.283   5.659   4.906
    1PA     H7R 2844   0.361   5.582   4.907
    1PA     H7S 2845   0.306   5.728   4.988
    1PA     C16 2846   0.147   5.593   4.928
    1PA     H6R 2847   0.069   5.669   4.915
    1PA     H6S 2848   0.130   5.516   4.853
    1PA     C15 2849   0.130   5.536   5.069
    1PA     H5R 2850   0.156   5.613   5.143
    1PA     H5S 2851   0.025   5.510   5.084
    1PA     C14 2852   0.215   5.410   5.094
    1PA     H4R 2853   0.187   5.332   5.023
    1PA     H4S 2854   0.321   5.433   5.078
    1PA     C13 2855   0.194   5.360   5.238
    1PA     H3R 2856   0.215   5.441   5.308
    1PA     H3S 2857   0.090   5.332   5.251
    1PA     C12 2858   0.284   5.240   5.269
    1PA     H2R 2859   0.261   5.158   5.200
    1PA     H2S 2860   0.389   5.266   5.254
    2PC     C11 2861   0.266   5.192   5.411
    2PC     O12 2862   0.239   5.264   5.504
    2PC     O11 2863   0.279   5.058   5.420
    2PC      C1 2864   0.266   4.998   5.550
    2PC      HR 2865   0.346   5.032   5.616
    2PC      HS 2866   0.169   5.025   5.594
    2PC      C2 2867   0.272   4.845   5.533
    2PC      HX 2868   0.200   4.817   5.456
    2PC      C3 2869   0.237   4.772   5.664
    2PC      HA 2870   0.129   4.772   5.678
    2PC      HB 2871   0.272   4.669   5.659
    2PC     O31 2872   0.298   4.841   5.775
    2PC     P31 2873   0.285   4.780   5.923
    2PC     O32 2874   0.441   4.757   5.955
    2PC     C31 2875   0.504   4.638   5.906
    2PC     H1A 2876   0.465   4.552   5.961
    2PC     H1B 2877   0.483   4.625   5.800
    2PC     C32 2878   0.655   4.649   5.931
    2PC     H2A 2879   0.672   4.676   6.036
    2PC     H2B 2880   0.701   4.552   5.913
    2PC     N31 2881   0.732   4.748   5.849
    2PC     C33 2882   0.718   4.717   5.703
    2PC     H3A 2883   0.615   4.734   5.673
    2PC     H3B 2884   0.785   4.783   5.647
    2PC     H3C 2885   0.747   4.612   5.687
    2PC     C34 2886   0.689   4.889   5.874
    2PC     H4A 2887   0.702   4.911   5.980
    2PC     H4B 2888   0.752   4.955   5.814
    2PC     H4C 2889   0.585   4.900   5.845
    2PC     C35 2890   0.877   4.737   5.886
    2PC     H5A 2891   0.934   4.807   5.826
    2PC     H5B 2892   0.911   4.635   5.868
    2PC     H5C 2893   0.887   4.761   5.992
    2PC     O33 2894   0.227   4.870   6.025
    2PC     O34 2895   0.205   4.656   5.934
    2PC     O21 2896   0.405   4.811   5.490
    2PC     C21 2897   0.421   4.698   5.420
    2PC     O22 2898   0.333   4.619   5.395
    3OL     C12 2899   0.563   4.681   5.371
    3OL     H2R 2900   0.614   4.612   5.437
    3OL     H2S 2901   0.615   4.778   5.377
    3OL     C13 2902   0.568   4.630   5.226
    3OL     H3R 2903   0.529   4.706   5.158
    3OL     H3S 2904   0.503   4.543   5.217
    3OL     C14 2905   0.709   4.588   5.182
    3OL     H4R 2906   0.701   4.538   5.086
    3OL     H4S 2907   0.749   4.515   5.253
    3OL     C15 2908   0.805   4.707   5.169
    3OL     H5R 2909   0.819   4.754   5.267
    3OL     H5S 2910   0.762   4.780   5.101
    3OL     C16 2911   0.941   4.659   5.116
    3OL     H6R 2912   0.929   4.616   5.017
    3OL     H6S 2913   0.980   4.581   5.182
    3OL     C17 2914   1.045   4.773   5.110
    3OL     H7R 2915   1.142   4.729   5.085
    3OL     H7S 2916   1.055   4.818   5.209
    3OL     C18 2917   1.010   4.880   5.007
    3OL     H8R 2918   0.915   4.927   5.035
    3OL     H8S 2919   0.995   4.833   4.909
    3OL     C19 2920   1.116   4.987   5.003
    3OL     H9R 2921   1.146   5.024   5.100
    3OL    C110 2922   1.174   5.037   4.895
    3OL    H10R 2923   1.250   5.114   4.908
    3OL    C111 2924   1.151   4.997   4.751
    3OL    H11R 2925   1.099   4.901   4.745
    3OL    H11S 2926   1.248   4.983   4.703
    3OL    C112 2927   1.073   5.102   4.671
    3OL    H12R 2928   1.069   5.069   4.567
    3OL    H12S 2929   1.128   5.197   4.673
    3OL    C113 2930   0.931   5.124   4.724
    3OL    H13R 2931   0.937   5.174   4.821
    3OL    H13S 2932   0.881   5.028   4.739
    3OL    C114 2933   0.848   5.211   4.628
    3OL    H14R 2934   0.907   5.297   4.595
    3OL    H14S 2935   0.761   5.250   4.682
    3OL    C115 2936   0.798   5.130   4.508
    3OL    H15R 2937   0.733   5.049   4.543
    3OL    H15S 2938   0.883   5.083   4.457
    3OL    C116 2939   0.722   5.216   4.407
    3OL    H16R 2940   0.788   5.296   4.370
    3OL    H16S 2941   0.636   5.263   4.456
    3OL    C117 2942   0.674   5.131   4.289
    3OL    H17R 2943   0.609   5.051   4.325
    3OL    H17S 2944   0.760   5.084   4.240
    3OL    C118 2945   0.597   5.214   4.185
    3OL    H18R 2946   0.512   5.264   4.232
    3OL    H18S 2947   0.560   5.149   4.105
    3OL    H18T 2948   0.662   5.290   4.141
    1PA    C116 2949   3.989   4.180   4.137
    1PA    H16R 2950   4.014   4.225   4.041
    1PA    H16S 2951   3.959   4.259   4.206
    1PA    H16T 2952   3.903   4.113   4.122
    1PA    C115 2953   4.108   4.101   4.194
    1PA    H15R 2954   4.078   4.053   4.287
    1PA    H15S 2955   4.137   4.024   4.123
    1PA    C114 2956   4.228   4.193   4.221
    1PA    H14R 2957   4.258   4.243   4.129
    1PA    H14S 2958   4.198   4.270   4.293
    1PA    C113 2959   4.347   4.114   4.277
    1PA    H13R 2960   4.316   4.061   4.367
    1PA    H13S 2961   4.379   4.040   4.204
    1PA    C112 2962   4.464   4.208   4.310
    1PA    H12R 2963   4.490   4.265   4.220
    1PA    H12S 2964   4.433   4.281   4.386
    1PA    C111 2965   4.589   4.134   4.359
    1PA    H11R 2966   4.619   4.059   4.286
    1PA    H11S 2967   4.670   4.206   4.368
    1PA    C110 2968   4.569   4.067   4.496
    1PA    H10R 2969   4.534   4.142   4.568
    1PA    H10S 2970   4.492   3.990   4.489
    1PA     C19 2971   4.700   4.005   4.546
    1PA     H9R 2972   4.735   3.934   4.471
    1PA     H9S 2973   4.777   4.082   4.556
    1PA     C18 2974   4.683   3.931   4.680
    1PA     H8R 2975   4.596   3.865   4.674
    1PA     H8S 2976   4.771   3.869   4.697
    1PA     C17 2977   4.667   4.029   4.798
    1PA     H7R 2978   4.756   4.091   4.804
    1PA     H7S 2979   4.582   4.095   4.780
    1PA     C16 2980   4.647   3.954   4.930
    1PA     H6R 2981   4.564   3.883   4.919
    1PA     H6S 2982   4.736   3.896   4.954
    1PA     C15 2983   4.613   4.048   5.046
    1PA     H5R 2984   4.527   4.110   5.020
    1PA     H5S 2985   4.585   3.989   5.133
    1PA     C14 2986   4.731   4.139   5.084
    1PA     H4R 2987   4.816   4.077   5.115
    1PA     H4S 2988   4.763   4.197   4.997
    1PA     C13 2989   4.695   4.235   5.198
    1PA     H3R 2990   4.606   4.293   5.170
    1PA     H3S 2991   4.670   4.178   5.288
    1PA     C12 2992   4.812   4.330   5.226
    1PA     H2R 2993   4.901   4.273   5.251
    1PA     H2S 2994   4.835   4.388   5.136
    2PC     C11 2995   4.784   4.427   5.338
    2PC     O12 2996   4.692   4.416   5.417
    2PC     O11 2997   4.872   4.528   5.341
    2PC      C1 2998   4.869   4.624   5.448
    2PC      HR 2999   4.937   4.705   5.423
    2PC      HS 3000   4.768   4.665   5.457
    2PC      C2 3001   4.912   4.560   5.580
    2PC      HX 3002   4.843   4.480   5.609
    2PC      C3 3003   4.916   4.664   5.693
    2PC      HA 3004   5.001   4.731   5.679
    2PC      HB 3005   4.824   4.724   5.692
    2PC     O31 3006   4.926   4.597   5.819
    2PC     P31 3007   4.942   4.684   5.953
    2PC     O32 3008   5.098   4.721   5.945
    2PC     C31 3009   5.141   4.843   6.008
    2PC     H1A 3010   5.091   4.927   5.961
    2PC     H1B 3011   5.115   4.841   6.114
    2PC     C32 3012   5.293   4.858   5.989
    2PC     H2A 3013   5.318   4.843   5.883
    2PC     H2B 3014   5.321   4.959   6.016
    2PC     N31 3015   5.382   4.767   6.068
    2PC     C33 3016   5.524   4.805   6.042
    2PC     H3A 3017   5.545   4.794   5.936
    2PC     H3B 3018   5.538   4.909   6.073
    2PC     H3C 3019   5.589   4.740   6.101
    2PC     C34 3020   5.354   4.783   6.214
    2PC     H4A 3021   5.253   4.748   6.236
    2PC     H4B 3022   5.427   4.724   6.270
    2PC     H4C 3023   5.364   4.889   6.241
    2PC     C35 3024   5.364   4.624   6.029
    2PC     H5A 3025   5.383   4.615   5.922
    2PC     H5B 3026   5.262   4.593   6.052
    2PC     H5C 3027   5.435   4.563   6.085
    2PC     O33 3028   4.853   4.802   5.956
    2PC     O34 3029   4.909   4.607   6.075
    2PC     O21 3030   5.045   4.508   5.563
    2PC     C21 3031   5.063   4.384   5.515
    2PC     O22 3032   4.977   4.298   5.513
    3OL     C12 3033   5.202   4.363   5.462
    3OL     H2R 3034   5.232   4.259   5.480
    3OL     H2S 3035   5.270   4.427   5.519
    3OL     C13 3036   5.212   4.396   5.313
    3OL     H3R 3037   5.176   4.498   5.296
    3OL     H3S 3038   5.149   4.329   5.255
    3OL     C14 3039   5.358   4.385   5.265
    3OL     H4R 3040   5.394   4.283   5.279
    3OL     H4S 3041   5.420   4.450   5.327
    3OL     C15 3042   5.377   4.426   5.118
    3OL     H5R 3043   5.482   4.452   5.104
    3OL     H5S 3044   5.319   4.516   5.096
    3OL     C16 3045   5.340   4.315   5.019
    3OL     H6R 3046   5.232   4.297   5.022
    3OL     H6S 3047   5.390   4.223   5.048
    3OL     C17 3048   5.383   4.355   4.877
    3OL     H7R 3049   5.490   4.374   4.878
    3OL     H7S 3050   5.333   4.447   4.847
    3OL     C18 3051   5.353   4.244   4.775
    3OL     H8R 3052   5.245   4.238   4.761
    3OL     H8S 3053   5.385   4.148   4.814
    3OL     C19 3054   5.420   4.274   4.643
    3OL     H9R 3055   5.379   4.359   4.590
    3OL    C110 3056   5.519   4.205   4.588
    3OL    H10R 3057   5.557   4.236   4.492
    3OL    C111 3058   5.588   4.086   4.650
    3OL    H11R 3059   5.538   3.995   4.617
    3OL    H11S 3060   5.581   4.089   4.759
    3OL    C112 3061   5.736   4.077   4.611
    3OL    H12R 3062   5.745   4.072   4.502
    3OL    H12S 3063   5.777   3.984   4.651
    3OL    C113 3064   5.818   4.195   4.665
    3OL    H13R 3065   5.805   4.201   4.773
    3OL    H13S 3066   5.781   4.288   4.622
    3OL    C114 3067   5.967   4.179   4.631
    3OL    H14R 3068   5.978   4.173   4.522
    3OL    H14S 3069   6.006   4.086   4.672
    3OL    C115 3070   6.051   4.297   4.682
    3OL    H15R 3071   6.003   4.391   4.653
    3OL    H15S 3072   6.149   4.294   4.633
    3OL    C116 3073   6.072   4.293   4.833
    3OL    H16R 3074   6.125   4.201   4.860
    3OL    H16S 3075   5.975   4.291   4.885
    3OL    C117 3076   6.152   4.414   4.881
    3OL    H17R 3077   6.098   4.506   4.857
    3OL    H17S 3078   6.248   4.418   4.829
    3OL    C118 3079   6.177   4.409   5.033
    3OL    H18R 3080   6.237   4.322   5.059
    3OL    H18S 3081   6.083   4.404   5.087
    3OL    H18T 3082   6.231   4.499   5.065
    1PA    C116 3083   4.459   4.323   3.788
    1PA    H16R 3084   4.565   4.321   3.813
    1PA    H16S 3085   4.401   4.320   3.880
    1PA    H16T 3086   4.438   4.418   3.738
    1PA    C115 3087   4.421   4.206   3.696
    1PA    H15R 3088   4.316   4.215   3.669
    1PA    H15S 3089   4.479   4.211   3.604
    1PA    C114 3090   4.442   4.070   3.765
    1PA    H14R 3091   4.401   4.073   3.866
    1PA    H14S 3092   4.387   3.994   3.709
    1PA    C113 3093   4.590   4.030   3.767
    1PA    H13R 3094   4.628   4.028   3.665
    1PA    H13S 3095   4.649   4.104   3.822
    1PA    C112 3096   4.610   3.891   3.829
    1PA    H12R 3097   4.536   3.821   3.791
    1PA    H12S 3098   4.708   3.853   3.798
    1PA    C111 3099   4.606   3.895   3.983
    1PA    H11R 3100   4.681   3.965   4.019
    1PA    H11S 3101   4.508   3.930   4.016
    1PA    C110 3102   4.633   3.755   4.041
    1PA    H10R 3103   4.553   3.687   4.013
    1PA    H10S 3104   4.726   3.716   4.000
    1PA     C19 3105   4.643   3.761   4.194
    1PA     H9R 3106   4.718   3.836   4.223
    1PA     H9S 3107   4.547   3.793   4.237
    1PA     C18 3108   4.684   3.625   4.252
    1PA     H8R 3109   4.608   3.550   4.226
    1PA     H8S 3110   4.778   3.594   4.207
    1PA     C17 3111   4.699   3.632   4.405
    1PA     H7R 3112   4.766   3.715   4.430
    1PA     H7S 3113   4.602   3.651   4.451
    1PA     C16 3114   4.759   3.502   4.459
    1PA     H6R 3115   4.697   3.416   4.433
    1PA     H6S 3116   4.857   3.487   4.412
    1PA     C15 3117   4.779   3.508   4.612
    1PA     H5R 3118   4.864   3.445   4.639
    1PA     H5S 3119   4.804   3.610   4.642
    1PA     C14 3120   4.654   3.458   4.686
    1PA     H4R 3121   4.568   3.521   4.661
    1PA     H4S 3122   4.631   3.357   4.653
    1PA     C13 3123   4.674   3.456   4.838
    1PA     H3R 3124   4.594   3.395   4.882
    1PA     H3S 3125   4.769   3.409   4.863
    1PA     C12 3126   4.667   3.597   4.899
    1PA     H2R 3127   4.747   3.659   4.858
    1PA     H2S 3128   4.572   3.643   4.874
    2PC     C11 3129   4.681   3.595   5.049
    2PC     O12 3130   4.772   3.649   5.109
    2PC     O11 3131   4.583   3.525   5.110
    2PC      C1 3132   4.572   3.529   5.253
    2PC      HR 3133   4.513   3.444   5.287
    2PC      HS 3134   4.671   3.522   5.300
    2PC      C2 3135   4.501   3.659   5.295
    2PC      HX 3136   4.539   3.743   5.236
    2PC      C3 3137   4.521   3.688   5.444
    2PC      HA 3138   4.627   3.707   5.463
    2PC      HB 3139   4.464   3.776   5.475
    2PC     O31 3140   4.479   3.574   5.522
    2PC     P31 3141   4.530   3.555   5.672
    2PC     O32 3142   4.483   3.402   5.686
    2PC     C31 3143   4.586   3.303   5.706
    2PC     H1A 3144   4.669   3.323   5.639
    2PC     H1B 3145   4.620   3.308   5.810
    2PC     C32 3146   4.529   3.164   5.673
    2PC     H2A 3147   4.432   3.152   5.720
    2PC     H2B 3148   4.517   3.156   5.565
    2PC     N31 3149   4.613   3.048   5.717
    2PC     C33 3150   4.566   2.923   5.648
    2PC     H3A 3151   4.576   2.937   5.540
    2PC     H3B 3152   4.627   2.840   5.681
    2PC     H3C 3153   4.461   2.905   5.675
    2PC     C34 3154   4.757   3.066   5.681
    2PC     H4A 3155   4.796   3.153   5.734
    2PC     H4B 3156   4.812   2.977   5.711
    2PC     H4C 3157   4.764   3.081   5.573
    2PC     C35 3158   4.598   3.030   5.865
    2PC     H5A 3159   4.657   2.944   5.896
    2PC     H5B 3160   4.492   3.013   5.887
    2PC     H5C 3161   4.632   3.120   5.915
    2PC     O33 3162   4.676   3.571   5.688
    2PC     O34 3163   4.469   3.642   5.776
    2PC     O21 3164   4.361   3.638   5.267
    2PC     C21 3165   4.277   3.741   5.253
    2PC     O22 3166   4.313   3.857   5.253
    3OL     C12 3167   4.135   3.695   5.238
    3OL     H2R 3168   4.074   3.739   5.317
    3OL     H2S 3169   4.132   3.587   5.253
    3OL     C13 3170   4.074   3.728   5.101
    3OL     H3R 3171   4.142   3.696   5.022
    3OL     H3S 3172   4.061   3.836   5.092
    3OL     C14 3173   3.939   3.657   5.085
    3OL     H4R 3174   3.871   3.690   5.163
    3OL     H4S 3175   3.954   3.549   5.098
    3OL     C15 3176   3.876   3.684   4.947
    3OL     H5R 3177   3.948   3.662   4.869
    3OL     H5S 3178   3.849   3.789   4.941
    3OL     C16 3179   3.751   3.597   4.927
    3OL     H6R 3180   3.685   3.612   5.012
    3OL     H6S 3181   3.779   3.491   4.926
    3OL     C17 3182   3.675   3.631   4.798
    3OL     H7R 3183   3.661   3.740   4.792
    3OL     H7S 3184   3.576   3.586   4.804
    3OL     C18 3185   3.744   3.580   4.671
    3OL     H8R 3186   3.762   3.473   4.682
    3OL     H8S 3187   3.841   3.629   4.659
    3OL     C19 3188   3.654   3.603   4.552
    3OL     H9R 3189   3.550   3.573   4.569
    3OL    C110 3190   3.685   3.659   4.437
    3OL    H10R 3191   3.606   3.671   4.362
    3OL    C111 3192   3.821   3.705   4.391
    3OL    H11R 3193   3.843   3.656   4.296
    3OL    H11S 3194   3.900   3.673   4.460
    3OL    C112 3195   3.827   3.856   4.369
    3OL    H12R 3196   3.748   3.885   4.299
    3OL    H12S 3197   3.922   3.882   4.321
    3OL    C113 3198   3.810   3.938   4.498
    3OL    H13R 3199   3.720   3.907   4.551
    3OL    H13S 3200   3.798   4.043   4.471
    3OL    C114 3201   3.933   3.924   4.589
    3OL    H14R 3202   4.022   3.956   4.534
    3OL    H14S 3203   3.947   3.820   4.617
    3OL    C115 3204   3.918   4.008   4.717
    3OL    H15R 3205   3.824   3.981   4.766
    3OL    H15S 3206   3.914   4.114   4.694
    3OL    C116 3207   4.034   3.979   4.815
    3OL    H16R 3208   4.046   3.871   4.826
    3OL    H16S 3209   4.008   4.019   4.913
    3OL    C117 3210   4.167   4.041   4.769
    3OL    H17R 3211   4.159   4.150   4.773
    3OL    H17S 3212   4.189   4.013   4.666
    3OL    C118 3213   4.281   3.993   4.860
    3OL    H18R 3214   4.297   3.886   4.847
    3OL    H18S 3215   4.258   4.013   4.965
    3OL    H18T 3216   4.373   4.046   4.834
    1PA    C116 3217   6.367   0.985   3.868
    1PA    H16R 3218   6.309   0.993   3.776
    1PA    H16S 3219   6.334   0.896   3.922
    1PA    H16T 3220   0.025   0.973   3.842
    1PA    C115 3221   6.347   1.110   3.955
    1PA    H15R 3222   6.380   1.198   3.899
    1PA    H15S 3223   6.241   1.122   3.976
    1PA    C114 3224   6.426   1.099   4.086
    1PA    H14R 3225   6.393   1.011   4.142
    1PA    H14S 3226   0.084   1.084   4.063
    1PA    C113 3227   6.413   1.225   4.174
    1PA    H13R 3228   0.030   1.213   4.261
    1PA    H13S 3229   0.002   1.311   4.118
    1PA    C112 3230   6.270   1.254   4.222
    1PA    H12R 3231   6.272   1.347   4.280
    1PA    H12S 3232   6.205   1.272   4.136
    1PA    C111 3233   6.212   1.142   4.309
    1PA    H11R 3234   6.201   1.051   4.249
    1PA    H11S 3235   6.280   1.120   4.391
    1PA    C110 3236   6.074   1.181   4.365
    1PA    H10R 3237   6.084   1.270   4.428
    1PA    H10S 3238   6.007   1.205   4.283
    1PA     C19 3239   6.015   1.065   4.447
    1PA     H9R 3240   6.003   0.978   4.382
    1PA     H9S 3241   6.084   1.038   4.527
    1PA     C18 3242   5.879   1.103   4.508
    1PA     H8R 3243   5.892   1.187   4.576
    1PA     H8S 3244   5.811   1.134   4.429
    1PA     C17 3245   5.819   0.983   4.583
    1PA     H7R 3246   5.804   0.902   4.512
    1PA     H7S 3247   5.890   0.946   4.658
    1PA     C16 3248   5.684   1.016   4.648
    1PA     H6R 3249   5.622   1.069   4.575
    1PA     H6S 3250   5.632   0.923   4.672
    1PA     C15 3251   5.695   1.101   4.776
    1PA     H5R 3252   5.753   1.191   4.756
    1PA     H5S 3253   5.594   1.133   4.804
    1PA     C14 3254   5.756   1.022   4.893
    1PA     H4R 3255   5.700   0.930   4.908
    1PA     H4S 3256   5.859   0.995   4.868
    1PA     C13 3257   5.757   1.105   5.022
    1PA     H3R 3258   5.841   1.074   5.084
    1PA     H3S 3259   5.772   1.210   4.996
    1PA     C12 3260   5.627   1.088   5.103
    1PA     H2R 3261   5.540   1.098   5.037
    1PA     H2S 3262   5.624   0.988   5.147
    2PC     C11 3263   5.616   1.191   5.212
    2PC     O12 3264   5.670   1.299   5.207
    2PC     O11 3265   5.539   1.150   5.315
    2PC      C1 3266   5.534   1.226   5.436
    2PC      HR 3267   5.552   1.333   5.417
    2PC      HS 3268   5.435   1.215   5.481
    2PC      C2 3269   5.639   1.171   5.534
    2PC      HX 3270   5.630   1.062   5.535
    2PC      C3 3271   5.618   1.226   5.676
    2PC      HA 3272   5.524   1.190   5.717
    2PC      HB 3273   5.699   1.190   5.740
    2PC     O31 3274   5.617   1.369   5.672
    2PC     P31 3275   5.622   1.451   5.809
    2PC     O32 3276   5.760   1.392   5.867
    2PC     C31 3277   5.823   1.458   5.978
    2PC     H1A 3278   5.746   1.501   6.043
    2PC     H1B 3279   5.878   1.383   6.037
    2PC     C32 3280   5.919   1.566   5.927
    2PC     H2A 3281   5.867   1.628   5.854
    2PC     H2B 3282   5.948   1.630   6.011
    2PC     N31 3283   6.047   1.521   5.864
    2PC     C33 3284   6.119   1.642   5.815
    2PC     H3A 3285   6.210   1.610   5.763
    2PC     H3B 3286   6.054   1.696   5.747
    2PC     H3C 3287   6.145   1.705   5.901
    2PC     C34 3288   6.134   1.451   5.964
    2PC     H4A 3289   6.083   1.360   5.998
    2PC     H4B 3290   6.228   1.426   5.916
    2PC     H4C 3291   6.152   1.518   6.049
    2PC     C35 3292   6.024   1.430   5.747
    2PC     H5A 3293   5.977   1.339   5.783
    2PC     H5B 3294   6.121   1.408   5.702
    2PC     H5C 3295   5.959   1.482   5.676
    2PC     O33 3296   5.628   1.597   5.784
    2PC     O34 3297   5.505   1.428   5.897
    2PC     O21 3298   5.769   1.209   5.488
    2PC     C21 3299   5.875   1.132   5.521
    2PC     O22 3300   5.867   1.029   5.585
    3OL     C12 3301   6.004   1.184   5.463
    3OL     H2R 3302   6.087   1.126   5.504
    3OL     H2S 3303   6.018   1.288   5.495
    3OL     C13 3304   6.003   1.176   5.310
    3OL     H3R 3305   5.921   1.237   5.271
    3OL     H3S 3306   5.984   1.073   5.280
    3OL     C14 3307   6.135   1.225   5.251
    3OL     H4R 3308   6.217   1.168   5.295
    3OL     H4S 3309   6.151   1.330   5.276
    3OL     C15 3310   6.141   1.207   5.098
    3OL     H5R 3311   6.104   1.108   5.071
    3OL     H5S 3312   6.245   1.212   5.067
    3OL     C16 3313   6.062   1.315   5.022
    3OL     H6R 3314   6.106   1.413   5.043
    3OL     H6S 3315   5.959   1.318   5.058
    3OL     C17 3316   6.065   1.287   4.872
    3OL     H7R 3317   6.015   1.192   4.852
    3OL     H7S 3318   6.168   1.277   4.837
    3OL     C18 3319   5.994   1.397   4.791
    3OL     H8R 3320   5.893   1.411   4.828
    3OL     H8S 3321   5.986   1.363   4.688
    3OL     C19 3322   6.074   1.526   4.792
    3OL     H9R 3323   6.170   1.519   4.742
    3OL    C110 3324   6.038   1.642   4.845
    3OL    H10R 3325   6.106   1.725   4.837
    3OL    C111 3326   5.911   1.672   4.921
    3OL    H11R 3327   5.938   1.711   5.019
    3OL    H11S 3328   5.851   1.583   4.938
    3OL    C112 3329   5.824   1.777   4.850
    3OL    H12R 3330   5.739   1.801   4.914
    3OL    H12S 3331   5.784   1.734   4.758
    3OL    C113 3332   5.902   1.905   4.818
    3OL    H13R 3333   5.979   1.883   4.744
    3OL    H13S 3334   5.953   1.941   4.907
    3OL    C114 3335   5.814   2.019   4.764
    3OL    H14R 3336   5.878   2.105   4.743
    3OL    H14S 3337   5.744   2.049   4.842
    3OL    C115 3338   5.736   1.982   4.637
    3OL    H15R 3339   5.659   1.908   4.661
    3OL    H15S 3340   5.804   1.936   4.565
    3OL    C116 3341   5.670   2.104   4.570
    3OL    H16R 3342   5.623   2.071   4.478
    3OL    H16S 3343   5.747   2.177   4.543
    3OL    C117 3344   5.565   2.171   4.659
    3OL    H17R 3345   5.612   2.213   4.749
    3OL    H17S 3346   5.492   2.097   4.692
    3OL    C118 3347   5.493   2.284   4.584
    3OL    H18R 3348   5.563   2.363   4.556
    3OL    H18S 3349   5.415   2.327   4.647
    3OL    H18T 3350   5.446   2.245   4.493
    1PA    C116 3351   6.051   0.211   4.007
    1PA    H16R 3352   5.983   0.293   3.987
    1PA    H16S 3353   5.993   0.123   4.035
    1PA    H16T 3354   6.105   0.187   3.915
    1PA    C115 3355   6.151   0.248   4.117
    1PA    H15R 3356   6.216   0.163   4.138
    1PA    H15S 3357   6.214   0.329   4.081
    1PA    C114 3358   6.082   0.293   4.247
    1PA    H14R 3359   6.158   0.335   4.313
    1PA    H14S 3360   6.011   0.373   4.225
    1PA    C113 3361   6.010   0.178   4.318
    1PA    H13R 3362   5.931   0.141   4.252
    1PA    H13S 3363   6.079   0.095   4.336
    1PA    C112 3364   5.945   0.222   4.450
    1PA    H12R 3365   5.892   0.317   4.435
    1PA    H12S 3366   5.871   0.148   4.479
    1PA    C111 3367   6.048   0.235   4.563
    1PA    H11R 3368   6.099   0.140   4.575
    1PA    H11S 3369   6.123   0.310   4.538
    1PA    C110 3370   5.981   0.271   4.697
    1PA    H10R 3371   5.892   0.210   4.711
    1PA    H10S 3372   6.050   0.248   4.778
    1PA     C19 3373   5.944   0.420   4.705
    1PA     H9R 3374   6.034   0.481   4.694
    1PA     H9S 3375   5.876   0.446   4.624
    1PA     C18 3376   5.877   0.452   4.840
    1PA     H8R 3377   5.787   0.391   4.850
    1PA     H8S 3378   5.945   0.425   4.921
    1PA     C17 3379   5.840   0.600   4.849
    1PA     H7R 3380   5.929   0.662   4.842
    1PA     H7S 3381   5.776   0.626   4.764
    1PA     C16 3382   5.763   0.632   4.978
    1PA     H6R 3383   5.720   0.732   4.970
    1PA     H6S 3384   5.678   0.563   4.986
    1PA     C15 3385   5.846   0.625   5.107
    1PA     H5R 3386   5.780   0.645   5.191
    1PA     H5S 3387   5.885   0.524   5.120
    1PA     C14 3388   5.962   0.725   5.109
    1PA     H4R 3389   6.039   0.694   5.038
    1PA     H4S 3390   5.927   0.824   5.081
    1PA     C13 3391   6.024   0.732   5.250
    1PA     H3R 3392   5.950   0.774   5.319
    1PA     H3S 3393   6.050   0.632   5.285
    1PA     C12 3394   6.150   0.820   5.249
    1PA     H2R 3395   6.229   0.769   5.193
    1PA     H2S 3396   6.130   0.914   5.197
    2PC     C11 3397   6.201   0.853   5.387
    2PC     O12 3398   6.145   0.824   5.490
    2PC     O11 3399   6.318   0.919   5.382
    2PC      C1 3400   6.383   0.956   5.504
    2PC      HR 3401   0.018   1.024   5.482
    2PC      HS 3402   6.312   1.007   5.569
    2PC      C2 3403   6.439   0.831   5.574
    2PC      HX 3404   6.361   0.755   5.582
    2PC      C3 3405   0.039   0.862   5.717
    2PC      HA 3406   0.121   0.933   5.717
    2PC      HB 3407   6.403   0.903   5.774
    2PC     O31 3408   0.080   0.737   5.774
    2PC     P31 3409   0.101   0.720   5.932
    2PC     O32 3410   6.403   0.671   5.976
    2PC     C31 3411   6.307   0.770   6.018
    2PC     H1A 3412   6.340   0.817   6.110
    2PC     H1B 3413   6.298   0.847   5.941
    2PC     C32 3414   6.169   0.706   6.038
    2PC     H2A 3415   6.099   0.783   6.069
    2PC     H2B 3416   6.133   0.666   5.943
    2PC     N31 3417   6.155   0.595   6.138
    2PC     C33 3418   6.225   0.628   6.266
    2PC     H3A 3419   6.183   0.722   6.304
    2PC     H3B 3420   6.206   0.547   6.337
    2PC     H3C 3421   6.331   0.639   6.247
    2PC     C34 3422   6.009   0.574   6.166
    2PC     H4A 3423   5.968   0.667   6.206
    2PC     H4B 3424   5.959   0.547   6.073
    2PC     H4C 3425   6.000   0.493   6.239
    2PC     C35 3426   6.211   0.466   6.085
    2PC     H5A 3427   6.198   0.389   6.161
    2PC     H5B 3428   6.317   0.480   6.063
    2PC     H5C 3429   6.156   0.439   5.995
    2PC     O33 3430   0.205   0.616   5.956
    2PC     O34 3431   0.152   0.838   6.005
    2PC     O21 3432   0.104   0.782   5.500
    2PC     C21 3433   0.085   0.681   5.413
    2PC     O22 3434   6.432   0.614   5.406
    3OL     C12 3435   0.205   0.659   5.325
    3OL     H2R 3436   0.211   0.554   5.296
    3OL     H2S 3437   0.295   0.682   5.382
    3OL     C13 3438   0.198   0.749   5.201
    3OL     H3R 3439   0.295   0.747   5.150
    3OL     H3S 3440   0.179   0.851   5.232
    3OL     C14 3441   0.089   0.702   5.103
    3OL     H4R 3442   6.440   0.695   5.153
    3OL     H4S 3443   0.115   0.602   5.068
    3OL     C15 3444   0.078   0.795   4.981
    3OL     H5R 3445   0.031   0.740   4.900
    3OL     H5S 3446   0.178   0.824   4.947
    3OL     C16 3447   6.442   0.920   5.011
    3OL     H6R 3448   0.032   0.969   5.101
    3OL     H6S 3449   6.339   0.892   5.032
    3OL     C17 3450   6.446   1.023   4.897
    3OL     H7R 3451   0.101   1.054   4.880
    3OL     H7S 3452   6.391   1.112   4.928
    3OL     C18 3453   6.387   0.972   4.764
    3OL     H8R 3454   0.002   0.893   4.724
    3OL     H8S 3455   6.392   1.055   4.693
    3OL     C19 3456   6.243   0.928   4.777
    3OL     H9R 3457   6.177   1.002   4.822
    3OL    C110 3458   6.192   0.813   4.737
    3OL    H10R 3459   6.086   0.795   4.750
    3OL    C111 3460   6.269   0.699   4.675
    3OL    H11R 3461   6.223   0.604   4.705
    3OL    H11S 3462   6.372   0.696   4.713
    3OL    C112 3463   6.275   0.708   4.522
    3OL    H12R 3464   6.339   0.628   4.484
    3OL    H12S 3465   6.321   0.802   4.493
    3OL    C113 3466   6.136   0.696   4.457
    3OL    H13R 3467   6.070   0.773   4.496
    3OL    H13S 3468   6.092   0.599   4.481
    3OL    C114 3469   6.148   0.712   4.304
    3OL    H14R 3470   6.214   0.634   4.266
    3OL    H14S 3471   6.194   0.808   4.282
    3OL    C115 3472   6.011   0.702   4.236
    3OL    H15R 3473   5.944   0.776   4.280
    3OL    H15S 3474   5.967   0.604   4.254
    3OL    C116 3475   6.021   0.729   4.085
    3OL    H16R 3476   6.077   0.821   4.068
    3OL    H16S 3477   5.920   0.745   4.046
    3OL    C117 3478   6.086   0.614   4.008
    3OL    H17R 3479   6.026   0.523   4.022
    3OL    H17S 3480   6.186   0.594   4.046
    3OL    C118 3481   6.094   0.646   3.858
    3OL    H18R 3482   6.136   0.561   3.803
    3OL    H18S 3483   6.158   0.733   3.841
    3OL    H18T 3484   5.995   0.667   3.818
    1PA    C116 3485   5.612   4.197   3.888
    1PA    H16R 3486   5.698   4.252   3.849
    1PA    H16S 3487   5.638   4.158   3.987
    1PA    H16T 3488   5.593   4.112   3.822
    1PA    C115 3489   5.488   4.287   3.896
    1PA    H15R 3490   5.465   4.321   3.794
    1PA    H15S 3491   5.403   4.231   3.932
    1PA    C114 3492   5.513   4.410   3.984
    1PA    H14R 3493   5.612   4.451   3.964
    1PA    H14S 3494   5.441   4.488   3.957
    1PA    C113 3495   5.496   4.379   4.133
    1PA    H13R 3496   5.393   4.350   4.152
    1PA    H13S 3497   5.559   4.295   4.162
    1PA    C112 3498   5.530   4.501   4.220
    1PA    H12R 3499   5.491   4.592   4.173
    1PA    H12S 3500   5.479   4.491   4.316
    1PA    C111 3501   5.681   4.513   4.244
    1PA    H11R 3502   5.714   4.431   4.308
    1PA    H11S 3503   5.733   4.503   4.149
    1PA    C110 3504   5.722   4.647   4.306
    1PA    H10R 3505   5.831   4.651   4.312
    1PA    H10S 3506   5.692   4.727   4.238
    1PA     C19 3507   5.664   4.676   4.445
    1PA     H9R 3508   5.694   4.777   4.474
    1PA     H9S 3509   5.555   4.675   4.442
    1PA     C18 3510   5.714   4.577   4.551
    1PA     H8R 3511   5.669   4.480   4.534
    1PA     H8S 3512   5.823   4.565   4.541
    1PA     C17 3513   5.682   4.626   4.693
    1PA     H7R 3514   5.727   4.724   4.709
    1PA     H7S 3515   5.574   4.636   4.705
    1PA     C16 3516   5.736   4.527   4.797
    1PA     H6R 3517   5.686   4.431   4.785
    1PA     H6S 3518   5.843   4.511   4.780
    1PA     C15 3519   5.717   4.579   4.941
    1PA     H5R 3520   5.773   4.672   4.953
    1PA     H5S 3521   5.611   4.600   4.958
    1PA     C14 3522   5.766   4.474   5.042
    1PA     H4R 3523   5.704   4.385   5.034
    1PA     H4S 3524   5.868   4.446   5.018
    1PA     C13 3525   5.762   4.529   5.185
    1PA     H3R 3526   5.830   4.614   5.193
    1PA     H3S 3527   5.661   4.564   5.210
    1PA     C12 3528   5.806   4.421   5.286
    1PA     H2R 3529   5.736   4.337   5.283
    1PA     H2S 3530   5.905   4.383   5.259
    2PC     C11 3531   5.812   4.475   5.426
    2PC     O12 3532   5.915   4.504   5.483
    2PC     O11 3533   5.691   4.488   5.483
    2PC      C1 3534   5.681   4.544   5.615
    2PC      HR 3535   5.757   4.498   5.680
    2PC      HS 3536   5.700   4.651   5.612
    2PC      C2 3537   5.542   4.514   5.673
    2PC      HX 3538   5.539   4.544   5.778
    2PC      C3 3539   5.512   4.364   5.666
    2PC      HA 3540   5.494   4.333   5.562
    2PC      HB 3541   5.596   4.307   5.707
    2PC     O31 3542   5.395   4.338   5.745
    2PC     P31 3543   5.347   4.186   5.764
    2PC     O32 3544   5.188   4.211   5.767
    2PC     C31 3545   5.129   4.262   5.888
    2PC     H1A 3546   5.135   4.187   5.967
    2PC     H1B 3547   5.182   4.352   5.918
    2PC     C32 3548   4.983   4.297   5.856
    2PC     H2A 3549   4.942   4.359   5.936
    2PC     H2B 3550   4.981   4.355   5.764
    2PC     N31 3551   4.885   4.185   5.836
    2PC     C33 3552   4.767   4.238   5.761
    2PC     H3A 3553   4.727   4.323   5.815
    2PC     H3B 3554   4.799   4.267   5.661
    2PC     H3C 3555   4.691   4.159   5.754
    2PC     C34 3556   4.943   4.070   5.759
    2PC     H4A 3557   5.020   4.023   5.820
    2PC     H4B 3558   4.863   3.999   5.737
    2PC     H4C 3559   4.987   4.109   5.668
    2PC     C35 3560   4.837   4.133   5.968
    2PC     H5A 3561   4.923   4.090   6.021
    2PC     H5B 3562   4.762   4.055   5.951
    2PC     H5C 3563   4.795   4.215   6.026
    2PC     O33 3564   5.382   4.095   5.653
    2PC     O34 3565   5.399   4.123   5.888
    2PC     O21 3566   5.443   4.586   5.598
    2PC     C21 3567   5.421   4.715   5.628
    2PC     O22 3568   5.477   4.773   5.719
    3OL     C12 3569   5.319   4.782   5.540
    3OL     H2R 3570   5.319   4.889   5.562
    3OL     H2S 3571   5.220   4.743   5.566
    3OL     C13 3572   5.344   4.759   5.390
    3OL     H3R 3573   5.332   4.654   5.367
    3OL     H3S 3574   5.447   4.787   5.367
    3OL     C14 3575   5.247   4.843   5.305
    3OL     H4R 3576   5.265   4.949   5.324
    3OL     H4S 3577   5.145   4.822   5.337
    3OL     C15 3578   5.258   4.816   5.155
    3OL     H5R 3579   5.180   4.873   5.104
    3OL     H5S 3580   5.238   4.710   5.135
    3OL     C16 3581   5.394   4.856   5.097
    3OL     H6R 3582   5.473   4.800   5.148
    3OL     H6S 3583   5.412   4.962   5.116
    3OL     C17 3584   5.407   4.828   4.946
    3OL     H7R 3585   5.386   4.723   4.925
    3OL     H7S 3586   5.511   4.846   4.917
    3OL     C18 3587   5.316   4.918   4.861
    3OL     H8R 3588   5.322   5.020   4.900
    3OL     H8S 3589   5.212   4.886   4.871
    3OL     C19 3590   5.361   4.920   4.717
    3OL     H9R 3591   5.445   4.986   4.698
    3OL    C110 3592   5.308   4.853   4.616
    3OL    H10R 3593   5.353   4.865   4.518
    3OL    C111 3594   5.191   4.758   4.622
    3OL    H11R 3595   5.127   4.781   4.708
    3OL    H11S 3596   5.227   4.656   4.634
    3OL    C112 3597   5.105   4.764   4.495
    3OL    H12R 3598   5.068   4.866   4.480
    3OL    H12S 3599   5.018   4.700   4.508
    3OL    C113 3600   5.182   4.719   4.370
    3OL    H13R 3601   5.228   4.621   4.389
    3OL    H13S 3602   5.263   4.789   4.348
    3OL    C114 3603   5.089   4.710   4.248
    3OL    H14R 3604   5.048   4.809   4.227
    3OL    H14S 3605   5.006   4.643   4.271
    3OL    C115 3606   5.165   4.658   4.125
    3OL    H15R 3607   5.209   4.561   4.148
    3OL    H15S 3608   5.246   4.727   4.100
    3OL    C116 3609   5.070   4.643   4.005
    3OL    H16R 3610   5.023   4.739   3.982
    3OL    H16S 3611   4.990   4.574   4.032
    3OL    C117 3612   5.142   4.589   3.880
    3OL    H17R 3613   5.067   4.559   3.807
    3OL    H17S 3614   5.199   4.500   3.906
    3OL    C118 3615   5.234   4.693   3.816
    3OL    H18R 3616   5.280   4.651   3.725
    3OL    H18S 3617   5.314   4.722   3.884
    3OL    H18T 3618   5.178   4.782   3.787
    1PA    C116 3619   0.599   1.668   3.892
    1PA    H16R 3620   0.495   1.656   3.922
    1PA    H16S 3621   0.640   1.569   3.871
    1PA    H16T 3622   0.603   1.727   3.800
    1PA    C115 3623   0.679   1.737   4.003
    1PA    H15R 3624   0.635   1.835   4.024
    1PA    H15S 3625   0.671   1.677   4.095
    1PA    C114 3626   0.826   1.753   3.963
    1PA    H14R 3627   0.871   1.655   3.944
    1PA    H14S 3628   0.831   1.808   3.869
    1PA    C113 3629   0.908   1.828   4.069
    1PA    H13R 3630   1.005   1.852   4.025
    1PA    H13S 3631   0.859   1.922   4.093
    1PA    C112 3632   0.930   1.745   4.196
    1PA    H12R 3633   0.835   1.723   4.244
    1PA    H12S 3634   0.978   1.650   4.170
    1PA    C111 3635   1.019   1.823   4.294
    1PA    H11R 3636   1.109   1.855   4.241
    1PA    H11S 3637   0.967   1.914   4.326
    1PA    C110 3638   1.063   1.743   4.417
    1PA    H10R 3639   1.121   1.656   4.384
    1PA    H10S 3640   1.130   1.806   4.476
    1PA     C19 3641   0.947   1.697   4.506
    1PA     H9R 3642   0.886   1.783   4.532
    1PA     H9S 3643   0.883   1.627   4.451
    1PA     C18 3644   0.998   1.631   4.635
    1PA     H8R 3645   1.069   1.698   4.683
    1PA     H8S 3646   0.914   1.619   4.703
    1PA     C17 3647   1.062   1.494   4.609
    1PA     H7R 3648   0.988   1.428   4.563
    1PA     H7S 3649   1.146   1.503   4.539
    1PA     C16 3650   1.112   1.428   4.739
    1PA     H6R 3651   1.032   1.429   4.813
    1PA     H6S 3652   1.135   1.323   4.717
    1PA     C15 3653   1.239   1.496   4.793
    1PA     H5R 3654   1.315   1.496   4.715
    1PA     H5S 3655   1.218   1.600   4.818
    1PA     C14 3656   1.296   1.423   4.915
    1PA     H4R 3657   1.314   1.318   4.889
    1PA     H4S 3658   1.393   1.466   4.940
    1PA     C13 3659   1.206   1.428   5.040
    1PA     H3R 3660   1.110   1.381   5.020
    1PA     H3S 3661   1.255   1.370   5.119
    1PA     C12 3662   1.185   1.572   5.091
    1PA     H2R 3663   1.281   1.622   5.097
    1PA     H2S 3664   1.122   1.628   5.022
    2PC     C11 3665   1.120   1.575   5.227
    2PC     O12 3666   1.058   1.482   5.275
    2PC     O11 3667   1.143   1.690   5.292
    2PC      C1 3668   1.098   1.702   5.428
    2PC      HR 3669   0.991   1.682   5.435
    2PC      HS 3670   1.151   1.629   5.489
    2PC      C2 3671   1.132   1.843   5.479
    2PC      HX 3672   1.235   1.866   5.449
    2PC      C3 3673   1.124   1.852   5.632
    2PC      HA 3674   1.022   1.832   5.667
    2PC      HB 3675   1.191   1.779   5.678
    2PC     O31 3676   1.165   1.984   5.671
    2PC     P31 3677   1.135   2.034   5.820
    2PC     O32 3678   0.975   2.026   5.819
    2PC     C31 3679   0.898   2.145   5.795
    2PC     H1A 3680   0.912   2.215   5.877
    2PC     H1B 3681   0.930   2.191   5.701
    2PC     C32 3682   0.751   2.100   5.785
    2PC     H2A 3683   0.741   2.030   5.702
    2PC     H2B 3684   0.724   2.047   5.876
    2PC     N31 3685   0.646   2.205   5.765
    2PC     C33 3686   0.640   2.296   5.884
    2PC     H3A 3687   0.560   2.369   5.868
    2PC     H3B 3688   0.618   2.236   5.972
    2PC     H3C 3689   0.736   2.347   5.896
    2PC     C34 3690   0.671   2.286   5.641
    2PC     H4A 3691   0.588   2.355   5.627
    2PC     H4B 3692   0.764   2.342   5.653
    2PC     H4C 3693   0.678   2.218   5.556
    2PC     C35 3694   0.513   2.138   5.750
    2PC     H5A 3695   0.437   2.214   5.738
    2PC     H5B 3696   0.494   2.078   5.839
    2PC     H5C 3697   0.516   2.073   5.662
    2PC     O33 3698   1.193   1.951   5.927
    2PC     O34 3699   1.190   2.171   5.836
    2PC     O21 3700   1.047   1.941   5.416
    2PC     C21 3701   0.914   1.946   5.434
    2PC     O22 3702   0.850   1.870   5.504
    3OL     C12 3703   0.850   2.055   5.352
    3OL     H2R 3704   0.899   2.150   5.377
    3OL     H2S 3705   0.745   2.064   5.378
    3OL     C13 3706   0.866   2.028   5.202
    3OL     H3R 3707   0.971   2.011   5.178
    3OL     H3S 3708   0.835   2.118   5.147
    3OL     C14 3709   0.782   1.908   5.155
    3OL     H4R 3710   0.676   1.931   5.168
    3OL     H4S 3711   0.804   1.822   5.218
    3OL     C15 3712   0.810   1.869   5.010
    3OL     H5R 3713   0.751   1.780   4.985
    3OL     H5S 3714   0.915   1.843   4.999
    3OL     C16 3715   0.775   1.980   4.910
    3OL     H6R 3716   0.833   2.070   4.933
    3OL     H6S 3717   0.669   2.006   4.919
    3OL     C17 3718   0.805   1.936   4.766
    3OL     H7R 3719   0.744   1.849   4.741
    3OL     H7S 3720   0.910   1.906   4.759
    3OL     C18 3721   0.778   2.047   4.663
    3OL     H8R 3722   0.673   2.075   4.669
    3OL     H8S 3723   0.795   2.006   4.563
    3OL     C19 3724   0.864   2.168   4.688
    3OL     H9R 3725   0.846   2.218   4.783
    3OL    C110 3726   0.959   2.216   4.608
    3OL    H10R 3727   1.015   2.303   4.640
    3OL    C111 3728   0.997   2.161   4.473
    3OL    H11R 3729   0.910   2.119   4.422
    3OL    H11S 3730   1.070   2.081   4.487
    3OL    C112 3731   1.058   2.271   4.384
    3OL    H12R 3732   1.148   2.312   4.431
    3OL    H12S 3733   0.986   2.352   4.375
    3OL    C113 3734   1.092   2.218   4.244
    3OL    H13R 3735   1.107   2.304   4.178
    3OL    H13S 3736   1.007   2.162   4.205
    3OL    C114 3737   1.219   2.132   4.243
    3OL    H14R 3738   1.209   2.052   4.317
    3OL    H14S 3739   1.305   2.192   4.271
    3OL    C115 3740   1.242   2.066   4.106
    3OL    H15R 3741   1.148   2.024   4.069
    3OL    H15S 3742   1.312   1.983   4.119
    3OL    C116 3743   1.299   2.164   4.002
    3OL    H16R 3744   1.396   2.201   4.037
    3OL    H16S 3745   1.232   2.250   3.993
    3OL    C117 3746   1.315   2.099   3.864
    3OL    H17R 3747   1.338   2.178   3.791
    3OL    H17S 3748   1.222   2.053   3.833
    3OL    C118 3749   1.429   1.996   3.861
    3OL    H18R 3750   1.406   1.911   3.926
    3OL    H18S 3751   1.522   2.041   3.894
    3OL    H18T 3752   1.442   1.958   3.759
    1PA    C116 3753   1.833   2.115   3.902
    1PA    H16R 3754   1.736   2.107   3.854
    1PA    H16S 3755   1.839   2.041   3.982
    1PA    H16T 3756   1.910   2.093   3.828
    1PA    C115 3757   1.853   2.257   3.959
    1PA    H15R 3758   1.850   2.329   3.878
    1PA    H15S 3759   1.771   2.280   4.028
    1PA    C114 3760   1.987   2.267   4.034
    1PA    H14R 3761   1.986   2.197   4.118
    1PA    H14S 3762   2.068   2.238   3.967
    1PA    C113 3763   2.011   2.409   4.086
    1PA    H13R 3764   2.015   2.479   4.001
    1PA    H13S 3765   1.929   2.440   4.150
    1PA    C112 3766   2.143   2.416   4.165
    1PA    H12R 3767   2.137   2.347   4.249
    1PA    H12S 3768   2.225   2.383   4.101
    1PA    C111 3769   2.171   2.559   4.214
    1PA    H11R 3770   2.179   2.625   4.128
    1PA    H11S 3771   2.087   2.594   4.275
    1PA    C110 3772   2.301   2.568   4.295
    1PA    H10R 3773   2.383   2.522   4.239
    1PA    H10S 3774   2.326   2.674   4.308
    1PA     C19 3775   2.287   2.504   4.433
    1PA     H9R 3776   2.204   2.549   4.487
    1PA     H9S 3777   2.266   2.397   4.423
    1PA     C18 3778   2.416   2.521   4.516
    1PA     H8R 3779   2.498   2.470   4.466
    1PA     H8S 3780   2.441   2.627   4.523
    1PA     C17 3781   2.397   2.464   4.657
    1PA     H7R 3782   2.318   2.519   4.709
    1PA     H7S 3783   2.366   2.360   4.650
    1PA     C16 3784   2.527   2.474   4.738
    1PA     H6R 3785   2.605   2.413   4.691
    1PA     H6S 3786   2.562   2.578   4.736
    1PA     C15 3787   2.510   2.432   4.885
    1PA     H5R 3788   2.603   2.451   4.938
    1PA     H5S 3789   2.433   2.494   4.931
    1PA     C14 3790   2.472   2.284   4.901
    1PA     H4R 3791   2.375   2.265   4.855
    1PA     H4S 3792   2.546   2.221   4.850
    1PA     C13 3793   2.466   2.245   5.049
    1PA     H3R 3794   2.564   2.261   5.094
    1PA     H3S 3795   2.395   2.311   5.101
    1PA     C12 3796   2.423   2.099   5.068
    1PA     H2R 3797   2.323   2.085   5.028
    1PA     H2S 3798   2.490   2.033   5.014
    2PC     C11 3799   2.423   2.058   5.213
    2PC     O12 3800   2.480   2.120   5.301
    2PC     O11 3801   2.353   1.946   5.234
    2PC      C1 3802   2.346   1.892   5.367
    2PC      HR 3803   2.308   1.789   5.361
    2PC      HS 3804   2.446   1.888   5.410
    2PC      C2 3805   2.253   1.975   5.457
    2PC      HX 3806   2.271   2.082   5.443
    2PC      C3 3807   2.276   1.941   5.605
    2PC      HA 3808   2.376   1.975   5.634
    2PC      HB 3809   2.202   1.992   5.668
    2PC     O31 3810   2.267   1.799   5.624
    2PC     P31 3811   2.318   1.734   5.761
    2PC     O32 3812   2.180   1.720   5.842
    2PC     C31 3813   2.159   1.597   5.914
    2PC     H1A 3814   2.159   1.514   5.843
    2PC     H1B 3815   2.241   1.583   5.986
    2PC     C32 3816   2.025   1.607   5.987
    2PC     H2A 3817   2.030   1.686   6.061
    2PC     H2B 3818   1.947   1.633   5.915
    2PC     N31 3819   1.975   1.485   6.059
    2PC     C33 3820   1.843   1.518   6.122
    2PC     H3A 3821   1.804   1.428   6.170
    2PC     H3B 3822   1.858   1.597   6.195
    2PC     H3C 3823   1.775   1.552   6.044
    2PC     C34 3824   1.956   1.371   5.964
    2PC     H4A 3825   1.913   1.287   6.020
    2PC     H4B 3826   1.887   1.402   5.885
    2PC     H4C 3827   2.052   1.342   5.922
    2PC     C35 3828   2.070   1.443   6.167
    2PC     H5A 3829   2.166   1.415   6.122
    2PC     H5B 3830   2.027   1.357   6.219
    2PC     H5C 3831   2.084   1.526   6.236
    2PC     O33 3832   2.382   1.604   5.729
    2PC     O34 3833   2.417   1.815   5.836
    2PC     O21 3834   2.117   1.942   5.425
    2PC     C21 3835   2.054   2.007   5.326
    2PC     O22 3836   2.097   2.107   5.272
    3OL     C12 3837   1.923   1.941   5.290
    3OL     H2R 3838   1.844   1.990   5.348
    3OL     H2S 3839   1.926   1.837   5.321
    3OL     C13 3840   1.890   1.949   5.141
    3OL     H3R 3841   1.885   2.053   5.110
    3OL     H3S 3842   1.791   1.905   5.124
    3OL     C14 3843   1.992   1.872   5.055
    3OL     H4R 3844   2.000   1.770   5.092
    3OL     H4S 3845   2.090   1.918   5.064
    3OL     C15 3846   1.951   1.867   4.907
    3OL     H5R 3847   1.851   1.824   4.898
    3OL     H5S 3848   2.020   1.800   4.854
    3OL     C16 3849   1.955   2.005   4.840
    3OL     H6R 3850   2.053   2.050   4.854
    3OL     H6S 3851   1.881   2.071   4.887
    3OL     C17 3852   1.924   1.995   4.690
    3OL     H7R 3853   1.825   1.951   4.676
    3OL     H7S 3854   1.997   1.930   4.641
    3OL     C18 3855   1.928   2.134   4.625
    3OL     H8R 3856   2.028   2.176   4.637
    3OL     H8S 3857   1.859   2.200   4.678
    3OL     C19 3858   1.895   2.126   4.478
    3OL     H9R 3859   1.967   2.071   4.418
    3OL    C110 3860   1.789   2.178   4.418
    3OL    H10R 3861   1.777   2.165   4.311
    3OL    C111 3862   1.680   2.259   4.484
    3OL    H11R 3863   1.648   2.337   4.415
    3OL    H11S 3864   1.717   2.309   4.573
    3OL    C112 3865   1.559   2.170   4.520
    3OL    H12R 3866   1.589   2.097   4.595
    3OL    H12S 3867   1.529   2.115   4.430
    3OL    C113 3868   1.439   2.250   4.570
    3OL    H13R 3869   1.354   2.182   4.580
    3OL    H13S 3870   1.411   2.325   4.495
    3OL    C114 3871   1.466   2.320   4.704
    3OL    H14R 3872   1.548   2.390   4.692
    3OL    H14S 3873   1.497   2.246   4.779
    3OL    C115 3874   1.344   2.399   4.754
    3OL    H15R 3875   1.302   2.456   4.671
    3OL    H15S 3876   1.377   2.471   4.829
    3OL    C116 3877   1.234   2.311   4.815
    3OL    H16R 3878   1.212   2.226   4.750
    3OL    H16S 3879   1.142   2.370   4.823
    3OL    C117 3880   1.271   2.261   4.956
    3OL    H17R 3881   1.294   2.346   5.020
    3OL    H17S 3882   1.361   2.199   4.950
    3OL    C118 3883   1.157   2.180   5.018
    3OL    H18R 3884   1.067   2.241   5.026
    3OL    H18S 3885   1.185   2.145   5.117
    3OL    H18T 3886   1.134   2.092   4.956
    1PA    C116 3887   5.998   6.082   3.373
    1PA    H16R 3888   5.914   6.137   3.332
    1PA    H16S 3889   6.022   6.000   3.306
    1PA    H16T 3890   6.084   6.149   3.378
    1PA    C115 3891   5.964   6.029   3.513
    1PA    H15R 3892   5.937   6.113   3.577
    1PA    H15S 3893   5.876   5.963   3.506
    1PA    C114 3894   6.081   5.951   3.574
    1PA    H14R 3895   6.107   5.869   3.506
    1PA    H14S 3896   6.169   6.016   3.582
    1PA    C113 3897   6.047   5.890   3.711
    1PA    H13R 3898   5.957   5.830   3.703
    1PA    H13S 3899   6.129   5.824   3.740
    1PA    C112 3900   6.029   5.997   3.820
    1PA    H12R 3901   6.120   6.057   3.828
    1PA    H12S 3902   5.947   6.064   3.793
    1PA    C111 3903   5.999   5.932   3.956
    1PA    H11R 3904   5.911   5.868   3.946
    1PA    H11S 3905   6.083   5.870   3.986
    1PA    C110 3906   5.971   6.040   4.061
    1PA    H10R 3907   6.059   6.105   4.074
    1PA    H10S 3908   5.890   6.104   4.025
    1PA     C19 3909   5.929   5.981   4.197
    1PA     H9R 3910   5.852   6.047   4.238
    1PA     H9S 3911   5.881   5.884   4.184
    1PA     C18 3912   6.043   5.972   4.299
    1PA     H8R 3913   6.103   6.064   4.296
    1PA     H8S 3914   5.997   5.967   4.398
    1PA     C17 3915   6.132   5.850   4.279
    1PA     H7R 3916   6.072   5.759   4.279
    1PA     H7S 3917   6.181   5.856   4.181
    1PA     C16 3918   6.242   5.839   4.385
    1PA     H6R 3919   6.309   5.758   4.356
    1PA     H6S 3920   6.300   5.931   4.388
    1PA     C15 3921   6.187   5.808   4.525
    1PA     H5R 3922   6.124   5.891   4.559
    1PA     H5S 3923   6.125   5.718   4.522
    1PA     C14 3924   6.301   5.787   4.626
    1PA     H4R 3925   6.362   5.703   4.591
    1PA     H4S 3926   6.365   5.875   4.630
    1PA     C13 3927   6.247   5.753   4.766
    1PA     H3R 3928   6.167   5.680   4.760
    1PA     H3S 3929   6.329   5.707   4.822
    1PA     C12 3930   6.199   5.878   4.842
    1PA     H2R 3931   6.271   5.959   4.832
    1PA     H2S 3932   6.104   5.913   4.799
    2PC     C11 3933   6.180   5.849   4.989
    2PC     O12 3934   6.257   5.782   5.054
    2PC     O11 3935   6.068   5.906   5.038
    2PC      C1 3936   6.045   5.904   5.180
    2PC      HR 3937   5.944   5.940   5.200
    2PC      HS 3938   6.052   5.801   5.217
    2PC      C2 3939   6.147   5.993   5.251
    2PC      HX 3940   6.246   5.946   5.244
    2PC      C3 3941   6.116   6.010   5.400
    2PC      HA 3942   6.018   6.057   5.416
    2PC      HB 3943   6.115   5.911   5.447
    2PC     O31 3944   6.219   6.090   5.460
    2PC     P31 3945   6.252   6.077   5.616
    2PC     O32 3946   6.114   6.111   5.690
    2PC     C31 3947   6.051   6.007   5.767
    2PC     H1A 3948   6.023   5.926   5.699
    2PC     H1B 3949   6.122   5.969   5.841
    2PC     C32 3950   5.925   6.060   5.836
    2PC     H2A 3951   5.858   6.102   5.761
    2PC     H2B 3952   5.873   5.976   5.883
    2PC     N31 3953   5.939   6.164   5.943
    2PC     C33 3954   6.026   6.115   6.054
    2PC     H3A 3955   5.986   6.021   6.091
    2PC     H3B 3956   6.127   6.101   6.017
    2PC     H3C 3957   6.025   6.190   6.133
    2PC     C34 3958   5.994   6.293   5.889
    2PC     H4A 3959   5.995   6.366   5.969
    2PC     H4B 3960   6.095   6.275   5.851
    2PC     H4C 3961   5.929   6.326   5.808
    2PC     C35 3962   5.802   6.192   5.998
    2PC     H5A 3963   5.812   6.266   6.077
    2PC     H5B 3964   5.762   6.098   6.038
    2PC     H5C 3965   5.739   6.229   5.917
    2PC     O33 3966   6.308   5.945   5.652
    2PC     O34 3967   6.359   6.171   5.657
    2PC     O21 3968   6.156   6.121   5.184
    2PC     C21 3969   6.052   6.203   5.170
    2PC     O22 3970   5.940   6.185   5.215
    3OL     C12 3971   6.089   6.327   5.093
    3OL     H2R 3972   6.194   6.350   5.113
    3OL     H2S 3973   6.030   6.411   5.130
    3OL     C13 3974   6.068   6.314   4.941
    3OL     H3R 3975   6.125   6.229   4.904
    3OL     H3S 3976   6.109   6.404   4.894
    3OL     C14 3977   5.920   6.300   4.902
    3OL     H4R 3978   5.861   6.370   4.962
    3OL     H4S 3979   5.885   6.199   4.926
    3OL     C15 3980   5.897   6.332   4.754
    3OL     H5R 3981   5.937   6.431   4.732
    3OL     H5S 3982   5.789   6.336   4.736
    3OL     C16 3983   5.959   6.229   4.659
    3OL     H6R 3984   5.909   6.132   4.669
    3OL     H6S 3985   6.064   6.214   4.686
    3OL     C17 3986   5.955   6.276   4.513
    3OL     H7R 3987   6.020   6.211   4.454
    3OL     H7S 3988   5.997   6.377   4.506
    3OL     C18 3989   5.815   6.273   4.451
    3OL     H8R 3990   5.748   6.339   4.508
    3OL     H8S 3991   5.775   6.172   4.458
    3OL     C19 3992   5.820   6.315   4.307
    3OL     H9R 3993   5.919   6.319   4.263
    3OL    C110 3994   5.716   6.350   4.232
    3OL    H10R 3995   5.732   6.381   4.129
    3OL    C111 3996   5.572   6.349   4.276
    3OL    H11R 3997   5.562   6.307   4.377
    3OL    H11S 3998   5.514   6.285   4.210
    3OL    C112 3999   5.508   0.041   4.274
    3OL    H12R 4000   5.406   0.033   4.313
    3OL    H12S 4001   5.501   0.076   4.171
    3OL    C113 4002   5.587   0.142   4.358
    3OL    H13R 4003   5.682   0.165   4.308
    3OL    H13S 4004   5.612   0.097   4.454
    3OL    C114 4005   5.509   0.272   4.384
    3OL    H14R 4006   5.567   0.334   4.453
    3OL    H14S 4007   5.416   0.247   4.435
    3OL    C115 4008   5.476   0.354   4.259
    3OL    H15R 4009   5.416   0.440   4.290
    3OL    H15S 4010   5.415   0.295   4.191
    3OL    C116 4011   5.602   0.405   4.187
    3OL    H16R 4012   5.655   0.322   4.141
    3OL    H16S 4013   5.669   0.451   4.260
    3OL    C117 4014   5.569   0.510   4.079
    3OL    H17R 4015   5.662   0.548   4.038
    3OL    H17S 4016   5.517   0.594   4.125
    3OL    C118 4017   5.484   0.453   3.965
    3OL    H18R 4018   5.386   0.421   4.001
    3OL    H18S 4019   5.533   0.368   3.918
    3OL    H18T 4020   5.468   0.530   3.889
    1PA    C116 4021   2.481   3.863   3.868
    1PA    H16R 4022   2.424   3.780   3.826
    1PA    H16S 4023   2.564   3.886   3.801
    1PA    H16T 4024   2.416   3.951   3.873
    1PA    C115 4025   2.533   3.828   4.008
    1PA    H15R 4026   2.590   3.912   4.048
    1PA    H15S 4027   2.448   3.811   4.074
    1PA    C114 4028   2.623   3.703   4.002
    1PA    H14R 4029   2.568   3.619   3.961
    1PA    H14S 4030   2.705   3.724   3.934
    1PA    C113 4031   2.682   3.665   4.139
    1PA    H13R 4032   2.781   3.624   4.121
    1PA    H13S 4033   2.696   3.754   4.201
    1PA    C112 4034   2.601   3.558   4.214
    1PA    H12R 4035   2.574   3.477   4.146
    1PA    H12S 4036   2.666   3.515   4.290
    1PA    C111 4037   2.476   3.613   4.284
    1PA    H11R 4038   2.504   3.694   4.351
    1PA    H11S 4039   2.407   3.653   4.210
    1PA    C110 4040   2.406   3.502   4.363
    1PA    H10R 4041   2.375   3.423   4.295
    1PA    H10S 4042   2.476   3.459   4.435
    1PA     C19 4043   2.283   3.557   4.437
    1PA     H9R 4044   2.314   3.636   4.506
    1PA     H9S 4045   2.216   3.603   4.364
    1PA     C18 4046   2.204   3.449   4.512
    1PA     H8R 4047   2.109   3.491   4.545
    1PA     H8S 4048   2.180   3.369   4.442
    1PA     C17 4049   2.278   3.388   4.632
    1PA     H7R 4050   2.223   3.300   4.666
    1PA     H7S 4051   2.376   3.352   4.600
    1PA     C16 4052   2.296   3.485   4.750
    1PA     H6R 4053   2.373   3.444   4.817
    1PA     H6S 4054   2.336   3.580   4.713
    1PA     C15 4055   2.168   3.511   4.831
    1PA     H5R 4056   2.181   3.601   4.890
    1PA     H5S 4057   2.085   3.530   4.763
    1PA     C14 4058   2.132   3.394   4.924
    1PA     H4R 4059   2.027   3.405   4.953
    1PA     H4S 4060   2.142   3.300   4.871
    1PA     C13 4061   2.217   3.392   5.052
    1PA     H3R 4062   2.323   3.390   5.026
    1PA     H3S 4063   2.199   3.483   5.110
    1PA     C12 4064   2.185   3.268   5.137
    1PA     H2R 4065   2.078   3.266   5.160
    1PA     H2S 4066   2.208   3.177   5.080
    2PC     C11 4067   2.262   3.267   5.266
    2PC     O12 4068   2.245   3.348   5.355
    2PC     O11 4069   2.349   3.165   5.273
    2PC      C1 4070   2.422   3.145   5.396
    2PC      HR 4071   2.495   3.225   5.411
    2PC      HS 4072   2.352   3.146   5.480
    2PC      C2 4073   2.492   3.008   5.390
    2PC      HX 4074   2.417   2.933   5.365
    2PC      C3 4075   2.554   2.972   5.526
    2PC      HA 4076   2.476   2.970   5.602
    2PC      HB 4077   2.600   2.873   5.521
    2PC     O31 4078   2.653   3.071   5.561
    2PC     P31 4079   2.718   3.068   5.707
    2PC     O32 4080   2.871   3.078   5.662
    2PC     C31 4081   2.974   3.019   5.744
    2PC     H1A 4082   3.070   3.064   5.717
    2PC     H1B 4083   2.954   3.042   5.849
    2PC     C32 4084   2.980   2.867   5.724
    2PC     H2A 4085   3.056   2.827   5.791
    2PC     H2B 4086   2.884   2.823   5.751
    2PC     N31 4087   3.014   2.814   5.588
    2PC     C33 4088   3.028   2.665   5.599
    2PC     H3A 4089   3.046   2.624   5.499
    2PC     H3B 4090   3.111   2.643   5.665
    2PC     H3C 4091   2.935   2.625   5.639
    2PC     C34 4092   2.906   2.841   5.487
    2PC     H4A 4093   2.814   2.794   5.522
    2PC     H4B 4094   2.893   2.949   5.478
    2PC     H4C 4095   2.937   2.798   5.392
    2PC     C35 4096   3.143   2.870   5.538
    2PC     H5A 4097   3.221   2.848   5.610
    2PC     H5B 4098   3.132   2.978   5.524
    2PC     H5C 4099   3.166   2.822   5.442
    2PC     O33 4100   2.671   3.184   5.786
    2PC     O34 4101   2.686   2.945   5.782
    2PC     O21 4102   2.593   3.011   5.289
    2PC     C21 4103   2.643   2.895   5.244
    2PC     O22 4104   2.606   2.786   5.283
    3OL     C12 4105   2.750   2.912   5.139
    3OL     H2R 4106   2.833   2.845   5.162
    3OL     H2S 4107   2.788   3.015   5.142
    3OL     C13 4108   2.694   2.880   5.000
    3OL     H3R 4109   2.610   2.947   4.979
    3OL     H3S 4110   2.655   2.778   4.999
    3OL     C14 4111   2.800   2.896   4.890
    3OL     H4R 4112   2.882   2.826   4.909
    3OL     H4S 4113   2.841   2.997   4.893
    3OL     C15 4114   2.738   2.869   4.752
    3OL     H5R 4115   2.655   2.937   4.737
    3OL     H5S 4116   2.699   2.767   4.750
    3OL     C16 4117   2.841   2.887   4.640
    3OL     H6R 4118   2.922   2.815   4.650
    3OL     H6S 4119   2.885   2.987   4.648
    3OL     C17 4120   2.776   2.875   4.501
    3OL     H7R 4121   2.840   2.922   4.427
    3OL     H7S 4122   2.681   2.929   4.500
    3OL     C18 4123   2.752   2.729   4.459
    3OL     H8R 4124   2.696   2.677   4.537
    3OL     H8S 4125   2.848   2.678   4.450
    3OL     C19 4126   2.674   2.723   4.330
    3OL     H9R 4127   2.566   2.729   4.342
    3OL    C110 4128   2.725   2.706   4.209
    3OL    H10R 4129   2.657   2.701   4.124
    3OL    C111 4130   2.871   2.700   4.174
    3OL    H11R 4131   2.932   2.739   4.256
    3OL    H11S 4132   2.891   2.764   4.087
    3OL    C112 4133   2.916   2.557   4.143
    3OL    H12R 4134   2.892   2.494   4.229
    3OL    H12S 4135   3.025   2.554   4.131
    3OL    C113 4136   2.849   2.497   4.018
    3OL    H13R 4137   2.743   2.521   4.016
    3OL    H13S 4138   2.857   2.388   4.025
    3OL    C114 4139   2.918   2.543   3.889
    3OL    H14R 4140   3.024   2.520   3.894
    3OL    H14S 4141   2.908   2.652   3.879
    3OL    C115 4142   2.856   2.476   3.766
    3OL    H15R 4143   2.750   2.502   3.759
    3OL    H15S 4144   2.862   2.367   3.777
    3OL    C116 4145   2.928   2.519   3.638
    3OL    H16R 4146   3.033   2.489   3.642
    3OL    H16S 4147   2.926   2.628   3.631
    3OL    C117 4148   2.863   2.461   3.511
    3OL    H17R 4149   2.906   2.511   3.424
    3OL    H17S 4150   2.756   2.483   3.511
    3OL    C118 4151   2.885   2.310   3.497
    3OL    H18R 4152   2.840   2.274   3.404
    3OL    H18S 4153   2.839   2.255   3.579
    3OL    H18T 4154   2.992   2.286   3.494
    1PA    C116 4155   3.512   0.490   3.401
    1PA    H16R 4156   3.590   0.433   3.350
    1PA    H16S 4157   3.503   0.587   3.352
    1PA    H16T 4158   3.418   0.436   3.391
    1PA    C115 4159   3.547   0.508   3.550
    1PA    H15R 4160   3.641   0.562   3.558
    1PA    H15S 4161   3.469   0.569   3.597
    1PA    C114 4162   3.557   0.373   3.621
    1PA    H14R 4163   3.464   0.317   3.608
    1PA    H14S 4164   3.638   0.314   3.576
    1PA    C113 4165   3.584   0.391   3.771
    1PA    H13R 4166   3.674   0.452   3.786
    1PA    H13S 4167   3.500   0.445   3.816
    1PA    C112 4168   3.602   0.256   3.842
    1PA    H12R 4169   3.520   0.190   3.814
    1PA    H12S 4170   3.695   0.210   3.809
    1PA    C111 4171   3.602   0.273   3.994
    1PA    H11R 4172   3.680   0.344   4.023
    1PA    H11S 4173   3.506   0.315   4.025
    1PA    C110 4174   3.625   0.139   4.066
    1PA    H10R 4175   3.552   0.066   4.031
    1PA    H10S 4176   3.724   0.102   4.042
    1PA     C19 4177   3.611   0.157   4.218
    1PA     H9R 4178   3.679   0.236   4.251
    1PA     H9S 4179   3.509   0.190   4.241
    1PA     C18 4180   3.642   0.028   4.295
    1PA     H8R 4181   3.580   6.394   4.257
    1PA     H8S 4182   3.746   0.001   4.278
    1PA     C17 4183   3.617   0.047   4.445
    1PA     H7R 4184   3.669   0.137   4.479
    1PA     H7S 4185   3.510   0.063   4.462
    1PA     C16 4186   3.666   6.375   4.527
    1PA     H6R 4187   3.614   6.284   4.494
    1PA     H6S 4188   3.773   6.360   4.509
    1PA     C15 4189   3.641   6.398   4.676
    1PA     H5R 4190   3.685   0.046   4.706
    1PA     H5S 4191   3.534   6.403   4.695
    1PA     C14 4192   3.703   6.285   4.760
    1PA     H4R 4193   3.658   6.190   4.730
    1PA     H4S 4194   3.810   6.278   4.740
    1PA     C13 4195   3.681   6.304   4.911
    1PA     H3R 4196   3.574   6.317   4.932
    1PA     H3S 4197   3.713   6.213   4.962
    1PA     C12 4198   3.760   6.423   4.967
    1PA     H2R 4199   3.865   6.414   4.940
    1PA     H2S 4200   3.722   0.069   4.927
    2PC     C11 4201   3.749   6.427   5.118
    2PC     O12 4202   3.822   6.362   5.190
    2PC     O11 4203   3.653   0.062   5.160
    2PC      C1 4204   3.612   0.057   5.298
    2PC      HR 4205   3.698   0.041   5.363
    2PC      HS 4206   3.566   0.153   5.324
    2PC      C2 4207   3.509   6.392   5.315
    2PC      HX 4208   3.435   6.402   5.235
    2PC      C3 4209   3.438   6.399   5.451
    2PC      HA 4210   3.382   0.045   5.458
    2PC      HB 4211   3.369   6.315   5.460
    2PC     O31 4212   3.535   6.393   5.557
    2PC     P31 4213   3.482   6.399   5.708
    2PC     O32 4214   3.595   0.044   5.773
    2PC     C31 4215   3.685   6.435   5.871
    2PC     H1A 4216   3.731   0.069   5.927
    2PC     H1B 4217   3.628   6.374   5.941
    2PC     C32 4218   3.793   6.350   5.802
    2PC     H2A 4219   3.851   6.300   5.880
    2PC     H2B 4220   3.746   6.274   5.740
    2PC     N31 4221   3.893   6.421   5.717
    2PC     C33 4222   3.958   0.086   5.790
    2PC     H3A 4223   3.883   0.163   5.811
    2PC     H3B 4224   4.000   0.048   5.884
    2PC     H3C 4225   4.037   0.128   5.728
    2PC     C34 4226   4.001   6.324   5.677
    2PC     H4A 4227   4.047   6.286   5.768
    2PC     H4B 4228   3.955   6.243   5.621
    2PC     H4C 4229   4.075   6.376   5.616
    2PC     C35 4230   3.830   0.026   5.592
    2PC     H5A 4231   3.752   0.097   5.620
    2PC     H5B 4232   3.786   6.390   5.538
    2PC     H5C 4233   3.906   0.075   5.531
    2PC     O33 4234   3.353   0.022   5.721
    2PC     O34 4235   3.470   6.265   5.771
    2PC     O21 4236   3.576   6.265   5.304
    2PC     C21 4237   3.505   6.157   5.268
    2PC     O22 4238   3.389   6.162   5.232
    3OL     C12 4239   3.587   6.031   5.271
    3OL     H2R 4240   3.562   5.974   5.360
    3OL     H2S 4241   3.693   6.059   5.279
    3OL     C13 4242   3.566   5.946   5.145
    3OL     H3R 4243   3.583   6.009   5.057
    3OL     H3S 4244   3.464   5.910   5.141
    3OL     C14 4245   3.664   5.828   5.142
    3OL     H4R 4246   3.649   5.765   5.230
    3OL     H4S 4247   3.767   5.865   5.146
    3OL     C15 4248   3.645   5.744   5.015
    3OL     H5R 4249   3.653   5.808   4.926
    3OL     H5S 4250   3.545   5.700   5.015
    3OL     C16 4251   3.750   5.632   5.006
    3OL     H6R 4252   3.747   5.572   5.097
    3OL     H6S 4253   3.850   5.677   5.000
    3OL     C17 4254   3.726   5.543   4.884
    3OL     H7R 4255   3.725   5.602   4.793
    3OL     H7S 4256   3.627   5.496   4.894
    3OL     C18 4257   3.831   5.432   4.873
    3OL     H8R 4258   3.797   5.359   4.799
    3OL     H8S 4259   3.839   5.379   4.968
    3OL     C19 4260   3.965   5.485   4.828
    3OL     H9R 4261   3.971   5.510   4.722
    3OL    C110 4262   4.073   5.499   4.904
    3OL    H10R 4263   4.164   5.537   4.859
    3OL    C111 4264   4.081   5.470   5.051
    3OL    H11R 4265   4.029   5.377   5.077
    3OL    H11S 4266   4.033   5.551   5.106
    3OL    C112 4267   4.227   5.461   5.099
    3OL    H12R 4268   4.227   5.462   5.208
    3OL    H12S 4269   4.281   5.550   5.066
    3OL    C113 4270   4.297   5.334   5.051
    3OL    H13R 4271   4.288   5.324   4.943
    3OL    H13S 4272   4.245   5.248   5.095
    3OL    C114 4273   4.444   5.329   5.094
    3OL    H14R 4274   4.468   5.227   5.124
    3OL    H14S 4275   4.460   5.392   5.182
    3OL    C115 4276   4.543   5.369   4.983
    3OL    H15R 4277   4.537   5.296   4.903
    3OL    H15S 4278   4.644   5.365   5.024
    3OL    C116 4279   4.518   5.509   4.925
    3OL    H16R 4280   4.515   5.584   5.005
    3OL    H16S 4281   4.420   5.510   4.876
    3OL    C117 4282   4.624   5.547   4.820
    3OL    H17R 4283   4.581   5.619   4.750
    3OL    H17S 4284   4.652   5.459   4.762
    3OL    C118 4285   4.748   5.610   4.885
    3OL    H18R 4286   4.721   5.702   4.938
    3OL    H18S 4287   4.822   5.634   4.808
    3OL    H18T 4288   4.794   5.541   4.956
    1PA    C116 4289   6.406   5.968   3.920
    1PA    H16R 4290   6.334   5.888   3.900
    1PA    H16S 4291   6.429   6.019   3.826
    1PA    H16T 4292   6.359   6.041   3.988
    1PA    C115 4293   0.086   5.912   3.983
    1PA    H15R 4294   0.133   5.841   3.913
    1PA    H15S 4295   0.157   5.993   4.000
    1PA    C114 4296   0.056   5.841   4.115
    1PA    H14R 4297   0.011   5.912   4.184
    1PA    H14S 4298   6.432   5.761   4.098
    1PA    C113 4299   0.184   5.783   4.178
    1PA    H13R 4300   0.230   5.710   4.111
    1PA    H13S 4301   0.255   5.864   4.193
    1PA    C112 4302   0.155   5.718   4.314
    1PA    H12R 4303   0.249   5.709   4.370
    1PA    H12S 4304   0.091   5.784   4.372
    1PA    C111 4305   0.089   5.580   4.303
    1PA    H11R 4306   0.007   5.573   4.374
    1PA    H11S 4307   0.045   5.568   4.204
    1PA    C110 4308   0.186   5.463   4.327
    1PA    H10R 4309   0.139   5.371   4.292
    1PA    H10S 4310   0.277   5.477   4.270
    1PA     C19 4311   0.217   5.447   4.477
    1PA     H9R 4312   0.274   5.534   4.511
    1PA     H9S 4313   0.124   5.444   4.534
    1PA     C18 4314   0.298   5.320   4.505
    1PA     H8R 4315   0.242   5.233   4.471
    1PA     H8S 4316   0.392   5.322   4.449
    1PA     C17 4317   0.327   5.307   4.655
    1PA     H7R 4318   0.382   5.394   4.689
    1PA     H7S 4319   0.232   5.304   4.710
    1PA     C16 4320   0.408   5.180   4.687
    1PA     H6R 4321   0.351   5.092   4.657
    1PA     H6S 4322   0.500   5.181   4.629
    1PA     C15 4323   0.441   5.172   4.836
    1PA     H5R 4324   0.496   5.262   4.865
    1PA     H5S 4325   0.348   5.171   4.894
    1PA     C14 4326   0.523   5.047   4.869
    1PA     H4R 4327   0.465   4.959   4.842
    1PA     H4S 4328   0.614   5.045   4.808
    1PA     C13 4329   0.560   5.038   5.018
    1PA     H3R 4330   0.471   5.054   5.079
    1PA     H3S 4331   0.597   4.937   5.038
    1PA     C12 4332   0.669   5.139   5.056
    1PA     H2R 4333   0.755   5.128   4.989
    1PA     H2S 4334   0.631   5.241   5.044
    2PC     C11 4335   0.716   5.124   5.198
    2PC     O12 4336   0.834   5.125   5.228
    2PC     O11 4337   0.616   5.114   5.286
    2PC      C1 4338   0.643   5.112   5.428
    2PC      HR 4339   0.550   5.087   5.481
    2PC      HS 4340   0.717   5.036   5.451
    2PC      C2 4341   0.692   5.250   5.475
    2PC      HX 4342   0.786   5.274   5.425
    2PC      C3 4343   0.716   5.252   5.627
    2PC      HA 4344   0.792   5.178   5.653
    2PC      HB 4345   0.752   5.350   5.658
    2PC     O31 4346   0.594   5.221   5.697
    2PC     P31 4347   0.593   5.238   5.856
    2PC     O32 4348   0.544   5.390   5.862
    2PC     C31 4349   0.499   5.441   5.989
    2PC     H1A 4350   0.401   5.399   6.012
    2PC     H1B 4351   0.569   5.412   6.068
    2PC     C32 4352   0.490   5.594   5.984
    2PC     H2A 4353   0.413   5.624   5.913
    2PC     H2B 4354   0.461   5.630   6.082
    2PC     N31 4355   0.613   5.671   5.946
    2PC     C33 4356   0.734   5.622   6.020
    2PC     H3A 4357   0.715   5.628   6.127
    2PC     H3B 4358   0.753   5.518   5.990
    2PC     H3C 4359   0.819   5.684   5.993
    2PC     C34 4360   0.639   5.664   5.799
    2PC     H4A 4361   0.661   5.560   5.772
    2PC     H4B 4362   0.550   5.699   5.746
    2PC     H4C 4363   0.725   5.727   5.775
    2PC     C35 4364   0.592   5.815   5.981
    2PC     H5A 4365   0.682   5.872   5.955
    2PC     H5B 4366   0.573   5.823   6.088
    2PC     H5C 4367   0.506   5.853   5.925
    2PC     O33 4368   0.499   5.145   5.923
    2PC     O34 4369   0.727   5.222   5.919
    2PC     O21 4370   0.592   5.347   5.438
    2PC     C21 4371   0.619   5.478   5.447
    2PC     O22 4372   0.720   5.525   5.496
    3OL     C12 4373   0.512   5.563   5.384
    3OL     H2R 4374   0.477   5.636   5.457
    3OL     H2S 4375   0.427   5.501   5.356
    3OL     C13 4376   0.566   5.636   5.259
    3OL     H3R 4377   0.648   5.702   5.289
    3OL     H3S 4378   0.487   5.698   5.218
    3OL     C14 4379   0.615   5.537   5.153
    3OL     H4R 4380   0.532   5.474   5.120
    3OL     H4S 4381   0.692   5.472   5.194
    3OL     C15 4382   0.674   5.612   5.032
    3OL     H5R 4383   0.757   5.674   5.065
    3OL     H5S 4384   0.598   5.678   4.989
    3OL     C16 4385   0.723   5.513   4.925
    3OL     H6R 4386   0.639   5.455   4.885
    3OL     H6S 4387   0.791   5.441   4.972
    3OL     C17 4388   0.799   5.583   4.812
    3OL     H7R 4389   0.848   5.508   4.751
    3OL     H7S 4390   0.877   5.646   4.855
    3OL     C18 4391   0.710   5.669   4.721
    3OL     H8R 4392   0.774   5.724   4.651
    3OL     H8S 4393   0.659   5.745   4.781
    3OL     C19 4394   0.608   5.586   4.647
    3OL     H9R 4395   0.527   5.549   4.709
    3OL    C110 4396   0.610   5.557   4.518
    3OL    H10R 4397   0.531   5.496   4.477
    3OL    C111 4398   0.715   5.603   4.420
    3OL    H11R 4399   0.804   5.542   4.432
    3OL    H11S 4400   0.743   5.707   4.438
    3OL    C112 4401   0.667   5.587   4.274
    3OL    H12R 4402   0.641   5.482   4.259
    3OL    H12S 4403   0.749   5.610   4.206
    3OL    C113 4404   0.544   5.673   4.240
    3OL    H13R 4405   0.470   5.663   4.320
    3OL    H13S 4406   0.498   5.634   4.149
    3OL    C114 4407   0.578   5.821   4.220
    3OL    H14R 4408   0.642   5.857   4.300
    3OL    H14S 4409   0.485   5.878   4.225
    3OL    C115 4410   0.644   5.847   4.084
    3OL    H15R 4411   0.579   5.810   4.004
    3OL    H15S 4412   0.739   5.793   4.078
    3OL    C116 4413   0.669   5.997   4.063
    3OL    H16R 4414   0.735   6.036   4.141
    3OL    H16S 4415   0.574   6.050   4.071
    3OL    C117 4416   0.730   6.027   3.925
    3OL    H17R 4417   0.722   6.134   3.905
    3OL    H17S 4418   0.673   5.976   3.847
    3OL    C118 4419   0.878   5.987   3.916
    3OL    H18R 4420   0.936   6.039   3.992
    3OL    H18S 4421   0.918   6.014   3.818
    3OL    H18T 4422   0.891   5.880   3.930
    1PA    C116 4423   3.321   4.845   3.996
    1PA    H16R 4424   3.317   4.913   3.911
    1PA    H16S 4425   3.426   4.828   4.022
    1PA    H16T 4426   3.272   4.894   4.080
    1PA    C115 4427   3.252   4.713   3.961
    1PA    H15R 4428   3.146   4.731   3.940
    1PA    H15S 4429   3.296   4.673   3.870
    1PA    C114 4430   3.265   4.608   4.073
    1PA    H14R 4431   3.228   4.513   4.036
    1PA    H14S 4432   3.370   4.594   4.098
    1PA    C113 4433   3.185   4.647   4.198
    1PA    H13R 4434   3.228   4.737   4.243
    1PA    H13S 4435   3.082   4.668   4.171
    1PA    C112 4436   3.188   4.534   4.302
    1PA    H12R 4437   3.144   4.444   4.258
    1PA    H12S 4438   3.291   4.510   4.329
    1PA    C111 4439   3.109   4.574   4.428
    1PA    H11R 4440   3.159   4.661   4.473
    1PA    H11S 4441   3.008   4.605   4.401
    1PA    C110 4442   3.103   4.462   4.532
    1PA    H10R 4443   3.202   4.419   4.546
    1PA    H10S 4444   3.072   4.505   4.627
    1PA     C19 4445   3.002   4.353   4.492
    1PA     H9R 4446   2.904   4.397   4.476
    1PA     H9S 4447   3.034   4.308   4.398
    1PA     C18 4448   2.992   4.241   4.597
    1PA     H8R 4449   2.945   4.155   4.552
    1PA     H8S 4450   3.093   4.212   4.628
    1PA     C17 4451   2.910   4.284   4.720
    1PA     H7R 4452   2.960   4.367   4.771
    1PA     H7S 4453   2.812   4.319   4.688
    1PA     C16 4454   2.893   4.167   4.819
    1PA     H6R 4455   2.843   4.084   4.770
    1PA     H6S 4456   2.992   4.132   4.850
    1PA     C15 4457   2.813   4.212   4.942
    1PA     H5R 4458   2.864   4.297   4.987
    1PA     H5S 4459   2.714   4.245   4.910
    1PA     C14 4460   2.799   4.099   5.045
    1PA     H4R 4461   2.736   4.019   5.006
    1PA     H4S 4462   2.898   4.056   5.063
    1PA     C13 4463   2.744   4.150   5.179
    1PA     H3R 4464   2.767   4.077   5.257
    1PA     H3S 4465   2.796   4.242   5.205
    1PA     C12 4466   2.593   4.173   5.176
    1PA     H2R 4467   2.567   4.238   5.092
    1PA     H2S 4468   2.541   4.078   5.163
    2PC     C11 4469   2.541   4.240   5.302
    2PC     O12 4470   2.430   4.219   5.346
    2PC     O11 4471   2.627   4.329   5.354
    2PC      C1 4472   2.579   4.419   5.455
    2PC      HR 4473   2.511   4.492   5.410
    2PC      HS 4474   2.526   4.363   5.532
    2PC      C2 4475   2.699   4.492   5.519
    2PC      HX 4476   2.767   4.417   5.558
    2PC      C3 4477   2.652   4.585   5.632
    2PC      HA 4478   2.596   4.528   5.707
    2PC      HB 4479   2.739   4.629   5.681
    2PC     O31 4480   2.568   4.689   5.579
    2PC     P31 4481   2.545   4.822   5.665
    2PC     O32 4482   2.434   4.778   5.773
    2PC     C31 4483   2.307   4.845   5.769
    2PC     H1A 4484   2.322   4.954   5.772
    2PC     H1B 4485   2.256   4.819   5.676
    2PC     C32 4486   2.222   4.800   5.889
    2PC     H2A 4487   2.120   4.839   5.875
    2PC     H2B 4488   2.217   4.691   5.891
    2PC     N31 4489   2.262   4.844   6.026
    2PC     C33 4490   2.156   4.800   6.123
    2PC     H3A 4491   2.148   4.692   6.119
    2PC     H3B 4492   2.185   4.832   6.223
    2PC     H3C 4493   2.061   4.846   6.094
    2PC     C34 4494   2.391   4.780   6.068
    2PC     H4A 4495   2.378   4.672   6.064
    2PC     H4B 4496   2.470   4.811   5.998
    2PC     H4C 4497   2.415   4.812   6.169
    2PC     C35 4498   2.275   4.993   6.035
    2PC     H5A 4499   2.357   5.025   5.970
    2PC     H5B 4500   2.297   5.020   6.139
    2PC     H5C 4501   2.182   5.039   6.003
    2PC     O33 4502   2.668   4.865   5.735
    2PC     O34 4503   2.500   4.940   5.587
    2PC     O21 4504   2.764   4.569   5.416
    2PC     C21 4505   2.880   4.631   5.439
    2PC     O22 4506   2.943   4.625   5.543
    3OL     C12 4507   2.928   4.710   5.320
    3OL     H2R 4508   2.883   4.669   5.229
    3OL     H2S 4509   3.036   4.698   5.312
    3OL     C13 4510   2.894   4.859   5.332
    3OL     H3R 4511   2.950   4.914   5.256
    3OL     H3S 4512   2.928   4.896   5.429
    3OL     C14 4513   2.744   4.887   5.316
    3OL     H4R 4514   2.687   4.822   5.383
    3OL     H4S 4515   2.713   4.861   5.214
    3OL     C15 4516   2.705   5.032   5.345
    3OL     H5R 4517   2.717   5.050   5.453
    3OL     H5S 4518   2.599   5.045   5.323
    3OL     C16 4519   2.787   5.138   5.271
    3OL     H6R 4520   2.890   5.135   5.305
    3OL     H6S 4521   2.748   5.237   5.297
    3OL     C17 4522   2.783   5.122   5.118
    3OL     H7R 4523   2.680   5.129   5.082
    3OL     H7S 4524   2.821   5.023   5.091
    3OL     C18 4525   2.870   5.228   5.050
    3OL     H8R 4526   2.967   5.234   5.099
    3OL     H8S 4527   2.823   5.326   5.061
    3OL     C19 4528   2.887   5.197   4.903
    3OL     H9R 4529   2.805   5.231   4.839
    3OL    C110 4530   2.994   5.142   4.848
    3OL    H10R 4531   2.997   5.128   4.741
    3OL    C111 4532   3.112   5.087   4.924
    3OL    H11R 4533   3.085   5.059   5.025
    3OL    H11S 4534   3.188   5.165   4.932
    3OL    C112 4535   3.176   4.967   4.852
    3OL    H12R 4536   3.264   4.934   4.907
    3OL    H12S 4537   3.211   5.000   4.754
    3OL    C113 4538   3.079   4.849   4.832
    3OL    H13R 4539   3.123   4.780   4.760
    3OL    H13S 4540   2.985   4.885   4.789
    3OL    C114 4541   3.054   4.774   4.963
    3OL    H14R 4542   3.017   4.842   5.040
    3OL    H14S 4543   3.149   4.733   4.999
    3OL    C115 4544   2.954   4.659   4.946
    3OL    H15R 4545   2.963   4.592   5.032
    3OL    H15S 4546   2.979   4.600   4.857
    3OL    C116 4547   2.810   4.710   4.936
    3OL    H16R 4548   2.798   4.768   4.845
    3OL    H16S 4549   2.788   4.776   5.020
    3OL    C117 4550   2.707   4.596   4.933
    3OL    H17R 4551   2.734   4.521   4.858
    3OL    H17S 4552   2.610   4.637   4.904
    3OL    C118 4553   2.690   4.529   5.070
    3OL    H18R 4554   2.666   4.602   5.147
    3OL    H18S 4555   2.781   4.476   5.100
    3OL    H18T 4556   2.608   4.456   5.067
    1PA    C116 4557   4.384   5.371   4.315
    1PA    H16R 4558   4.378   5.348   4.208
    1PA    H16S 4559   4.472   5.433   4.332
    1PA    H16T 4560   4.295   5.428   4.343
    1PA    C115 4561   4.393   5.241   4.396
    1PA    H15R 4562   4.307   5.177   4.375
    1PA    H15S 4563   4.482   5.186   4.363
    1PA    C114 4564   4.405   5.268   4.547
    1PA    H14R 4565   4.444   5.179   4.596
    1PA    H14S 4566   4.478   5.347   4.563
    1PA    C113 4567   4.273   5.309   4.614
    1PA    H13R 4568   4.293   5.332   4.718
    1PA    H13S 4569   4.236   5.401   4.568
    1PA    C112 4570   4.161   5.203   4.607
    1PA    H12R 4571   4.078   5.237   4.669
    1PA    H12S 4572   4.124   5.198   4.505
    1PA    C111 4573   4.203   5.062   4.651
    1PA    H11R 4574   4.118   4.995   4.638
    1PA    H11S 4575   4.283   5.025   4.586
    1PA    C110 4576   4.248   5.056   4.798
    1PA    H10R 4577   4.329   5.127   4.815
    1PA    H10S 4578   4.166   5.083   4.863
    1PA     C19 4579   4.299   4.915   4.833
    1PA     H9R 4580   4.220   4.842   4.814
    1PA     H9S 4581   4.383   4.890   4.768
    1PA     C18 4582   4.343   4.908   4.980
    1PA     H8R 4583   4.409   4.992   5.002
    1PA     H8S 4584   4.256   4.917   5.045
    1PA     C17 4585   4.418   4.778   5.011
    1PA     H7R 4586   4.503   4.768   4.943
    1PA     H7S 4587   4.459   4.785   5.112
    1PA     C16 4588   4.330   4.652   5.003
    1PA     H6R 4589   4.248   4.660   5.074
    1PA     H6S 4590   4.287   4.644   4.903
    1PA     C15 4591   4.414   4.527   5.032
    1PA     H5R 4592   4.495   4.522   4.959
    1PA     H5S 4593   4.460   4.535   5.131
    1PA     C14 4594   4.333   4.397   5.023
    1PA     H4R 4595   4.269   4.399   4.934
    1PA     H4S 4596   4.403   4.314   5.010
    1PA     C13 4597   4.249   4.372   5.149
    1PA     H3R 4598   4.314   4.377   5.236
    1PA     H3S 4599   4.173   4.449   5.159
    1PA     C12 4600   4.183   4.234   5.143
    1PA     H2R 4601   4.114   4.228   5.058
    1PA     H2S 4602   4.259   4.157   5.129
    2PC     C11 4603   4.107   4.200   5.269
    2PC     O12 4604   4.096   4.275   5.364
    2PC     O11 4605   4.058   4.075   5.266
    2PC      C1 4606   3.977   4.027   5.375
    2PC      HR 4607   3.956   3.920   5.361
    2PC      HS 4608   4.034   4.038   5.468
    2PC      C2 4609   3.844   4.102   5.384
    2PC      HX 4610   3.860   4.209   5.369
    2PC      C3 4611   3.781   4.085   5.523
    2PC      HA 4612   3.841   4.137   5.598
    2PC      HB 4613   3.681   4.129   5.522
    2PC     O31 4614   3.772   3.946   5.560
    2PC     P31 4615   3.705   3.914   5.702
    2PC     O32 4616   3.685   3.755   5.692
    2PC     C31 4617   3.740   3.669   5.793
    2PC     H1A 4618   3.730   3.716   5.892
    2PC     H1B 4619   3.682   3.576   5.793
    2PC     C32 4620   3.887   3.639   5.761
    2PC     H2A 4621   3.891   3.589   5.664
    2PC     H2B 4622   3.943   3.732   5.754
    2PC     N31 4623   3.961   3.550   5.856
    2PC     C33 4624   4.096   3.520   5.798
    2PC     H3A 4625   4.081   3.469   5.703
    2PC     H3B 4626   4.151   3.613   5.784
    2PC     H3C 4627   4.150   3.455   5.867
    2PC     C34 4628   3.981   3.619   5.988
    2PC     H4A 4629   4.043   3.554   6.051
    2PC     H4B 4630   4.032   3.714   5.971
    2PC     H4C 4631   3.884   3.635   6.035
    2PC     C35 4632   3.891   3.420   5.877
    2PC     H5A 4633   3.953   3.356   5.940
    2PC     H5B 4634   3.875   3.373   5.780
    2PC     H5C 4635   3.795   3.438   5.926
    2PC     O33 4636   3.789   3.957   5.816
    2PC     O34 4637   3.574   3.980   5.722
    2PC     O21 4638   3.751   4.055   5.285
    2PC     C21 4639   3.758   4.106   5.161
    2PC     O22 4640   3.842   4.184   5.123
    3OL     C12 4641   3.642   4.061   5.075
    3OL     H2R 4642   3.555   4.046   5.138
    3OL     H2S 4643   3.668   3.966   5.029
    3OL     C13 4644   3.611   4.167   4.968
    3OL     H3R 4645   3.696   4.179   4.900
    3OL     H3S 4646   3.596   4.263   5.018
    3OL     C14 4647   3.484   4.134   4.888
    3OL     H4R 4648   3.453   4.224   4.834
    3OL     H4S 4649   3.403   4.108   4.956
    3OL     C15 4650   3.507   4.022   4.786
    3OL     H5R 4651   3.536   3.930   4.837
    3OL     H5S 4652   3.589   4.050   4.720
    3OL     C16 4653   3.383   3.996   4.700
    3OL     H6R 4654   3.413   3.936   4.614
    3OL     H6S 4655   3.343   4.091   4.662
    3OL     C17 4656   3.273   3.921   4.778
    3OL     H7R 4657   3.247   3.978   4.867
    3OL     H7S 4658   3.313   3.825   4.811
    3OL     C18 4659   3.146   3.899   4.696
    3OL     H8R 4660   3.105   3.997   4.668
    3OL     H8S 4661   3.071   3.851   4.760
    3OL     C19 4662   3.166   3.818   4.570
    3OL     H9R 4663   3.269   3.797   4.544
    3OL    C110 4664   3.069   3.772   4.493
    3OL    H10R 4665   3.094   3.715   4.405
    3OL    C111 4666   2.921   3.791   4.518
    3OL    H11R 4667   2.876   3.846   4.435
    3OL    H11S 4668   2.904   3.850   4.608
    3OL    C112 4669   2.850   3.655   4.530
    3OL    H12R 4670   2.914   3.584   4.584
    3OL    H12S 4671   2.836   3.614   4.430
    3OL    C113 4672   2.715   3.664   4.602
    3OL    H13R 4673   2.660   3.571   4.585
    3OL    H13S 4674   2.656   3.746   4.560
    3OL    C114 4675   2.732   3.684   4.753
    3OL    H14R 4676   2.780   3.780   4.773
    3OL    H14S 4677   2.798   3.606   4.793
    3OL    C115 4678   2.598   3.678   4.827
    3OL    H15R 4679   2.553   3.579   4.810
    3OL    H15S 4680   2.530   3.753   4.785
    3OL    C116 4681   2.615   3.701   4.977
    3OL    H16R 4682   2.659   3.800   4.995
    3OL    H16S 4683   2.686   3.628   5.016
    3OL    C117 4684   2.484   3.688   5.055
    3OL    H17R 4685   2.505   3.689   5.162
    3OL    H17S 4686   2.437   3.592   5.032
    3OL    C118 4687   2.385   3.802   5.024
    3OL    H18R 4688   2.431   3.899   5.045
    3OL    H18S 4689   2.296   3.792   5.086
    3OL    H18T 4690   2.354   3.800   4.919
    1PA    C116 4691   5.656   1.689   3.666
    1PA    H16R 4692   5.698   1.672   3.567
    1PA    H16S 4693   5.619   1.792   3.671
    1PA    H16T 4694   5.572   1.621   3.680
    1PA    C115 4695   5.763   1.665   3.774
    1PA    H15R 4696   5.801   1.563   3.764
    1PA    H15S 4697   5.846   1.734   3.758
    1PA    C114 4698   5.705   1.687   3.915
    1PA    H14R 4699   5.663   1.788   3.920
    1PA    H14S 4700   5.622   1.617   3.932
    1PA    C113 4701   5.809   1.671   4.026
    1PA    H13R 4702   5.893   1.738   4.008
    1PA    H13S 4703   5.762   1.702   4.120
    1PA    C112 4704   5.858   1.527   4.040
    1PA    H12R 4705   5.774   1.459   4.056
    1PA    H12S 4706   5.906   1.496   3.947
    1PA    C111 4707   5.961   1.509   4.153
    1PA    H11R 4708   5.997   1.406   4.152
    1PA    H11S 4709   6.048   1.572   4.132
    1PA    C110 4710   5.909   1.541   4.294
    1PA    H10R 4711   5.989   1.521   4.365
    1PA    H10S 4712   5.887   1.648   4.301
    1PA     C19 4713   5.786   1.460   4.333
    1PA     H9R 4714   5.702   1.485   4.267
    1PA     H9S 4715   5.806   1.353   4.321
    1PA     C18 4716   5.744   1.489   4.478
    1PA     H8R 4717   5.825   1.459   4.545
    1PA     H8S 4718   5.729   1.597   4.490
    1PA     C17 4719   5.615   1.415   4.515
    1PA     H7R 4720   5.535   1.446   4.447
    1PA     H7S 4721   5.630   1.308   4.503
    1PA     C16 4722   5.574   1.447   4.660
    1PA     H6R 4723   5.650   1.409   4.728
    1PA     H6S 4724   5.569   1.555   4.673
    1PA     C15 4725   5.438   1.384   4.693
    1PA     H5R 4726   5.363   1.423   4.624
    1PA     H5S 4727   5.443   1.276   4.680
    1PA     C14 4728   5.397   1.418   4.837
    1PA     H4R 4729   5.465   1.371   4.908
    1PA     H4S 4730   5.405   1.526   4.851
    1PA     C13 4731   5.251   1.378   4.866
    1PA     H3R 4732   5.215   1.433   4.954
    1PA     H3S 4733   5.188   1.408   4.782
    1PA     C12 4734   5.234   1.228   4.891
    1PA     H2R 4735   5.128   1.203   4.882
    1PA     H2S 4736   5.287   1.170   4.816
    2PC     C11 4737   5.279   1.183   5.028
    2PC     O12 4738   5.335   1.255   5.109
    2PC     O11 4739   5.249   1.054   5.050
    2PC      C1 4740   5.268   0.998   5.181
    2PC      HR 4741   5.258   0.889   5.174
    2PC      HS 4742   5.368   1.020   5.217
    2PC      C2 4743   5.162   1.050   5.279
    2PC      HX 4744   5.157   1.159   5.277
    2PC      C3 4745   5.196   1.007   5.422
    2PC      HA 4746   5.195   0.898   5.432
    2PC      HB 4747   5.296   1.043   5.446
    2PC     O31 4748   5.102   1.065   5.514
    2PC     P31 4749   5.139   1.072   5.670
    2PC     O32 4750   5.203   1.219   5.670
    2PC     C31 4751   5.157   1.313   5.769
    2PC     H1A 4752   5.049   1.328   5.760
    2PC     H1B 4753   5.180   1.273   5.868
    2PC     C32 4754   5.232   1.446   5.752
    2PC     H2A 4755   5.208   1.511   5.837
    2PC     H2B 4756   5.339   1.426   5.753
    2PC     N31 4757   5.207   1.528   5.629
    2PC     C33 4758   5.248   1.455   5.505
    2PC     H3A 4759   5.185   1.366   5.495
    2PC     H3B 4760   5.234   1.521   5.419
    2PC     H3C 4761   5.353   1.427   5.514
    2PC     C34 4762   5.064   1.569   5.617
    2PC     H4A 4763   5.034   1.622   5.708
    2PC     H4B 4764   5.054   1.635   5.530
    2PC     H4C 4765   5.003   1.480   5.603
    2PC     C35 4766   5.292   1.652   5.639
    2PC     H5A 4767   5.396   1.622   5.649
    2PC     H5B 4768   5.259   1.709   5.726
    2PC     H5C 4769   5.278   1.710   5.547
    2PC     O33 4770   5.016   1.062   5.753
    2PC     O34 4771   5.233   0.969   5.718
    2PC     O21 4772   5.036   0.992   5.241
    2PC     C21 4773   4.965   1.054   5.145
    2PC     O22 4774   4.985   1.168   5.108
    3OL     C12 4775   4.856   0.968   5.087
    3OL     H2R 4776   4.763   1.026   5.088
    3OL     H2S 4777   4.840   0.880   5.150
    3OL     C13 4778   4.890   0.926   4.944
    3OL     H3R 4779   4.973   0.854   4.945
    3OL     H3S 4780   4.923   1.013   4.887
    3OL     C14 4781   4.768   0.864   4.874
    3OL     H4R 4782   4.687   0.937   4.879
    3OL     H4S 4783   4.735   0.775   4.928
    3OL     C15 4784   4.794   0.831   4.727
    3OL     H5R 4785   4.855   0.909   4.681
    3OL     H5S 4786   4.698   0.831   4.674
    3OL     C16 4787   4.859   0.694   4.708
    3OL     H6R 4788   4.796   0.617   4.753
    3OL     H6S 4789   4.956   0.692   4.758
    3OL     C17 4790   4.878   0.663   4.558
    3OL     H7R 4791   4.946   0.737   4.514
    3OL     H7S 4792   4.782   0.673   4.507
    3OL     C18 4793   4.933   0.522   4.533
    3OL     H8R 4794   4.937   0.507   4.425
    3OL     H8S 4795   4.862   0.449   4.573
    3OL     C19 4796   5.071   0.503   4.590
    3OL     H9R 4797   5.143   0.578   4.562
    3OL    C110 4798   5.108   0.406   4.672
    3OL    H10R 4799   5.210   0.403   4.708
    3OL    C111 4800   5.022   0.291   4.718
    3OL    H11R 4801   5.085   0.204   4.738
    3OL    H11S 4802   4.952   0.261   4.639
    3OL    C112 4803   4.942   0.326   4.845
    3OL    H12R 4804   4.877   0.242   4.871
    3OL    H12S 4805   4.876   0.410   4.822
    3OL    C113 4806   5.030   0.363   4.964
    3OL    H13R 4807   4.971   0.422   5.034
    3OL    H13S 4808   5.114   0.426   4.932
    3OL    C114 4809   5.082   0.239   5.038
    3OL    H14R 4810   5.140   0.176   4.970
    3OL    H14S 4811   4.998   0.180   5.074
    3OL    C115 4812   5.171   0.280   5.157
    3OL    H15R 4813   5.118   0.350   5.222
    3OL    H15S 4814   5.259   0.333   5.118
    3OL    C116 4815   5.219   0.160   5.239
    3OL    H16R 4816   5.305   0.189   5.298
    3OL    H16S 4817   5.251   0.079   5.172
    3OL    C117 4818   5.110   0.108   5.334
    3OL    H17R 4819   5.021   0.079   5.277
    3OL    H17S 4820   5.081   0.188   5.402
    3OL    C118 4821   5.160   6.436   5.414
    3OL    H18R 4822   5.084   6.405   5.487
    3OL    H18S 4823   5.251   0.014   5.469
    3OL    H18T 4824   5.182   6.352   5.348
    1PA    C116 4825   3.073   3.097   3.761
    1PA    H16R 4826   3.151   3.022   3.771
    1PA    H16S 4827   3.009   3.069   3.677
    1PA    H16T 4828   3.011   3.097   3.851
    1PA    C115 4829   3.134   3.236   3.735
    1PA    H15R 4830   3.190   3.232   3.642
    1PA    H15S 4831   3.055   3.310   3.723
    1PA    C114 4832   3.229   3.280   3.848
    1PA    H14R 4833   3.306   3.204   3.863
    1PA    H14S 4834   3.280   3.372   3.817
    1PA    C113 4835   3.155   3.306   3.980
    1PA    H13R 4836   3.076   3.380   3.964
    1PA    H13S 4837   3.108   3.214   4.014
    1PA    C112 4838   3.251   3.357   4.088
    1PA    H12R 4839   3.335   3.288   4.097
    1PA    H12S 4840   3.292   3.454   4.059
    1PA    C111 4841   3.180   3.368   4.223
    1PA    H11R 4842   3.099   3.441   4.216
    1PA    H11S 4843   3.135   3.271   4.248
    1PA    C110 4844   3.277   3.408   4.335
    1PA    H10R 4845   3.361   3.339   4.336
    1PA    H10S 4846   3.316   3.508   4.315
    1PA     C19 4847   3.207   3.406   4.471
    1PA     H9R 4848   3.126   3.478   4.473
    1PA     H9S 4849   3.164   3.307   4.487
    1PA     C18 4850   3.307   3.436   4.584
    1PA     H8R 4851   3.392   3.368   4.574
    1PA     H8S 4852   3.346   3.538   4.573
    1PA     C17 4853   3.246   3.417   4.723
    1PA     H7R 4854   3.175   3.333   4.721
    1PA     H7S 4855   3.326   3.392   4.793
    1PA     C16 4856   3.175   3.543   4.774
    1PA     H6R 4857   3.246   3.626   4.773
    1PA     H6S 4858   3.092   3.569   4.708
    1PA     C15 4859   3.123   3.523   4.918
    1PA     H5R 4860   3.045   3.447   4.919
    1PA     H5S 4861   3.204   3.489   4.981
    1PA     C14 4862   3.067   3.655   4.973
    1PA     H4R 4863   3.141   3.734   4.957
    1PA     H4S 4864   2.977   3.683   4.918
    1PA     C13 4865   3.036   3.646   5.123
    1PA     H3R 4866   2.962   3.568   5.142
    1PA     H3S 4867   3.128   3.619   5.176
    1PA     C12 4868   2.985   3.782   5.174
    1PA     H2R 4869   3.048   3.862   5.137
    1PA     H2S 4870   2.884   3.799   5.136
    2PC     C11 4871   2.983   3.792   5.324
    2PC     O12 4872   3.048   3.721   5.398
    2PC     O11 4873   2.898   3.886   5.367
    2PC      C1 4874   2.889   3.917   5.507
    2PC      HR 4875   2.803   3.983   5.524
    2PC      HS 4876   2.872   3.825   5.564
    2PC      C2 4877   3.016   3.987   5.558
    2PC      HX 4878   3.105   3.931   5.530
    2PC      C3 4879   3.014   4.003   5.710
    2PC      HA 4880   3.021   3.905   5.758
    2PC      HB 4881   3.098   4.065   5.743
    2PC     O31 4882   2.890   4.065   5.751
    2PC     P31 4883   2.866   4.095   5.907
    2PC     O32 4884   2.947   4.231   5.929
    2PC     C31 4885   2.889   4.353   5.880
    2PC     H1A 4886   2.887   4.349   5.771
    2PC     H1B 4887   2.787   4.363   5.917
    2PC     C32 4888   2.973   4.473   5.927
    2PC     H2A 4889   3.073   4.464   5.885
    2PC     H2B 4890   2.927   4.564   5.888
    2PC     N31 4891   2.989   4.494   6.074
    2PC     C33 4892   3.044   4.632   6.096
    2PC     H3A 4893   3.058   4.647   6.203
    2PC     H3B 4894   3.139   4.640   6.043
    2PC     H3C 4895   2.972   4.704   6.057
    2PC     C34 4896   2.859   4.483   6.148
    2PC     H4A 4897   2.822   4.381   6.137
    2PC     H4B 4898   2.877   4.505   6.253
    2PC     H4C 4899   2.789   4.555   6.105
    2PC     C35 4900   3.087   4.396   6.132
    2PC     H5A 4901   3.045   4.295   6.123
    2PC     H5B 4902   3.102   4.420   6.238
    2PC     H5C 4903   3.180   4.403   6.077
    2PC     O33 4904   2.723   4.110   5.940
    2PC     O34 4905   2.913   3.987   5.997
    2PC     O21 4906   3.022   4.120   5.502
    2PC     C21 4907   3.079   4.139   5.382
    2PC     O22 4908   3.133   4.053   5.316
    3OL     C12 4909   3.061   4.283   5.338
    3OL     H2R 4910   3.131   4.346   5.392
    3OL     H2S 4911   2.961   4.314   5.368
    3OL     C13 4912   3.074   4.304   5.186
    3OL     H3R 4913   2.994   4.370   5.154
    3OL     H3S 4914   3.061   4.209   5.133
    3OL     C14 4915   3.208   4.368   5.148
    3OL     H4R 4916   3.291   4.305   5.181
    3OL     H4S 4917   3.216   4.464   5.199
    3OL     C15 4918   3.216   4.391   4.996
    3OL     H5R 4919   3.124   4.439   4.962
    3OL     H5S 4920   3.223   4.294   4.945
    3OL     C16 4921   3.336   4.479   4.959
    3OL     H6R 4922   3.429   4.429   4.988
    3OL     H6S 4923   3.331   4.573   5.014
    3OL     C17 4924   3.337   4.508   4.809
    3OL     H7R 4925   3.244   4.557   4.781
    3OL     H7S 4926   3.343   4.414   4.753
    3OL     C18 4927   3.456   4.598   4.769
    3OL     H8R 4928   3.549   4.553   4.805
    3OL     H8S 4929   3.446   4.694   4.819
    3OL     C19 4930   3.458   4.619   4.620
    3OL     H9R 4931   3.388   4.695   4.584
    3OL    C110 4932   3.534   4.555   4.532
    3OL    H10R 4933   3.525   4.581   4.427
    3OL    C111 4934   3.635   4.448   4.563
    3OL    H11R 4935   3.659   4.446   4.670
    3OL    H11S 4936   3.728   4.470   4.511
    3OL    C112 4937   3.585   4.309   4.522
    3OL    H12R 4938   3.489   4.290   4.569
    3OL    H12S 4939   3.655   4.234   4.560
    3OL    C113 4940   3.573   4.294   4.370
    3OL    H13R 4941   3.672   4.310   4.325
    3OL    H13S 4942   3.507   4.370   4.328
    3OL    C114 4943   3.524   4.154   4.330
    3OL    H14R 4944   3.571   4.079   4.395
    3OL    H14S 4945   3.556   4.134   4.228
    3OL    C115 4946   3.371   4.143   4.339
    3OL    H15R 4947   3.325   4.207   4.263
    3OL    H15S 4948   3.337   4.178   4.436
    3OL    C116 4949   3.323   3.998   4.321
    3OL    H16R 4950   3.217   3.994   4.345
    3OL    H16S 4951   3.375   3.934   4.392
    3OL    C117 4952   3.344   3.944   4.179
    3OL    H17R 4953   3.449   3.949   4.152
    3OL    H17S 4954   3.287   4.005   4.108
    3OL    C118 4955   3.298   3.798   4.170
    3OL    H18R 4956   3.355   3.735   4.238
    3OL    H18S 4957   3.312   3.760   4.068
    3OL    H18T 4958   3.192   3.789   4.195
    1PA    C116 4959   5.623   5.882   4.003
    1PA    H16R 4960   5.688   5.961   4.042
    1PA    H16S 4961   5.656   5.857   3.902
    1PA    H16T 4962   5.633   5.794   4.066
    1PA    C115 4963   5.477   5.931   4.001
    1PA    H15R 4964   5.471   6.019   3.936
    1PA    H15S 4965   5.413   5.855   3.957
    1PA    C114 4966   5.427   5.970   4.141
    1PA    H14R 4967   5.502   6.032   4.191
    1PA    H14S 4968   5.337   6.030   4.130
    1PA    C113 4969   5.394   5.846   4.225
    1PA    H13R 4970   5.321   5.786   4.171
    1PA    H13S 4971   5.482   5.784   4.240
    1PA    C112 4972   5.333   5.884   4.361
    1PA    H12R 4973   5.258   5.962   4.347
    1PA    H12S 4974   5.282   5.797   4.401
    1PA    C111 4975   5.439   5.930   4.462
    1PA    H11R 4976   5.509   5.847   4.479
    1PA    H11S 4977   5.497   6.014   4.423
    1PA    C110 4978   5.374   5.968   4.596
    1PA    H10R 4979   5.293   5.898   4.618
    1PA    H10S 4980   5.447   5.958   4.677
    1PA     C19 4981   5.319   6.111   4.596
    1PA     H9R 4982   5.283   6.137   4.496
    1PA     H9S 4983   5.233   6.116   4.664
    1PA     C18 4984   5.423   6.213   4.643
    1PA     H8R 4985   5.453   6.190   4.745
    1PA     H8S 4986   5.513   6.206   4.580
    1PA     C17 4987   5.366   6.355   4.636
    1PA     H7R 4988   5.343   6.378   4.532
    1PA     H7S 4989   5.272   6.361   4.692
    1PA     C16 4990   5.465   0.012   4.689
    1PA     H6R 4991   5.565   6.440   4.650
    1PA     H6S 4992   5.434   0.110   4.651
    1PA     C15 4993   5.468   0.018   4.842
    1PA     H5R 4994   5.367   0.035   4.880
    1PA     H5S 4995   5.503   6.371   4.882
    1PA     C14 4996   5.560   0.132   4.889
    1PA     H4R 4997   5.661   0.114   4.854
    1PA     H4S 4998   5.526   0.226   4.846
    1PA     C13 4999   5.560   0.144   5.042
    1PA     H3R 5000   5.458   0.159   5.078
    1PA     H3S 5001   5.599   0.052   5.087
    1PA     C12 5002   5.647   0.263   5.085
    1PA     H2R 5003   5.749   0.249   5.048
    1PA     H2S 5004   5.609   0.355   5.039
    2PC     C11 5005   5.654   0.284   5.234
    2PC     O12 5006   5.587   0.223   5.315
    2PC     O11 5007   5.745   0.377   5.264
    2PC      C1 5008   5.776   0.407   5.402
    2PC      HR 5009   5.835   0.499   5.405
    2PC      HS 5010   5.682   0.425   5.456
    2PC      C2 5011   5.855   0.293   5.467
    2PC      HX 5012   5.802   0.198   5.457
    2PC      C3 5013   5.876   0.323   5.616
    2PC      HA 5014   5.780   0.330   5.668
    2PC      HB 5015   5.936   0.243   5.662
    2PC     O31 5016   5.947   0.448   5.627
    2PC     P31 5017   5.988   0.503   5.772
    2PC     O32 5018   6.146   0.479   5.774
    2PC     C31 5019   6.223   0.508   5.656
    2PC     H1A 5020   6.198   0.438   5.576
    2PC     H1B 5021   6.201   0.610   5.623
    2PC     C32 5022   6.371   0.498   5.696
    2PC     H2A 5023   6.432   0.551   5.622
    2PC     H2B 5024   6.385   0.546   5.792
    2PC     N31 5025   6.434   0.362   5.708
    2PC     C33 5026   6.366   0.278   5.812
    2PC     H3A 5027   6.414   0.180   5.813
    2PC     H3B 5028   6.377   0.326   5.909
    2PC     H3C 5029   6.261   0.269   5.786
    2PC     C34 5030   6.432   0.292   5.576
    2PC     H4A 5031   0.031   0.357   5.502
    2PC     H4B 5032   0.041   0.199   5.586
    2PC     H4C 5033   6.329   0.270   5.549
    2PC     C35 5034   0.129   0.379   5.751
    2PC     H5A 5035   0.131   0.423   5.851
    2PC     H5B 5036   0.179   0.445   5.680
    2PC     H5C 5037   0.176   0.281   5.750
    2PC     O33 5038   5.945   0.644   5.791
    2PC     O34 5039   5.932   0.422   5.882
    2PC     O21 5040   5.986   0.284   5.409
    2PC     C21 5041   6.004   0.214   5.296
    2PC     O22 5042   5.920   0.144   5.243
    3OL     C12 5043   6.145   0.226   5.244
    3OL     H2R 5044   6.183   0.126   5.221
    3OL     H2S 5045   6.209   0.267   5.323
    3OL     C13 5046   6.152   0.316   5.120
    3OL     H3R 5047   6.121   0.417   5.146
    3OL     H3S 5048   6.082   0.278   5.045
    3OL     C14 5049   6.294   0.317   5.062
    3OL     H4R 5050   6.322   0.215   5.035
    3OL     H4S 5051   6.364   0.353   5.137
    3OL     C15 5052   6.302   0.408   4.938
    3OL     H5R 5053   6.280   0.510   4.968
    3OL     H5S 5054   6.227   0.379   4.865
    3OL     C16 5055   6.441   0.405   4.873
    3OL     H6R 5056   0.070   0.418   4.949
    3OL     H6S 5057   0.001   0.490   4.805
    3OL     C17 5058   0.018   0.276   4.795
    3OL     H7R 5059   6.387   0.263   4.720
    3OL     H7S 5060   0.013   0.190   4.863
    3OL     C18 5061   0.154   0.274   4.725
    3OL     H8R 5062   0.166   0.177   4.676
    3OL     H8S 5063   0.234   0.281   4.799
    3OL     C19 5064   0.166   0.382   4.620
    3OL     H9R 5065   0.096   0.371   4.537
    3OL    C110 5066   0.251   0.483   4.618
    3OL    H10R 5067   0.247   0.552   4.535
    3OL    C111 5068   0.353   0.517   4.723
    3OL    H11R 5069   0.335   0.461   4.815
    3OL    H11S 5070   0.342   0.622   4.750
    3OL    C112 5071   0.498   0.492   4.678
    3OL    H12R 5072   0.511   0.388   4.649
    3OL    H12S 5073   0.563   0.510   4.764
    3OL    C113 5074   0.543   0.585   4.564
    3OL    H13R 5075   0.650   0.604   4.577
    3OL    H13S 5076   0.493   0.682   4.573
    3OL    C114 5077   0.521   0.525   4.425
    3OL    H14R 5078   0.415   0.501   4.412
    3OL    H14S 5079   0.576   0.432   4.415
    3OL    C115 5080   0.561   0.622   4.313
    3OL    H15R 5081   0.519   0.721   4.333
    3OL    H15S 5082   0.517   0.587   4.219
    3OL    C116 5083   0.713   0.632   4.295
    3OL    H16R 5084   0.754   0.533   4.274
    3OL    H16S 5085   0.759   0.669   4.387
    3OL    C117 5086   0.748   0.727   4.179
    3OL    H17R 5087   0.707   0.826   4.199
    3OL    H17S 5088   0.702   0.690   4.087
    3OL    C118 5089   0.900   0.737   4.160
    3OL    H18R 5090   0.923   0.805   4.078
    3OL    H18S 5091   0.942   0.639   4.136
    3OL    H18T 5092   0.948   0.774   4.251
    1PA    C116 5093   3.898   2.486   3.465
    1PA    H16R 5094   3.891   2.591   3.494
    1PA    H16S 5095   3.821   2.465   3.391
    1PA    H16T 5096   3.995   2.468   3.420
    1PA    C115 5097   3.880   2.396   3.588
    1PA    H15R 5098   3.782   2.414   3.633
    1PA    H15S 5099   3.884   2.291   3.557
    1PA    C114 5100   3.990   2.423   3.692
    1PA    H14R 5101   4.087   2.408   3.646
    1PA    H14S 5102   3.984   2.526   3.726
    1PA    C113 5103   3.976   2.328   3.812
    1PA    H13R 5104   3.880   2.343   3.862
    1PA    H13S 5105   3.977   2.225   3.775
    1PA    C112 5106   4.091   2.343   3.912
    1PA    H12R 5107   4.092   2.256   3.978
    1PA    H12S 5108   4.187   2.344   3.859
    1PA    C111 5109   4.079   2.469   4.000
    1PA    H11R 5110   4.082   2.559   3.938
    1PA    H11S 5111   3.983   2.468   4.052
    1PA    C110 5112   4.194   2.472   4.101
    1PA    H10R 5113   4.196   2.378   4.156
    1PA    H10S 5114   4.289   2.480   4.048
    1PA     C19 5115   4.182   2.588   4.201
    1PA     H9R 5116   4.187   2.683   4.149
    1PA     H9S 5117   4.086   2.582   4.252
    1PA     C18 5118   4.296   2.578   4.304
    1PA     H8R 5119   4.295   2.479   4.349
    1PA     H8S 5120   4.392   2.590   4.253
    1PA     C17 5121   4.284   2.683   4.416
    1PA     H7R 5122   4.289   2.784   4.375
    1PA     H7S 5123   4.187   2.672   4.464
    1PA     C16 5124   4.394   2.662   4.521
    1PA     H6R 5125   4.361   2.707   4.615
    1PA     H6S 5126   4.407   2.555   4.540
    1PA     C15 5127   4.527   2.725   4.479
    1PA     H5R 5128   4.549   2.699   4.376
    1PA     H5S 5129   4.519   2.834   4.483
    1PA     C14 5130   4.644   2.678   4.567
    1PA     H4R 5131   4.653   2.570   4.559
    1PA     H4S 5132   4.736   2.721   4.528
    1PA     C13 5133   4.630   2.717   4.715
    1PA     H3R 5134   4.622   2.825   4.725
    1PA     H3S 5135   4.539   2.672   4.757
    1PA     C12 5136   4.752   2.666   4.793
    1PA     H2R 5137   4.766   2.559   4.775
    1PA     H2S 5138   4.842   2.716   4.756
    2PC     C11 5139   4.743   2.688   4.942
    2PC     O12 5140   4.641   2.710   5.004
    2PC     O11 5141   4.865   2.682   4.997
    2PC      C1 5142   4.882   2.687   5.140
    2PC      HR 5143   4.969   2.750   5.163
    2PC      HS 5144   4.795   2.733   5.188
    2PC      C2 5145   4.904   2.545   5.193
    2PC      HX 5146   4.823   2.482   5.157
    2PC      C3 5147   4.899   2.543   5.347
    2PC      HA 5148   4.971   2.613   5.388
    2PC      HB 5149   4.799   2.572   5.381
    2PC     O31 5150   4.925   2.409   5.394
    2PC     P31 5151   4.944   2.388   5.552
    2PC     O32 5152   5.046   2.264   5.551
    2PC     C31 5153   5.175   2.282   5.489
    2PC     H1A 5154   5.161   2.297   5.382
    2PC     H1B 5155   5.226   2.368   5.532
    2PC     C32 5156   5.255   2.154   5.514
    2PC     H2A 5157   5.187   2.069   5.512
    2PC     H2B 5158   5.328   2.140   5.433
    2PC     N31 5159   5.333   2.145   5.641
    2PC     C33 5160   5.456   2.230   5.635
    2PC     H3A 5161   5.512   2.219   5.728
    2PC     H3B 5162   5.517   2.197   5.550
    2PC     H3C 5163   5.426   2.335   5.621
    2PC     C34 5164   5.251   2.185   5.760
    2PC     H4A 5165   5.160   2.125   5.761
    2PC     H4B 5166   5.309   2.168   5.851
    2PC     H4C 5167   5.226   2.291   5.751
    2PC     C35 5168   5.376   2.002   5.659
    2PC     H5A 5169   5.438   1.974   5.574
    2PC     H5B 5170   5.286   1.940   5.663
    2PC     H5C 5171   5.432   1.995   5.752
    2PC     O33 5172   5.007   2.505   5.617
    2PC     O34 5173   4.819   2.361   5.626
    2PC     O21 5174   5.028   2.490   5.146
    2PC     C21 5175   5.148   2.542   5.178
    2PC     O22 5176   5.166   2.642   5.245
    3OL     C12 5177   5.262   2.457   5.129
    3OL     H2R 5178   5.227   2.357   5.106
    3OL     H2S 5179   5.335   2.449   5.210
    3OL     C13 5180   5.331   2.520   5.006
    3OL     H3R 5181   5.425   2.468   4.989
    3OL     H3S 5182   5.355   2.624   5.027
    3OL     C14 5183   5.244   2.508   4.881
    3OL     H4R 5184   5.147   2.556   4.896
    3OL     H4S 5185   5.225   2.402   4.861
    3OL     C15 5186   5.313   2.568   4.758
    3OL     H5R 5187   5.268   2.524   4.668
    3OL     H5S 5188   5.419   2.541   4.758
    3OL     C16 5189   5.297   2.720   4.751
    3OL     H6R 5190   5.335   2.765   4.843
    3OL     H6S 5191   5.190   2.745   4.745
    3OL     C17 5192   5.370   2.783   4.632
    3OL     H7R 5193   5.477   2.767   4.641
    3OL     H7S 5194   5.352   2.891   4.634
    3OL     C18 5195   5.322   2.727   4.497
    3OL     H8R 5196   5.214   2.711   4.502
    3OL     H8S 5197   5.368   2.629   4.480
    3OL     C19 5198   5.359   2.820   4.384
    3OL     H9R 5199   5.466   2.832   4.369
    3OL    C110 5200   5.274   2.888   4.309
    3OL    H10R 5201   5.313   2.955   4.233
    3OL    C111 5202   5.124   2.881   4.318
    3OL    H11R 5203   5.091   2.784   4.356
    3OL    H11S 5204   5.081   2.890   4.218
    3OL    C112 5205   5.068   2.994   4.407
    3OL    H12R 5206   5.076   3.089   4.354
    3OL    H12S 5207   5.128   3.001   4.497
    3OL    C113 5208   4.922   2.966   4.445
    3OL    H13R 5209   4.917   2.881   4.512
    3OL    H13S 5210   4.866   2.939   4.355
    3OL    C114 5211   4.854   3.088   4.510
    3OL    H14R 5212   4.750   3.063   4.530
    3OL    H14S 5213   4.853   3.170   4.438
    3OL    C115 5214   4.920   3.138   4.639
    3OL    H15R 5215   4.872   3.231   4.668
    3OL    H15S 5216   5.026   3.161   4.620
    3OL    C116 5217   4.908   3.039   4.755
    3OL    H16R 5218   4.961   2.946   4.732
    3OL    H16S 5219   4.802   3.014   4.771
    3OL    C117 5220   4.966   3.101   4.883
    3OL    H17R 5221   4.915   3.194   4.906
    3OL    H17S 5222   5.072   3.124   4.868
    3OL    C118 5223   4.952   3.005   5.002
    3OL    H18R 5224   4.847   2.981   5.020
    3OL    H18S 5225   4.993   3.051   5.092
    3OL    H18T 5226   5.007   2.912   4.983
    1PA    C116 5227   2.538   5.525   3.453
    1PA    H16R 5228   2.615   5.482   3.518
    1PA    H16S 5229   2.586   5.556   3.360
    1PA    H16T 5230   2.464   5.448   3.430
    1PA    C115 5231   2.471   5.646   3.520
    1PA    H15R 5232   2.547   5.721   3.545
    1PA    H15S 5233   2.403   5.691   3.449
    1PA    C114 5234   2.393   5.606   3.646
    1PA    H14R 5235   2.327   5.690   3.673
    1PA    H14S 5236   2.328   5.521   3.624
    1PA    C113 5237   2.483   5.575   3.766
    1PA    H13R 5238   2.547   5.489   3.742
    1PA    H13S 5239   2.548   5.660   3.786
    1PA    C112 5240   2.400   5.542   3.890
    1PA    H12R 5241   2.332   5.625   3.910
    1PA    H12S 5242   2.339   5.453   3.872
    1PA    C111 5243   2.489   5.520   4.014
    1PA    H11R 5244   2.556   5.436   3.996
    1PA    H11S 5245   2.550   5.609   4.030
    1PA    C110 5246   2.404   5.492   4.139
    1PA    H10R 5247   2.327   5.570   4.148
    1PA    H10S 5248   2.352   5.397   4.128
    1PA     C19 5249   2.490   5.492   4.266
    1PA     H9R 5250   2.564   5.412   4.259
    1PA     H9S 5251   2.544   5.586   4.272
    1PA     C18 5252   2.405   5.474   4.392
    1PA     H8R 5253   2.328   5.551   4.396
    1PA     H8S 5254   2.355   5.377   4.389
    1PA     C17 5255   2.493   5.483   4.518
    1PA     H7R 5256   2.569   5.405   4.514
    1PA     H7S 5257   2.544   5.580   4.519
    1PA     C16 5258   2.412   5.467   4.647
    1PA     H6R 5259   2.333   5.543   4.650
    1PA     H6S 5260   2.364   5.369   4.648
    1PA     C15 5261   2.502   5.482   4.770
    1PA     H5R 5262   2.580   5.406   4.768
    1PA     H5S 5263   2.551   5.580   4.768
    1PA     C14 5264   2.422   5.469   4.901
    1PA     H4R 5265   2.342   5.543   4.902
    1PA     H4S 5266   2.376   5.370   4.906
    1PA     C13 5267   2.513   5.490   5.024
    1PA     H3R 5268   2.593   5.416   5.022
    1PA     H3S 5269   2.558   5.589   5.018
    1PA     C12 5270   2.433   5.477   5.154
    1PA     H2R 5271   2.350   5.547   5.153
    1PA     H2S 5272   2.393   5.376   5.163
    2PC     C11 5273   2.515   5.504   5.278
    2PC     O12 5274   2.465   5.512   5.389
    2PC     O11 5275   2.647   5.511   5.257
    2PC      C1 5276   2.736   5.549   5.363
    2PC      HR 5277   2.715   5.652   5.393
    2PC      HS 5278   2.720   5.483   5.449
    2PC      C2 5279   2.879   5.537   5.310
    2PC      HX 5280   2.889   5.440   5.261
    2PC      C3 5281   2.985   5.548   5.421
    2PC      HA 5282   2.982   5.457   5.482
    2PC      HB 5283   3.084   5.553   5.376
    2PC     O31 5284   2.963   5.665   5.501
    2PC     P31 5285   2.923   5.652   5.656
    2PC     O32 5286   3.035   5.742   5.726
    2PC     C31 5287   3.174   5.707   5.713
    2PC     H1A 5288   3.189   5.603   5.743
    2PC     H1B 5289   3.204   5.719   5.608
    2PC     C32 5290   3.256   5.803   5.801
    2PC     H2A 5291   3.360   5.799   5.769
    2PC     H2B 5292   3.219   5.904   5.786
    2PC     N31 5293   3.256   5.778   5.948
    2PC     C33 5294   3.332   5.889   6.016
    2PC     H3A 5295   3.279   5.982   5.997
    2PC     H3B 5296   3.336   5.868   6.123
    2PC     H3C 5297   3.432   5.893   5.974
    2PC     C34 5298   3.118   5.775   6.005
    2PC     H4A 5299   3.124   5.761   6.113
    2PC     H4B 5300   3.069   5.869   5.981
    2PC     H4C 5301   3.063   5.692   5.960
    2PC     C35 5302   3.326   5.649   5.980
    2PC     H5A 5303   3.270   5.567   5.936
    2PC     H5B 5304   3.331   5.638   6.088
    2PC     H5C 5305   3.427   5.653   5.937
    2PC     O33 5306   2.787   5.702   5.687
    2PC     O34 5307   2.926   5.513   5.707
    2PC     O21 5308   2.898   5.642   5.212
    2PC     C21 5309   2.995   5.629   5.121
    2PC     O22 5310   3.072   5.536   5.116
    3OL     C12 5311   2.993   5.742   5.021
    3OL     H2R 5312   3.060   5.821   5.057
    3OL     H2S 5313   2.893   5.785   5.018
    3OL     C13 5314   3.034   5.702   4.879
    3OL     H3R 5315   3.137   5.667   4.879
    3OL     H3S 5316   3.029   5.790   4.814
    3OL     C14 5317   2.943   5.592   4.821
    3OL     H4R 5318   2.839   5.622   4.831
    3OL     H4S 5319   2.957   5.500   4.878
    3OL     C15 5320   2.974   5.565   4.673
    3OL     H5R 5321   3.080   5.545   4.661
    3OL     H5S 5322   2.948   5.653   4.614
    3OL     C16 5323   2.894   5.443   4.624
    3OL     H6R 5324   2.787   5.459   4.643
    3OL     H6S 5325   2.925   5.355   4.680
    3OL     C17 5326   2.914   5.417   4.474
    3OL     H7R 5327   3.021   5.410   4.452
    3OL     H7S 5328   2.873   5.500   4.417
    3OL     C18 5329   2.846   5.286   4.433
    3OL     H8R 5330   2.741   5.288   4.465
    3OL     H8S 5331   2.893   5.203   4.485
    3OL     C19 5332   2.848   5.267   4.283
    3OL     H9R 5333   2.779   5.330   4.228
    3OL    C110 5334   2.923   5.181   4.216
    3OL    H10R 5335   2.913   5.176   4.108
    3OL    C111 5336   3.025   5.086   4.274
    3OL    H11R 5337   3.018   4.989   4.224
    3OL    H11S 5338   3.005   5.068   4.380
    3OL    C112 5339   3.167   5.142   4.256
    3OL    H12R 5340   3.168   5.248   4.282
    3OL    H12S 5341   3.192   5.135   4.150
    3OL    C113 5342   3.272   5.066   4.338
    3OL    H13R 5343   3.371   5.090   4.300
    3OL    H13S 5344   3.257   4.959   4.324
    3OL    C114 5345   3.266   5.099   4.488
    3OL    H14R 5346   3.325   5.024   4.541
    3OL    H14S 5347   3.163   5.090   4.524
    3OL    C115 5348   3.322   5.238   4.521
    3OL    H15R 5349   3.269   5.314   4.464
    3OL    H15S 5350   3.427   5.242   4.493
    3OL    C116 5351   3.307   5.267   4.671
    3OL    H16R 5352   3.359   5.191   4.729
    3OL    H16S 5353   3.201   5.263   4.698
    3OL    C117 5354   3.362   5.406   4.707
    3OL    H17R 5355   3.313   5.482   4.646
    3OL    H17S 5356   3.469   5.409   4.685
    3OL    C118 5357   3.340   5.437   4.856
    3OL    H18R 5358   3.391   5.363   4.918
    3OL    H18S 5359   3.233   5.434   4.880
    3OL    H18T 5360   3.378   5.536   4.880
    1PA    C116 5361   3.176   2.226   4.996
    1PA    H16R 5362   3.161   2.131   5.049
    1PA    H16S 5363   3.146   2.213   4.892
    1PA    H16T 5364   3.113   2.302   5.042
    1PA    C115 5365   3.324   2.268   5.004
    1PA    H15R 5366   3.336   2.364   4.953
    1PA    H15S 5367   3.350   2.284   5.109
    1PA    C114 5368   3.416   2.162   4.942
    1PA    H14R 5369   3.402   2.067   4.994
    1PA    H14S 5370   3.387   2.147   4.837
    1PA    C113 5371   3.563   2.205   4.950
    1PA    H13R 5372   3.578   2.298   4.895
    1PA    H13S 5373   3.589   2.223   5.054
    1PA    C112 5374   3.659   2.099   4.894
    1PA    H12R 5375   3.761   2.126   4.922
    1PA    H12S 5376   3.637   2.002   4.941
    1PA    C111 5377   3.651   2.088   4.741
    1PA    H11R 5378   3.550   2.057   4.711
    1PA    H11S 5379   3.668   2.187   4.698
    1PA    C110 5380   3.754   1.991   4.683
    1PA    H10R 5381   3.743   1.989   4.574
    1PA    H10S 5382   3.854   2.028   4.704
    1PA     C19 5383   3.744   1.847   4.735
    1PA     H9R 5384   3.820   1.787   4.685
    1PA     H9S 5385   3.766   1.844   4.842
    1PA     C18 5386   3.606   1.783   4.710
    1PA     H8R 5387   3.530   1.834   4.769
    1PA     H8S 5388   3.580   1.792   4.605
    1PA     C17 5389   3.611   1.635   4.751
    1PA     H7R 5390   3.687   1.585   4.691
    1PA     H7S 5391   3.640   1.627   4.855
    1PA     C16 5392   3.477   1.562   4.729
    1PA     H6R 5393   3.428   1.601   4.639
    1PA     H6S 5394   3.497   1.456   4.712
    1PA     C15 5395   3.383   1.575   4.849
    1PA     H5R 5396   3.432   1.536   4.939
    1PA     H5S 5397   3.361   1.681   4.868
    1PA     C14 5398   3.253   1.498   4.823
    1PA     H4R 5399   3.205   1.537   4.733
    1PA     H4S 5400   3.276   1.393   4.806
    1PA     C13 5401   3.156   1.511   4.942
    1PA     H3R 5402   3.204   1.473   5.032
    1PA     H3S 5403   3.132   1.616   4.958
    1PA     C12 5404   3.027   1.432   4.915
    1PA     H2R 5405   2.984   1.463   4.820
    1PA     H2S 5406   3.049   1.325   4.907
    2PC     C11 5407   2.926   1.454   5.025
    2PC     O12 5408   2.956   1.465   5.142
    2PC     O11 5409   2.802   1.466   4.977
    2PC      C1 5410   2.696   1.510   5.064
    2PC      HR 5411   2.599   1.489   5.016
    2PC      HS 5412   2.700   1.456   5.158
    2PC      C2 5413   2.710   1.661   5.087
    2PC      HX 5414   2.811   1.681   5.125
    2PC      C3 5415   2.605   1.712   5.186
    2PC      HA 5416   2.509   1.725   5.135
    2PC      HB 5417   2.591   1.638   5.266
    2PC     O31 5418   2.645   1.837   5.244
    2PC     P31 5419   2.741   1.837   5.372
    2PC     O32 5420   2.765   1.994   5.393
    2PC     C31 5421   2.815   2.069   5.281
    2PC     H1A 5422   2.895   2.014   5.231
    2PC     H1B 5423   2.734   2.086   5.209
    2PC     C32 5424   2.871   2.204   5.330
    2PC     H2A 5425   2.911   2.258   5.244
    2PC     H2B 5426   2.790   2.263   5.372
    2PC     N31 5427   2.980   2.202   5.433
    2PC     C33 5428   2.925   2.168   5.568
    2PC     H3A 5429   2.846   2.239   5.592
    2PC     H3B 5430   2.886   2.066   5.565
    2PC     H3C 5431   3.006   2.175   5.641
    2PC     C34 5432   3.088   2.105   5.397
    2PC     H4A 5433   3.128   2.130   5.299
    2PC     H4B 5434   3.166   2.111   5.473
    2PC     H4C 5435   3.045   2.004   5.397
    2PC     C35 5436   3.041   2.339   5.440
    2PC     H5A 5437   3.118   2.337   5.518
    2PC     H5B 5438   2.963   2.410   5.466
    2PC     H5C 5439   3.086   2.363   5.344
    2PC     O33 5440   2.673   1.777   5.489
    2PC     O34 5441   2.867   1.764   5.349
    2PC     O21 5442   2.688   1.726   4.960
    2PC     C21 5443   2.753   1.840   4.931
    2PC     O22 5444   2.836   1.893   5.002
    3OL     C12 5445   2.711   1.895   4.797
    3OL     H2R 5446   2.705   2.004   4.805
    3OL     H2S 5447   2.611   1.859   4.773
    3OL     C13 5448   2.809   1.858   4.685
    3OL     H3R 5449   2.905   1.907   4.705
    3OL     H3S 5450   2.773   1.898   4.591
    3OL     C14 5451   2.834   1.707   4.671
    3OL     H4R 5452   2.869   1.668   4.767
    3OL     H4S 5453   2.915   1.690   4.599
    3OL     C15 5454   2.710   1.628   4.627
    3OL     H5R 5455   2.621   1.665   4.680
    3OL     H5S 5456   2.723   1.524   4.656
    3OL     C16 5457   2.687   1.635   4.476
    3OL     H6R 5458   2.772   1.590   4.424
    3OL     H6S 5459   2.679   1.739   4.444
    3OL     C17 5460   2.559   1.559   4.438
    3OL     H7R 5461   2.473   1.608   4.485
    3OL     H7S 5462   2.563   1.457   4.477
    3OL     C18 5463   2.536   1.554   4.286
    3OL     H8R 5464   2.444   1.498   4.267
    3OL     H8S 5465   2.618   1.497   4.240
    3OL     C19 5466   2.524   1.691   4.225
    3OL     H9R 5467   2.447   1.755   4.270
    3OL    C110 5468   2.598   1.739   4.127
    3OL    H10R 5469   2.581   1.841   4.092
    3OL    C111 5470   2.707   1.663   4.056
    3OL    H11R 5471   2.671   1.564   4.027
    3OL    H11S 5472   2.791   1.650   4.124
    3OL    C112 5473   2.754   1.737   3.930
    3OL    H12R 5474   2.787   1.838   3.956
    3OL    H12S 5475   2.670   1.747   3.861
    3OL    C113 5476   2.868   1.663   3.858
    3OL    H13R 5477   2.883   1.710   3.760
    3OL    H13S 5478   2.840   1.559   3.840
    3OL    C114 5479   3.000   1.669   3.937
    3OL    H14R 5480   2.988   1.618   4.033
    3OL    H14S 5481   3.024   1.774   3.958
    3OL    C115 5482   3.115   1.605   3.859
    3OL    H15R 5483   3.127   1.655   3.763
    3OL    H15S 5484   3.093   1.500   3.839
    3OL    C116 5485   3.246   1.614   3.940
    3OL    H16R 5486   3.235   1.554   4.030
    3OL    H16S 5487   3.263   1.718   3.972
    3OL    C117 5488   3.367   1.564   3.861
    3OL    H17R 5489   3.344   1.469   3.813
    3OL    H17S 5490   3.449   1.546   3.931
    3OL    C118 5491   3.414   1.667   3.757
    3OL    H18R 5492   3.437   1.762   3.805
    3OL    H18S 5493   3.338   1.683   3.681
    3OL    H18T 5494   3.505   1.632   3.707
    1PA    C116 5495   6.384   1.631   4.065
    1PA    H16R 5496   6.405   1.566   4.150
    1PA    H16S 5497   6.298   1.591   4.012
    1PA    H16T 5498   6.358   1.730   4.103
    1PA    C115 5499   0.058   1.639   3.971
    1PA    H15R 5500   0.075   1.539   3.930
    1PA    H15S 5501   0.036   1.705   3.887
    1PA    C114 5502   0.185   1.685   4.044
    1PA    H14R 5503   0.197   1.628   4.136
    1PA    H14S 5504   0.271   1.664   3.980
    1PA    C113 5505   0.182   1.836   4.075
    1PA    H13R 5506   0.170   1.890   3.981
    1PA    H13S 5507   0.096   1.860   4.138
    1PA    C112 5508   0.311   1.883   4.143
    1PA    H12R 5509   0.398   1.843   4.090
    1PA    H12S 5510   0.316   1.992   4.136
    1PA    C111 5511   0.316   1.843   4.291
    1PA    H11R 5512   0.231   1.886   4.343
    1PA    H11S 5513   0.308   1.734   4.300
    1PA    C110 5514   0.447   1.889   4.357
    1PA    H10R 5515   0.531   1.844   4.303
    1PA    H10S 5516   0.457   1.997   4.350
    1PA     C19 5517   0.454   1.845   4.504
    1PA     H9R 5518   0.413   1.744   4.514
    1PA     H9S 5519   0.559   1.839   4.533
    1PA     C18 5520   0.384   1.943   4.598
    1PA     H8R 5521   0.440   2.036   4.602
    1PA     H8S 5522   0.283   1.965   4.561
    1PA     C17 5523   0.372   1.882   4.739
    1PA     H7R 5524   0.302   1.798   4.736
    1PA     H7S 5525   0.469   1.844   4.771
    1PA     C16 5526   0.322   1.986   4.841
    1PA     H6R 5527   0.402   2.058   4.860
    1PA     H6S 5528   0.238   2.041   4.799
    1PA     C15 5529   0.277   1.924   4.974
    1PA     H5R 5530   0.252   2.004   5.043
    1PA     H5S 5531   0.186   1.866   4.958
    1PA     C14 5532   0.383   1.833   5.038
    1PA     H4R 5533   0.402   1.747   4.974
    1PA     H4S 5534   0.477   1.888   5.048
    1PA     C13 5535   0.338   1.783   5.176
    1PA     H3R 5536   0.327   1.868   5.244
    1PA     H3S 5537   0.241   1.734   5.168
    1PA     C12 5538   0.441   1.684   5.233
    1PA     H2R 5539   0.448   1.597   5.168
    1PA     H2S 5540   0.540   1.731   5.235
    2PC     C11 5541   0.410   1.637   5.373
    2PC     O12 5542   0.320   1.681   5.442
    2PC     O11 5543   0.495   1.539   5.409
    2PC      C1 5544   0.486   1.478   5.539
    2PC      HR 5545   0.574   1.413   5.552
    2PC      HS 5546   0.489   1.555   5.617
    2PC      C2 5547   0.359   1.393   5.554
    2PC      HX 5548   0.272   1.458   5.566
    2PC      C3 5549   0.371   1.300   5.676
    2PC      HA 5550   0.273   1.261   5.705
    2PC      HB 5551   0.438   1.217   5.652
    2PC     O31 5552   0.427   1.373   5.787
    2PC     P31 5553   0.460   1.299   5.925
    2PC     O32 5554   0.618   1.325   5.937
    2PC     C31 5555   0.662   1.461   5.946
    2PC     H1A 5556   0.650   1.509   5.848
    2PC     H1B 5557   0.603   1.516   6.019
    2PC     C32 5558   0.811   1.463   5.986
    2PC     H2A 5559   0.870   1.415   5.908
    2PC     H2B 5560   0.843   1.567   5.994
    2PC     N31 5561   0.848   1.398   6.115
    2PC     C33 5562   0.853   1.249   6.101
    2PC     H3A 5563   0.889   1.206   6.194
    2PC     H3B 5564   0.753   1.212   6.078
    2PC     H3C 5565   0.922   1.225   6.019
    2PC     C34 5566   0.984   1.446   6.156
    2PC     H4A 5567   0.981   1.554   6.165
    2PC     H4B 5568   1.010   1.400   6.251
    2PC     H4C 5569   1.055   1.416   6.079
    2PC     C35 5570   0.752   1.434   6.225
    2PC     H5A 5571   0.653   1.396   6.199
    2PC     H5B 5572   0.749   1.543   6.234
    2PC     H5C 5573   0.786   1.389   6.318
    2PC     O33 5574   0.382   1.348   6.040
    2PC     O34 5575   0.433   1.153   5.925
    2PC     O21 5576   0.347   1.312   5.436
    2PC     C21 5577   0.235   1.242   5.414
    2PC     O22 5578   0.139   1.243   5.489
    3OL     C12 5579   0.233   1.165   5.284
    3OL     H2R 5580   0.211   1.234   5.203
    3OL     H2S 5581   0.151   1.094   5.289
    3OL     C13 5582   0.362   1.087   5.254
    3OL     H3R 5583   0.339   1.013   5.177
    3OL     H3S 5584   0.392   1.031   5.343
    3OL     C14 5585   0.481   1.170   5.203
    3OL     H4R 5586   0.561   1.100   5.177
    3OL     H4S 5587   0.520   1.233   5.283
    3OL     C15 5588   0.448   1.256   5.081
    3OL     H5R 5589   0.381   1.337   5.110
    3OL     H5S 5590   0.397   1.195   5.006
    3OL     C16 5591   0.576   1.316   5.020
    3OL     H6R 5592   0.642   1.236   4.987
    3OL     H6S 5593   0.629   1.374   5.096
    3OL     C17 5594   0.542   1.407   4.901
    3OL     H7R 5595   0.480   1.490   4.936
    3OL     H7S 5596   0.485   1.352   4.826
    3OL     C18 5597   0.670   1.462   4.836
    3OL     H8R 5598   0.729   1.380   4.795
    3OL     H8S 5599   0.731   1.509   4.913
    3OL     C19 5600   0.637   1.566   4.731
    3OL     H9R 5601   0.613   1.664   4.770
    3OL    C110 5602   0.642   1.549   4.600
    3OL    H10R 5603   0.621   1.634   4.536
    3OL    C111 5604   0.668   1.420   4.526
    3OL    H11R 5605   0.667   1.335   4.595
    3OL    H11S 5606   0.766   1.423   4.480
    3OL    C112 5607   0.563   1.393   4.417
    3OL    H12R 5608   0.464   1.389   4.463
    3OL    H12S 5609   0.583   1.296   4.373
    3OL    C113 5610   0.563   1.500   4.307
    3OL    H13R 5611   0.661   1.504   4.258
    3OL    H13S 5612   0.544   1.598   4.351
    3OL    C114 5613   0.453   1.473   4.203
    3OL    H14R 5614   0.435   1.566   4.147
    3OL    H14S 5615   0.360   1.447   4.253
    3OL    C115 5616   0.493   1.364   4.102
    3OL    H15R 5617   0.520   1.273   4.155
    3OL    H15S 5618   0.580   1.397   4.045
    3OL    C116 5619   0.377   1.333   4.007
    3OL    H16R 5620   0.347   1.425   3.955
    3OL    H16S 5621   0.291   1.299   4.064
    3OL    C117 5622   0.416   1.226   3.904
    3OL    H17R 5623   0.452   1.137   3.955
    3OL    H17S 5624   0.498   1.264   3.842
    3OL    C118 5625   0.297   1.190   3.814
    3OL    H18R 5626   0.216   1.146   3.874
    3OL    H18S 5627   0.328   1.116   3.739
    3OL    H18T 5628   0.259   1.278   3.763
    1PA    C116 5629   0.377   0.679   3.940
    1PA    H16R 5630   0.383   0.651   3.835
    1PA    H16S 5631   0.377   0.587   4.000
    1PA    H16T 5632   0.466   0.737   3.966
    1PA    C115 5633   0.250   0.760   3.967
    1PA    H15R 5634   0.251   0.852   3.908
    1PA    H15S 5635   0.164   0.701   3.933
    1PA    C114 5636   0.231   0.792   4.116
    1PA    H14R 5637   0.129   0.830   4.130
    1PA    H14S 5638   0.240   0.701   4.175
    1PA    C113 5639   0.330   0.898   4.165
    1PA    H13R 5640   0.433   0.861   4.153
    1PA    H13S 5641   0.321   0.989   4.105
    1PA    C112 5642   0.306   0.932   4.313
    1PA    H12R 5643   0.205   0.973   4.324
    1PA    H12S 5644   0.312   0.841   4.373
    1PA    C111 5645   0.409   1.035   4.363
    1PA    H11R 5646   0.510   0.994   4.354
    1PA    H11S 5647   0.404   1.123   4.298
    1PA    C110 5648   0.383   1.079   4.507
    1PA    H10R 5649   0.444   1.166   4.528
    1PA    H10S 5650   0.279   1.109   4.518
    1PA     C19 5651   0.418   0.970   4.610
    1PA     H9R 5652   0.354   0.883   4.595
    1PA     H9S 5653   0.521   0.939   4.597
    1PA     C18 5654   0.397   1.024   4.752
    1PA     H8R 5655   0.461   1.111   4.769
    1PA     H8S 5656   0.293   1.059   4.761
    1PA     C17 5657   0.423   0.919   4.861
    1PA     H7R 5658   0.378   0.954   4.954
    1PA     H7S 5659   0.374   0.825   4.834
    1PA     C16 5660   0.572   0.895   4.885
    1PA     H6R 5661   0.618   0.855   4.794
    1PA     H6S 5662   0.621   0.990   4.908
    1PA     C15 5663   0.595   0.797   5.001
    1PA     H5R 5664   0.546   0.835   5.090
    1PA     H5S 5665   0.549   0.700   4.976
    1PA     C14 5666   0.745   0.778   5.029
    1PA     H4R 5667   0.795   0.737   4.941
    1PA     H4S 5668   0.788   0.877   5.048
    1PA     C13 5669   0.771   0.690   5.151
    1PA     H3R 5670   0.873   0.708   5.186
    1PA     H3S 5671   0.704   0.717   5.232
    1PA     C12 5672   0.757   0.540   5.119
    1PA     H2R 5673   0.655   0.519   5.087
    1PA     H2S 5674   0.825   0.512   5.039
    2PC     C11 5675   0.788   0.457   5.241
    2PC     O12 5676   0.900   0.420   5.269
    2PC     O11 5677   0.679   0.432   5.315
    2PC      C1 5678   0.696   0.364   5.441
    2PC      HR 5679   0.732   0.262   5.425
    2PC      HS 5680   0.768   0.419   5.502
    2PC      C2 5681   0.560   0.362   5.513
    2PC      HX 5682   0.513   0.460   5.498
    2PC      C3 5683   0.575   0.336   5.663
    2PC      HA 5684   0.612   0.427   5.710
    2PC      HB 5685   0.478   0.311   5.708
    2PC     O31 5686   0.667   0.228   5.688
    2PC     P31 5687   0.751   0.227   5.824
    2PC     O32 5688   0.863   0.335   5.784
    2PC     C31 5689   0.994   0.289   5.749
    2PC     H1A 5690   1.037   0.232   5.832
    2PC     H1B 5691   0.988   0.224   5.661
    2PC     C32 5692   1.082   0.410   5.716
    2PC     H2A 5693   1.185   0.376   5.703
    2PC     H2B 5694   1.049   0.456   5.623
    2PC     N31 5695   1.089   0.522   5.816
    2PC     C33 5696   1.204   0.611   5.780
    2PC     H3A 5697   1.208   0.693   5.852
    2PC     H3B 5698   1.296   0.553   5.783
    2PC     H3C 5699   1.187   0.650   5.680
    2PC     C34 5700   0.964   0.604   5.814
    2PC     H4A 5701   0.947   0.639   5.712
    2PC     H4B 5702   0.880   0.543   5.848
    2PC     H4C 5703   0.977   0.690   5.881
    2PC     C35 5704   1.112   0.470   5.955
    2PC     H5A 5705   1.203   0.409   5.955
    2PC     H5B 5706   1.026   0.409   5.984
    2PC     H5C 5707   1.123   0.555   6.022
    2PC     O33 5708   0.679   0.271   5.946
    2PC     O34 5709   0.807   0.095   5.860
    2PC     O21 5710   0.479   0.260   5.451
    2PC     C21 5711   0.345   0.274   5.451
    2PC     O22 5712   0.287   0.369   5.499
    3OL     C12 5713   0.274   0.162   5.380
    3OL     H2R 5714   0.199   0.121   5.447
    3OL     H2S 5715   0.345   0.082   5.359
    3OL     C13 5716   0.207   0.210   5.250
    3OL     H3R 5717   0.130   0.283   5.275
    3OL     H3S 5718   0.156   0.125   5.203
    3OL     C14 5719   0.305   0.273   5.151
    3OL     H4R 5720   0.355   0.358   5.197
    3OL     H4S 5721   0.249   0.312   5.066
    3OL     C15 5722   0.410   0.173   5.099
    3OL     H5R 5723   0.360   0.091   5.047
    3OL     H5S 5724   0.466   0.132   5.183
    3OL     C16 5725   0.509   0.242   5.004
    3OL     H6R 5726   0.557   0.325   5.057
    3OL     H6S 5727   0.456   0.282   4.918
    3OL     C17 5728   0.618   0.143   4.957
    3OL     H7R 5729   0.571   0.063   4.900
    3OL     H7S 5730   0.667   0.099   5.044
    3OL     C18 5731   0.722   0.215   4.871
    3OL     H8R 5732   0.773   0.289   4.932
    3OL     H8S 5733   0.673   0.267   4.789
    3OL     C19 5734   0.824   0.117   4.818
    3OL     H9R 5735   0.849   0.034   4.885
    3OL    C110 5736   0.881   0.123   4.698
    3OL    H10R 5737   0.952   0.046   4.669
    3OL    C111 5738   0.858   0.233   4.598
    3OL    H11R 5739   0.881   0.329   4.642
    3OL    H11S 5740   0.753   0.234   4.567
    3OL    C112 5741   0.945   0.211   4.473
    3OL    H12R 5742   0.919   0.115   4.428
    3OL    H12S 5743   1.050   0.208   4.503
    3OL    C113 5744   0.923   0.324   4.371
    3OL    H13R 5745   0.944   0.419   4.420
    3OL    H13S 5746   0.818   0.326   4.340
    3OL    C114 5747   1.013   0.313   4.247
    3OL    H14R 5748   1.118   0.302   4.276
    3OL    H14S 5749   1.005   0.407   4.192
    3OL    C115 5750   0.971   0.200   4.151
    3OL    H15R 5751   0.987   0.234   4.049
    3OL    H15S 5752   0.864   0.181   4.162
    3OL    C116 5753   1.053   0.072   4.172
    3OL    H16R 5754   1.049   0.040   4.276
    3OL    H16S 5755   1.157   0.094   4.149
    3OL    C117 5756   1.006   6.405   4.081
    3OL    H17R 5757   1.081   6.327   4.082
    3OL    H17S 5758   0.996   6.441   3.978
    3OL    C118 5759   0.872   6.346   4.128
    3OL    H18R 5760   0.792   6.419   4.122
    3OL    H18S 5761   0.880   6.310   4.231
    3OL    H18T 5762   0.845   6.261   4.065
    1PA    C116 5763   4.524   4.638   3.975
    1PA    H16R 5764   4.482   4.737   3.994
    1PA    H16S 5765   4.444   4.565   3.979
    1PA    H16T 5766   4.566   4.638   3.874
    1PA    C115 5767   4.633   4.604   4.078
    1PA    H15R 5768   4.674   4.506   4.055
    1PA    H15S 5769   4.714   4.677   4.070
    1PA    C114 5770   4.576   4.604   4.220
    1PA    H14R 5771   4.535   4.703   4.243
    1PA    H14S 5772   4.494   4.532   4.227
    1PA    C113 5773   4.685   4.568   4.322
    1PA    H13R 5774   4.725   4.470   4.295
    1PA    H13S 5775   4.768   4.639   4.316
    1PA    C112 5776   4.631   4.560   4.466
    1PA    H12R 5777   4.539   4.501   4.466
    1PA    H12S 5778   4.703   4.505   4.527
    1PA    C111 5779   4.606   4.696   4.531
    1PA    H11R 5780   4.543   4.758   4.467
    1PA    H11S 5781   4.550   4.680   4.624
    1PA    C110 5782   4.736   4.770   4.564
    1PA    H10R 5783   4.802   4.704   4.621
    1PA    H10S 5784   4.788   4.798   4.472
    1PA     C19 5785   4.709   4.897   4.647
    1PA     H9R 5786   4.646   4.966   4.589
    1PA     H9S 5787   4.654   4.870   4.737
    1PA     C18 5788   4.840   4.967   4.685
    1PA     H8R 5789   4.905   4.896   4.737
    1PA     H8S 5790   4.892   5.000   4.595
    1PA     C17 5791   4.814   5.087   4.777
    1PA     H7R 5792   4.752   5.161   4.725
    1PA     H7S 5793   4.758   5.053   4.865
    1PA     C16 5794   4.945   5.153   4.821
    1PA     H6R 5795   5.011   5.075   4.862
    1PA     H6S 5796   4.995   5.198   4.736
    1PA     C15 5797   4.917   5.259   4.929
    1PA     H5R 5798   4.849   5.334   4.888
    1PA     H5S 5799   4.865   5.211   5.012
    1PA     C14 5800   5.042   5.329   4.984
    1PA     H4R 5801   5.079   5.400   4.910
    1PA     H4S 5802   5.013   5.386   5.072
    1PA     C13 5803   5.155   5.232   5.021
    1PA     H3R 5804   5.115   5.146   5.075
    1PA     H3S 5805   5.199   5.195   4.928
    1PA     C12 5806   5.265   5.298   5.104
    1PA     H2R 5807   5.354   5.235   5.103
    1PA     H2S 5808   5.292   5.395   5.063
    2PC     C11 5809   5.223   5.316   5.248
    2PC     O12 5810   5.204   5.424   5.300
    2PC     O11 5811   5.205   5.198   5.310
    2PC      C1 5812   5.141   5.195   5.439
    2PC      HR 5813   5.152   5.094   5.480
    2PC      HS 5814   5.189   5.266   5.506
    2PC      C2 5815   4.992   5.226   5.423
    2PC      HX 5816   4.978   5.325   5.377
    2PC      C3 5817   4.923   5.222   5.560
    2PC      HA 5818   4.906   5.117   5.587
    2PC      HB 5819   4.985   5.269   5.636
    2PC     O31 5820   4.797   5.291   5.554
    2PC     P31 5821   4.698   5.281   5.680
    2PC     O32 5822   4.588   5.179   5.625
    2PC     C31 5823   4.487   5.231   5.537
    2PC     H1A 5824   4.437   5.316   5.584
    2PC     H1B 5825   4.535   5.266   5.445
    2PC     C32 5826   4.386   5.120   5.505
    2PC     H2A 5827   4.312   5.160   5.435
    2PC     H2B 5828   4.438   5.037   5.457
    2PC     N31 5829   4.308   5.060   5.618
    2PC     C33 5830   4.245   5.165   5.705
    2PC     H3A 5831   4.184   5.115   5.781
    2PC     H3B 5832   4.324   5.224   5.752
    2PC     H3C 5833   4.182   5.229   5.643
    2PC     C34 5834   4.198   4.977   5.559
    2PC     H4A 5835   4.138   5.040   5.493
    2PC     H4B 5836   4.244   4.895   5.503
    2PC     H4C 5837   4.137   4.938   5.640
    2PC     C35 5838   4.394   4.972   5.703
    2PC     H5A 5839   4.332   4.923   5.778
    2PC     H5B 5840   4.471   5.033   5.751
    2PC     H5C 5841   4.441   4.897   5.638
    2PC     O33 5842   4.759   5.225   5.802
    2PC     O34 5843   4.638   5.410   5.722
    2PC     O21 5844   4.935   5.122   5.341
    2PC     C21 5845   4.822   5.146   5.273
    2PC     O22 5846   4.770   5.255   5.261
    3OL     C12 5847   4.762   5.022   5.211
    3OL     H2R 5848   4.695   5.053   5.131
    3OL     H2S 5849   4.703   4.971   5.287
    3OL     C13 5850   4.869   4.926   5.156
    3OL     H3R 5851   4.928   4.885   5.238
    3OL     H3S 5852   4.936   4.981   5.090
    3OL     C14 5853   4.803   4.812   5.078
    3OL     H4R 5854   4.744   4.853   4.996
    3OL     H4S 5855   4.734   4.757   5.143
    3OL     C15 5856   4.908   4.714   5.022
    3OL     H5R 5857   4.961   4.667   5.104
    3OL     H5S 5858   4.980   4.769   4.961
    3OL     C16 5859   4.839   4.608   4.935
    3OL     H6R 5860   4.789   4.657   4.851
    3OL     H6S 5861   4.763   4.557   4.994
    3OL     C17 5862   4.940   4.505   4.881
    3OL     H7R 5863   4.986   4.452   4.965
    3OL     H7S 5864   5.019   4.555   4.825
    3OL     C18 5865   4.868   4.404   4.790
    3OL     H8R 5866   4.828   4.457   4.703
    3OL     H8S 5867   4.782   4.363   4.843
    3OL     C19 5868   4.958   4.291   4.748
    3OL     H9R 5869   4.975   4.215   4.824
    3OL    C110 5870   5.008   4.274   4.626
    3OL    H10R 5871   5.068   4.186   4.605
    3OL    C111 5872   4.998   4.375   4.514
    3OL    H11R 5873   5.020   4.474   4.554
    3OL    H11S 5874   4.896   4.377   4.475
    3OL    C112 5875   5.096   4.344   4.400
    3OL    H12R 5876   5.195   4.324   4.443
    3OL    H12S 5877   5.107   4.432   4.337
    3OL    C113 5878   5.054   4.225   4.313
    3OL    H13R 5879   5.023   4.141   4.376
    3OL    H13S 5880   5.140   4.193   4.255
    3OL    C114 5881   4.941   4.264   4.217
    3OL    H14R 5882   4.968   4.353   4.160
    3OL    H14S 5883   4.853   4.291   4.276
    3OL    C115 5884   4.901   4.150   4.122
    3OL    H15R 5885   4.801   4.168   4.083
    3OL    H15S 5886   4.896   4.057   4.179
    3OL    C116 5887   4.999   4.133   4.005
    3OL    H16R 5888   4.981   4.035   3.959
    3OL    H16S 5889   5.102   4.134   4.040
    3OL    C117 5890   4.979   4.241   3.897
    3OL    H17R 5891   4.993   4.340   3.940
    3OL    H17S 5892   4.877   4.236   3.858
    3OL    C118 5893   5.079   4.222   3.782
    3OL    H18R 5894   5.067   4.123   3.737
    3OL    H18S 5895   5.181   4.232   3.818
    3OL    H18T 5896   5.062   4.298   3.705
    1PA    C116 5897   1.146   1.237   3.089
    1PA    H16R 5898   1.101   1.332   3.058
    1PA    H16S 5899   1.081   1.155   3.058
    1PA    H16T 5900   1.242   1.226   3.038
    1PA    C115 5901   1.167   1.235   3.241
    1PA    H15R 5902   1.214   1.141   3.270
    1PA    H15S 5903   1.235   1.316   3.270
    1PA    C114 5904   1.034   1.252   3.315
    1PA    H14R 5905   0.987   1.346   3.287
    1PA    H14S 5906   0.966   1.171   3.285
    1PA    C113 5907   1.053   1.247   3.467
    1PA    H13R 5908   1.097   1.152   3.495
    1PA    H13S 5909   1.122   1.326   3.498
    1PA    C112 5910   0.920   1.266   3.542
    1PA    H12R 5911   0.879   1.365   3.520
    1PA    H12S 5912   0.848   1.192   3.506
    1PA    C111 5913   0.939   1.249   3.693
    1PA    H11R 5914   0.980   1.150   3.713
    1PA    H11S 5915   1.010   1.323   3.729
    1PA    C110 5916   0.806   1.265   3.768
    1PA    H10R 5917   0.768   1.367   3.756
    1PA    H10S 5918   0.732   1.198   3.723
    1PA     C19 5919   0.818   1.229   3.917
    1PA     H9R 5920   0.718   1.219   3.958
    1PA     H9S 5921   0.867   1.132   3.926
    1PA     C18 5922   0.895   1.335   3.997
    1PA     H8R 5923   0.996   1.347   3.958
    1PA     H8S 5924   0.844   1.431   3.986
    1PA     C17 5925   0.901   1.300   4.147
    1PA     H7R 5926   0.935   1.388   4.202
    1PA     H7S 5927   0.800   1.277   4.182
    1PA     C16 5928   0.996   1.184   4.175
    1PA     H6R 5929   0.967   1.096   4.118
    1PA     H6S 5930   1.096   1.212   4.142
    1PA     C15 5931   1.003   1.146   4.324
    1PA     H5R 5932   1.082   1.072   4.336
    1PA     H5S 5933   1.030   1.234   4.382
    1PA     C14 5934   0.871   1.087   4.375
    1PA     H4R 5935   0.794   1.165   4.379
    1PA     H4S 5936   0.836   1.011   4.304
    1PA     C13 5937   0.884   1.022   4.513
    1PA     H3R 5938   0.788   0.976   4.539
    1PA     H3S 5939   0.957   0.941   4.508
    1PA     C12 5940   0.925   1.121   4.623
    1PA     H2R 5941   1.023   1.162   4.601
    1PA     H2S 5942   0.854   1.204   4.627
    2PC     C11 5943   0.930   1.056   4.759
    2PC     O12 5944   0.870   0.955   4.788
    2PC     O11 5945   1.014   1.121   4.842
    2PC      C1 5946   1.038   1.070   4.974
    2PC      HR 5947   1.093   1.146   5.030
    2PC      HS 5948   0.942   1.053   5.024
    2PC      C2 5949   1.120   0.940   4.972
    2PC      HX 5950   1.065   0.862   4.918
    2PC      C3 5951   1.146   0.887   5.113
    2PC      HA 5952   1.051   0.853   5.157
    2PC      HB 5953   1.216   0.803   5.110
    2PC     O31 5954   1.200   0.991   5.196
    2PC     P31 5955   1.208   0.967   5.355
    2PC     O32 5956   1.276   1.104   5.402
    2PC     C31 5957   1.195   1.223   5.403
    2PC     H1A 5958   1.163   1.245   5.300
    2PC     H1B 5959   1.106   1.206   5.464
    2PC     C32 5960   1.276   1.341   5.458
    2PC     H2A 5961   1.357   1.365   5.390
    2PC     H2B 5962   1.210   1.427   5.465
    2PC     N31 5963   1.338   1.326   5.594
    2PC     C33 5964   1.458   1.237   5.590
    2PC     H3A 5965   1.504   1.235   5.689
    2PC     H3B 5966   1.427   1.136   5.563
    2PC     H3C 5967   1.528   1.276   5.516
    2PC     C34 5968   1.382   1.461   5.641
    2PC     H4A 5969   1.456   1.500   5.572
    2PC     H4B 5970   1.295   1.527   5.645
    2PC     H4C 5971   1.424   1.450   5.741
    2PC     C35 5972   1.239   1.270   5.693
    2PC     H5A 5973   1.287   1.267   5.791
    2PC     H5B 5974   1.211   1.170   5.661
    2PC     H5C 5975   1.152   1.336   5.695
    2PC     O33 5976   1.075   0.946   5.417
    2PC     O34 5977   1.290   0.853   5.400
    2PC     O21 5978   1.247   0.964   4.909
    2PC     C21 5979   1.258   0.949   4.776
    2PC     O22 5980   1.171   0.901   4.706
    3OL     C12 5981   1.389   0.997   4.721
    3OL     H2R 5982   1.456   0.912   4.711
    3OL     H2S 5983   1.435   1.067   4.792
    3OL     C13 5984   1.371   1.067   4.585
    3OL     H3R 5985   1.321   1.163   4.599
    3OL     H3S 5986   1.307   1.006   4.521
    3OL     C14 5987   1.504   1.087   4.510
    3OL     H4R 5988   1.483   1.138   4.415
    3OL     H4S 5989   1.545   0.989   4.484
    3OL     C15 5990   1.610   1.167   4.586
    3OL     H5R 5991   1.701   1.167   4.526
    3OL     H5S 5992   1.634   1.117   4.680
    3OL     C16 5993   1.568   1.312   4.614
    3OL     H6R 5994   1.479   1.311   4.677
    3OL     H6S 5995   1.541   1.362   4.521
    3OL     C17 5996   1.677   1.391   4.686
    3OL     H7R 5997   1.714   1.334   4.772
    3OL     H7S 5998   1.633   1.484   4.725
    3OL     C18 5999   1.794   1.428   4.594
    3OL     H8R 6000   1.756   1.482   4.508
    3OL     H8S 6001   1.841   1.336   4.558
    3OL     C19 6002   1.898   1.509   4.667
    3OL     H9R 6003   1.896   1.501   4.775
    3OL    C110 6004   1.987   1.590   4.611
    3OL    H10R 6005   2.055   1.645   4.675
    3OL    C111 6006   2.005   1.613   4.463
    3OL    H11R 6007   1.991   1.720   4.443
    3OL    H11S 6008   1.930   1.560   4.405
    3OL    C112 6009   2.146   1.574   4.416
    3OL    H12R 6010   2.218   1.631   4.475
    3OL    H12S 6011   2.159   1.604   4.312
    3OL    C113 6012   2.177   1.424   4.431
    3OL    H13R 6013   2.119   1.381   4.513
    3OL    H13S 6014   2.282   1.415   4.459
    3OL    C114 6015   2.156   1.343   4.303
    3OL    H14R 6016   2.199   1.244   4.318
    3OL    H14S 6017   2.211   1.389   4.220
    3OL    C115 6018   2.008   1.327   4.264
    3OL    H15R 6019   1.966   1.424   4.239
    3OL    H15S 6020   1.952   1.286   4.349
    3OL    C116 6021   1.993   1.233   4.143
    3OL    H16R 6022   2.036   1.135   4.167
    3OL    H16S 6023   2.048   1.274   4.058
    3OL    C117 6024   1.845   1.215   4.105
    3OL    H17R 6025   1.803   1.312   4.078
    3OL    H17S 6026   1.789   1.177   4.191
    3OL    C118 6027   1.830   1.118   3.987
    3OL    H18R 6028   1.866   1.019   4.014
    3OL    H18S 6029   1.886   1.154   3.901
    3OL    H18T 6030   1.725   1.110   3.959
    1PA    C116 6031   2.348   3.442   3.765
    1PA    H16R 6032   2.411   3.378   3.702
    1PA    H16S 6033   2.405   3.469   3.854
    1PA    H16T 6034   2.325   3.533   3.710
    1PA    C115 6035   2.219   3.368   3.803
    1PA    H15R 6036   2.158   3.431   3.867
    1PA    H15S 6037   2.162   3.349   3.712
    1PA    C114 6038   2.248   3.234   3.872
    1PA    H14R 6039   2.155   3.176   3.876
    1PA    H14S 6040   2.319   3.176   3.814
    1PA    C113 6041   2.299   3.253   4.015
    1PA    H13R 6042   2.395   3.305   4.014
    1PA    H13S 6043   2.229   3.316   4.070
    1PA    C112 6044   2.315   3.119   4.088
    1PA    H12R 6045   2.221   3.065   4.085
    1PA    H12S 6046   2.391   3.058   4.039
    1PA    C111 6047   2.355   3.144   4.235
    1PA    H11R 6048   2.453   3.194   4.238
    1PA    H11S 6049   2.282   3.212   4.279
    1PA    C110 6050   2.359   3.015   4.317
    1PA    H10R 6051   2.269   2.956   4.297
    1PA    H10S 6052   2.446   2.955   4.289
    1PA     C19 6053   2.365   3.050   4.466
    1PA     H9R 6054   2.458   3.104   4.488
    1PA     H9S 6055   2.282   3.118   4.489
    1PA     C18 6056   2.354   2.926   4.556
    1PA     H8R 6057   2.269   2.866   4.525
    1PA     H8S 6058   2.444   2.865   4.547
    1PA     C17 6059   2.334   2.970   4.702
    1PA     H7R 6060   2.423   3.021   4.738
    1PA     H7S 6061   2.251   3.041   4.707
    1PA     C16 6062   2.302   2.850   4.793
    1PA     H6R 6063   2.217   2.796   4.753
    1PA     H6S 6064   2.388   2.782   4.796
    1PA     C15 6065   2.269   2.899   4.935
    1PA     H5R 6066   2.358   2.947   4.978
    1PA     H5S 6067   2.190   2.974   4.930
    1PA     C14 6068   2.224   2.784   5.025
    1PA     H4R 6069   2.133   2.738   4.984
    1PA     H4S 6070   2.301   2.707   5.028
    1PA     C13 6071   2.196   2.835   5.167
    1PA     H3R 6072   2.287   2.878   5.207
    1PA     H3S 6073   2.120   2.913   5.165
    1PA     C12 6074   2.149   2.720   5.259
    1PA     H2R 6075   2.049   2.688   5.229
    1PA     H2S 6076   2.216   2.635   5.249
    2PC     C11 6077   2.147   2.763   5.403
    2PC     O12 6078   2.248   2.768   5.471
    2PC     O11 6079   2.025   2.787   5.452
    2PC      C1 6080   2.008   2.820   5.591
    2PC      HR 6081   1.902   2.828   5.614
    2PC      HS 6082   2.050   2.740   5.652
    2PC      C2 6083   2.076   2.953   5.628
    2PC      HX 6084   2.172   2.964   5.576
    2PC      C3 6085   2.106   2.960   5.779
    2PC      HA 6086   2.185   2.888   5.804
    2PC      HB 6087   2.141   3.060   5.804
    2PC     O31 6088   1.989   2.928   5.855
    2PC     P31 6089   1.996   2.936   6.015
    2PC     O32 6090   1.856   3.006   6.049
    2PC     C31 6091   1.734   2.940   6.011
    2PC     H1A 6092   1.653   3.013   6.016
    2PC     H1B 6093   1.742   2.906   5.908
    2PC     C32 6094   1.703   2.821   6.102
    2PC     H2A 6095   1.609   2.777   6.068
    2PC     H2B 6096   1.781   2.745   6.093
    2PC     N31 6097   1.685   2.845   6.249
    2PC     C33 6098   1.617   2.726   6.308
    2PC     H3A 6099   1.678   2.637   6.290
    2PC     H3B 6100   1.604   2.742   6.415
    2PC     H3C 6101   1.519   2.715   6.260
    2PC     C34 6102   1.818   2.862   6.317
    2PC     H4A 6103   1.880   2.775   6.294
    2PC     H4B 6104   1.865   2.953   6.278
    2PC     H4C 6105   1.802   2.871   6.424
    2PC     C35 6106   1.601   2.966   6.277
    2PC     H5A 6107   1.652   3.054   6.237
    2PC     H5B 6108   1.590   2.975   6.386
    2PC     H5C 6109   1.504   2.952   6.230
    2PC     O33 6110   2.021   2.809   6.087
    2PC     O34 6111   2.105   3.026   6.061
    2PC     O21 6112   1.990   3.063   5.594
    2PC     C21 6113   1.992   3.107   5.467
    2PC     O22 6114   2.069   3.067   5.381
    3OL     C12 6115   1.890   3.215   5.442
    3OL     H2R 6116   1.941   3.311   5.444
    3OL     H2S 6117   1.816   3.215   5.523
    3OL     C13 6118   1.817   3.193   5.308
    3OL     H3R 6119   1.759   3.101   5.315
    3OL     H3S 6120   1.890   3.179   5.228
    3OL     C14 6121   1.724   3.309   5.271
    3OL     H4R 6122   1.650   3.324   5.351
    3OL     H4S 6123   1.669   3.281   5.181
    3OL     C15 6124   1.799   3.440   5.244
    3OL     H5R 6125   1.879   3.421   5.172
    3OL     H5S 6126   1.844   3.476   5.336
    3OL     C16 6127   1.704   3.547   5.189
    3OL     H6R 6128   1.618   3.556   5.256
    3OL     H6S 6129   1.665   3.516   5.092
    3OL     C17 6130   1.772   3.684   5.178
    3OL     H7R 6131   1.811   3.713   5.275
    3OL     H7S 6132   1.696   3.758   5.151
    3OL     C18 6133   1.885   3.690   5.074
    3OL     H8R 6134   1.961   3.616   5.099
    3OL     H8S 6135   1.933   3.788   5.082
    3OL     C19 6136   1.835   3.666   4.934
    3OL     H9R 6137   1.784   3.571   4.919
    3OL    C110 6138   1.844   3.752   4.833
    3OL    H10R 6139   1.801   3.725   4.737
    3OL    C111 6140   1.913   3.886   4.838
    3OL    H11R 6141   2.005   3.880   4.897
    3OL    H11S 6142   1.847   3.958   4.887
    3OL    C112 6143   1.945   3.938   4.697
    3OL    H12R 6144   1.984   4.040   4.704
    3OL    H12S 6145   1.852   3.943   4.640
    3OL    C113 6146   2.045   3.849   4.622
    3OL    H13R 6147   2.035   3.866   4.515
    3OL    H13S 6148   2.021   3.744   4.639
    3OL    C114 6149   2.190   3.875   4.665
    3OL    H14R 6150   2.247   3.782   4.653
    3OL    H14S 6151   2.195   3.902   4.771
    3OL    C115 6152   2.256   3.984   4.580
    3OL    H15R 6153   2.202   4.078   4.592
    3OL    H15S 6154   2.250   3.956   4.474
    3OL    C116 6155   2.403   4.002   4.619
    3OL    H16R 6156   2.455   3.907   4.611
    3OL    H16S 6157   2.410   4.036   4.723
    3OL    C117 6158   2.472   4.105   4.527
    3OL    H17R 6159   2.420   4.201   4.533
    3OL    H17S 6160   2.467   4.071   4.424
    3OL    C118 6161   2.619   4.124   4.568
    3OL    H18R 6162   2.674   4.029   4.560
    3OL    H18S 6163   2.626   4.160   4.671
    3OL    H18T 6164   2.667   4.197   4.502
    1PA    C116 6165   3.406   0.707   3.932
    1PA    H16R 6166   3.389   0.811   3.960
    1PA    H16S 6167   3.384   0.696   3.825
    1PA    H16T 6168   3.511   0.684   3.948
    1PA    C115 6169   3.316   0.614   4.014
    1PA    H15R 6170   3.212   0.638   3.991
    1PA    H15S 6171   3.333   0.510   3.984
    1PA    C114 6172   3.338   0.629   4.165
    1PA    H14R 6173   3.334   0.735   4.192
    1PA    H14S 6174   3.258   0.578   4.218
    1PA    C113 6175   3.473   0.570   4.211
    1PA    H13R 6176   3.478   0.465   4.182
    1PA    H13S 6177   3.555   0.623   4.162
    1PA    C112 6178   3.488   0.582   4.363
    1PA    H12R 6179   3.483   0.687   4.393
    1PA    H12S 6180   3.406   0.529   4.412
    1PA    C111 6181   3.622   0.522   4.409
    1PA    H11R 6182   3.632   0.419   4.374
    1PA    H11S 6183   3.704   0.579   4.363
    1PA    C110 6184   3.638   0.526   4.561
    1PA    H10R 6185   3.744   0.515   4.586
    1PA    H10S 6186   3.605   0.623   4.599
    1PA     C19 6187   3.559   0.412   4.628
    1PA     H9R 6188   3.454   0.417   4.601
    1PA     H9S 6189   3.598   0.317   4.591
    1PA     C18 6190   3.573   0.414   4.781
    1PA     H8R 6191   3.538   0.318   4.820
    1PA     H8S 6192   3.679   0.424   4.808
    1PA     C17 6193   3.491   0.527   4.844
    1PA     H7R 6194   3.531   0.624   4.816
    1PA     H7S 6195   3.389   0.522   4.804
    1PA     C16 6196   3.482   0.517   4.997
    1PA     H6R 6197   3.398   0.578   5.029
    1PA     H6S 6198   3.458   0.414   5.027
    1PA     C15 6199   3.606   0.567   5.071
    1PA     H5R 6200   3.653   0.649   5.016
    1PA     H5S 6201   3.574   0.608   5.167
    1PA     C14 6202   3.708   0.455   5.099
    1PA     H4R 6203   3.657   0.371   5.147
    1PA     H4S 6204   3.751   0.419   5.005
    1PA     C13 6205   3.820   0.506   5.190
    1PA     H3R 6206   3.869   0.592   5.145
    1PA     H3S 6207   3.775   0.539   5.285
    1PA     C12 6208   3.923   0.396   5.217
    1PA     H2R 6209   3.873   0.302   5.239
    1PA     H2S 6210   3.985   0.380   5.129
    2PC     C11 6211   4.011   0.429   5.335
    2PC     O12 6212   3.969   0.477   5.439
    2PC     O11 6213   4.141   0.402   5.315
    2PC      C1 6214   4.230   0.404   5.428
    2PC      HR 6215   4.333   0.399   5.392
    2PC      HS 6216   4.215   0.498   5.483
    2PC      C2 6217   4.203   0.285   5.520
    2PC      HX 6218   4.098   0.281   5.551
    2PC      C3 6219   4.289   0.295   5.648
    2PC      HA 6220   4.395   0.302   5.623
    2PC      HB 6221   4.260   0.384   5.704
    2PC     O31 6222   4.265   0.178   5.728
    2PC     P31 6223   4.318   0.174   5.879
    2PC     O32 6224   4.243   0.041   5.926
    2PC     C31 6225   4.249   0.011   6.066
    2PC     H1A 6226   4.354   0.011   6.097
    2PC     H1B 6227   4.195   0.089   6.121
    2PC     C32 6228   4.190   6.321   6.096
    2PC     H2A 6229   4.084   6.320   6.068
    2PC     H2B 6230   4.242   6.245   6.037
    2PC     N31 6231   4.197   6.276   6.239
    2PC     C33 6232   4.127   6.374   6.329
    2PC     H3A 6233   4.128   6.333   6.430
    2PC     H3B 6234   4.181   0.021   6.326
    2PC     H3C 6235   4.025   6.387   6.294
    2PC     C34 6236   4.128   6.143   6.251
    2PC     H4A 6237   4.024   6.155   6.223
    2PC     H4B 6238   4.178   6.073   6.185
    2PC     H4C 6239   4.136   6.110   6.355
    2PC     C35 6240   4.339   6.261   6.284
    2PC     H5A 6241   4.390   6.193   6.216
    2PC     H5B 6242   4.338   6.219   6.385
    2PC     H5C 6243   4.386   6.359   6.284
    2PC     O33 6244   4.465   0.163   5.895
    2PC     O34 6245   4.269   0.293   5.953
    2PC     O21 6246   4.240   0.165   5.450
    2PC     C21 6247   4.149   0.107   5.370
    2PC     O22 6248   4.031   0.136   5.369
    3OL     C12 6249   4.208   0.001   5.281
    3OL     H2R 6250   4.163   6.352   5.308
    3OL     H2S 6251   4.315   6.442   5.297
    3OL     C13 6252   4.179   0.033   5.134
    3OL     H3R 6253   4.230   0.126   5.106
    3OL     H3S 6254   4.072   0.050   5.121
    3OL     C14 6255   4.223   6.368   5.040
    3OL     H4R 6256   4.174   6.275   5.070
    3OL     H4S 6257   4.331   6.352   5.049
    3OL     C15 6258   4.186   6.400   4.895
    3OL     H5R 6259   4.238   0.043   4.863
    3OL     H5S 6260   4.079   6.419   4.889
    3OL     C16 6261   4.222   6.284   4.801
    3OL     H6R 6262   4.180   6.191   4.840
    3OL     H6S 6263   4.330   6.273   4.796
    3OL     C17 6264   4.166   6.310   4.660
    3OL     H7R 6265   4.207   6.402   4.619
    3OL     H7S 6266   4.057   6.322   4.666
    3OL     C18 6267   4.197   6.192   4.566
    3OL     H8R 6268   4.169   6.099   4.616
    3OL     H8S 6269   4.305   6.189   4.549
    3OL     C19 6270   4.119   6.204   4.438
    3OL     H9R 6271   4.016   6.238   4.450
    3OL    C110 6272   4.163   6.179   4.315
    3OL    H10R 6273   4.094   6.192   4.232
    3OL    C111 6274   4.301   6.132   4.277
    3OL    H11R 6275   4.293   6.031   4.236
    3OL    H11S 6276   4.368   6.128   4.363
    3OL    C112 6277   4.361   6.223   4.169
    3OL    H12R 6278   4.363   6.326   4.204
    3OL    H12S 6279   4.296   6.220   4.081
    3OL    C113 6280   4.502   6.178   4.128
    3OL    H13R 6281   4.523   6.218   4.029
    3OL    H13S 6282   4.507   6.070   4.121
    3OL    C114 6283   4.609   6.231   4.225
    3OL    H14R 6284   4.590   6.192   4.325
    3OL    H14S 6285   4.602   6.340   4.230
    3OL    C115 6286   4.750   6.191   4.180
    3OL    H15R 6287   4.767   6.225   4.078
    3OL    H15S 6288   4.758   6.082   4.180
    3OL    C116 6289   4.856   6.251   4.272
    3OL    H16R 6290   4.841   6.214   4.374
    3OL    H16S 6291   4.845   6.360   4.274
    3OL    C117 6292   4.998   6.216   4.225
    3OL    H17R 6293   5.012   6.252   4.123
    3OL    H17S 6294   5.010   6.107   4.223
    3OL    C118 6295   5.103   6.278   4.317
    3OL    H18R 6296   5.090   6.243   4.419
    3OL    H18S 6297   5.095   6.387   4.317
    3OL    H18T 6298   5.204   6.251   4.283
    1PA    C116 6299   5.931   5.273   4.003
    1PA    H16R 6300   6.015   5.240   4.065
    1PA    H16S 6301   5.964   5.274   3.899
    1PA    H16T 6302   5.850   5.201   4.012
    1PA    C115 6303   5.884   5.413   4.046
    1PA    H15R 6304   5.966   5.484   4.031
    1PA    H15S 6305   5.801   5.444   3.982
    1PA    C114 6306   5.841   5.414   4.193
    1PA    H14R 6307   5.761   5.341   4.208
    1PA    H14S 6308   5.925   5.385   4.255
    1PA    C113 6309   5.790   5.553   4.234
    1PA    H13R 6310   5.866   5.628   4.211
    1PA    H13S 6311   5.702   5.577   4.175
    1PA    C112 6312   5.753   5.560   4.383
    1PA    H12R 6313   5.697   5.652   4.399
    1PA    H12S 6314   5.688   5.477   4.410
    1PA    C111 6315   5.878   5.561   4.472
    1PA    H11R 6316   5.931   5.466   4.460
    1PA    H11S 6317   5.946   5.639   4.437
    1PA    C110 6318   5.849   5.581   4.621
    1PA    H10R 6319   5.775   5.508   4.654
    1PA    H10S 6320   5.940   5.563   4.677
    1PA     C19 6321   5.798   5.723   4.651
    1PA     H9R 6322   5.868   5.797   4.611
    1PA     H9S 6323   5.701   5.738   4.603
    1PA     C18 6324   5.783   5.745   4.803
    1PA     H8R 6325   5.724   5.664   4.846
    1PA     H8S 6326   5.882   5.743   4.850
    1PA     C17 6327   5.714   5.879   4.831
    1PA     H7R 6328   5.771   5.961   4.788
    1PA     H7S 6329   5.615   5.878   4.784
    1PA     C16 6330   5.696   5.901   4.982
    1PA     H6R 6331   5.650   5.813   5.027
    1PA     H6S 6332   5.794   5.915   5.029
    1PA     C15 6333   5.608   6.023   5.011
    1PA     H5R 6334   5.653   6.113   4.968
    1PA     H5S 6335   5.510   6.009   4.963
    1PA     C14 6336   5.588   6.042   5.162
    1PA     H4R 6337   5.555   5.948   5.207
    1PA     H4S 6338   5.683   6.070   5.207
    1PA     C13 6339   5.483   6.151   5.190
    1PA     H3R 6340   5.510   6.242   5.135
    1PA     H3S 6341   5.386   6.118   5.154
    1PA     C12 6342   5.475   6.185   5.340
    1PA     H2R 6343   5.572   6.222   5.374
    1PA     H2S 6344   5.402   6.266   5.354
    2PC     C11 6345   5.436   6.069   5.427
    2PC     O12 6346   5.515   6.012   5.499
    2PC     O11 6347   5.307   6.032   5.414
    2PC      C1 6348   5.257   5.925   5.495
    2PC      HR 6349   5.164   5.888   5.452
    2PC      HS 6350   5.329   5.842   5.493
    2PC      C2 6351   5.235   5.972   5.639
    2PC      HX 6352   5.324   6.026   5.673
    2PC      C3 6353   5.217   5.851   5.732
    2PC      HA 6354   5.126   5.795   5.706
    2PC      HB 6355   5.302   5.784   5.720
    2PC     O31 6356   5.210   5.891   5.870
    2PC     P31 6357   5.210   5.776   5.981
    2PC     O32 6358   5.075   5.798   6.065
    2PC     C31 6359   4.951   5.752   6.008
    2PC     H1A 6360   4.916   5.825   5.935
    2PC     H1B 6361   4.966   5.655   5.959
    2PC     C32 6362   4.850   5.734   6.123
    2PC     H2A 6363   4.886   5.657   6.190
    2PC     H2B 6364   4.842   5.828   6.179
    2PC     N31 6365   4.710   5.696   6.085
    2PC     C33 6366   4.631   5.671   6.210
    2PC     H3A 6367   4.528   5.651   6.182
    2PC     H3B 6368   4.674   5.585   6.261
    2PC     H3C 6369   4.638   5.759   6.273
    2PC     C34 6370   4.645   5.809   6.010
    2PC     H4A 6371   4.649   5.899   6.071
    2PC     H4B 6372   4.698   5.824   5.916
    2PC     H4C 6373   4.541   5.782   5.990
    2PC     C35 6374   4.706   5.572   6.001
    2PC     H5A 6375   4.751   5.490   6.057
    2PC     H5B 6376   4.761   5.589   5.909
    2PC     H5C 6377   4.602   5.549   5.978
    2PC     O33 6378   5.217   5.641   5.921
    2PC     O34 6379   5.325   5.781   6.074
    2PC     O21 6380   5.123   6.062   5.646
    2PC     C21 6381   4.998   6.026   5.612
    2PC     O22 6382   4.962   5.913   5.588
    3OL     C12 6383   4.906   6.145   5.601
    3OL     H2R 6384   4.964   6.237   5.604
    3OL     H2S 6385   4.840   6.145   5.689
    3OL     C13 6386   4.821   6.139   5.474
    3OL     H3R 6387   4.749   6.221   5.475
    3OL     H3S 6388   4.765   6.045   5.472
    3OL     C14 6389   4.907   6.151   5.347
    3OL     H4R 6390   4.985   6.074   5.346
    3OL     H4S 6391   4.955   6.248   5.345
    3OL     C15 6392   4.820   6.134   5.221
    3OL     H5R 6393   4.739   6.208   5.222
    3OL     H5S 6394   4.774   6.035   5.222
    3OL     C16 6395   4.904   6.151   5.093
    3OL     H6R 6396   4.986   6.079   5.095
    3OL     H6S 6397   4.946   6.251   5.091
    3OL     C17 6398   4.817   6.128   4.969
    3OL     H7R 6399   4.732   6.197   4.971
    3OL     H7S 6400   4.777   6.026   4.971
    3OL     C18 6401   4.895   6.147   4.838
    3OL     H8R 6402   4.937   6.247   4.836
    3OL     H8S 6403   4.825   6.140   4.754
    3OL     C19 6404   5.006   6.046   4.826
    3OL     H9R 6405   5.085   6.058   4.900
    3OL    C110 6406   5.015   5.945   4.740
    3OL    H10R 6407   5.101   5.879   4.747
    3OL    C111 6408   4.918   5.912   4.629
    3OL    H11R 6409   4.844   5.991   4.614
    3OL    H11S 6410   4.865   5.821   4.654
    3OL    C112 6411   4.995   5.890   4.498
    3OL    H12R 6412   5.063   5.805   4.509
    3OL    H12S 6413   5.057   5.978   4.479
    3OL    C113 6414   4.903   5.870   4.377
    3OL    H13R 6415   4.965   5.860   4.287
    3OL    H13S 6416   4.842   5.959   4.364
    3OL    C114 6417   4.811   5.748   4.387
    3OL    H14R 6418   4.747   5.746   4.298
    3OL    H14S 6419   4.744   5.758   4.473
    3OL    C115 6420   4.887   5.615   4.395
    3OL    H15R 6421   4.949   5.613   4.484
    3OL    H15S 6422   4.953   5.605   4.308
    3OL    C116 6423   4.790   5.496   4.398
    3OL    H16R 6424   4.728   5.496   4.308
    3OL    H16S 6425   4.723   5.506   4.484
    3OL    C117 6426   4.866   5.363   4.408
    3OL    H17R 6427   4.926   5.361   4.499
    3OL    H17S 6428   4.934   5.354   4.323
    3OL    C118 6429   4.770   5.243   4.408
    3OL    H18R 6430   4.710   5.242   4.317
    3OL    H18S 6431   4.702   5.249   4.494
    3OL    H18T 6432   4.825   5.150   4.414
    1PA    C116 6433   2.007   4.957   3.584
    1PA    H16R 6434   1.973   5.004   3.492
    1PA    H16S 6435   1.920   4.923   3.641
    1PA    H16T 6436   2.066   4.869   3.558
    1PA    C115 6437   2.092   5.054   3.666
    1PA    H15R 6438   2.126   5.006   3.758
    1PA    H15S 6439   2.182   5.079   3.609
    1PA    C114 6440   2.019   5.185   3.699
    1PA    H14R 6441   2.089   5.255   3.745
    1PA    H14S 6442   1.985   5.230   3.606
    1PA    C113 6443   1.897   5.168   3.792
    1PA    H13R 6444   1.839   5.261   3.792
    1PA    H13S 6445   1.831   5.091   3.751
    1PA    C112 6446   1.934   5.131   3.936
    1PA    H12R 6447   1.847   5.084   3.982
    1PA    H12S 6448   2.014   5.057   3.938
    1PA    C111 6449   1.972   5.253   4.020
    1PA    H11R 6450   2.060   5.302   3.979
    1PA    H11S 6451   1.890   5.325   4.019
    1PA    C110 6452   1.999   5.210   4.165
    1PA    H10R 6453   1.918   5.146   4.199
    1PA    H10S 6454   2.092   5.152   4.168
    1PA     C19 6455   2.011   5.330   4.261
    1PA     H9R 6456   2.095   5.393   4.232
    1PA     H9S 6457   1.920   5.390   4.255
    1PA     C18 6458   2.029   5.279   4.405
    1PA     H8R 6459   1.950   5.208   4.428
    1PA     H8S 6460   2.124   5.225   4.412
    1PA     C17 6461   2.027   5.392   4.508
    1PA     H7R 6462   2.109   5.462   4.488
    1PA     H7S 6463   1.934   5.448   4.500
    1PA     C16 6464   2.041   5.334   4.649
    1PA     H6R 6465   1.960   5.262   4.666
    1PA     H6S 6466   2.135   5.279   4.656
    1PA     C15 6467   2.037   5.442   4.758
    1PA     H5R 6468   2.118   5.513   4.742
    1PA     H5S 6469   1.942   5.496   4.752
    1PA     C14 6470   2.051   5.377   4.896
    1PA     H4R 6471   1.968   5.307   4.912
    1PA     H4S 6472   2.143   5.319   4.900
    1PA     C13 6473   2.051   5.481   5.009
    1PA     H3R 6474   2.135   5.549   4.995
    1PA     H3S 6475   1.959   5.540   5.005
    1PA     C12 6476   2.062   5.413   5.146
    1PA     H2R 6477   1.970   5.358   5.167
    1PA     H2S 6478   2.144   5.340   5.144
    2PC     C11 6479   2.088   5.509   5.259
    2PC     O12 6480   2.134   5.474   5.366
    2PC     O11 6481   2.049   5.635   5.233
    2PC      C1 6482   2.067   5.736   5.333
    2PC      HR 6483   2.008   5.823   5.305
    2PC      HS 6484   2.032   5.699   5.430
    2PC      C2 6485   2.215   5.777   5.342
    2PC      HX 6486   2.278   5.689   5.352
    2PC      C3 6487   2.239   5.870   5.462
    2PC      HA 6488   2.236   5.813   5.555
    2PC      HB 6489   2.338   5.917   5.453
    2PC     O31 6490   2.137   5.972   5.466
    2PC     P31 6491   2.157   6.101   5.558
    2PC     O32 6492   2.132   6.045   5.706
    2PC     C31 6493   2.000   5.999   5.740
    2PC     H1A 6494   1.925   6.070   5.705
    2PC     H1B 6495   1.983   5.903   5.691
    2PC     C32 6496   1.989   5.983   5.892
    2PC     H2A 6497   1.889   5.944   5.915
    2PC     H2B 6498   2.062   5.911   5.928
    2PC     N31 6499   2.005   6.105   5.977
    2PC     C33 6500   2.150   6.142   5.989
    2PC     H3A 6501   2.159   6.229   6.053
    2PC     H3B 6502   2.203   6.057   6.032
    2PC     H3C 6503   2.189   6.162   5.889
    2PC     C34 6504   1.926   6.221   5.924
    2PC     H4A 6505   1.822   6.190   5.914
    2PC     H4B 6506   1.934   6.303   5.995
    2PC     H4C 6507   1.968   6.250   5.828
    2PC     C35 6508   1.953   6.076   6.115
    2PC     H5A 6509   2.006   5.990   6.155
    2PC     H5B 6510   1.846   6.055   6.108
    2PC     H5C 6511   1.970   6.164   6.178
    2PC     O33 6512   2.292   6.159   5.539
    2PC     O34 6513   2.062   6.210   5.528
    2PC     O21 6514   2.246   5.847   5.220
    2PC     C21 6515   2.373   5.858   5.180
    2PC     O22 6516   2.467   5.803   5.234
    3OL     C12 6517   2.386   5.946   5.058
    3OL     H2R 6518   2.470   6.015   5.073
    3OL     H2S 6519   2.296   6.005   5.047
    3OL     C13 6520   2.410   5.861   4.932
    3OL     H3R 6521   2.336   5.781   4.927
    3OL     H3S 6522   2.509   5.815   4.937
    3OL     C14 6523   2.399   5.947   4.805
    3OL     H4R 6524   2.469   6.031   4.811
    3OL     H4S 6525   2.298   5.989   4.798
    3OL     C15 6526   2.429   5.864   4.679
    3OL     H5R 6527   2.365   5.776   4.678
    3OL     H5S 6528   2.533   5.830   4.682
    3OL     C16 6529   2.405   5.947   4.552
    3OL     H6R 6530   2.466   6.038   4.555
    3OL     H6S 6531   2.300   5.977   4.549
    3OL     C17 6532   2.438   5.867   4.426
    3OL     H7R 6533   2.378   5.775   4.425
    3OL     H7S 6534   2.543   5.838   4.426
    3OL     C18 6535   2.406   5.948   4.300
    3OL     H8R 6536   2.471   6.036   4.296
    3OL     H8S 6537   2.303   5.983   4.306
    3OL     C19 6538   2.420   5.862   4.177
    3OL     H9R 6539   2.377   5.762   4.187
    3OL    C110 6540   2.478   5.894   4.062
    3OL    H10R 6541   2.480   5.821   3.982
    3OL    C111 6542   2.543   6.026   4.028
    3OL    H11R 6543   2.636   6.006   3.974
    3OL    H11S 6544   2.570   6.081   4.118
    3OL    C112 6545   2.454   6.115   3.940
    3OL    H12R 6546   2.510   6.205   3.916
    3OL    H12S 6547   2.366   6.147   3.997
    3OL    C113 6548   2.412   6.049   3.808
    3OL    H13R 6549   2.489   5.979   3.776
    3OL    H13S 6550   2.406   6.126   3.730
    3OL    C114 6551   2.277   5.977   3.815
    3OL    H14R 6552   2.272   5.912   3.902
    3OL    H14S 6553   2.267   5.913   3.727
    3OL    C115 6554   2.159   6.075   3.817
    3OL    H15R 6555   2.163   6.139   3.729
    3OL    H15S 6556   2.166   6.139   3.905
    3OL    C116 6557   2.025   6.000   3.818
    3OL    H16R 6558   2.019   5.936   3.907
    3OL    H16S 6559   2.019   5.935   3.731
    3OL    C117 6560   1.905   6.096   3.816
    3OL    H17R 6561   1.814   6.039   3.794
    3OL    H17S 6562   1.917   6.170   3.737
    3OL    C118 6563   1.885   6.166   3.951
    3OL    H18R 6564   1.971   6.228   3.976
    3OL    H18S 6565   1.869   6.093   4.031
    3OL    H18T 6566   1.797   6.231   3.947
    1PA    C116 6567   4.613   3.155   3.627
    1PA    H16R 6568   4.566   3.184   3.533
    1PA    H16S 6569   4.538   3.110   3.691
    1PA    H16T 6570   4.690   3.080   3.605
    1PA    C115 6571   4.676   3.278   3.694
    1PA    H15R 6572   4.744   3.326   3.622
    1PA    H15S 6573   4.598   3.351   3.718
    1PA    C114 6574   4.756   3.243   3.820
    1PA    H14R 6575   4.831   3.167   3.797
    1PA    H14S 6576   4.809   3.332   3.854
    1PA    C113 6577   4.666   3.193   3.934
    1PA    H13R 6578   4.587   3.267   3.952
    1PA    H13S 6579   4.618   3.099   3.905
    1PA    C112 6580   4.747   3.172   4.063
    1PA    H12R 6581   4.828   3.102   4.042
    1PA    H12S 6582   4.792   3.266   4.093
    1PA    C111 6583   4.662   3.116   4.178
    1PA    H11R 6584   4.617   3.021   4.149
    1PA    H11S 6585   4.729   3.096   4.262
    1PA    C110 6586   4.552   3.213   4.224
    1PA    H10R 6587   4.595   3.312   4.240
    1PA    H10S 6588   4.477   3.222   4.145
    1PA     C19 6589   4.484   3.165   4.353
    1PA     H9R 6590   4.449   3.062   4.340
    1PA     H9S 6591   4.557   3.165   4.434
    1PA     C18 6592   4.366   3.256   4.389
    1PA     H8R 6593   4.400   3.360   4.387
    1PA     H8S 6594   4.288   3.246   4.313
    1PA     C17 6595   4.307   3.227   4.527
    1PA     H7R 6596   4.383   3.242   4.604
    1PA     H7S 6597   4.227   3.299   4.546
    1PA     C16 6598   4.248   3.085   4.541
    1PA     H6R 6599   4.176   3.067   4.461
    1PA     H6S 6600   4.328   3.011   4.531
    1PA     C15 6601   4.179   3.068   4.677
    1PA     H5R 6602   4.249   3.090   4.757
    1PA     H5S 6603   4.096   3.138   4.685
    1PA     C14 6604   4.127   2.924   4.693
    1PA     H4R 6605   4.060   2.900   4.610
    1PA     H4S 6606   4.211   2.855   4.688
    1PA     C13 6607   4.053   2.904   4.826
    1PA     H3R 6608   4.119   2.928   4.910
    1PA     H3S 6609   3.967   2.970   4.831
    1PA     C12 6610   4.007   2.758   4.837
    1PA     H2R 6611   3.949   2.730   4.749
    1PA     H2S 6612   4.095   2.692   4.840
    2PC     C11 6613   3.923   2.729   4.959
    2PC     O12 6614   3.893   2.809   5.045
    2PC     O11 6615   3.882   2.601   4.959
    2PC      C1 6616   3.789   2.553   5.059
    2PC      HR 6617   3.789   2.444   5.057
    2PC      HS 6618   3.822   2.586   5.158
    2PC      C2 6619   3.648   2.604   5.029
    2PC      HX 6620   3.650   2.713   5.015
    2PC      C3 6621   3.551   2.572   5.144
    2PC      HA 6622   3.571   2.641   5.226
    2PC      HB 6623   3.447   2.585   5.113
    2PC     O31 6624   3.571   2.437   5.190
    2PC     P31 6625   3.527   2.399   5.340
    2PC     O32 6626   3.589   2.252   5.359
    2PC     C31 6627   3.503   2.140   5.331
    2PC     H1A 6628   3.410   2.148   5.387
    2PC     H1B 6629   3.480   2.138   5.225
    2PC     C32 6630   3.577   2.011   5.369
    2PC     H2A 6631   3.527   1.926   5.321
    2PC     H2B 6632   3.679   2.015   5.330
    2PC     N31 6633   3.586   1.975   5.514
    2PC     C33 6634   3.650   2.083   5.596
    2PC     H3A 6635   3.751   2.099   5.559
    2PC     H3B 6636   3.590   2.174   5.586
    2PC     H3C 6637   3.652   2.050   5.700
    2PC     C34 6638   3.450   1.946   5.570
    2PC     H4A 6639   3.404   1.866   5.511
    2PC     H4B 6640   3.461   1.913   5.673
    2PC     H4C 6641   3.390   2.036   5.565
    2PC     C35 6642   3.670   1.851   5.526
    2PC     H5A 6643   3.626   1.773   5.463
    2PC     H5B 6644   3.670   1.819   5.630
    2PC     H5C 6645   3.771   1.873   5.493
    2PC     O33 6646   3.586   2.493   5.438
    2PC     O34 6647   3.383   2.404   5.372
    2PC     O21 6648   3.605   2.542   4.907
    2PC     C21 6649   3.501   2.593   4.839
    2PC     O22 6650   3.444   2.696   4.870
    3OL     C12 6651   3.464   2.512   4.717
    3OL     H2R 6652   3.374   2.555   4.673
    3OL     H2S 6653   3.439   2.411   4.750
    3OL     C13 6654   3.575   2.503   4.612
    3OL     H3R 6655   3.545   2.429   4.537
    3OL     H3S 6656   3.668   2.467   4.657
    3OL     C14 6657   3.600   2.637   4.542
    3OL     H4R 6658   3.648   2.707   4.611
    3OL     H4S 6659   3.504   2.680   4.512
    3OL     C15 6660   3.686   2.620   4.416
    3OL     H5R 6661   3.637   2.550   4.348
    3OL     H5S 6662   3.783   2.576   4.443
    3OL     C16 6663   3.709   2.753   4.344
    3OL     H6R 6664   3.777   2.815   4.403
    3OL     H6S 6665   3.614   2.807   4.335
    3OL     C17 6666   3.768   2.731   4.204
    3OL     H7R 6667   3.694   2.680   4.142
    3OL     H7S 6668   3.855   2.667   4.211
    3OL     C18 6669   3.808   2.862   4.134
    3OL     H8R 6670   3.843   2.838   4.033
    3OL     H8S 6671   3.894   2.904   4.187
    3OL     C19 6672   3.698   2.965   4.132
    3OL     H9R 6673   3.673   3.004   4.231
    3OL    C110 6674   3.633   3.013   4.027
    3OL    H10R 6675   3.557   3.089   4.044
    3OL    C111 6676   3.649   2.972   3.883
    3OL    H11R 6677   3.560   2.916   3.854
    3OL    H11S 6678   3.735   2.906   3.867
    3OL    C112 6679   3.660   3.093   3.790
    3OL    H12R 6680   3.581   3.165   3.815
    3OL    H12S 6681   3.642   3.060   3.687
    3OL    C113 6682   3.797   3.161   3.796
    3OL    H13R 6683   3.874   3.089   3.768
    3OL    H13S 6684   3.818   3.194   3.898
    3OL    C114 6685   3.803   3.282   3.701
    3OL    H14R 6686   3.731   3.357   3.734
    3OL    H14S 6687   3.774   3.250   3.601
    3OL    C115 6688   3.944   3.342   3.697
    3OL    H15R 6689   4.014   3.269   3.656
    3OL    H15S 6690   3.976   3.365   3.799
    3OL    C116 6691   3.951   3.472   3.614
    3OL    H16R 6692   4.052   3.513   3.623
    3OL    H16S 6693   3.882   3.545   3.656
    3OL    C117 6694   3.919   3.450   3.465
    3OL    H17R 6695   3.816   3.417   3.454
    3OL    H17S 6696   3.984   3.373   3.424
    3OL    C118 6697   3.939   3.580   3.386
    3OL    H18R 6698   3.913   3.565   3.281
    3OL    H18S 6699   4.043   3.613   3.391
    3OL    H18T 6700   3.876   3.660   3.426
    1PA    C116 6701   2.208   4.719   3.830
    1PA    H16R 6702   2.228   4.653   3.745
    1PA    H16S 6703   2.264   4.811   3.815
    1PA    H16T 6704   2.102   4.742   3.832
    1PA    C115 6705   2.252   4.651   3.961
    1PA    H15R 6706   2.197   4.557   3.974
    1PA    H15S 6707   2.358   4.625   3.953
    1PA    C114 6708   2.232   4.741   4.083
    1PA    H14R 6709   2.290   4.700   4.166
    1PA    H14S 6710   2.271   4.841   4.062
    1PA    C113 6711   2.084   4.751   4.125
    1PA    H13R 6712   2.025   4.787   4.041
    1PA    H13S 6713   2.046   4.653   4.152
    1PA    C112 6714   2.065   4.849   4.242
    1PA    H12R 6715   2.117   4.942   4.220
    1PA    H12S 6716   1.959   4.873   4.250
    1PA    C111 6717   2.114   4.792   4.376
    1PA    H11R 6718   2.059   4.700   4.398
    1PA    H11S 6719   2.220   4.768   4.369
    1PA    C110 6720   2.092   4.894   4.489
    1PA    H10R 6721   2.143   4.987   4.465
    1PA    H10S 6722   1.986   4.916   4.498
    1PA     C19 6723   2.146   4.840   4.623
    1PA     H9R 6724   2.096   4.747   4.649
    1PA     H9S 6725   2.252   4.818   4.611
    1PA     C18 6726   2.131   4.942   4.737
    1PA     H8R 6727   2.197   4.913   4.819
    1PA     H8S 6728   2.166   5.039   4.702
    1PA     C17 6729   1.988   4.957   4.790
    1PA     H7R 6730   1.982   5.047   4.851
    1PA     H7S 6731   1.919   4.971   4.706
    1PA     C16 6732   1.939   4.838   4.874
    1PA     H6R 6733   1.832   4.852   4.894
    1PA     H6S 6734   1.949   4.745   4.818
    1PA     C15 6735   2.012   4.827   5.008
    1PA     H5R 6736   2.117   4.799   4.993
    1PA     H5S 6737   2.011   4.924   5.057
    1PA     C14 6738   1.946   4.725   5.102
    1PA     H4R 6739   1.981   4.744   5.204
    1PA     H4S 6740   1.838   4.741   5.103
    1PA     C13 6741   1.978   4.579   5.065
    1PA     H3R 6742   1.957   4.563   4.959
    1PA     H3S 6743   2.084   4.560   5.081
    1PA     C12 6744   1.894   4.480   5.147
    1PA     H2R 6745   1.788   4.494   5.124
    1PA     H2S 6746   1.920   4.378   5.118
    2PC     C11 6747   1.914   4.493   5.296
    2PC     O12 6748   1.822   4.517   5.372
    2PC     O11 6749   2.042   4.481   5.334
    2PC      C1 6750   2.074   4.494   5.474
    2PC      HR 6751   2.025   4.583   5.514
    2PC      HS 6752   2.038   4.406   5.528
    2PC      C2 6753   2.226   4.509   5.491
    2PC      HX 6754   2.277   4.425   5.444
    2PC      C3 6755   2.262   4.513   5.640
    2PC      HA 6756   2.365   4.548   5.652
    2PC      HB 6757   2.195   4.582   5.693
    2PC     O31 6758   2.251   4.381   5.696
    2PC     P31 6759   2.272   4.361   5.854
    2PC     O32 6760   2.130   4.301   5.895
    2PC     C31 6761   2.020   4.392   5.918
    2PC     H1A 6762   2.045   4.461   6.000
    2PC     H1B 6763   2.002   4.449   5.827
    2PC     C32 6764   1.896   4.309   5.952
    2PC     H2A 6765   1.809   4.375   5.957
    2PC     H2B 6766   1.879   4.236   5.873
    2PC     N31 6767   1.894   4.230   6.080
    2PC     C33 6768   2.004   4.129   6.086
    2PC     H3A 6769   2.100   4.181   6.086
    2PC     H3B 6770   1.993   4.070   6.177
    2PC     H3C 6771   1.997   4.064   5.998
    2PC     C34 6772   1.904   4.321   6.199
    2PC     H4A 6773   2.001   4.370   6.197
    2PC     H4B 6774   1.823   4.394   6.194
    2PC     H4C 6775   1.895   4.260   6.289
    2PC     C35 6776   1.763   4.157   6.085
    2PC     H5A 6777   1.760   4.087   6.001
    2PC     H5B 6778   1.682   4.229   6.075
    2PC     H5C 6779   1.756   4.104   6.180
    2PC     O33 6780   2.380   4.265   5.887
    2PC     O34 6781   2.306   4.484   5.930
    2PC     O21 6782   2.267   4.634   5.434
    2PC     C21 6783   2.304   4.638   5.305
    2PC     O22 6784   2.321   4.540   5.236
    3OL     C12 6785   2.325   4.779   5.255
    3OL     H2R 6786   2.383   4.834   5.330
    3OL     H2S 6787   2.227   4.828   5.247
    3OL     C13 6788   2.398   4.782   5.121
    3OL     H3R 6789   2.348   4.716   5.050
    3OL     H3S 6790   2.499   4.745   5.135
    3OL     C14 6791   2.404   4.923   5.060
    3OL     H4R 6792   2.450   4.992   5.131
    3OL     H4S 6793   2.303   4.959   5.040
    3OL     C15 6794   2.486   4.921   4.930
    3OL     H5R 6795   2.445   4.844   4.864
    3OL     H5S 6796   2.589   4.893   4.954
    3OL     C16 6797   2.486   5.056   4.858
    3OL     H6R 6798   2.516   5.134   4.928
    3OL     H6S 6799   2.385   5.081   4.824
    3OL     C17 6800   2.582   5.058   4.739
    3OL     H7R 6801   2.682   5.028   4.772
    3OL     H7S 6802   2.590   5.161   4.702
    3OL     C18 6803   2.537   4.968   4.623
    3OL     H8R 6804   2.438   5.000   4.589
    3OL     H8S 6805   2.528   4.865   4.659
    3OL     C19 6806   2.638   4.970   4.511
    3OL     H9R 6807   2.742   4.975   4.543
    3OL    C110 6808   2.612   4.971   4.381
    3OL    H10R 6809   2.695   4.974   4.311
    3OL    C111 6810   2.476   4.962   4.317
    3OL    H11R 6811   2.399   4.938   4.391
    3OL    H11S 6812   2.475   4.880   4.244
    3OL    C112 6813   2.438   5.093   4.247
    3OL    H12R 6814   2.451   5.175   4.318
    3OL    H12S 6815   2.332   5.091   4.219
    3OL    C113 6816   2.523   5.122   4.122
    3OL    H13R 6817   2.628   5.098   4.141
    3OL    H13S 6818   2.519   5.229   4.101
    3OL    C114 6819   2.472   5.046   3.999
    3OL    H14R 6820   2.367   5.071   3.982
    3OL    H14S 6821   2.478   4.939   4.017
    3OL    C115 6822   2.554   5.082   3.874
    3OL    H15R 6823   2.658   5.055   3.890
    3OL    H15S 6824   2.549   5.190   3.858
    3OL    C116 6825   2.499   5.008   3.751
    3OL    H16R 6826   2.394   5.035   3.735
    3OL    H16S 6827   2.502   4.901   3.770
    3OL    C117 6828   2.579   5.039   3.624
    3OL    H17R 6829   2.548   4.969   3.545
    3OL    H17S 6830   2.686   5.022   3.642
    3OL    C118 6831   2.557   5.182   3.573
    3OL    H18R 6832   2.610   5.197   3.479
    3OL    H18S 6833   2.594   5.255   3.645
    3OL    H18T 6834   2.451   5.200   3.556
    1PA    C116 6835   1.676   0.382   4.270
    1PA    H16R 6836   1.751   0.319   4.320
    1PA    H16S 6837   1.592   0.397   4.338
    1PA    H16T 6838   1.722   0.479   4.249
    1PA    C115 6839   1.630   0.316   4.139
    1PA    H15R 6840   1.552   0.377   4.093
    1PA    H15S 6841   1.715   0.314   4.070
    1PA    C114 6842   1.580   0.172   4.158
    1PA    H14R 6843   1.567   0.129   4.059
    1PA    H14S 6844   1.656   0.112   4.208
    1PA    C113 6845   1.445   0.163   4.231
    1PA    H13R 6846   1.388   0.255   4.217
    1PA    H13S 6847   1.388   0.082   4.185
    1PA    C112 6848   1.461   0.131   4.381
    1PA    H12R 6849   1.513   0.036   4.392
    1PA    H12S 6850   1.521   0.208   4.429
    1PA    C111 6851   1.324   0.122   4.449
    1PA    H11R 6852   1.273   0.219   4.444
    1PA    H11S 6853   1.262   0.050   4.396
    1PA    C110 6854   1.335   0.077   4.596
    1PA    H10R 6855   1.238   0.037   4.627
    1PA    H10S 6856   1.407   6.443   4.603
    1PA     C19 6857   1.374   0.192   4.689
    1PA     H9R 6858   1.462   0.242   4.649
    1PA     H9S 6859   1.294   0.266   4.693
    1PA     C18 6860   1.409   0.143   4.831
    1PA     H8R 6861   1.485   0.065   4.823
    1PA     H8S 6862   1.454   0.226   4.886
    1PA     C17 6863   1.291   0.088   4.912
    1PA     H7R 6864   1.240   0.009   4.855
    1PA     H7S 6865   1.332   0.040   5.001
    1PA     C16 6866   1.191   0.196   4.954
    1PA     H6R 6867   1.244   0.280   4.999
    1PA     H6S 6868   1.141   0.234   4.865
    1PA     C15 6869   1.086   0.142   5.051
    1PA     H5R 6870   0.999   0.208   5.049
    1PA     H5S 6871   1.053   0.043   5.018
    1PA     C14 6872   1.139   0.137   5.195
    1PA     H4R 6873   1.232   0.079   5.200
    1PA     H4S 6874   1.163   0.238   5.227
    1PA     C13 6875   1.037   0.078   5.293
    1PA     H3R 6876   1.066   0.105   5.394
    1PA     H3S 6877   0.938   0.121   5.275
    1PA     C12 6878   1.031   6.372   5.283
    1PA     H2R 6879   0.992   6.343   5.186
    1PA     H2S 6880   1.131   6.331   5.293
    2PC     C11 6881   0.943   6.311   5.389
    2PC     O12 6882   0.974   6.208   5.447
    2PC     O11 6883   0.827   6.375   5.406
    2PC      C1 6884   0.738   6.328   5.510
    2PC      HR 6885   0.730   6.219   5.507
    2PC      HS 6886   0.779   6.356   5.607
    2PC      C2 6887   0.600   6.394   5.492
    2PC      HX 6888   0.613   0.054   5.503
    2PC      C3 6889   0.502   6.346   5.599
    2PC      HA 6890   0.453   6.253   5.570
    2PC      HB 6891   0.555   6.329   5.693
    2PC     O31 6892   0.403   0.000   5.622
    2PC     P31 6893   0.291   6.425   5.735
    2PC     O32 6894   0.369   0.021   5.868
    2PC     C31 6895   0.308   0.118   5.955
    2PC     H1A 6896   0.341   0.218   5.925
    2PC     H1B 6897   0.199   0.113   5.948
    2PC     C32 6898   0.352   0.089   6.099
    2PC     H2A 6899   0.460   0.072   6.101
    2PC     H2B 6900   0.331   0.177   6.161
    2PC     N31 6901   0.288   6.421   6.169
    2PC     C33 6902   0.144   0.002   6.197
    2PC     H3A 6903   0.091   0.014   6.103
    2PC     H3B 6904   0.102   6.367   6.254
    2PC     H3C 6905   0.138   0.094   6.256
    2PC     C34 6906   0.300   6.294   6.091
    2PC     H4A 6907   0.244   6.305   5.998
    2PC     H4B 6908   0.405   6.275   6.070
    2PC     H4C 6909   0.257   6.213   6.151
    2PC     C35 6910   0.356   6.400   6.301
    2PC     H5A 6911   0.461   6.375   6.282
    2PC     H5B 6912   0.306   6.317   6.353
    2PC     H5C 6913   0.348   0.043   6.360
    2PC     O33 6914   0.165   0.051   5.711
    2PC     O34 6915   0.252   6.283   5.751
    2PC     O21 6916   0.548   6.369   5.360
    2PC     C21 6917   0.535   6.246   5.308
    2PC     O22 6918   0.558   6.143   5.367
    3OL     C12 6919   0.494   6.249   5.163
    3OL     H2R 6920   0.573   6.201   5.105
    3OL     H2S 6921   0.487   6.352   5.128
    3OL     C13 6922   0.361   6.176   5.138
    3OL     H3R 6923   0.365   6.076   5.183
    3OL     H3S 6924   0.350   6.162   5.030
    3OL     C14 6925   0.241   6.254   5.192
    3OL     H4R 6926   0.236   6.352   5.144
    3OL     H4S 6927   0.255   6.272   5.299
    3OL     C15 6928   0.108   6.179   5.173
    3OL     H5R 6929   0.029   6.234   5.225
    3OL     H5S 6930   0.116   6.082   5.222
    3OL     C16 6931   0.066   6.158   5.027
    3OL     H6R 6932   6.427   6.092   5.026
    3OL     H6S 6933   0.145   6.107   4.972
    3OL     C17 6934   0.029   6.288   4.956
    3OL     H7R 6935   0.115   6.355   4.951
    3OL     H7S 6936   6.399   6.339   5.013
    3OL     C18 6937   6.427   6.261   4.813
    3OL     H8R 6938   6.348   6.185   4.818
    3OL     H8S 6939   0.061   6.220   4.754
    3OL     C19 6940   6.370   6.386   4.751
    3OL     H9R 6941   6.319   0.004   4.821
    3OL    C110 6942   6.380   6.424   4.625
    3OL    H10R 6943   6.336   0.071   4.595
    3OL    C111 6944   6.444   6.347   4.512
    3OL    H11R 6945   0.030   6.248   4.545
    3OL    H11S 6946   0.082   6.402   4.476
    3OL    C112 6947   6.343   6.329   4.397
    3OL    H12R 6948   6.307   6.427   4.365
    3OL    H12S 6949   6.257   6.274   4.434
    3OL    C113 6950   6.402   6.253   4.277
    3OL    H13R 6951   6.321   6.233   4.206
    3OL    H13S 6952   6.438   6.156   4.311
    3OL    C114 6953   0.067   6.325   4.204
    3OL    H14R 6954   0.101   6.261   4.122
    3OL    H14S 6955   0.153   6.339   4.270
    3OL    C115 6956   0.025   0.013   4.147
    3OL    H15R 6957   0.003   0.082   4.229
    3OL    H15S 6958   6.381   0.001   4.088
    3OL    C116 6959   0.135   0.073   4.058
    3OL    H16R 6960   0.157   0.003   3.978
    3OL    H16S 6961   0.227   0.087   4.116
    3OL    C117 6962   0.093   0.207   3.995
    3OL    H17R 6963   6.441   0.198   3.953
    3OL    H17S 6964   0.161   0.230   3.913
    3OL    C118 6965   0.098   0.323   4.095
    3OL    H18R 6966   0.071   0.416   4.046
    3OL    H18S 6967   0.198   0.333   4.137
    3OL    H18T 6968   0.027   0.307   4.177
    1PA    C116 6969   1.403   6.077   4.888
    1PA    H16R 6970   1.341   6.092   4.800
    1PA    H16S 6971   1.346   6.108   4.976
    1PA    H16T 6972   1.426   5.970   4.897
    1PA    C115 6973   1.533   6.159   4.879
    1PA    H15R 6974   1.509   6.265   4.869
    1PA    H15S 6975   1.588   6.146   4.972
    1PA    C114 6976   1.622   6.114   4.762
    1PA    H14R 6977   1.721   6.158   4.775
    1PA    H14S 6978   1.634   6.006   4.764
    1PA    C113 6979   1.566   6.159   4.626
    1PA    H13R 6980   1.466   6.117   4.613
    1PA    H13S 6981   1.557   6.267   4.623
    1PA    C112 6982   1.653   6.110   4.509
    1PA    H12R 6983   1.681   6.006   4.524
    1PA    H12S 6984   1.593   6.114   4.418
    1PA    C111 6985   1.778   6.197   4.488
    1PA    H11R 6986   1.749   6.301   4.477
    1PA    H11S 6987   1.845   6.188   4.574
    1PA    C110 6988   1.852   6.151   4.361
    1PA    H10R 6989   1.883   6.047   4.370
    1PA    H10S 6990   1.781   6.155   4.277
    1PA     C19 6991   1.972   6.239   4.325
    1PA     H9R 6992   1.995   6.221   4.219
    1PA     H9S 6993   1.947   6.345   4.333
    1PA     C18 6994   2.099   6.207   4.405
    1PA     H8R 6995   2.094   6.106   4.446
    1PA     H8S 6996   2.184   6.209   4.336
    1PA     C17 6997   2.126   6.308   4.517
    1PA     H7R 6998   2.129   6.409   4.474
    1PA     H7S 6999   2.045   6.305   4.590
    1PA     C16 7000   2.260   6.278   4.585
    1PA     H6R 7001   2.256   6.182   4.636
    1PA     H6S 7002   2.338   6.272   4.508
    1PA     C15 7003   2.300   6.388   4.685
    1PA     H5R 7004   2.408   6.381   4.702
    1PA     H5S 7005   2.281   0.039   4.642
    1PA     C14 7006   2.229   6.373   4.820
    1PA     H4R 7007   2.121   6.364   4.804
    1PA     H4S 7008   2.262   6.282   4.869
    1PA     C13 7009   2.257   0.046   4.910
    1PA     H3R 7010   2.365   0.058   4.926
    1PA     H3S 7011   2.220   0.137   4.862
    1PA     C12 7012   2.187   0.029   5.046
    1PA     H2R 7013   2.083   6.446   5.030
    1PA     H2S 7014   2.236   6.398   5.103
    2PC     C11 7015   2.187   0.156   5.127
    2PC     O12 7016   2.285   0.199   5.184
    2PC     O11 7017   2.065   0.210   5.134
    2PC      C1 7018   2.041   0.317   5.227
    2PC      HR 7019   1.934   0.325   5.244
    2PC      HS 7020   2.088   0.290   5.322
    2PC      C2 7021   2.095   0.451   5.177
    2PC      HX 7022   2.182   0.438   5.112
    2PC      C3 7023   2.135   0.540   5.296
    2PC      HA 7024   2.052   0.546   5.367
    2PC      HB 7025   2.222   0.497   5.347
    2PC     O31 7026   2.169   0.672   5.249
    2PC     P31 7027   2.195   0.787   5.357
    2PC     O32 7028   2.061   0.873   5.339
    2PC     C31 7029   1.936   0.813   5.379
    2PC     H1A 7030   1.919   0.723   5.319
    2PC     H1B 7031   1.941   0.788   5.485
    2PC     C32 7032   1.824   0.915   5.357
    2PC     H2A 7033   1.835   0.997   5.428
    2PC     H2B 7034   1.831   0.956   5.256
    2PC     N31 7035   1.684   0.863   5.372
    2PC     C33 7036   1.659   0.816   5.512
    2PC     H3A 7037   1.557   0.779   5.518
    2PC     H3B 7038   1.730   0.736   5.536
    2PC     H3C 7039   1.673   0.901   5.580
    2PC     C34 7040   1.588   0.973   5.340
    2PC     H4A 7041   1.608   1.009   5.239
    2PC     H4B 7042   1.486   0.933   5.346
    2PC     H4C 7043   1.601   1.053   5.413
    2PC     C35 7044   1.658   0.750   5.277
    2PC     H5A 7045   1.684   0.782   5.176
    2PC     H5B 7046   1.553   0.724   5.284
    2PC     H5C 7047   1.720   0.665   5.308
    2PC     O33 7048   2.207   0.735   5.496
    2PC     O34 7049   2.316   0.866   5.325
    2PC     O21 7050   1.988   0.518   5.109
    2PC     C21 7051   1.977   0.504   4.975
    2PC     O22 7052   2.058   0.446   4.906
    3OL     C12 7053   1.857   0.578   4.921
    3OL     H2R 7054   1.838   0.665   4.983
    3OL     H2S 7055   1.769   0.513   4.928
    3OL     C13 7056   1.879   0.621   4.775
    3OL     H3R 7057   1.871   0.534   4.710
    3OL     H3S 7058   1.980   0.661   4.766
    3OL     C14 7059   1.778   0.728   4.733
    3OL     H4R 7060   1.797   0.820   4.788
    3OL     H4S 7061   1.677   0.695   4.759
    3OL     C15 7062   1.782   0.757   4.582
    3OL     H5R 7063   1.707   0.832   4.558
    3OL     H5S 7064   1.757   0.666   4.527
    3OL     C16 7065   1.920   0.807   4.536
    3OL     H6R 7066   1.995   0.732   4.560
    3OL     H6S 7067   1.946   0.899   4.589
    3OL     C17 7068   1.922   0.834   4.384
    3OL     H7R 7069   1.850   0.912   4.360
    3OL     H7S 7070   1.893   0.744   4.331
    3OL     C18 7071   2.061   0.878   4.336
    3OL     H8R 7072   2.090   0.968   4.390
    3OL     H8S 7073   2.054   0.905   4.230
    3OL     C19 7074   2.165   0.771   4.358
    3OL     H9R 7075   2.170   0.733   4.460
    3OL    C110 7076   2.248   0.719   4.269
    3OL    H10R 7077   2.316   0.641   4.301
    3OL    C111 7078   2.261   0.757   4.123
    3OL    H11R 7079   2.180   0.822   4.090
    3OL    H11S 7080   2.255   0.666   4.063
    3OL    C112 7081   2.396   0.824   4.097
    3OL    H12R 7082   2.409   0.836   3.989
    3OL    H12S 7083   2.477   0.760   4.133
    3OL    C113 7084   2.406   0.962   4.165
    3OL    H13R 7085   2.382   0.951   4.271
    3OL    H13S 7086   2.333   1.030   4.122
    3OL    C114 7087   2.547   1.023   4.155
    3OL    H14R 7088   2.620   0.952   4.195
    3OL    H14S 7089   2.550   1.112   4.218
    3OL    C115 7090   2.585   1.062   4.011
    3OL    H15R 7091   2.512   1.133   3.971
    3OL    H15S 7092   2.581   0.973   3.948
    3OL    C116 7093   2.726   1.120   4.002
    3OL    H16R 7094   2.756   1.123   3.897
    3OL    H16S 7095   2.796   1.054   4.054
    3OL    C117 7096   2.737   1.262   4.059
    3OL    H17R 7097   2.708   1.263   4.164
    3OL    H17S 7098   2.668   1.328   4.005
    3OL    C118 7099   2.880   1.315   4.046
    3OL    H18R 7100   2.887   1.415   4.089
    3OL    H18S 7101   2.909   1.321   3.941
    3OL    H18T 7102   2.950   1.250   4.098
    1PA    C116 7103   1.514   5.838   3.545
    1PA    H16R 7104   1.462   5.934   3.556
    1PA    H16S 7105   1.440   5.759   3.534
    1PA    H16T 7106   1.575   5.842   3.454
    1PA    C115 7107   1.604   5.812   3.667
    1PA    H15R 7108   1.656   5.717   3.654
    1PA    H15S 7109   1.679   5.891   3.674
    1PA    C114 7110   1.521   5.808   3.796
    1PA    H14R 7111   1.467   5.902   3.808
    1PA    H14S 7112   1.447   5.728   3.789
    1PA    C113 7113   1.611   5.784   3.918
    1PA    H13R 7114   1.666   5.691   3.905
    1PA    H13S 7115   1.684   5.865   3.926
    1PA    C112 7116   1.529   5.777   4.048
    1PA    H12R 7117   1.474   5.870   4.062
    1PA    H12S 7118   1.455   5.696   4.040
    1PA    C111 7119   1.620   5.752   4.169
    1PA    H11R 7120   1.677   5.660   4.153
    1PA    H11S 7121   1.691   5.834   4.178
    1PA    C110 7122   1.539   5.738   4.299
    1PA    H10R 7123   1.481   5.830   4.315
    1PA    H10S 7124   1.468   5.656   4.289
    1PA     C19 7125   1.631   5.714   4.419
    1PA     H9R 7126   1.692   5.625   4.401
    1PA     H9S 7127   1.698   5.799   4.431
    1PA     C18 7128   1.549   5.694   4.547
    1PA     H8R 7129   1.484   5.781   4.562
    1PA     H8S 7130   1.485   5.607   4.533
    1PA     C17 7131   1.636   5.673   4.671
    1PA     H7R 7132   1.705   5.591   4.654
    1PA     H7S 7133   1.695   5.763   4.692
    1PA     C16 7134   1.546   5.641   4.792
    1PA     H6R 7135   1.477   5.723   4.810
    1PA     H6S 7136   1.485   5.554   4.766
    1PA     C15 7137   1.625   5.609   4.919
    1PA     H5R 7138   1.573   5.529   4.971
    1PA     H5S 7139   1.725   5.572   4.894
    1PA     C14 7140   1.635   5.731   5.013
    1PA     H4R 7141   1.685   5.813   4.960
    1PA     H4S 7142   1.535   5.765   5.038
    1PA     C13 7143   1.711   5.701   5.143
    1PA     H3R 7144   1.817   5.684   5.121
    1PA     H3S 7145   1.705   5.789   5.207
    1PA     C12 7146   1.655   5.579   5.218
    1PA     H2R 7147   1.545   5.581   5.213
    1PA     H2S 7148   1.688   5.487   5.171
    2PC     C11 7149   1.696   5.578   5.363
    2PC     O12 7150   1.808   5.554   5.402
    2PC     O11 7151   1.591   5.599   5.444
    2PC      C1 7152   1.615   5.596   5.586
    2PC      HR 7153   1.674   5.507   5.612
    2PC      HS 7154   1.672   5.685   5.615
    2PC      C2 7155   1.482   5.593   5.662
    2PC      HX 7156   1.427   5.686   5.644
    2PC      C3 7157   1.513   5.576   5.811
    2PC      HA 7158   1.555   5.477   5.830
    2PC      HB 7159   1.586   5.652   5.842
    2PC     O31 7160   1.394   5.593   5.890
    2PC     P31 7161   1.408   5.583   6.049
    2PC     O32 7162   1.403   5.425   6.071
    2PC     C31 7163   1.299   5.350   6.006
    2PC     H1A 7164   1.203   5.403   6.012
    2PC     H1B 7165   1.326   5.336   5.901
    2PC     C32 7166   1.289   5.215   6.077
    2PC     H2A 7167   1.242   5.142   6.012
    2PC     H2B 7168   1.390   5.179   6.100
    2PC     N31 7169   1.211   5.212   6.206
    2PC     C33 7170   1.235   5.080   6.272
    2PC     H3A 7171   1.171   5.073   6.360
    2PC     H3B 7172   1.211   5.000   6.201
    2PC     H3C 7173   1.340   5.074   6.300
    2PC     C34 7174   1.254   5.320   6.300
    2PC     H4A 7175   1.228   5.417   6.257
    2PC     H4B 7176   1.200   5.307   6.395
    2PC     H4C 7177   1.361   5.313   6.316
    2PC     C35 7178   1.065   5.225   6.178
    2PC     H5A 7179   1.035   5.146   6.110
    2PC     H5B 7180   1.045   5.323   6.132
    2PC     H5C 7181   1.010   5.217   6.272
    2PC     O33 7182   1.539   5.635   6.096
    2PC     O34 7183   1.301   5.653   6.124
    2PC     O21 7184   1.407   5.479   5.616
    2PC     C21 7185   1.272   5.481   5.624
    2PC     O22 7186   1.206   5.575   5.662
    3OL     C12 7187   1.212   5.352   5.574
    3OL     H2R 7188   1.208   5.283   5.658
    3OL     H2S 7189   1.278   5.308   5.499
    3OL     C13 7190   1.071   5.369   5.516
    3OL     H3R 7191   1.007   5.418   5.591
    3OL     H3S 7192   1.028   5.271   5.499
    3OL     C14 7193   1.065   5.450   5.386
    3OL     H4R 7194   1.109   5.549   5.401
    3OL     H4S 7195   0.960   5.465   5.359
    3OL     C15 7196   1.135   5.379   5.269
    3OL     H5R 7197   1.098   5.277   5.260
    3OL     H5S 7198   1.243   5.373   5.289
    3OL     C16 7199   1.113   5.453   5.137
    3OL     H6R 7200   1.144   5.557   5.148
    3OL     H6S 7201   1.006   5.453   5.113
    3OL     C17 7202   1.192   5.387   5.023
    3OL     H7R 7203   1.164   5.282   5.017
    3OL     H7S 7204   1.299   5.391   5.046
    3OL     C18 7205   1.168   5.453   4.887
    3OL     H8R 7206   1.063   5.441   4.859
    3OL     H8S 7207   1.228   5.400   4.812
    3OL     C19 7208   1.205   5.600   4.885
    3OL     H9R 7209   1.258   5.635   4.973
    3OL    C110 7210   1.174   5.685   4.789
    3OL    H10R 7211   1.204   5.789   4.800
    3OL    C111 7212   1.104   5.652   4.660
    3OL    H11R 7213   1.003   5.696   4.661
    3OL    H11S 7214   1.093   5.544   4.647
    3OL    C112 7215   1.179   5.712   4.540
    3OL    H12R 7216   1.282   5.674   4.540
    3OL    H12S 7217   1.185   5.820   4.553
    3OL    C113 7218   1.113   5.680   4.406
    3OL    H13R 7219   1.151   5.750   4.332
    3OL    H13S 7220   1.005   5.696   4.412
    3OL    C114 7221   1.144   5.537   4.360
    3OL    H14R 7222   1.106   5.466   4.434
    3OL    H14S 7223   1.252   5.523   4.353
    3OL    C115 7224   1.080   5.503   4.224
    3OL    H15R 7225   0.973   5.527   4.227
    3OL    H15S 7226   1.088   5.395   4.209
    3OL    C116 7227   1.147   5.575   4.107
    3OL    H16R 7228   1.254   5.552   4.106
    3OL    H16S 7229   1.137   5.683   4.119
    3OL    C117 7230   1.085   5.533   3.974
    3OL    H17R 7231   0.978   5.555   3.975
    3OL    H17S 7232   1.096   5.425   3.960
    3OL    C118 7233   1.150   5.606   3.856
    3OL    H18R 7234   1.138   5.714   3.866
    3OL    H18S 7235   1.105   5.575   3.762
    3OL    H18T 7236   1.257   5.583   3.851
    1PA    C116 7237   1.417   1.272   3.516
    1PA    H16R 7238   1.352   1.360   3.510
    1PA    H16S 7239   1.367   1.188   3.467
    1PA    H16T 7240   1.509   1.294   3.462
    1PA    C115 7241   1.447   1.238   3.662
    1PA    H15R 7242   1.514   1.152   3.667
    1PA    H15S 7243   1.498   1.322   3.709
    1PA    C114 7244   1.318   1.206   3.739
    1PA    H14R 7245   1.249   1.290   3.727
    1PA    H14S 7246   1.269   1.118   3.698
    1PA    C113 7247   1.345   1.188   3.889
    1PA    H13R 7248   1.415   1.265   3.923
    1PA    H13S 7249   1.251   1.204   3.943
    1PA    C112 7250   1.398   1.049   3.925
    1PA    H12R 7251   1.323   0.974   3.902
    1PA    H12S 7252   1.487   1.027   3.866
    1PA    C111 7253   1.435   1.043   4.074
    1PA    H11R 7254   1.513   1.116   4.094
    1PA    H11S 7255   1.349   1.071   4.136
    1PA    C110 7256   1.485   0.904   4.116
    1PA    H10R 7257   1.545   0.860   4.035
    1PA    H10S 7258   1.552   0.915   4.202
    1PA     C19 7259   1.370   0.810   4.154
    1PA     H9R 7260   1.320   0.850   4.243
    1PA     H9S 7261   1.297   0.807   4.074
    1PA     C18 7262   1.422   0.669   4.182
    1PA     H8R 7263   1.469   0.631   4.091
    1PA     H8S 7264   1.500   0.671   4.259
    1PA     C17 7265   1.310   0.572   4.223
    1PA     H7R 7266   1.229   0.579   4.151
    1PA     H7S 7267   1.349   0.470   4.216
    1PA     C16 7268   1.255   0.593   4.364
    1PA     H6R 7269   1.214   0.694   4.373
    1PA     H6S 7270   1.172   0.524   4.379
    1PA     C15 7271   1.360   0.569   4.474
    1PA     H5R 7272   1.406   0.471   4.460
    1PA     H5S 7273   1.439   0.645   4.466
    1PA     C14 7274   1.297   0.577   4.613
    1PA     H4R 7275   1.241   0.670   4.623
    1PA     H4S 7276   1.226   0.494   4.626
    1PA     C13 7277   1.405   0.571   4.722
    1PA     H3R 7278   1.465   0.480   4.710
    1PA     H3S 7279   1.472   0.656   4.709
    1PA     C12 7280   1.344   0.574   4.863
    1PA     H2R 7281   1.282   0.663   4.874
    1PA     H2S 7282   1.281   0.487   4.878
    2PC     C11 7283   1.452   0.577   4.968
    2PC     O12 7284   1.518   0.676   4.994
    2PC     O11 7285   1.465   0.459   5.032
    2PC      C1 7286   1.553   0.454   5.146
    2PC      HR 7287   1.653   0.490   5.119
    2PC      HS 7288   1.512   0.519   5.224
    2PC      C2 7289   1.562   0.311   5.199
    2PC      HX 7290   1.463   0.266   5.197
    2PC      C3 7291   1.616   0.309   5.342
    2PC      HA 7292   1.535   0.336   5.411
    2PC      HB 7293   1.653   0.210   5.370
    2PC     O31 7294   1.722   0.406   5.357
    2PC     P31 7295   1.791   0.426   5.500
    2PC     O32 7296   1.898   0.307   5.499
    2PC     C31 7297   2.005   0.315   5.595
    2PC     H1A 7298   2.074   0.396   5.569
    2PC     H1B 7299   1.964   0.333   5.695
    2PC     C32 7300   2.078   0.179   5.591
    2PC     H2A 7301   2.004   0.100   5.578
    2PC     H2B 7302   2.146   0.177   5.506
    2PC     N31 7303   2.158   0.141   5.712
    2PC     C33 7304   2.068   0.122   5.830
    2PC     H3A 7305   2.128   0.084   5.913
    2PC     H3B 7306   2.024   0.218   5.857
    2PC     H3C 7307   1.990   0.051   5.803
    2PC     C34 7308   2.227   0.011   5.684
    2PC     H4A 7309   2.152   6.385   5.654
    2PC     H4B 7310   2.298   0.027   5.603
    2PC     H4C 7311   2.279   6.427   5.774
    2PC     C35 7312   2.261   0.245   5.743
    2PC     H5A 7313   2.320   0.210   5.829
    2PC     H5B 7314   2.212   0.339   5.768
    2PC     H5C 7315   2.325   0.257   5.656
    2PC     O33 7316   1.856   0.558   5.511
    2PC     O34 7317   1.697   0.417   5.615
    2PC     O21 7318   1.650   0.237   5.111
    2PC     C21 7319   1.648   0.103   5.114
    2PC     O22 7320   1.585   0.038   5.194
    3OL     C12 7321   1.739   0.038   5.012
    3OL     H2R 7322   1.690   6.394   4.978
    3OL     H2S 7323   1.832   0.009   5.062
    3OL     C13 7324   1.771   0.127   4.892
    3OL     H3R 7325   1.843   0.204   4.923
    3OL     H3S 7326   1.681   0.179   4.859
    3OL     C14 7327   1.828   0.045   4.775
    3OL     H4R 7328   1.757   6.413   4.751
    3OL     H4S 7329   1.921   6.445   4.805
    3OL     C15 7330   1.850   0.129   4.649
    3OL     H5R 7331   1.757   0.182   4.624
    3OL     H5S 7332   1.872   0.063   4.566
    3OL     C16 7333   1.964   0.230   4.666
    3OL     H6R 7334   2.058   0.178   4.685
    3OL     H6S 7335   1.943   0.293   4.752
    3OL     C17 7336   1.980   0.323   4.544
    3OL     H7R 7337   2.039   0.409   4.574
    3OL     H7S 7338   1.882   0.360   4.513
    3OL     C18 7339   2.051   0.255   4.426
    3OL     H8R 7340   1.996   0.166   4.396
    3OL     H8S 7341   2.151   0.224   4.458
    3OL     C19 7342   2.063   0.352   4.311
    3OL     H9R 7343   2.064   0.457   4.339
    3OL    C110 7344   2.064   0.320   4.182
    3OL    H10R 7345   2.069   0.399   4.109
    3OL    C111 7346   2.070   0.180   4.126
    3OL    H11R 7347   1.972   0.152   4.087
    3OL    H11S 7348   2.098   0.107   4.203
    3OL    C112 7349   2.173   0.174   4.012
    3OL    H12R 7350   2.269   0.209   4.049
    3OL    H12S 7351   2.141   0.242   3.932
    3OL    C113 7352   2.187   0.032   3.956
    3OL    H13R 7353   2.089   6.443   3.928
    3OL    H13S 7354   2.226   6.414   4.033
    3OL    C114 7355   2.279   0.026   3.833
    3OL    H14R 7356   2.239   0.092   3.755
    3OL    H14S 7357   2.277   6.373   3.793
    3OL    C115 7358   2.424   0.065   3.864
    3OL    H15R 7359   2.463   0.000   3.942
    3OL    H15S 7360   2.428   0.168   3.901
    3OL    C116 7361   2.512   0.053   3.739
    3OL    H16R 7362   2.471   0.115   3.659
    3OL    H16S 7363   2.512   6.398   3.704
    3OL    C117 7364   2.656   0.098   3.769
    3OL    H17R 7365   2.697   0.037   3.850
    3OL    H17S 7366   2.657   0.202   3.802
    3OL    C118 7367   2.746   0.083   3.645
    3OL    H18R 7368   2.708   0.144   3.563
    3OL    H18S 7369   2.748   6.426   3.612
    3OL    H18T 7370   2.848   0.114   3.668
    1PA    C116 7371   3.986   4.500   3.474
    1PA    H16R 7372   4.087   4.518   3.437
    1PA    H16S 7373   3.954   4.587   3.532
    1PA    H16T 7374   3.919   4.489   3.389
    1PA    C115 7375   3.984   4.373   3.561
    1PA    H15R 7376   3.882   4.353   3.596
    1PA    H15S 7377   4.014   4.288   3.498
    1PA    C114 7378   4.080   4.383   3.679
    1PA    H14R 7379   4.100   4.282   3.717
    1PA    H14S 7380   4.175   4.425   3.646
    1PA    C113 7381   4.022   4.466   3.795
    1PA    H13R 7382   3.995   4.565   3.759
    1PA    H13S 7383   3.932   4.418   3.832
    1PA    C112 7384   4.124   4.480   3.909
    1PA    H12R 7385   4.157   4.381   3.941
    1PA    H12S 7386   4.211   4.534   3.873
    1PA    C111 7387   4.061   4.554   4.028
    1PA    H11R 7388   4.024   4.651   3.995
    1PA    H11S 7389   3.976   4.497   4.066
    1PA    C110 7390   4.163   4.575   4.141
    1PA    H10R 7391   4.204   4.478   4.172
    1PA    H10S 7392   4.246   4.636   4.104
    1PA     C19 7393   4.097   4.645   4.261
    1PA     H9R 7394   4.053   4.738   4.226
    1PA     H9S 7395   4.016   4.583   4.300
    1PA     C18 7396   4.197   4.677   4.373
    1PA     H8R 7397   4.281   4.733   4.330
    1PA     H8S 7398   4.149   4.745   4.444
    1PA     C17 7399   4.252   4.555   4.447
    1PA     H7R 7400   4.300   4.488   4.376
    1PA     H7S 7401   4.329   4.588   4.516
    1PA     C16 7402   4.147   4.476   4.527
    1PA     H6R 7403   4.068   4.440   4.461
    1PA     H6S 7404   4.196   4.388   4.569
    1PA     C15 7405   4.087   4.558   4.642
    1PA     H5R 7406   4.167   4.600   4.703
    1PA     H5S 7407   4.028   4.641   4.601
    1PA     C14 7408   3.996   4.471   4.730
    1PA     H4R 7409   3.917   4.427   4.669
    1PA     H4S 7410   4.055   4.389   4.773
    1PA     C13 7411   3.934   4.554   4.843
    1PA     H3R 7412   4.013   4.599   4.903
    1PA     H3S 7413   3.874   4.634   4.801
    1PA     C12 7414   3.846   4.466   4.934
    1PA     H2R 7415   3.765   4.422   4.876
    1PA     H2S 7416   3.906   4.384   4.975
    2PC     C11 7417   3.788   4.546   5.047
    2PC     O12 7418   3.711   4.638   5.030
    2PC     O11 7419   3.829   4.501   5.167
    2PC      C1 7420   3.797   4.575   5.286
    2PC      HR 7421   3.699   4.623   5.279
    2PC      HS 7422   3.794   4.504   5.369
    2PC      C2 7423   3.906   4.679   5.312
    2PC      HX 7424   4.004   4.632   5.295
    2PC      C3 7425   3.900   4.731   5.456
    2PC      HA 7426   3.911   4.649   5.528
    2PC      HB 7427   3.981   4.802   5.473
    2PC     O31 7428   3.773   4.796   5.478
    2PC     P31 7429   3.755   4.889   5.607
    2PC     O32 7430   3.685   5.019   5.547
    2PC     C31 7431   3.556   5.004   5.485
    2PC     H1A 7432   3.568   4.949   5.392
    2PC     H1B 7433   3.489   4.947   5.551
    2PC     C32 7434   3.496   5.142   5.456
    2PC     H2A 7435   3.564   5.197   5.391
    2PC     H2B 7436   3.402   5.129   5.403
    2PC     N31 7437   3.467   5.233   5.572
    2PC     C33 7438   3.593   5.285   5.635
    2PC     H3A 7439   3.652   5.335   5.558
    2PC     H3B 7440   3.565   5.356   5.713
    2PC     H3C 7441   3.648   5.201   5.677
    2PC     C34 7442   3.389   5.351   5.522
    2PC     H4A 7443   3.371   5.419   5.605
    2PC     H4B 7444   3.447   5.400   5.444
    2PC     H4C 7445   3.294   5.315   5.481
    2PC     C35 7446   3.384   5.164   5.676
    2PC     H5A 7447   3.443   5.083   5.719
    2PC     H5B 7448   3.294   5.126   5.629
    2PC     H5C 7449   3.358   5.237   5.753
    2PC     O33 7450   3.677   4.829   5.718
    2PC     O34 7451   3.884   4.929   5.669
    2PC     O21 7452   3.888   4.788   5.221
    2PC     C21 7453   3.984   4.882   5.210
    2PC     O22 7454   4.093   4.873   5.262
    3OL     C12 7455   3.943   4.998   5.123
    3OL     H2R 7456   4.027   5.068   5.115
    3OL     H2S 7457   3.861   5.050   5.174
    3OL     C13 7458   3.897   4.955   4.984
    3OL     H3R 7459   3.813   4.885   4.993
    3OL     H3S 7460   3.978   4.903   4.932
    3OL     C14 7461   3.854   5.078   4.903
    3OL     H4R 7462   3.938   5.147   4.895
    3OL     H4S 7463   3.774   5.130   4.956
    3OL     C15 7464   3.806   5.044   4.761
    3OL     H5R 7465   3.884   4.988   4.708
    3OL     H5S 7466   3.791   5.138   4.707
    3OL     C16 7467   3.674   4.965   4.760
    3OL     H6R 7468   3.605   5.011   4.830
    3OL     H6S 7469   3.692   4.863   4.795
    3OL     C17 7470   3.609   4.962   4.622
    3OL     H7R 7471   3.589   5.064   4.588
    3OL     H7S 7472   3.512   4.912   4.631
    3OL     C18 7473   3.692   4.888   4.516
    3OL     H8R 7474   3.713   4.787   4.552
    3OL     H8S 7475   3.788   4.938   4.502
    3OL     C19 7476   3.615   4.879   4.386
    3OL     H9R 7477   3.531   4.810   4.389
    3OL    C110 7478   3.641   4.942   4.273
    3OL    H10R 7479   3.577   4.925   4.187
    3OL    C111 7480   3.751   5.043   4.250
    3OL    H11R 7481   3.797   5.075   4.344
    3OL    H11S 7482   3.709   5.132   4.204
    3OL    C112 7483   3.858   4.984   4.157
    3OL    H12R 7484   3.811   4.946   4.066
    3OL    H12S 7485   3.905   4.899   4.208
    3OL    C113 7486   3.966   5.087   4.120
    3OL    H13R 7487   4.010   5.129   4.211
    3OL    H13S 7488   3.919   5.169   4.065
    3OL    C114 7489   4.076   5.023   4.035
    3OL    H14R 7490   4.032   4.977   3.946
    3OL    H14S 7491   4.122   4.943   4.093
    3OL    C115 7492   4.185   5.123   3.994
    3OL    H15R 7493   4.273   5.066   3.963
    3OL    H15S 7494   4.214   5.183   4.081
    3OL    C116 7495   4.141   5.213   3.878
    3OL    H16R 7496   4.054   5.272   3.908
    3OL    H16S 7497   4.111   5.151   3.793
    3OL    C117 7498   4.255   5.307   3.836
    3OL    H17R 7499   4.342   5.248   3.806
    3OL    H17S 7500   4.285   5.369   3.920
    3OL    C118 7501   4.212   5.396   3.718
    3OL    H18R 7502   4.126   5.457   3.746
    3OL    H18S 7503   4.185   5.335   3.632
    3OL    H18T 7504   4.294   5.463   3.690
    1PA    C116 7505   3.582   1.011   4.133
    1PA    H16R 7506   3.476   1.036   4.129
    1PA    H16S 7507   3.595   0.908   4.100
    1PA    H16T 7508   3.635   1.077   4.064
    1PA    C115 7509   3.634   1.030   4.277
    1PA    H15R 7510   3.613   1.132   4.308
    1PA    H15S 7511   3.580   0.964   4.345
    1PA    C114 7512   3.785   1.005   4.288
    1PA    H14R 7513   3.838   1.063   4.213
    1PA    H14S 7514   3.818   1.040   4.386
    1PA    C113 7515   3.820   0.856   4.274
    1PA    H13R 7516   3.763   0.797   4.347
    1PA    H13S 7517   3.791   0.822   4.174
    1PA    C112 7518   3.970   0.830   4.291
    1PA    H12R 7519   3.994   0.732   4.249
    1PA    H12S 7520   4.028   0.904   4.236
    1PA    C111 7521   4.012   0.830   4.439
    1PA    H11R 7522   3.989   0.927   4.484
    1PA    H11S 7523   3.956   0.754   4.493
    1PA    C110 7524   4.163   0.803   4.454
    1PA    H10R 7525   4.188   0.708   4.406
    1PA    H10S 7526   4.219   0.881   4.403
    1PA     C19 7527   4.203   0.798   4.602
    1PA     H9R 7528   4.174   0.891   4.651
    1PA     H9S 7529   4.149   0.716   4.650
    1PA     C18 7530   4.354   0.775   4.618
    1PA     H8R 7531   4.382   0.687   4.560
    1PA     H8S 7532   4.410   0.860   4.578
    1PA     C17 7533   4.392   0.751   4.764
    1PA     H7R 7534   4.319   0.683   4.809
    1PA     H7S 7535   4.489   0.701   4.768
    1PA     C16 7536   4.399   0.879   4.849
    1PA     H6R 7537   4.480   0.942   4.812
    1PA     H6S 7538   4.306   0.936   4.839
    1PA     C15 7539   4.423   0.842   4.996
    1PA     H5R 7540   4.338   0.782   5.031
    1PA     H5S 7541   4.512   0.779   5.003
    1PA     C14 7542   4.439   0.965   5.086
    1PA     H4R 7543   4.531   1.018   5.059
    1PA     H4S 7544   4.356   1.033   5.070
    1PA     C13 7545   4.445   0.922   5.233
    1PA     H3R 7546   4.356   0.864   5.256
    1PA     H3S 7547   4.531   0.858   5.251
    1PA     C12 7548   4.450   1.043   5.328
    1PA     H2R 7549   4.379   1.119   5.296
    1PA     H2S 7550   4.421   1.012   5.429
    2PC     C11 7551   4.588   1.104   5.336
    2PC     O12 7552   4.631   1.184   5.255
    2PC     O11 7553   4.656   1.060   5.443
    2PC      C1 7554   4.782   1.121   5.477
    2PC      HR 7555   4.843   1.047   5.530
    2PC      HS 7556   4.836   1.150   5.387
    2PC      C2 7557   4.760   1.242   5.568
    2PC      HX 7558   4.857   1.285   5.596
    2PC      C3 7559   4.687   1.201   5.697
    2PC      HA 7560   4.585   1.167   5.675
    2PC      HB 7561   4.743   1.121   5.746
    2PC     O31 7562   4.682   1.316   5.784
    2PC     P31 7563   4.647   1.295   5.939
    2PC     O32 7564   4.489   1.270   5.933
    2PC     C31 7565   4.423   1.240   6.057
    2PC     H1A 7566   4.458   1.142   6.093
    2PC     H1B 7567   4.447   1.315   6.132
    2PC     C32 7568   4.271   1.233   6.034
    2PC     H2A 7569   4.250   1.169   5.948
    2PC     H2B 7570   4.224   1.188   6.121
    2PC     N31 7571   4.197   1.361   6.010
    2PC     C33 7572   4.208   1.453   6.128
    2PC     H3A 7573   4.313   1.479   6.143
    2PC     H3B 7574   4.150   1.543   6.107
    2PC     H3C 7575   4.168   1.402   6.216
    2PC     C34 7576   4.248   1.432   5.888
    2PC     H4A 7577   4.353   1.459   5.904
    2PC     H4B 7578   4.239   1.364   5.803
    2PC     H4C 7579   4.188   1.521   5.872
    2PC     C35 7580   4.052   1.331   5.988
    2PC     H5A 7581   4.044   1.258   5.907
    2PC     H5B 7582   4.001   1.423   5.962
    2PC     H5C 7583   4.011   1.289   6.080
    2PC     O33 7584   4.723   1.185   6.002
    2PC     O34 7585   4.683   1.420   6.011
    2PC     O21 7586   4.680   1.342   5.502
    2PC     C21 7587   4.737   1.421   5.410
    2PC     O22 7588   4.856   1.423   5.387
    3OL     C12 7589   4.634   1.508   5.341
    3OL     H2R 7590   4.569   1.551   5.417
    3OL     H2S 7591   4.572   1.444   5.278
    3OL     C13 7592   4.694   1.621   5.256
    3OL     H3R 7593   4.763   1.580   5.182
    3OL     H3S 7594   4.750   1.690   5.320
    3OL     C14 7595   4.581   1.696   5.184
    3OL     H4R 7596   4.509   1.731   5.259
    3OL     H4S 7597   4.527   1.627   5.119
    3OL     C15 7598   4.626   1.818   5.102
    3OL     H5R 7599   4.678   1.889   5.167
    3OL     H5S 7600   4.536   1.868   5.065
    3OL     C16 7601   4.715   1.782   4.983
    3OL     H6R 7602   4.678   1.691   4.935
    3OL     H6S 7603   4.816   1.762   5.018
    3OL     C17 7604   4.716   1.895   4.880
    3OL     H7R 7605   4.742   1.990   4.928
    3OL     H7S 7606   4.615   1.907   4.840
    3OL     C18 7607   4.813   1.868   4.764
    3OL     H8R 7608   4.802   1.764   4.732
    3OL     H8S 7609   4.915   1.879   4.798
    3OL     C19 7610   4.784   1.956   4.645
    3OL     H9R 7611   4.707   1.918   4.578
    3OL    C110 7612   4.845   2.069   4.614
    3OL    H10R 7613   4.816   2.121   4.523
    3OL    C111 7614   4.950   2.139   4.696
    3OL    H11R 7615   5.049   2.123   4.653
    3OL    H11S 7616   4.952   2.098   4.797
    3OL    C112 7617   4.924   2.290   4.707
    3OL    H12R 7618   4.964   2.324   4.803
    3OL    H12S 7619   4.817   2.311   4.709
    3OL    C113 7620   4.992   2.373   4.597
    3OL    H13R 7621   5.098   2.345   4.590
    3OL    H13S 7622   4.990   2.478   4.628
    3OL    C114 7623   4.925   2.361   4.460
    3OL    H14R 7624   4.819   2.386   4.471
    3OL    H14S 7625   4.931   2.258   4.424
    3OL    C115 7626   4.987   2.455   4.356
    3OL    H15R 7627   4.994   2.556   4.397
    3OL    H15S 7628   4.920   2.460   4.269
    3OL    C116 7629   5.125   2.408   4.309
    3OL    H16R 7630   5.118   2.306   4.270
    3OL    H16S 7631   5.194   2.406   4.394
    3OL    C117 7632   5.181   2.500   4.200
    3OL    H17R 7633   5.188   2.602   4.238
    3OL    H17S 7634   5.114   2.502   4.114
    3OL    C118 7635   5.321   2.454   4.155
    3OL    H18R 7636   5.359   2.521   4.077
    3OL    H18S 7637   5.316   2.353   4.115
    3OL    H18T 7638   5.390   2.455   4.239
    1PA    C116 7639   4.627   0.846   4.047
    1PA    H16R 7640   4.732   0.817   4.041
    1PA    H16S 7641   4.620   0.955   4.050
    1PA    H16T 7642   4.575   0.810   3.957
    1PA    C115 7643   4.562   0.786   4.173
    1PA    H15R 7644   4.613   0.824   4.262
    1PA    H15S 7645   4.458   0.817   4.178
    1PA    C114 7646   4.570   0.632   4.171
    1PA    H14R 7647   4.519   0.594   4.083
    1PA    H14S 7648   4.675   0.602   4.166
    1PA    C113 7649   4.504   0.574   4.297
    1PA    H13R 7650   4.554   0.612   4.387
    1PA    H13S 7651   4.400   0.607   4.301
    1PA    C112 7652   4.506   0.420   4.299
    1PA    H12R 7653   4.438   0.386   4.377
    1PA    H12S 7654   4.469   0.382   4.204
    1PA    C111 7655   4.646   0.364   4.326
    1PA    H11R 7656   4.711   0.387   4.242
    1PA    H11S 7657   4.689   0.412   4.415
    1PA    C110 7658   4.645   0.211   4.346
    1PA    H10R 7659   4.584   0.164   4.269
    1PA    H10S 7660   4.747   0.174   4.335
    1PA     C19 7661   4.594   0.173   4.486
    1PA     H9R 7662   4.656   0.223   4.561
    1PA     H9S 7663   4.492   0.208   4.499
    1PA     C18 7664   4.599   0.021   4.508
    1PA     H8R 7665   4.536   6.421   4.432
    1PA     H8S 7666   4.701   6.432   4.496
    1PA     C17 7667   4.545   6.430   4.646
    1PA     H7R 7668   4.449   0.031   4.663
    1PA     H7S 7669   4.528   6.322   4.648
    1PA     C16 7670   4.642   0.018   4.760
    1PA     H6R 7671   4.734   6.407   4.750
    1PA     H6S 7672   4.670   0.123   4.753
    1PA     C15 7673   4.577   6.440   4.897
    1PA     H5R 7674   4.482   0.045   4.901
    1PA     H5S 7675   4.557   6.334   4.909
    1PA     C14 7676   4.667   0.041   5.011
    1PA     H4R 7677   4.758   6.429   5.016
    1PA     H4S 7678   4.696   0.145   4.993
    1PA     C13 7679   4.592   0.034   5.145
    1PA     H3R 7680   4.500   0.093   5.137
    1PA     H3S 7681   4.563   6.379   5.166
    1PA     C12 7682   4.677   0.088   5.260
    1PA     H2R 7683   4.755   0.017   5.287
    1PA     H2S 7684   4.726   0.181   5.231
    2PC     C11 7685   4.590   0.117   5.380
    2PC     O12 7686   4.528   0.220   5.394
    2PC     O11 7687   4.590   0.016   5.469
    2PC      C1 7688   4.504   0.026   5.584
    2PC      HR 7689   4.514   0.125   5.629
    2PC      HS 7690   4.400   0.010   5.555
    2PC      C2 7691   4.548   6.370   5.687
    2PC      HX 7692   4.480   6.371   5.773
    2PC      C3 7693   4.690   6.404   5.734
    2PC      HA 7694   4.762   6.385   5.655
    2PC      HB 7695   4.692   0.062   5.760
    2PC     O31 7696   4.723   6.327   5.851
    2PC     P31 7697   4.841   6.379   5.946
    2PC     O32 7698   4.965   6.284   5.911
    2PC     C31 7699   5.080   6.302   5.995
    2PC     H1A 7700   5.114   6.406   5.987
    2PC     H1B 7701   5.052   6.281   6.099
    2PC     C32 7702   5.192   6.206   5.951
    2PC     H2A 7703   5.156   6.104   5.958
    2PC     H2B 7704   5.219   6.227   5.848
    2PC     N31 7705   5.319   6.214   6.031
    2PC     C33 7706   5.415   6.110   5.981
    2PC     H3A 7707   5.370   6.011   5.995
    2PC     H3B 7708   5.434   6.129   5.875
    2PC     H3C 7709   5.507   6.117   6.039
    2PC     C34 7710   5.383   6.348   6.018
    2PC     H4A 7711   5.401   6.368   5.912
    2PC     H4B 7712   5.317   6.424   6.059
    2PC     H4C 7713   5.478   6.347   6.072
    2PC     C35 7714   5.292   6.186   6.176
    2PC     H5A 7715   5.227   6.264   6.216
    2PC     H5B 7716   5.387   6.185   6.229
    2PC     H5C 7717   5.243   6.088   6.184
    2PC     O33 7718   4.874   0.074   5.926
    2PC     O34 7719   4.799   6.369   6.088
    2PC     O21 7720   4.546   6.240   5.624
    2PC     C21 7721   4.427   6.184   5.596
    2PC     O22 7722   4.321   6.222   5.641
    3OL     C12 7723   4.439   6.072   5.496
    3OL     H2R 7724   4.363   5.996   5.518
    3OL     H2S 7725   4.537   6.024   5.508
    3OL     C13 7726   4.423   6.125   5.353
    3OL     H3R 7727   4.493   6.207   5.337
    3OL     H3S 7728   4.322   6.163   5.339
    3OL     C14 7729   4.452   6.014   5.250
    3OL     H4R 7730   4.381   5.932   5.263
    3OL     H4S 7731   4.552   5.974   5.268
    3OL     C15 7732   4.443   6.068   5.107
    3OL     H5R 7733   4.508   6.155   5.096
    3OL     H5S 7734   4.340   6.100   5.086
    3OL     C16 7735   4.485   5.960   5.005
    3OL     H6R 7736   4.419   5.874   5.013
    3OL     H6S 7737   4.586   5.926   5.029
    3OL     C17 7738   4.482   6.016   4.862
    3OL     H7R 7739   4.538   6.109   4.858
    3OL     H7S 7740   4.379   6.038   4.834
    3OL     C18 7741   4.543   5.916   4.763
    3OL     H8R 7742   4.486   5.823   4.767
    3OL     H8S 7743   4.645   5.894   4.794
    3OL     C19 7744   4.546   5.974   4.624
    3OL     H9R 7745   4.597   6.069   4.614
    3OL    C110 7746   4.493   5.917   4.516
    3OL    H10R 7747   4.502   5.968   4.420
    3OL    C111 7748   4.420   5.786   4.514
    3OL    H11R 7749   4.342   5.786   4.591
    3OL    H11S 7750   4.490   5.705   4.538
    3OL    C112 7751   4.354   5.755   4.379
    3OL    H12R 7752   4.281   5.833   4.356
    3OL    H12S 7753   4.299   5.661   4.388
    3OL    C113 7754   4.456   5.744   4.265
    3OL    H13R 7755   4.531   5.669   4.293
    3OL    H13S 7756   4.508   5.839   4.251
    3OL    C114 7757   4.389   5.703   4.134
    3OL    H14R 7758   4.310   5.775   4.110
    3OL    H14S 7759   4.341   5.605   4.146
    3OL    C115 7760   4.486   5.696   4.015
    3OL    H15R 7761   4.530   5.795   3.999
    3OL    H15S 7762   4.429   5.670   3.926
    3OL    C116 7763   4.598   5.593   4.035
    3OL    H16R 7764   4.555   5.496   4.059
    3OL    H16S 7765   4.661   5.623   4.119
    3OL    C117 7766   4.685   5.581   3.909
    3OL    H17R 7767   4.723   5.679   3.881
    3OL    H17S 7768   4.625   5.543   3.826
    3OL    C118 7769   4.803   5.486   3.933
    3OL    H18R 7770   4.864   5.477   3.843
    3OL    H18S 7771   4.767   5.386   3.961
    3OL    H18T 7772   4.867   5.523   4.014
    1PA    C116 7773   4.081   1.609   3.753
    1PA    H16R 7774   3.989   1.644   3.705
    1PA    H16S 7775   4.110   1.514   3.707
    1PA    H16T 7776   4.159   1.683   3.735
    1PA    C115 7777   4.057   1.590   3.903
    1PA    H15R 7778   4.026   1.685   3.948
    1PA    H15S 7779   3.974   1.520   3.917
    1PA    C114 7780   4.180   1.537   3.978
    1PA    H14R 7781   4.149   1.510   4.079
    1PA    H14S 7782   4.215   1.445   3.930
    1PA    C113 7783   4.295   1.638   3.984
    1PA    H13R 7784   4.339   1.648   3.884
    1PA    H13S 7785   4.258   1.736   4.013
    1PA    C112 7786   4.405   1.593   4.081
    1PA    H12R 7787   4.428   1.488   4.067
    1PA    H12S 7788   4.497   1.649   4.060
    1PA    C111 7789   4.365   1.621   4.227
    1PA    H11R 7790   4.351   1.728   4.240
    1PA    H11S 7791   4.269   1.573   4.248
    1PA    C110 7792   4.468   1.569   4.328
    1PA    H10R 7793   4.479   1.461   4.314
    1PA    H10S 7794   4.566   1.614   4.310
    1PA     C19 7795   4.422   1.597   4.471
    1PA     H9R 7796   4.314   1.580   4.479
    1PA     H9S 7797   4.471   1.526   4.538
    1PA     C18 7798   4.457   1.739   4.516
    1PA     H8R 7799   4.563   1.744   4.540
    1PA     H8S 7800   4.439   1.809   4.434
    1PA     C17 7801   4.374   1.786   4.637
    1PA     H7R 7802   4.405   1.887   4.664
    1PA     H7S 7803   4.269   1.791   4.607
    1PA     C16 7804   4.387   1.695   4.760
    1PA     H6R 7805   4.354   1.593   4.736
    1PA     H6S 7806   4.493   1.688   4.788
    1PA     C15 7807   4.307   1.748   4.879
    1PA     H5R 7808   4.338   1.694   4.969
    1PA     H5S 7809   4.332   1.853   4.895
    1PA     C14 7810   4.156   1.730   4.861
    1PA     H4R 7811   4.122   1.781   4.770
    1PA     H4S 7812   4.135   1.623   4.848
    1PA     C13 7813   4.074   1.781   4.980
    1PA     H3R 7814   3.972   1.745   4.969
    1PA     H3S 7815   4.114   1.740   5.073
    1PA     C12 7816   4.073   1.935   4.987
    1PA     H2R 7817   4.173   1.972   5.008
    1PA     H2S 7818   4.042   1.976   4.890
    2PC     C11 7819   3.978   1.986   5.092
    2PC     O12 7820   3.868   1.940   5.114
    2PC     O11 7821   4.030   2.090   5.161
    2PC      C1 7822   3.949   2.154   5.261
    2PC      HR 7823   3.862   2.201   5.214
    2PC      HS 7824   3.915   2.080   5.333
    2PC      C2 7825   4.035   2.260   5.332
    2PC      HX 7826   4.124   2.213   5.375
    2PC      C3 7827   3.958   2.329   5.445
    2PC      HA 7828   3.885   2.399   5.404
    2PC      HB 7829   3.908   2.256   5.508
    2PC     O31 7830   4.055   2.400   5.524
    2PC     P31 7831   4.009   2.473   5.659
    2PC     O32 7832   3.992   2.349   5.758
    2PC     C31 7833   4.102   2.320   5.847
    2PC     H1A 7834   4.191   2.297   5.787
    2PC     H1B 7835   4.122   2.406   5.910
    2PC     C32 7836   4.066   2.197   5.932
    2PC     H2A 7837   4.046   2.112   5.867
    2PC     H2B 7838   4.152   2.172   5.995
    2PC     N31 7839   3.949   2.208   6.025
    2PC     C33 7840   3.956   2.331   6.111
    2PC     H3A 7841   3.872   2.329   6.180
    2PC     H3B 7842   4.050   2.329   6.166
    2PC     H3C 7843   3.950   2.419   6.046
    2PC     C34 7844   3.819   2.208   5.950
    2PC     H4A 7845   3.737   2.210   6.022
    2PC     H4B 7846   3.815   2.297   5.886
    2PC     H4C 7847   3.814   2.118   5.889
    2PC     C35 7848   3.949   2.088   6.115
    2PC     H5A 7849   4.041   2.089   6.174
    2PC     H5B 7850   3.944   1.998   6.053
    2PC     H5C 7851   3.862   2.094   6.179
    2PC     O33 7852   4.109   2.572   5.706
    2PC     O34 7853   3.883   2.549   5.643
    2PC     O21 7854   4.073   2.361   5.236
    2PC     C21 7855   4.184   2.343   5.163
    2PC     O22 7856   4.263   2.253   5.179
    3OL     C12 7857   4.199   2.451   5.059
    3OL     H2R 7858   4.290   2.507   5.080
    3OL     H2S 7859   4.116   2.522   5.068
    3OL     C13 7860   4.204   2.396   4.915
    3OL     H3R 7861   4.288   2.328   4.905
    3OL     H3S 7862   4.222   2.480   4.848
    3OL     C14 7863   4.075   2.324   4.876
    3OL     H4R 7864   3.987   2.382   4.905
    3OL     H4S 7865   4.070   2.229   4.930
    3OL     C15 7866   4.069   2.294   4.725
    3OL     H5R 7867   3.995   2.216   4.708
    3OL     H5S 7868   4.165   2.257   4.691
    3OL     C16 7869   4.029   2.420   4.646
    3OL     H6R 7870   4.101   2.499   4.666
    3OL     H6S 7871   3.932   2.456   4.680
    3OL     C17 7872   4.025   2.397   4.494
    3OL     H7R 7873   4.120   2.354   4.460
    3OL     H7S 7874   4.014   2.494   4.446
    3OL     C18 7875   3.909   2.307   4.450
    3OL     H8R 7876   3.817   2.341   4.499
    3OL     H8S 7877   3.928   2.204   4.482
    3OL     C19 7878   3.890   2.314   4.301
    3OL     H9R 7879   3.940   2.397   4.252
    3OL    C110 7880   3.820   2.229   4.228
    3OL    H10R 7881   3.813   2.243   4.120
    3OL    C111 7882   3.744   2.109   4.281
    3OL    H11R 7883   3.767   2.093   4.387
    3OL    H11S 7884   3.777   2.019   4.227
    3OL    C112 7885   3.593   2.126   4.263
    3OL    H12R 7886   3.568   2.124   4.157
    3OL    H12S 7887   3.562   2.223   4.303
    3OL    C113 7888   3.517   2.015   4.337
    3OL    H13R 7889   3.541   2.020   4.444
    3OL    H13S 7890   3.549   1.917   4.301
    3OL    C114 7891   3.365   2.029   4.318
    3OL    H14R 7892   3.343   2.016   4.212
    3OL    H14S 7893   3.333   2.130   4.346
    3OL    C115 7894   3.287   1.925   4.398
    3OL    H15R 7895   3.332   1.826   4.386
    3OL    H15S 7896   3.185   1.919   4.358
    3OL    C116 7897   3.278   1.962   4.547
    3OL    H16R 7898   3.231   2.060   4.558
    3OL    H16S 7899   3.379   1.968   4.590
    3OL    C117 7900   3.197   1.857   4.626
    3OL    H17R 7901   3.246   1.760   4.618
    3OL    H17S 7902   3.098   1.848   4.582
    3OL    C118 7903   3.185   1.897   4.773
    3OL    H18R 7904   3.283   1.905   4.820
    3OL    H18S 7905   3.127   1.822   4.828
    3OL    H18T 7906   3.134   1.993   4.783
    1PA    C116 7907   2.837   5.723   4.017
    1PA    H16R 7908   2.791   5.636   4.065
    1PA    H16S 7909   2.891   5.689   3.928
    1PA    H16T 7910   2.758   5.792   3.985
    1PA    C115 7911   2.933   5.793   4.114
    1PA    H15R 7912   3.012   5.723   4.143
    1PA    H15S 7913   2.981   5.877   4.063
    1PA    C114 7914   2.860   5.843   4.239
    1PA    H14R 7915   2.781   5.912   4.207
    1PA    H14S 7916   2.812   5.759   4.289
    1PA    C113 7917   2.956   5.913   4.335
    1PA    H13R 7918   3.033   5.842   4.365
    1PA    H13S 7919   3.006   5.996   4.284
    1PA    C112 7920   2.886   5.966   4.461
    1PA    H12R 7921   2.828   5.886   4.507
    1PA    H12S 7922   2.962   5.997   4.533
    1PA    C111 7923   2.795   6.086   4.429
    1PA    H11R 7924   2.853   6.165   4.381
    1PA    H11S 7925   2.718   6.054   4.360
    1PA    C110 7926   2.726   6.142   4.554
    1PA    H10R 7927   2.639   6.199   4.522
    1PA    H10S 7928   2.690   6.060   4.617
    1PA     C19 7929   2.818   6.236   4.635
    1PA     H9R 7930   2.905   6.181   4.672
    1PA     H9S 7931   2.854   6.314   4.568
    1PA     C18 7932   2.742   6.301   4.751
    1PA     H8R 7933   2.800   6.387   4.785
    1PA     H8S 7934   2.646   6.339   4.716
    1PA     C17 7935   2.722   6.205   4.869
    1PA     H7R 7936   2.676   6.112   4.833
    1PA     H7S 7937   2.819   6.177   4.911
    1PA     C16 7938   2.631   6.263   4.978
    1PA     H6R 7939   2.532   6.281   4.936
    1PA     H6S 7940   2.619   6.189   5.057
    1PA     C15 7941   2.682   6.393   5.041
    1PA     H5R 7942   2.687   0.025   4.966
    1PA     H5S 7943   2.610   6.425   5.116
    1PA     C14 7944   2.820   6.376   5.107
    1PA     H4R 7945   2.818   6.291   5.175
    1PA     H4S 7946   2.894   6.355   5.029
    1PA     C13 7947   2.865   0.054   5.183
    1PA     H3R 7948   2.972   0.044   5.204
    1PA     H3S 7949   2.853   0.142   5.120
    1PA     C12 7950   2.790   0.070   5.315
    1PA     H2R 7951   2.684   0.088   5.296
    1PA     H2S 7952   2.798   6.427   5.374
    2PC     C11 7953   2.841   0.185   5.399
    2PC     O12 7954   2.843   0.181   5.520
    2PC     O11 7955   2.876   0.293   5.327
    2PC      C1 7956   2.921   0.411   5.395
    2PC      HR 7957   2.926   0.494   5.323
    2PC      HS 7958   2.849   0.438   5.473
    2PC      C2 7959   3.060   0.389   5.456
    2PC      HX 7960   3.060   0.302   5.522
    2PC      C3 7961   3.106   0.510   5.540
    2PC      HA 7962   3.050   0.512   5.634
    2PC      HB 7963   3.213   0.499   5.563
    2PC     O31 7964   3.085   0.633   5.470
    2PC     P31 7965   3.133   0.769   5.540
    2PC     O32 7966   3.061   0.877   5.446
    2PC     C31 7967   2.917   0.883   5.450
    2PC     H1A 7968   2.876   0.783   5.434
    2PC     H1B 7969   2.886   0.919   5.548
    2PC     C32 7970   2.866   0.977   5.340
    2PC     H2A 7971   2.891   0.936   5.242
    2PC     H2B 7972   2.757   0.982   5.348
    2PC     N31 7973   2.912   1.120   5.339
    2PC     C33 7974   2.816   1.199   5.257
    2PC     H3A 7975   2.815   1.159   5.155
    2PC     H3B 7976   2.718   1.193   5.302
    2PC     H3C 7977   2.850   1.303   5.256
    2PC     C34 7978   2.914   1.180   5.477
    2PC     H4A 7979   2.945   1.284   5.468
    2PC     H4B 7980   2.813   1.174   5.518
    2PC     H4C 7981   2.985   1.123   5.538
    2PC     C35 7982   3.049   1.130   5.279
    2PC     H5A 7983   3.119   1.074   5.341
    2PC     H5B 7984   3.077   1.236   5.275
    2PC     H5C 7985   3.045   1.089   5.178
    2PC     O33 7986   3.093   0.779   5.682
    2PC     O34 7987   3.280   0.787   5.542
    2PC     O21 7988   3.156   0.372   5.350
    2PC     C21 7989   3.189   0.248   5.311
    2PC     O22 7990   3.155   0.146   5.368
    3OL     C12 7991   3.275   0.248   5.187
    3OL     H2R 7992   3.377   0.223   5.216
    3OL     H2S 7993   3.276   0.349   5.146
    3OL     C13 7994   3.223   0.149   5.081
    3OL     H3R 7995   3.123   0.180   5.050
    3OL     H3S 7996   3.215   0.050   5.125
    3OL     C14 7997   3.317   0.145   4.960
    3OL     H4R 7998   3.415   0.109   4.991
    3OL     H4S 7999   3.330   0.247   4.923
    3OL     C15 8000   3.264   0.058   4.846
    3OL     H5R 8001   3.330   0.070   4.760
    3OL     H5S 8002   3.165   0.093   4.815
    3OL     C16 8003   3.255   6.357   4.882
    3OL     H6R 8004   3.178   6.342   4.958
    3OL     H6S 8005   3.351   6.325   4.924
    3OL     C17 8006   3.222   6.273   4.758
    3OL     H7R 8007   3.303   6.284   4.684
    3OL     H7S 8008   3.131   6.311   4.711
    3OL     C18 8009   3.205   6.124   4.790
    3OL     H8R 8010   3.184   6.070   4.698
    3OL     H8S 8011   3.116   6.112   4.853
    3OL     C19 8012   3.324   6.066   4.861
    3OL     H9R 8013   3.330   6.090   4.967
    3OL    C110 8014   3.414   5.985   4.809
    3OL    H10R 8015   3.493   5.946   4.873
    3OL    C111 8016   3.424   5.942   4.665
    3OL    H11R 8017   3.530   5.939   4.637
    3OL    H11S 8018   3.376   6.014   4.599
    3OL    C112 8019   3.362   5.803   4.646
    3OL    H12R 8020   3.253   5.812   4.654
    3OL    H12S 8021   3.395   5.736   4.726
    3OL    C113 8022   3.397   5.741   4.510
    3OL    H13R 8023   3.388   5.817   4.431
    3OL    H13S 8024   3.324   5.663   4.487
    3OL    C114 8025   3.537   5.679   4.510
    3OL    H14R 8026   3.545   5.609   4.593
    3OL    H14S 8027   3.612   5.757   4.526
    3OL    C115 8028   3.566   5.606   4.378
    3OL    H15R 8029   3.561   5.679   4.296
    3OL    H15S 8030   3.489   5.531   4.358
    3OL    C116 8031   3.704   5.540   4.377
    3OL    H16R 8032   3.779   5.611   4.413
    3OL    H16S 8033   3.730   5.514   4.274
    3OL    C117 8034   3.708   5.412   4.463
    3OL    H17R 8035   3.633   5.341   4.427
    3OL    H17S 8036   3.685   5.436   4.567
    3OL    C118 8037   3.847   5.347   4.457
    3OL    H18R 8038   3.871   5.318   4.354
    3OL    H18S 8039   3.849   5.257   4.519
    3OL    H18T 8040   3.924   5.416   4.493
    1PA    C116 8041   2.018   5.506   3.459
    1PA    H16R 8042   2.078   5.592   3.427
    1PA    H16S 8043   1.952   5.478   3.377
    1PA    H16T 8044   2.085   5.423   3.479
    1PA    C115 8045   1.936   5.541   3.584
    1PA    H15R 8046   1.871   5.626   3.563
    1PA    H15S 8047   1.873   5.456   3.610
    1PA    C114 8048   2.030   5.574   3.701
    1PA    H14R 8049   2.097   5.490   3.720
    1PA    H14S 8050   2.092   5.661   3.674
    1PA    C113 8051   1.950   5.606   3.828
    1PA    H13R 8052   1.886   5.692   3.810
    1PA    H13S 8053   1.886   5.521   3.853
    1PA    C112 8054   2.045   5.635   3.945
    1PA    H12R 8055   2.108   5.548   3.964
    1PA    H12S 8056   2.110   5.719   3.920
    1PA    C111 8057   1.964   5.669   4.072
    1PA    H11R 8058   1.898   5.753   4.051
    1PA    H11S 8059   1.903   5.583   4.099
    1PA    C110 8060   2.057   5.706   4.189
    1PA    H10R 8061   2.126   5.623   4.209
    1PA    H10S 8062   2.116   5.794   4.163
    1PA     C19 8063   1.973   5.733   4.315
    1PA     H9R 8064   1.900   5.811   4.292
    1PA     H9S 8065   1.919   5.642   4.342
    1PA     C18 8066   2.060   5.778   4.433
    1PA     H8R 8067   2.135   5.702   4.456
    1PA     H8S 8068   2.112   5.870   4.407
    1PA     C17 8069   1.970   5.801   4.555
    1PA     H7R 8070   1.890   5.870   4.528
    1PA     H7S 8071   1.925   5.707   4.586
    1PA     C16 8072   2.048   5.862   4.673
    1PA     H6R 8073   2.127   5.794   4.705
    1PA     H6S 8074   2.095   5.956   4.641
    1PA     C15 8075   1.952   5.890   4.789
    1PA     H5R 8076   1.868   5.949   4.753
    1PA     H5S 8077   1.913   5.796   4.828
    1PA     C14 8078   2.023   5.967   4.902
    1PA     H4R 8079   2.105   5.907   4.942
    1PA     H4S 8080   2.065   6.060   4.862
    1PA     C13 8081   1.923   5.999   5.014
    1PA     H3R 8082   1.837   6.052   4.973
    1PA     H3S 8083   1.887   5.905   5.058
    1PA     C12 8084   1.988   6.085   5.123
    1PA     H2R 8085   2.074   6.033   5.166
    1PA     H2S 8086   2.023   6.180   5.081
    2PC     C11 8087   1.890   6.113   5.234
    2PC     O12 8088   1.842   6.223   5.254
    2PC     O11 8089   1.857   6.002   5.302
    2PC      C1 8090   1.790   6.013   5.429
    2PC      HR 8091   1.791   5.915   5.478
    2PC      HS 8092   1.845   6.083   5.492
    2PC      C2 8093   1.644   6.060   5.416
    2PC      HX 8094   1.637   6.143   5.346
    2PC      C3 8095   1.591   6.103   5.553
    2PC      HA 8096   1.638   6.197   5.584
    2PC      HB 8097   1.483   6.118   5.550
    2PC     O31 8098   1.623   6.000   5.649
    2PC     P31 8099   1.564   6.013   5.797
    2PC     O32 8100   1.464   5.888   5.801
    2PC     C31 8101   1.330   5.910   5.849
    2PC     H1A 8102   1.284   5.991   5.793
    2PC     H1B 8103   1.272   5.818   5.834
    2PC     C32 8104   1.335   5.944   5.999
    2PC     H2A 8105   1.370   5.857   6.054
    2PC     H2B 8106   1.405   6.026   6.016
    2PC     N31 8107   1.206   5.987   6.063
    2PC     C33 8108   1.096   5.891   6.032
    2PC     H3A 8109   1.009   5.917   6.093
    2PC     H3B 8110   1.071   5.898   5.926
    2PC     H3C 8111   1.130   5.790   6.057
    2PC     C34 8112   1.228   5.990   6.211
    2PC     H4A 8113   1.313   6.055   6.232
    2PC     H4B 8114   1.137   6.027   6.259
    2PC     H4C 8115   1.249   5.888   6.245
    2PC     C35 8116   1.168   6.124   6.018
    2PC     H5A 8117   1.151   6.123   5.910
    2PC     H5B 8118   1.248   6.193   6.043
    2PC     H5C 8119   1.076   6.153   6.070
    2PC     O33 8120   1.665   6.007   5.906
    2PC     O34 8121   1.490   6.140   5.816
    2PC     O21 8122   1.563   5.950   5.370
    2PC     C21 8123   1.441   5.976   5.322
    2PC     O22 8124   1.405   6.088   5.290
    3OL     C12 8125   1.357   5.851   5.311
    3OL     H2R 8126   1.318   5.826   5.410
    3OL     H2S 8127   1.423   5.769   5.282
    3OL     C13 8128   1.242   5.860   5.210
    3OL     H3R 8129   1.202   5.760   5.196
    3OL     H3S 8130   1.281   5.894   5.114
    3OL     C14 8131   1.127   5.952   5.257
    3OL     H4R 8132   1.160   6.056   5.258
    3OL     H4S 8133   1.100   5.925   5.359
    3OL     C15 8134   1.003   5.939   5.168
    3OL     H5R 8135   0.924   6.003   5.209
    3OL     H5S 8136   0.966   5.836   5.172
    3OL     C16 8137   1.029   5.978   5.022
    3OL     H6R 8138   1.103   5.911   4.978
    3OL     H6S 8139   1.069   6.080   5.019
    3OL     C17 8140   0.899   5.969   4.940
    3OL     H7R 8141   0.826   6.041   4.978
    3OL     H7S 8142   0.856   5.870   4.951
    3OL     C18 8143   0.923   5.996   4.790
    3OL     H8R 8144   0.829   5.980   4.737
    3OL     H8S 8145   0.995   5.923   4.753
    3OL     C19 8146   0.976   6.135   4.764
    3OL     H9R 8147   1.019   6.186   4.849
    3OL    C110 8148   0.973   6.197   4.647
    3OL    H10R 8149   1.014   6.298   4.640
    3OL    C111 8150   0.915   6.143   4.519
    3OL    H11R 8151   0.863   6.224   4.467
    3OL    H11S 8152   0.841   6.066   4.538
    3OL    C112 8153   1.023   6.087   4.425
    3OL    H12R 8154   0.976   6.057   4.331
    3OL    H12S 8155   1.066   5.997   4.470
    3OL    C113 8156   1.135   6.188   4.397
    3OL    H13R 8157   1.188   6.212   4.490
    3OL    H13S 8158   1.091   6.281   4.360
    3OL    C114 8159   1.236   6.135   4.294
    3OL    H14R 8160   1.183   6.111   4.201
    3OL    H14S 8161   1.281   6.043   4.331
    3OL    C115 8162   1.344   6.240   4.268
    3OL    H15R 8163   1.397   6.260   4.362
    3OL    H15S 8164   1.297   6.333   4.237
    3OL    C116 8165   1.447   6.197   4.162
    3OL    H16R 8166   1.486   6.098   4.186
    3OL    H16S 8167   1.531   6.267   4.166
    3OL    C117 8168   1.387   6.198   4.021
    3OL    H17R 8169   1.339   6.294   4.002
    3OL    H17S 8170   1.311   6.120   4.012
    3OL    C118 8171   1.496   6.175   3.915
    3OL    H18R 8172   1.451   6.168   3.816
    3OL    H18S 8173   1.550   6.083   3.935
    3OL    H18T 8174   1.567   6.258   3.915
    1PA    C116 8175   5.130   0.738   4.147
    1PA    H16R 8176   5.204   0.723   4.068
    1PA    H16S 8177   5.046   0.670   4.129
    1PA    H16T 8178   5.176   0.712   4.242
    1PA    C115 8179   5.083   0.884   4.147
    1PA    H15R 8180   5.169   0.950   4.162
    1PA    H15S 8181   5.039   0.908   4.050
    1PA    C114 8182   4.979   0.908   4.257
    1PA    H14R 8183   4.892   0.843   4.241
    1PA    H14S 8184   5.022   0.882   4.354
    1PA    C113 8185   4.933   1.055   4.259
    1PA    H13R 8186   5.020   1.119   4.275
    1PA    H13S 8187   4.891   1.080   4.162
    1PA    C112 8188   4.829   1.079   4.369
    1PA    H12R 8189   4.742   1.017   4.348
    1PA    H12S 8190   4.868   1.049   4.466
    1PA    C111 8191   4.783   1.226   4.373
    1PA    H11R 8192   4.767   1.261   4.270
    1PA    H11S 8193   4.686   1.233   4.421
    1PA    C110 8194   4.883   1.320   4.442
    1PA    H10R 8195   4.982   1.306   4.399
    1PA    H10S 8196   4.854   1.423   4.420
    1PA     C19 8197   4.892   1.303   4.594
    1PA     H9R 8198   4.926   1.203   4.621
    1PA     H9S 8199   4.968   1.372   4.630
    1PA     C18 8200   4.761   1.337   4.667
    1PA     H8R 8201   4.784   1.390   4.759
    1PA     H8S 8202   4.701   1.404   4.605
    1PA     C17 8203   4.680   1.211   4.702
    1PA     H7R 8204   4.676   1.144   4.616
    1PA     H7S 8205   4.730   1.156   4.782
    1PA     C16 8206   4.536   1.244   4.743
    1PA     H6R 8207   4.496   1.321   4.676
    1PA     H6S 8208   4.475   1.155   4.729
    1PA     C15 8209   4.524   1.291   4.889
    1PA     H5R 8210   4.563   1.214   4.955
    1PA     H5S 8211   4.582   1.382   4.904
    1PA     C14 8212   4.376   1.317   4.921
    1PA     H4R 8213   4.340   1.400   4.859
    1PA     H4S 8214   4.317   1.229   4.895
    1PA     C13 8215   4.354   1.351   5.069
    1PA     H3R 8216   4.388   1.266   5.130
    1PA     H3S 8217   4.414   1.438   5.097
    1PA     C12 8218   4.206   1.380   5.095
    1PA     H2R 8219   4.176   1.470   5.040
    1PA     H2S 8220   4.146   1.296   5.057
    2PC     C11 8221   4.171   1.399   5.240
    2PC     O12 8222   4.086   1.477   5.278
    2PC     O11 8223   4.237   1.315   5.323
    2PC      C1 8224   4.196   1.303   5.460
    2PC      HR 8225   4.273   1.250   5.516
    2PC      HS 8226   4.184   1.403   5.503
    2PC      C2 8227   4.064   1.225   5.468
    2PC      HX 8228   3.992   1.269   5.399
    2PC      C3 8229   4.008   1.228   5.611
    2PC      HA 8230   3.986   1.332   5.637
    2PC      HB 8231   3.915   1.172   5.618
    2PC     O31 8232   4.104   1.178   5.706
    2PC     P31 8233   4.103   1.023   5.747
    2PC     O32 8234   4.245   0.976   5.690
    2PC     C31 8235   4.346   0.940   5.786
    2PC     H1A 8236   4.368   1.027   5.849
    2PC     H1B 8237   4.309   0.859   5.849
    2PC     C32 8238   4.473   0.900   5.710
    2PC     H2A 8239   4.493   0.972   5.631
    2PC     H2B 8240   4.558   0.901   5.779
    2PC     N31 8241   4.477   0.764   5.646
    2PC     C33 8242   4.367   0.745   5.546
    2PC     H3A 8243   4.272   0.752   5.599
    2PC     H3B 8244   4.375   0.824   5.471
    2PC     H3C 8245   4.379   0.647   5.501
    2PC     C34 8246   4.609   0.752   5.576
    2PC     H4A 8247   4.688   0.763   5.651
    2PC     H4B 8248   4.615   0.654   5.529
    2PC     H4C 8249   4.617   0.831   5.501
    2PC     C35 8250   4.469   0.655   5.749
    2PC     H5A 8251   4.484   0.559   5.699
    2PC     H5B 8252   4.372   0.659   5.797
    2PC     H5C 8253   4.548   0.671   5.823
    2PC     O33 8254   4.091   1.011   5.894
    2PC     O34 8255   3.993   0.941   5.691
    2PC     O21 8256   4.092   1.089   5.428
    2PC     C21 8257   3.990   1.004   5.405
    2PC     O22 8258   3.872   1.031   5.416
    3OL     C12 8259   4.039   0.868   5.363
    3OL     H2R 8260   3.998   0.793   5.430
    3OL     H2S 8261   4.148   0.864   5.373
    3OL     C13 8262   4.000   0.836   5.218
    3OL     H3R 8263   3.892   0.829   5.210
    3OL     H3S 8264   4.042   0.739   5.191
    3OL     C14 8265   4.052   0.943   5.120
    3OL     H4R 8266   4.158   0.959   5.139
    3OL     H4S 8267   4.002   1.038   5.137
    3OL     C15 8268   4.034   0.901   4.973
    3OL     H5R 8269   4.068   0.798   4.960
    3OL     H5S 8270   4.097   0.965   4.912
    3OL     C16 8271   3.889   0.915   4.924
    3OL     H6R 8272   3.859   1.020   4.929
    3OL     H6S 8273   3.822   0.858   4.987
    3OL     C17 8274   3.879   0.865   4.779
    3OL     H7R 8275   3.901   0.758   4.777
    3OL     H7S 8276   3.955   0.914   4.718
    3OL     C18 8277   3.741   0.889   4.717
    3OL     H8R 8278   3.663   0.852   4.784
    3OL     H8S 8279   3.735   0.829   4.626
    3OL     C19 8280   3.722   1.034   4.679
    3OL     H9R 8281   3.798   1.073   4.613
    3OL    C110 8282   3.621   1.112   4.714
    3OL    H10R 8283   3.619   1.214   4.677
    3OL    C111 8284   3.508   1.077   4.808
    3OL    H11R 8285   3.487   1.164   4.871
    3OL    H11S 8286   3.536   0.996   4.875
    3OL    C112 8287   3.380   1.040   4.731
    3OL    H12R 8288   3.358   1.118   4.657
    3OL    H12S 8289   3.296   1.038   4.802
    3OL    C113 8290   3.391   0.903   4.663
    3OL    H13R 8291   3.406   0.827   4.741
    3OL    H13S 8292   3.479   0.900   4.598
    3OL    C114 8293   3.266   0.867   4.582
    3OL    H14R 8294   3.176   0.890   4.639
    3OL    H14S 8295   3.267   0.759   4.564
    3OL    C115 8296   3.264   0.939   4.447
    3OL    H15R 8297   3.357   0.919   4.393
    3OL    H15S 8298   3.258   1.047   4.462
    3OL    C116 8299   3.146   0.894   4.361
    3OL    H16R 8300   3.052   0.917   4.412
    3OL    H16S 8301   3.150   0.785   4.348
    3OL    C117 8302   3.148   0.962   4.223
    3OL    H17R 8303   3.244   0.945   4.175
    3OL    H17S 8304   3.136   1.070   4.235
    3OL    C118 8305   3.036   0.908   4.133
    3OL    H18R 8306   3.051   0.801   4.114
    3OL    H18S 8307   3.036   0.961   4.037
    3OL    H18T 8308   2.939   0.922   4.181
    1PA    C116 8309   3.373   6.436   3.696
    1PA    H16R 8310   3.406   6.347   3.642
    1PA    H16S 8311   3.424   6.438   3.793
    1PA    H16T 8312   3.402   0.075   3.638
    1PA    C115 8313   3.221   6.432   3.716
    1PA    H15R 8314   3.173   6.416   3.619
    1PA    H15S 8315   3.194   6.348   3.780
    1PA    C114 8316   3.165   0.114   3.776
    1PA    H14R 8317   3.203   0.200   3.719
    1PA    H14S 8318   3.057   0.113   3.764
    1PA    C113 8319   3.200   0.130   3.924
    1PA    H13R 8320   3.171   0.040   3.979
    1PA    H13S 8321   3.308   0.141   3.935
    1PA    C112 8322   3.132   0.252   3.989
    1PA    H12R 8323   3.172   0.265   4.089
    1PA    H12S 8324   3.157   0.342   3.932
    1PA    C111 8325   2.980   0.235   3.997
    1PA    H11R 8326   2.935   0.247   3.898
    1PA    H11S 8327   2.958   0.133   4.031
    1PA    C110 8328   2.913   0.332   4.095
    1PA    H10R 8329   2.807   0.306   4.102
    1PA    H10S 8330   2.956   0.318   4.194
    1PA     C19 8331   2.925   0.480   4.054
    1PA     H9R 8332   3.029   0.511   4.058
    1PA     H9S 8333   2.892   0.491   3.950
    1PA     C18 8334   2.840   0.571   4.143
    1PA     H8R 8335   2.842   0.672   4.101
    1PA     H8S 8336   2.736   0.538   4.139
    1PA     C17 8337   2.888   0.576   4.288
    1PA     H7R 8338   2.885   0.475   4.332
    1PA     H7S 8339   2.991   0.611   4.292
    1PA     C16 8340   2.798   0.668   4.373
    1PA     H6R 8341   2.803   0.770   4.334
    1PA     H6S 8342   2.695   0.634   4.365
    1PA     C15 8343   2.841   0.667   4.520
    1PA     H5R 8344   2.841   0.565   4.557
    1PA     H5S 8345   2.943   0.706   4.529
    1PA     C14 8346   2.746   0.752   4.606
    1PA     H4R 8347   2.747   0.855   4.571
    1PA     H4S 8348   2.644   0.714   4.595
    1PA     C13 8349   2.786   0.748   4.754
    1PA     H3R 8350   2.790   0.644   4.787
    1PA     H3S 8351   2.885   0.791   4.767
    1PA     C12 8352   2.685   0.824   4.841
    1PA     H2R 8353   2.683   0.929   4.814
    1PA     H2S 8354   2.584   0.784   4.825
    2PC     C11 8355   2.720   0.811   4.987
    2PC     O12 8356   2.814   0.867   5.038
    2PC     O11 8357   2.634   0.732   5.054
    2PC      C1 8358   2.651   0.718   5.197
    2PC      HR 8359   2.751   0.681   5.220
    2PC      HS 8360   2.637   0.816   5.244
    2PC      C2 8361   2.545   0.620   5.249
    2PC      HX 8362   2.448   0.648   5.208
    2PC      C3 8363   2.533   0.621   5.402
    2PC      HA 8364   2.467   0.702   5.432
    2PC      HB 8365   2.490   0.525   5.434
    2PC     O31 8366   2.660   0.640   5.469
    2PC     P31 8367   2.656   0.658   5.628
    2PC     O32 8368   2.749   0.537   5.675
    2PC     C31 8369   2.814   0.545   5.803
    2PC     H1A 8370   2.888   0.465   5.809
    2PC     H1B 8371   2.866   0.640   5.810
    2PC     C32 8372   2.712   0.532   5.917
    2PC     H2A 8373   2.760   0.560   6.011
    2PC     H2B 8374   2.629   0.601   5.899
    2PC     N31 8375   2.651   0.398   5.942
    2PC     C33 8376   2.573   0.350   5.823
    2PC     H3A 8377   2.641   0.339   5.739
    2PC     H3B 8378   2.527   0.254   5.848
    2PC     H3C 8379   2.496   0.424   5.801
    2PC     C34 8380   2.756   0.296   5.977
    2PC     H4A 8381   2.706   0.202   6.000
    2PC     H4B 8382   2.822   0.284   5.891
    2PC     H4C 8383   2.811   0.332   6.063
    2PC     C35 8384   2.557   0.409   6.059
    2PC     H5A 8385   2.514   0.311   6.079
    2PC     H5B 8386   2.479   0.482   6.035
    2PC     H5C 8387   2.614   0.444   6.146
    2PC     O33 8388   2.707   0.791   5.669
    2PC     O34 8389   2.519   0.647   5.683
    2PC     O21 8390   2.583   0.488   5.207
    2PC     C21 8391   2.521   0.434   5.100
    2PC     O22 8392   2.421   0.479   5.048
    3OL     C12 8393   2.590   0.309   5.051
    3OL     H2R 8394   2.516   0.236   5.020
    3OL     H2S 8395   2.645   0.265   5.135
    3OL     C13 8396   2.689   0.341   4.938
    3OL     H3R 8397   2.743   0.250   4.911
    3OL     H3S 8398   2.763   0.411   4.977
    3OL     C14 8399   2.625   0.402   4.813
    3OL     H4R 8400   2.704   0.430   4.742
    3OL     H4S 8401   2.575   0.495   4.840
    3OL     C15 8402   2.525   0.310   4.743
    3OL     H5R 8403   2.464   0.370   4.674
    3OL     H5S 8404   2.455   0.269   4.816
    3OL     C16 8405   2.592   0.195   4.667
    3OL     H6R 8406   2.521   0.113   4.656
    3OL     H6S 8407   2.677   0.157   4.724
    3OL     C17 8408   2.641   0.235   4.526
    3OL     H7R 8409   2.704   0.154   4.489
    3OL     H7S 8410   2.702   0.325   4.530
    3OL     C18 8411   2.524   0.254   4.429
    3OL     H8R 8412   2.475   0.350   4.449
    3OL     H8S 8413   2.449   0.177   4.444
    3OL     C19 8414   2.572   0.253   4.286
    3OL     H9R 8415   2.603   0.350   4.247
    3OL    C110 8416   2.576   0.148   4.206
    3OL    H10R 8417   2.610   0.161   4.104
    3OL    C111 8418   2.538   0.006   4.242
    3OL    H11R 8419   2.465   6.417   4.171
    3OL    H11S 8420   2.491   0.001   4.341
    3OL    C112 8421   2.659   6.360   4.242
    3OL    H12R 8422   2.625   6.259   4.267
    3OL    H12S 8423   2.729   6.390   4.321
    3OL    C113 8424   2.732   6.358   4.107
    3OL    H13R 8425   2.772   0.009   4.086
    3OL    H13S 8426   2.661   6.333   4.028
    3OL    C114 8427   2.847   6.255   4.106
    3OL    H14R 8428   2.808   6.155   4.122
    3OL    H14S 8429   2.914   6.277   4.189
    3OL    C115 8430   2.927   6.261   3.976
    3OL    H15R 8431   3.021   6.207   3.990
    3OL    H15S 8432   2.952   6.364   3.952
    3OL    C116 8433   2.852   6.196   3.858
    3OL    H16R 8434   2.755   6.244   3.845
    3OL    H16S 8435   2.835   6.091   3.880
    3OL    C117 8436   2.932   6.210   3.728
    3OL    H17R 8437   3.030   6.163   3.740
    3OL    H17S 8438   2.948   6.315   3.706
    3OL    C118 8439   2.859   6.144   3.611
    3OL    H18R 8440   2.917   6.153   3.519
    3OL    H18S 8441   2.761   6.191   3.594
    3OL    H18T 8442   2.842   6.038   3.631
    1PA    C116 8443   3.352   6.180   4.308
    1PA    H16R 8444   3.415   6.135   4.231
    1PA    H16S 8445   3.283   6.104   4.345
    1PA    H16T 8446   3.415   6.212   4.391
    1PA    C115 8447   3.274   6.300   4.250
    1PA    H15R 8448   3.345   6.372   4.209
    1PA    H15S 8449   3.211   6.266   4.168
    1PA    C114 8450   3.188   6.367   4.358
    1PA    H14R 8451   3.118   6.294   4.399
    1PA    H14S 8452   3.253   6.399   4.440
    1PA    C113 8453   3.112   0.039   4.301
    1PA    H13R 8454   3.182   0.112   4.259
    1PA    H13S 8455   3.048   0.005   4.219
    1PA    C112 8456   3.024   0.106   4.408
    1PA    H12R 8457   2.945   0.163   4.358
    1PA    H12S 8458   2.976   0.030   4.469
    1PA    C111 8459   3.106   0.202   4.495
    1PA    H11R 8460   3.189   0.148   4.541
    1PA    H11S 8461   3.148   0.282   4.434
    1PA    C110 8462   3.018   0.263   4.606
    1PA    H10R 8463   2.935   0.318   4.561
    1PA    H10S 8464   2.977   0.184   4.667
    1PA     C19 8465   3.100   0.359   4.693
    1PA     H9R 8466   3.190   0.308   4.730
    1PA     H9S 8467   3.133   0.444   4.634
    1PA     C18 8468   3.017   0.409   4.812
    1PA     H8R 8469   2.930   0.464   4.775
    1PA     H8S 8470   2.980   0.323   4.870
    1PA     C17 8471   3.100   0.499   4.904
    1PA     H7R 8472   3.185   0.443   4.942
    1PA     H7S 8473   3.139   0.582   4.844
    1PA     C16 8474   3.017   0.553   5.021
    1PA     H6R 8475   2.937   0.617   4.982
    1PA     H6S 8476   2.970   0.470   5.073
    1PA     C15 8477   3.101   0.632   5.122
    1PA     H5R 8478   3.037   0.665   5.204
    1PA     H5S 8479   3.177   0.566   5.164
    1PA     C14 8480   3.170   0.755   5.060
    1PA     H4R 8481   3.232   0.726   4.976
    1PA     H4S 8482   3.094   0.826   5.024
    1PA     C13 8483   3.259   0.824   5.165
    1PA     H3R 8484   3.197   0.864   5.245
    1PA     H3S 8485   3.327   0.751   5.209
    1PA     C12 8486   3.340   0.938   5.101
    1PA     H2R 8487   3.403   0.898   5.022
    1PA     H2S 8488   3.273   1.011   5.057
    2PC     C11 8489   3.428   1.005   5.204
    2PC     O12 8490   3.511   0.946   5.269
    2PC     O11 8491   3.403   1.136   5.214
    2PC      C1 8492   3.470   1.216   5.313
    2PC      HR 8493   3.425   1.316   5.314
    2PC      HS 8494   3.453   1.171   5.412
    2PC      C2 8495   3.620   1.229   5.286
    2PC      HX 8496   3.663   1.132   5.259
    2PC      C3 8497   3.694   1.281   5.410
    2PC      HA 8498   3.712   1.199   5.479
    2PC      HB 8499   3.790   1.324   5.380
    2PC     O31 8500   3.618   1.382   5.479
    2PC     P31 8501   3.687   1.458   5.601
    2PC     O32 8502   3.699   1.343   5.711
    2PC     C31 8503   3.614   1.352   5.827
    2PC     H1A 8504   3.624   1.451   5.871
    2PC     H1B 8505   3.510   1.338   5.796
    2PC     C32 8506   3.656   1.248   5.931
    2PC     H2A 8507   3.763   1.257   5.950
    2PC     H2B 8508   3.604   1.271   6.025
    2PC     N31 8509   3.628   1.103   5.904
    2PC     C33 8510   3.704   1.054   5.784
    2PC     H3A 8511   3.681   0.948   5.770
    2PC     H3B 8512   3.672   1.112   5.697
    2PC     H3C 8513   3.810   1.067   5.802
    2PC     C34 8514   3.672   1.023   6.023
    2PC     H4A 8515   3.780   1.035   6.035
    2PC     H4B 8516   3.619   1.061   6.110
    2PC     H4C 8517   3.647   0.918   6.005
    2PC     C35 8518   3.481   1.080   5.883
    2PC     H5A 8519   3.464   0.973   5.871
    2PC     H5B 8520   3.449   1.133   5.793
    2PC     H5C 8521   3.427   1.117   5.971
    2PC     O33 8522   3.819   1.518   5.568
    2PC     O34 8523   3.604   1.572   5.647
    2PC     O21 8524   3.636   1.319   5.176
    2PC     C21 8525   3.755   1.331   5.114
    2PC     O22 8526   3.854   1.268   5.144
    3OL     C12 8527   3.746   1.432   5.002
    3OL     H2R 8528   3.717   1.527   5.047
    3OL     H2S 8529   3.665   1.402   4.935
    3OL     C13 8530   3.876   1.451   4.922
    3OL     H3R 8531   3.958   1.470   4.992
    3OL     H3S 8532   3.865   1.541   4.861
    3OL     C14 8533   3.908   1.333   4.831
    3OL     H4R 8534   3.822   1.311   4.767
    3OL     H4S 8535   3.928   1.244   4.891
    3OL     C15 8536   4.029   1.365   4.743
    3OL     H5R 8537   4.114   1.391   4.807
    3OL     H5S 8538   4.007   1.452   4.681
    3OL     C16 8539   4.068   1.247   4.653
    3OL     H6R 8540   3.984   1.220   4.588
    3OL     H6S 8541   4.092   1.160   4.715
    3OL     C17 8542   4.190   1.284   4.566
    3OL     H7R 8543   4.271   1.318   4.631
    3OL     H7S 8544   4.164   1.367   4.500
    3OL     C18 8545   4.239   1.165   4.482
    3OL     H8R 8546   4.161   1.136   4.411
    3OL     H8S 8547   4.256   1.081   4.549
    3OL     C19 8548   4.369   1.199   4.413
    3OL     H9R 8549   4.441   1.250   4.476
    3OL    C110 8550   4.400   1.177   4.287
    3OL    H10R 8551   4.497   1.209   4.250
    3OL    C111 8552   4.315   1.105   4.184
    3OL    H11R 8553   4.234   1.049   4.230
    3OL    H11S 8554   4.379   1.034   4.131
    3OL    C112 8555   4.259   1.206   4.082
    3OL    H12R 8556   4.338   1.275   4.054
    3OL    H12S 8557   4.179   1.264   4.128
    3OL    C113 8558   4.208   1.139   3.954
    3OL    H13R 8559   4.285   1.074   3.912
    3OL    H13S 8560   4.187   1.216   3.880
    3OL    C114 8561   4.079   1.058   3.977
    3OL    H14R 8562   4.003   1.122   4.022
    3OL    H14S 8563   4.100   0.976   4.046
    3OL    C115 8564   4.026   1.001   3.845
    3OL    H15R 8565   4.100   0.933   3.802
    3OL    H15S 8566   4.010   1.082   3.774
    3OL    C116 8567   3.895   0.924   3.866
    3OL    H16R 8568   3.821   0.990   3.913
    3OL    H16S 8569   3.912   0.841   3.935
    3OL    C117 8570   3.840   0.872   3.733
    3OL    H17R 8571   3.913   0.805   3.686
    3OL    H17S 8572   3.823   0.956   3.665
    3OL    C118 8573   3.708   0.797   3.754
    3OL    H18R 8574   3.635   0.861   3.803
    3OL    H18S 8575   3.724   0.708   3.815
    3OL    H18T 8576   3.667   0.765   3.657
    1PA    C116 8577   0.093   2.654   3.494
    1PA    H16R 8578   0.166   2.572   3.496
    1PA    H16S 8579   0.097   2.707   3.590
    1PA    H16T 8580   0.120   2.724   3.415
    1PA    C115 8581   6.399   2.599   3.471
    1PA    H15R 8582   6.374   2.528   3.551
    1PA    H15S 8583   6.328   2.681   3.476
    1PA    C114 8584   6.390   2.528   3.335
    1PA    H14R 8585   6.412   2.600   3.255
    1PA    H14S 8586   0.018   2.450   3.330
    1PA    C113 8587   6.253   2.464   3.310
    1PA    H13R 8588   6.257   2.408   3.217
    1PA    H13S 8589   6.231   2.393   3.390
    1PA    C112 8590   6.140   2.568   3.301
    1PA    H12R 8591   6.131   2.622   3.395
    1PA    H12S 8592   6.165   2.641   3.223
    1PA    C111 8593   6.006   2.502   3.268
    1PA    H11R 8594   6.012   2.451   3.172
    1PA    H11S 8595   5.984   2.427   3.344
    1PA    C110 8596   5.891   2.604   3.266
    1PA    H10R 8597   5.796   2.550   3.267
    1PA    H10S 8598   5.896   2.665   3.356
    1PA     C19 8599   5.895   2.695   3.142
    1PA     H9R 8600   5.986   2.755   3.143
    1PA     H9S 8601   5.899   2.632   3.053
    1PA     C18 8602   5.773   2.787   3.137
    1PA     H8R 8603   5.681   2.727   3.137
    1PA     H8S 8604   5.771   2.849   3.226
    1PA     C17 8605   5.773   2.878   3.013
    1PA     H7R 8606   5.691   2.950   3.022
    1PA     H7S 8607   5.866   2.935   3.010
    1PA     C16 8608   5.756   2.799   2.883
    1PA     H6R 8609   5.842   2.732   2.870
    1PA     H6S 8610   5.666   2.737   2.888
    1PA     C15 8611   5.747   2.891   2.761
    1PA     H5R 8612   5.656   2.952   2.768
    1PA     H5S 8613   5.833   2.959   2.758
    1PA     C14 8614   5.744   2.807   2.632
    1PA     H4R 8615   5.837   2.749   2.627
    1PA     H4S 8616   5.661   2.736   2.635
    1PA     C13 8617   5.734   2.894   2.506
    1PA     H3R 8618   5.804   2.978   2.512
    1PA     H3S 8619   5.765   2.833   2.420
    1PA     C12 8620   5.591   2.943   2.481
    1PA     H2R 8621   5.521   2.860   2.489
    1PA     H2S 8622   5.563   3.019   2.555
    2PC     C11 8623   5.580   3.001   2.342
    2PC     O12 8624   5.555   2.933   2.245
    2PC     O11 8625   5.604   3.134   2.340
    2PC      C1 8626   5.596   3.208   2.217
    2PC      HR 8627   5.632   3.310   2.235
    2PC      HS 8628   5.661   3.162   2.142
    2PC      C2 8629   5.452   3.215   2.163
    2PC      HX 8630   5.412   3.115   2.147
    2PC      C3 8631   5.449   3.291   2.030
    2PC      HA 8632   5.346   3.292   1.992
    2PC      HB 8633   5.513   3.243   1.957
    2PC     O31 8634   5.495   3.426   2.051
    2PC     P31 8635   5.486   3.530   1.929
    2PC     O32 8636   5.494   3.665   2.014
    2PC     C31 8637   5.380   3.699   2.094
    2PC     H1A 8638   5.302   3.739   2.029
    2PC     H1B 8639   5.341   3.609   2.144
    2PC     C32 8640   5.421   3.803   2.199
    2PC     H2A 8641   5.453   3.895   2.149
    2PC     H2B 8642   5.334   3.827   2.261
    2PC     N31 8643   5.531   3.767   2.295
    2PC     C33 8644   5.665   3.768   2.227
    2PC     H3A 8645   5.679   3.865   2.180
    2PC     H3B 8646   5.742   3.751   2.303
    2PC     H3C 8647   5.668   3.689   2.153
    2PC     C34 8648   5.531   3.869   2.404
    2PC     H4A 8649   5.433   3.867   2.453
    2PC     H4B 8650   5.609   3.843   2.475
    2PC     H4C 8651   5.549   3.967   2.360
    2PC     C35 8652   5.509   3.631   2.355
    2PC     H5A 8653   5.514   3.556   2.276
    2PC     H5B 8654   5.411   3.631   2.403
    2PC     H5C 8655   5.589   3.614   2.428
    2PC     O33 8656   5.600   3.515   1.835
    2PC     O34 8657   5.361   3.519   1.850
    2PC     O21 8658   5.368   3.289   2.253
    2PC     C21 8659   5.305   3.228   2.355
    2PC     O22 8660   5.313   3.110   2.381
    3OL     C12 8661   5.222   3.327   2.433
    3OL     H2R 8662   5.121   3.328   2.392
    3OL     H2S 8663   5.264   3.426   2.418
    3OL     C13 8664   5.218   3.296   2.583
    3OL     H3R 8665   5.320   3.284   2.621
    3OL     H3S 8666   5.166   3.201   2.600
    3OL     C14 8667   5.148   3.409   2.660
    3OL     H4R 8668   5.045   3.418   2.626
    3OL     H4S 8669   5.198   3.504   2.639
    3OL     C15 8670   5.152   3.382   2.811
    3OL     H5R 8671   5.256   3.370   2.842
    3OL     H5S 8672   5.100   3.288   2.832
    3OL     C16 8673   5.088   3.495   2.891
    3OL     H6R 8674   4.981   3.500   2.870
    3OL     H6S 8675   5.132   3.591   2.862
    3OL     C17 8676   5.110   3.472   3.041
    3OL     H7R 8677   5.217   3.461   3.060
    3OL     H7S 8678   5.062   3.379   3.072
    3OL     C18 8679   5.056   3.588   3.126
    3OL     H8R 8680   4.948   3.592   3.118
    3OL     H8S 8681   5.094   3.683   3.087
    3OL     C19 8682   5.097   3.569   3.270
    3OL     H9R 8683   5.030   3.506   3.328
    3OL    C110 8684   5.203   3.621   3.329
    3OL    H10R 8685   5.221   3.599   3.434
    3OL    C111 8686   5.305   3.712   3.265
    3OL    H11R 8687   5.332   3.790   3.337
    3OL    H11S 8688   5.264   3.763   3.178
    3OL    C112 8689   5.432   3.636   3.226
    3OL    H12R 8690   5.405   3.554   3.159
    3OL    H12S 8691   5.478   3.592   3.315
    3OL    C113 8692   5.532   3.729   3.155
    3OL    H13R 8693   5.562   3.809   3.224
    3OL    H13S 8694   5.483   3.775   3.069
    3OL    C114 8695   5.656   3.652   3.108
    3OL    H14R 8696   5.626   3.569   3.044
    3OL    H14S 8697   5.709   3.611   3.194
    3OL    C115 8698   5.749   3.746   3.030
    3OL    H15R 8699   5.782   3.827   3.095
    3OL    H15S 8700   5.694   3.791   2.947
    3OL    C116 8701   5.872   3.672   2.974
    3OL    H16R 8702   5.840   3.585   2.916
    3OL    H16S 8703   5.933   3.636   3.057
    3OL    C117 8704   5.954   3.766   2.886
    3OL    H17R 8705   5.986   3.853   2.944
    3OL    H17S 8706   5.893   3.803   2.803
    3OL    C118 8707   6.078   3.696   2.829
    3OL    H18R 8708   6.049   3.610   2.767
    3OL    H18S 8709   6.143   3.661   2.909
    3OL    H18T 8710   6.135   3.765   2.766
    1PA    C116 8711   1.153   3.333   3.601
    1PA    H16R 8712   1.194   3.329   3.500
    1PA    H16S 8713   1.227   3.379   3.667
    1PA    H16T 8714   1.064   3.397   3.601
    1PA    C115 8715   1.120   3.192   3.652
    1PA    H15R 8716   1.213   3.136   3.658
    1PA    H15S 8717   1.078   3.197   3.752
    1PA    C114 8718   1.023   3.117   3.558
    1PA    H14R 8719   1.063   3.119   3.457
    1PA    H14S 8720   1.018   3.013   3.590
    1PA    C113 8721   0.881   3.176   3.560
    1PA    H13R 8722   0.841   3.173   3.662
    1PA    H13S 8723   0.885   3.280   3.529
    1PA    C112 8724   0.789   3.099   3.465
    1PA    H12R 8725   0.835   3.094   3.366
    1PA    H12S 8726   0.777   2.996   3.501
    1PA    C111 8727   0.652   3.166   3.454
    1PA    H11R 8728   0.599   3.161   3.550
    1PA    H11S 8729   0.667   3.272   3.431
    1PA    C110 8730   0.567   3.104   3.342
    1PA    H10R 8731   0.491   3.177   3.313
    1PA    H10S 8732   0.629   3.086   3.255
    1PA     C19 8733   0.497   2.975   3.386
    1PA     H9R 8734   0.570   2.910   3.436
    1PA     H9S 8735   0.420   2.998   3.460
    1PA     C18 8736   0.437   2.898   3.268
    1PA     H8R 8737   0.517   2.869   3.200
    1PA     H8S 8738   0.393   2.805   3.306
    1PA     C17 8739   0.329   2.977   3.192
    1PA     H7R 8740   0.250   3.005   3.262
    1PA     H7S 8741   0.371   3.068   3.151
    1PA     C16 8742   0.267   2.894   3.079
    1PA     H6R 8743   0.233   2.798   3.117
    1PA     H6S 8744   0.178   2.947   3.042
    1PA     C15 8745   0.363   2.873   2.961
    1PA     H5R 8746   0.393   2.971   2.921
    1PA     H5S 8747   0.453   2.822   2.995
    1PA     C14 8748   0.298   2.790   2.850
    1PA     H4R 8749   0.268   2.693   2.890
    1PA     H4S 8750   0.208   2.841   2.814
    1PA     C13 8751   0.396   2.770   2.733
    1PA     H3R 8752   0.423   2.867   2.691
    1PA     H3S 8753   0.487   2.723   2.770
    1PA     C12 8754   0.335   2.682   2.623
    1PA     H2R 8755   0.316   2.581   2.661
    1PA     H2S 8756   0.240   2.724   2.589
    2PC     C11 8757   0.429   2.673   2.505
    2PC     O12 8758   0.509   2.583   2.489
    2PC     O11 8759   0.415   2.778   2.423
    2PC      C1 8760   0.496   2.787   2.305
    2PC      HR 8761   0.601   2.802   2.332
    2PC      HS 8762   0.488   2.695   2.247
    2PC      C2 8763   0.444   2.906   2.223
    2PC      HX 8764   0.335   2.900   2.221
    2PC      C3 8765   0.497   2.905   2.079
    2PC      HA 8766   0.466   2.813   2.029
    2PC      HB 8767   0.454   2.989   2.023
    2PC     O31 8768   0.640   2.914   2.077
    2PC     P31 8769   0.713   2.954   1.940
    2PC     O32 8770   0.733   3.111   1.964
    2PC     C31 8771   0.764   3.195   1.851
    2PC     H1A 8772   0.811   3.287   1.887
    2PC     H1B 8773   0.834   3.143   1.786
    2PC     C32 8774   0.636   3.228   1.773
    2PC     H2A 8775   0.662   3.250   1.669
    2PC     H2B 8776   0.570   3.141   1.773
    2PC     N31 8777   0.554   3.344   1.820
    2PC     C33 8778   0.533   3.341   1.968
    2PC     H3A 8779   0.468   3.424   1.995
    2PC     H3B 8780   0.486   3.246   1.994
    2PC     H3C 8781   0.629   3.351   2.018
    2PC     C34 8782   0.622   3.473   1.782
    2PC     H4A 8783   0.722   3.474   1.825
    2PC     H4B 8784   0.628   3.479   1.674
    2PC     H4C 8785   0.563   3.556   1.822
    2PC     C35 8786   0.421   3.340   1.752
    2PC     H5A 8787   0.375   3.243   1.773
    2PC     H5B 8788   0.435   3.353   1.645
    2PC     H5C 8789   0.359   3.419   1.794
    2PC     O33 8790   0.838   2.880   1.913
    2PC     O34 8791   0.628   2.924   1.822
    2PC     O21 8792   0.485   3.026   2.291
    2PC     C21 8793   0.430   3.144   2.259
    2PC     O22 8794   0.356   3.162   2.165
    3OL     C12 8795   0.472   3.256   2.351
    3OL     H2R 8796   0.384   3.317   2.372
    3OL     H2S 8797   0.545   3.318   2.299
    3OL     C13 8798   0.533   3.205   2.483
    3OL     H3R 8799   0.632   3.163   2.464
    3OL     H3S 8800   0.470   3.125   2.524
    3OL     C14 8801   0.542   3.318   2.587
    3OL     H4R 8802   0.444   3.362   2.602
    3OL     H4S 8803   0.608   3.396   2.551
    3OL     C15 8804   0.595   3.263   2.721
    3OL     H5R 8805   0.697   3.228   2.708
    3OL     H5S 8806   0.534   3.179   2.753
    3OL     C16 8807   0.591   3.373   2.828
    3OL     H6R 8808   0.488   3.407   2.839
    3OL     H6S 8809   0.650   3.459   2.795
    3OL     C17 8810   0.641   3.324   2.965
    3OL     H7R 8811   0.597   3.226   2.987
    3OL     H7S 8812   0.606   3.393   3.042
    3OL     C18 8813   0.794   3.317   2.972
    3OL     H8R 8814   0.836   3.416   2.953
    3OL     H8S 8815   0.830   3.251   2.893
    3OL     C19 8816   0.838   3.262   3.105
    3OL     H9R 8817   0.817   3.156   3.119
    3OL    C110 8818   0.901   3.327   3.202
    3OL    H10R 8819   0.929   3.272   3.291
    3OL    C111 8820   0.939   3.473   3.204
    3OL    H11R 8821   0.913   3.524   3.111
    3OL    H11S 8822   1.047   3.481   3.215
    3OL    C112 8823   0.873   3.547   3.321
    3OL    H12R 8824   0.914   3.648   3.325
    3OL    H12S 8825   0.900   3.497   3.415
    3OL    C113 8826   0.720   3.553   3.308
    3OL    H13R 8827   0.681   3.451   3.299
    3OL    H13S 8828   0.693   3.605   3.217
    3OL    C114 8829   0.653   3.620   3.428
    3OL    H14R 8830   0.679   3.566   3.520
    3OL    H14S 8831   0.545   3.613   3.416
    3OL    C115 8832   0.692   3.768   3.443
    3OL    H15R 8833   0.668   3.822   3.351
    3OL    H15S 8834   0.799   3.777   3.461
    3OL    C116 8835   0.617   3.833   3.560
    3OL    H16R 8836   0.639   3.779   3.653
    3OL    H16S 8837   0.509   3.825   3.543
    3OL    C117 8838   0.656   3.980   3.577
    3OL    H17R 8839   0.634   4.034   3.484
    3OL    H17S 8840   0.763   3.988   3.595
    3OL    C118 8841   0.579   4.045   3.693
    3OL    H18R 8842   0.602   3.995   3.787
    3OL    H18S 8843   0.471   4.039   3.676
    3OL    H18T 8844   0.607   4.150   3.702
    1PA    C116 8845   0.300   4.386   4.406
    1PA    H16R 8846   0.229   4.310   4.440
    1PA    H16S 8847   0.251   4.483   4.410
    1PA    H16T 8848   0.384   4.387   4.476
    1PA    C115 8849   0.348   4.355   4.264
    1PA    H15R 8850   0.396   4.257   4.263
    1PA    H15S 8851   0.262   4.351   4.197
    1PA    C114 8852   0.447   4.461   4.216
    1PA    H14R 8853   0.400   4.560   4.215
    1PA    H14S 8854   0.530   4.466   4.286
    1PA    C113 8855   0.504   4.430   4.076
    1PA    H13R 8856   0.592   4.492   4.061
    1PA    H13S 8857   0.536   4.326   4.072
    1PA    C112 8858   0.403   4.459   3.964
    1PA    H12R 8859   0.317   4.393   3.974
    1PA    H12S 8860   0.367   4.562   3.974
    1PA    C111 8861   0.467   4.440   3.826
    1PA    H11R 8862   0.558   4.500   3.820
    1PA    H11S 8863   0.495   4.335   3.814
    1PA    C110 8864   0.371   4.481   3.714
    1PA    H10R 8865   0.281   4.420   3.719
    1PA    H10S 8866   0.342   4.585   3.728
    1PA     C19 8867   0.435   4.464   3.576
    1PA     H9R 8868   0.527   4.523   3.569
    1PA     H9S 8869   0.463   4.359   3.563
    1PA     C18 8870   0.340   4.502   3.462
    1PA     H8R 8871   0.371   4.453   3.370
    1PA     H8S 8872   0.240   4.464   3.486
    1PA     C17 8873   0.331   4.654   3.439
    1PA     H7R 8874   0.238   4.676   3.385
    1PA     H7S 8875   0.324   4.705   3.535
    1PA     C16 8876   0.449   4.711   3.359
    1PA     H6R 8877   0.451   4.819   3.375
    1PA     H6S 8878   0.543   4.672   3.398
    1PA     C15 8879   0.438   4.684   3.209
    1PA     H5R 8880   0.441   4.577   3.190
    1PA     H5S 8881   0.342   4.722   3.172
    1PA     C14 8882   0.551   4.753   3.132
    1PA     H4R 8883   0.549   4.861   3.152
    1PA     H4S 8884   0.647   4.715   3.166
    1PA     C13 8885   0.538   4.731   2.980
    1PA     H3R 8886   0.542   4.624   2.959
    1PA     H3S 8887   0.441   4.767   2.946
    1PA     C12 8888   0.650   4.803   2.904
    1PA     H2R 8889   0.648   4.910   2.927
    1PA     H2S 8890   0.747   4.763   2.934
    2PC     C11 8891   0.636   4.786   2.755
    2PC     O12 8892   0.629   4.879   2.676
    2PC     O11 8893   0.634   4.657   2.719
    2PC      C1 8894   0.618   4.625   2.579
    2PC      HR 8895   0.520   4.658   2.544
    2PC      HS 8896   0.696   4.674   2.521
    2PC      C2 8897   0.631   4.472   2.566
    2PC      HX 8898   0.713   4.440   2.630
    2PC      C3 8899   0.658   4.428   2.422
    2PC      HA 8900   0.758   4.457   2.391
    2PC      HB 8901   0.649   4.319   2.415
    2PC     O31 8902   0.562   4.491   2.334
    2PC     P31 8903   0.543   4.432   2.186
    2PC     O32 8904   0.504   4.564   2.104
    2PC     C31 8905   0.389   4.640   2.147
    2PC     H1A 8906   0.305   4.572   2.163
    2PC     H1B 8907   0.413   4.689   2.241
    2PC     C32 8908   0.354   4.745   2.041
    2PC     H2A 8909   0.270   4.804   2.077
    2PC     H2B 8910   0.439   4.812   2.026
    2PC     N31 8911   0.314   4.695   1.905
    2PC     C33 8912   0.257   4.810   1.827
    2PC     H3A 8913   0.168   4.846   1.879
    2PC     H3B 8914   0.333   4.889   1.822
    2PC     H3C 8915   0.231   4.775   1.727
    2PC     C34 8916   0.433   4.644   1.830
    2PC     H4A 8917   0.509   4.722   1.828
    2PC     H4B 8918   0.471   4.555   1.881
    2PC     H4C 8919   0.401   4.618   1.728
    2PC     C35 8920   0.209   4.588   1.913
    2PC     H5A 8921   0.124   4.627   1.970
    2PC     H5B 8922   0.252   4.501   1.963
    2PC     H5C 8923   0.178   4.561   1.812
    2PC     O33 8924   0.663   4.367   2.128
    2PC     O34 8925   0.439   4.328   2.185
    2PC     O21 8926   0.507   4.413   2.609
    2PC     C21 8927   0.511   4.291   2.666
    2PC     O22 8928   0.613   4.235   2.699
    3OL     C12 8929   0.374   4.232   2.687
    3OL     H2R 8930   0.384   4.128   2.720
    3OL     H2S 8931   0.324   4.230   2.590
    3OL     C13 8932   0.286   4.311   2.785
    3OL     H3R 8933   0.183   4.277   2.772
    3OL     H3S 8934   0.289   4.417   2.759
    3OL     C14 8935   0.327   4.290   2.931
    3OL     H4R 8936   0.431   4.322   2.944
    3OL     H4S 8937   0.322   4.184   2.957
    3OL     C15 8938   0.240   4.371   3.028
    3OL     H5R 8939   0.238   4.475   2.997
    3OL     H5S 8940   0.286   4.368   3.127
    3OL     C16 8941   0.096   4.317   3.039
    3OL     H6R 8942   0.097   4.214   3.075
    3OL     H6S 8943   0.051   4.316   2.940
    3OL     C17 8944   0.009   4.405   3.129
    3OL     H7R 8945   6.352   4.389   3.104
    3OL     H7S 8946   0.031   4.510   3.109
    3OL     C18 8947   0.027   4.378   3.279
    3OL     H8R 8948   6.428   4.459   3.334
    3OL     H8S 8949   0.134   4.381   3.304
    3OL     C19 8950   6.410   4.248   3.322
    3OL     H9R 8951   6.305   4.240   3.295
    3OL    C110 8952   0.018   4.150   3.391
    3OL    H10R 8953   6.405   4.063   3.416
    3OL    C111 8954   0.161   4.141   3.438
    3OL    H11R 8955   0.224   4.212   3.384
    3OL    H11S 8956   0.200   4.042   3.414
    3OL    C112 8957   0.174   4.167   3.589
    3OL    H12R 8958   0.140   4.269   3.609
    3OL    H12S 8959   0.280   4.164   3.616
    3OL    C113 8960   0.096   4.070   3.678
    3OL    H13R 8961   6.437   4.078   3.655
    3OL    H13S 8962   0.109   4.101   3.782
    3OL    C114 8963   0.142   3.925   3.663
    3OL    H14R 8964   0.250   3.920   3.674
    3OL    H14S 8965   0.119   3.889   3.562
    3OL    C115 8966   0.078   3.829   3.765
    3OL    H15R 8967   0.110   3.859   3.865
    3OL    H15S 8968   0.116   3.729   3.746
    3OL    C116 8969   6.373   3.827   3.758
    3OL    H16R 8970   6.342   3.813   3.654
    3OL    H16S 8971   6.333   3.924   3.791
    3OL    C117 8972   6.311   3.716   3.843
    3OL    H17R 8973   6.349   3.619   3.810
    3OL    H17S 8974   6.203   3.715   3.828
    3OL    C118 8975   6.340   3.732   3.993
    3OL    H18R 8976   6.447   3.720   4.014
    3OL    H18S 8977   6.286   3.656   4.050
    3OL    H18T 8978   6.309   3.831   4.028
    1PA    C116 8979   0.021   3.242   4.094
    1PA    H16R 8980   0.127   3.226   4.076
    1PA    H16S 8981   6.439   3.177   4.177
    1PA    H16T 8982   0.004   3.346   4.123
    1PA    C115 8983   6.386   3.207   3.969
    1PA    H15R 8984   6.400   3.102   3.943
    1PA    H15S 8985   6.281   3.222   3.991
    1PA    C114 8986   6.424   3.296   3.849
    1PA    H14R 8987   6.348   3.285   3.771
    1PA    H14S 8988   6.425   3.401   3.879
    1PA    C113 8989   0.112   3.257   3.789
    1PA    H13R 8990   0.190   3.264   3.866
    1PA    H13S 8991   0.109   3.154   3.754
    1PA    C112 8992   0.149   3.350   3.672
    1PA    H12R 8993   0.073   3.344   3.595
    1PA    H12S 8994   0.153   3.453   3.708
    1PA    C111 8995   0.286   3.312   3.614
    1PA    H11R 8996   0.360   3.310   3.695
    1PA    H11S 8997   0.282   3.211   3.572
    1PA    C110 8998   0.334   3.411   3.507
    1PA    H10R 8999   0.330   3.512   3.547
    1PA    H10S 9000   0.439   3.390   3.485
    1PA     C19 9001   0.254   3.402   3.377
    1PA     H9R 9002   0.258   3.299   3.339
    1PA     H9S 9003   0.149   3.426   3.396
    1PA     C18 9004   0.310   3.499   3.273
    1PA     H8R 9005   0.307   3.601   3.314
    1PA     H8S 9006   0.415   3.476   3.253
    1PA     C17 9007   0.232   3.498   3.140
    1PA     H7R 9008   0.127   3.518   3.159
    1PA     H7S 9009   0.270   3.580   3.078
    1PA     C16 9010   0.248   3.366   3.064
    1PA     H6R 9011   0.354   3.341   3.057
    1PA     H6S 9012   0.199   3.285   3.119
    1PA     C15 9013   0.189   3.377   2.923
    1PA     H5R 9014   0.083   3.403   2.930
    1PA     H5S 9015   0.240   3.457   2.869
    1PA     C14 9016   0.204   3.245   2.846
    1PA     H4R 9017   0.309   3.214   2.848
    1PA     H4S 9018   0.145   3.167   2.894
    1PA     C13 9019   0.159   3.263   2.700
    1PA     H3R 9020   0.055   3.296   2.698
    1PA     H3S 9021   0.220   3.341   2.653
    1PA     C12 9022   0.173   3.132   2.621
    1PA     H2R 9023   0.275   3.095   2.630
    1PA     H2S 9024   0.106   3.057   2.664
    2PC     C11 9025   0.140   3.146   2.475
    2PC     O12 9026   0.144   3.052   2.398
    2PC     O11 9027   0.107   3.271   2.437
    2PC      C1 9028   0.069   3.299   2.301
    2PC      HR 9029   0.061   3.407   2.288
    2PC      HS 9030   0.146   3.262   2.234
    2PC      C2 9031   6.382   3.233   2.269
    2PC      HX 9032   6.383   3.128   2.298
    2PC      C3 9033   6.354   3.243   2.119
    2PC      HA 9034   6.342   3.347   2.089
    2PC      HB 9035   6.437   3.200   2.063
    2PC     O31 9036   6.237   3.166   2.086
    2PC     P31 9037   6.109   3.242   2.027
    2PC     O32 9038   6.013   3.116   2.007
    2PC     C31 9039   5.964   3.050   2.126
    2PC     H1A 9040   6.048   3.025   2.191
    2PC     H1B 9041   5.897   3.118   2.180
    2PC     C32 9042   5.889   2.922   2.087
    2PC     H2A 9043   5.863   2.868   2.178
    2PC     H2B 9044   5.796   2.949   2.036
    2PC     N31 9045   5.959   2.825   1.998
    2PC     C33 9046   6.104   2.808   2.036
    2PC     H3A 9047   6.154   2.904   2.021
    2PC     H3B 9048   6.110   2.778   2.140
    2PC     H3C 9049   6.148   2.732   1.971
    2PC     C34 9050   5.892   2.691   2.009
    2PC     H4A 9051   5.939   2.622   1.939
    2PC     H4B 9052   5.904   2.655   2.111
    2PC     H4C 9053   5.786   2.703   1.985
    2PC     C35 9054   5.950   2.869   1.855
    2PC     H5A 9055   5.845   2.881   1.829
    2PC     H5B 9056   5.997   2.793   1.792
    2PC     H5C 9057   6.003   2.964   1.844
    2PC     O33 9058   6.055   3.343   2.121
    2PC     O34 9059   6.144   3.307   1.899
    2PC     O21 9060   6.281   3.306   2.342
    2PC     C21 9061   6.175   3.240   2.392
    2PC     O22 9062   6.165   3.119   2.394
    3OL     C12 9063   6.073   3.334   2.451
    3OL     H2R 9064   6.031   3.394   2.370
    3OL     H2S 9065   6.124   3.403   2.519
    3OL     C13 9066   5.961   3.261   2.526
    3OL     H3R 9067   5.999   3.218   2.618
    3OL     H3S 9068   5.923   3.179   2.464
    3OL     C14 9069   5.844   3.356   2.556
    3OL     H4R 9070   5.800   3.391   2.462
    3OL     H4S 9071   5.882   3.443   2.609
    3OL     C15 9072   5.736   3.287   2.640
    3OL     H5R 9073   5.774   3.269   2.741
    3OL     H5S 9074   5.713   3.190   2.597
    3OL     C16 9075   5.605   3.368   2.648
    3OL     H6R 9076   5.533   3.312   2.709
    3OL     H6S 9077   5.563   3.377   2.548
    3OL     C17 9078   5.625   3.508   2.708
    3OL     H7R 9079   5.698   3.562   2.648
    3OL     H7S 9080   5.665   3.499   2.810
    3OL     C18 9081   5.495   3.589   2.711
    3OL     H8R 9082   5.431   3.554   2.793
    3OL     H8S 9083   5.441   3.572   2.617
    3OL     C19 9084   5.527   3.735   2.724
    3OL     H9R 9085   5.626   3.764   2.690
    3OL    C110 9086   5.447   3.828   2.775
    3OL    H10R 9087   5.483   3.931   2.780
    3OL    C111 9088   5.307   3.807   2.825
    3OL    H11R 9089   5.308   3.737   2.909
    3OL    H11S 9090   5.245   3.763   2.746
    3OL    C112 9091   5.243   3.938   2.872
    3OL    H12R 9092   5.306   3.982   2.950
    3OL    H12S 9093   5.146   3.916   2.918
    3OL    C113 9094   5.224   4.038   2.757
    3OL    H13R 9095   5.155   3.994   2.684
    3OL    H13S 9096   5.318   4.057   2.706
    3OL    C114 9097   5.164   4.172   2.805
    3OL    H14R 9098   5.081   4.154   2.873
    3OL    H14S 9099   5.125   4.225   2.718
    3OL    C115 9100   5.269   4.261   2.873
    3OL    H15R 9101   5.352   4.278   2.804
    3OL    H15S 9102   5.309   4.210   2.961
    3OL    C116 9103   5.209   4.395   2.915
    3OL    H16R 9104   5.126   4.378   2.984
    3OL    H16S 9105   5.170   4.447   2.828
    3OL    C117 9106   5.314   4.484   2.984
    3OL    H17R 9107   5.398   4.500   2.917
    3OL    H17S 9108   5.352   4.433   3.073
    3OL    C118 9109   5.254   4.619   3.024
    3OL    H18R 9110   5.170   4.605   3.092
    3OL    H18S 9111   5.218   4.673   2.936
    3OL    H18T 9112   5.329   4.680   3.074
    1PA    C116 9113   0.145   2.839   3.888
    1PA    H16R 9114   0.044   2.840   3.845
    1PA    H16S 9115   0.217   2.858   3.807
    1PA    H16T 9116   0.152   2.921   3.960
    1PA    C115 9117   0.174   2.705   3.956
    1PA    H15R 9118   0.275   2.708   4.000
    1PA    H15S 9119   0.103   2.690   4.037
    1PA    C114 9120   0.165   2.589   3.856
    1PA    H14R 9121   0.065   2.588   3.813
    1PA    H14S 9122   0.237   2.604   3.775
    1PA    C113 9123   0.194   2.455   3.925
    1PA    H13R 9124   0.291   2.460   3.973
    1PA    H13S 9125   0.120   2.437   4.004
    1PA    C112 9126   0.194   2.337   3.827
    1PA    H12R 9127   0.264   2.356   3.746
    1PA    H12S 9128   0.229   2.248   3.880
    1PA    C111 9129   0.054   2.307   3.770
    1PA    H11R 9130   6.432   2.291   3.853
    1PA    H11S 9131   0.019   2.393   3.713
    1PA    C110 9132   0.056   2.184   3.679
    1PA    H10R 9133   0.120   2.203   3.593
    1PA    H10S 9134   0.098   2.099   3.734
    1PA     C19 9135   6.361   2.149   3.633
    1PA     H9R 9136   6.300   2.130   3.722
    1PA     H9S 9137   6.317   2.233   3.581
    1PA     C18 9138   6.357   2.023   3.545
    1PA     H8R 9139   6.447   1.962   3.560
    1PA     H8S 9140   6.272   1.962   3.578
    1PA     C17 9141   6.337   2.053   3.396
    1PA     H7R 9142   6.314   1.959   3.345
    1PA     H7S 9143   6.250   2.118   3.384
    1PA     C16 9144   0.011   2.117   3.329
    1PA     H6R 9145   0.033   2.213   3.376
    1PA     H6S 9146   0.098   2.053   3.341
    1PA     C15 9147   6.431   2.139   3.180
    1PA     H5R 9148   6.414   2.043   3.131
    1PA     H5S 9149   6.341   2.199   3.168
    1PA     C14 9150   0.101   2.212   3.111
    1PA     H4R 9151   0.119   2.305   3.164
    1PA     H4S 9152   0.192   2.152   3.119
    1PA     C13 9153   0.071   2.244   2.964
    1PA     H3R 9154   6.421   2.292   2.956
    1PA     H3S 9155   0.145   2.317   2.929
    1PA     C12 9156   0.077   2.119   2.874
    1PA     H2R 9157   0.173   2.069   2.887
    1PA     H2S 9158   6.446   2.049   2.902
    2PC     C11 9159   0.060   2.155   2.729
    2PC     O12 9160   6.418   2.112   2.660
    2PC     O11 9161   0.155   2.240   2.686
    2PC      C1 9162   0.154   2.290   2.551
    2PC      HR 9163   0.245   2.347   2.534
    2PC      HS 9164   0.153   2.206   2.481
    2PC      C2 9165   0.032   2.380   2.528
    2PC      HX 9166   6.389   2.324   2.547
    2PC      C3 9167   0.027   2.434   2.384
    2PC      HA 9168   0.002   2.353   2.314
    2PC      HB 9169   6.398   2.511   2.375
    2PC     O31 9170   0.155   2.489   2.346
    2PC     P31 9171   0.166   2.569   2.208
    2PC     O32 9172   0.320   2.541   2.174
    2PC     C31 9173   0.353   2.485   2.045
    2PC     H1A 9174   0.305   2.388   2.034
    2PC     H1B 9175   0.317   2.552   1.967
    2PC     C32 9176   0.506   2.472   2.035
    2PC     H2A 9177   0.532   2.449   1.931
    2PC     H2B 9178   0.552   2.567   2.061
    2PC     N31 9179   0.573   2.367   2.118
    2PC     C33 9180   0.721   2.374   2.093
    2PC     H3A 9181   0.739   2.359   1.987
    2PC     H3B 9182   0.757   2.472   2.124
    2PC     H3C 9183   0.770   2.296   2.151
    2PC     C34 9184   0.549   2.386   2.265
    2PC     H4A 9185   0.602   2.308   2.319
    2PC     H4B 9186   0.585   2.485   2.293
    2PC     H4C 9187   0.442   2.379   2.284
    2PC     C35 9188   0.525   2.230   2.079
    2PC     H5A 9189   0.539   2.218   1.972
    2PC     H5B 9190   0.420   2.221   2.105
    2PC     H5C 9191   0.584   2.156   2.134
    2PC     O33 9192   0.075   2.516   2.104
    2PC     O34 9193   0.134   2.713   2.222
    2PC     O21 9194   0.040   2.491   2.619
    2PC     C21 9195   6.376   2.561   2.646
    2PC     O22 9196   6.267   2.533   2.601
    3OL     C12 9197   6.401   2.676   2.740
    3OL     H2R 9198   0.023   2.746   2.692
    3OL     H2S 9199   0.002   2.637   2.830
    3OL     C13 9200   6.271   2.748   2.776
    3OL     H3R 9201   6.224   2.784   2.684
    3OL     H3S 9202   6.201   2.679   2.823
    3OL     C14 9203   6.293   2.869   2.868
    3OL     H4R 9204   6.200   2.927   2.869
    3OL     H4S 9205   6.371   2.934   2.828
    3OL     C15 9206   6.326   2.829   3.013
    3OL     H5R 9207   6.423   2.778   3.016
    3OL     H5S 9208   6.250   2.758   3.048
    3OL     C16 9209   6.328   2.952   3.104
    3OL     H6R 9210   6.232   3.003   3.098
    3OL     H6S 9211   6.404   3.022   3.070
    3OL     C17 9212   6.356   2.913   3.250
    3OL     H7R 9213   0.006   2.865   3.257
    3OL     H7S 9214   6.281   2.840   3.283
    3OL     C18 9215   6.351   3.035   3.342
    3OL     H8R 9216   6.256   3.087   3.328
    3OL     H8S 9217   6.430   3.105   3.314
    3OL     C19 9218   6.369   2.995   3.486
    3OL     H9R 9219   0.022   2.969   3.515
    3OL    C110 9220   6.273   2.991   3.577
    3OL    H10R 9221   6.297   2.962   3.679
    3OL    C111 9222   6.127   3.022   3.552
    3OL    H11R 9223   6.089   2.958   3.473
    3OL    H11S 9224   6.117   3.126   3.520
    3OL    C112 9225   6.045   3.001   3.680
    3OL    H12R 9226   6.088   3.062   3.759
    3OL    H12S 9227   6.051   2.897   3.712
    3OL    C113 9228   5.898   3.043   3.663
    3OL    H13R 9229   5.894   3.144   3.620
    3OL    H13S 9230   5.852   3.050   3.762
    3OL    C114 9231   5.813   2.948   3.577
    3OL    H14R 9232   5.853   2.943   3.476
    3OL    H14S 9233   5.713   2.990   3.570
    3OL    C115 9234   5.802   2.807   3.637
    3OL    H15R 9235   5.777   2.815   3.743
    3OL    H15S 9236   5.898   2.756   3.628
    3OL    C116 9237   5.694   2.726   3.564
    3OL    H16R 9238   5.714   2.727   3.457
    3OL    H16S 9239   5.597   2.773   3.578
    3OL    C117 9240   5.688   2.580   3.612
    3OL    H17R 9241   5.786   2.534   3.606
    3OL    H17S 9242   5.621   2.524   3.546
    3OL    C118 9243   5.635   2.569   3.756
    3OL    H18R 9244   5.624   2.464   3.784
    3OL    H18S 9245   5.537   2.617   3.765
    3OL    H18T 9246   5.704   2.616   3.827
    1PA    C116 9247   4.833   2.761   4.093
    1PA    H16R 9248   4.778   2.744   4.185
    1PA    H16S 9249   4.884   2.858   4.100
    1PA    H16T 9250   4.908   2.683   4.082
    1PA    C115 9251   4.738   2.761   3.973
    1PA    H15R 9252   4.685   2.665   3.969
    1PA    H15S 9253   4.663   2.839   3.986
    1PA    C114 9254   4.813   2.784   3.841
    1PA    H14R 9255   4.866   2.880   3.845
    1PA    H14S 9256   4.888   2.705   3.828
    1PA    C113 9257   4.716   2.784   3.722
    1PA    H13R 9258   4.661   2.690   3.718
    1PA    H13S 9259   4.643   2.864   3.737
    1PA    C112 9260   4.787   2.809   3.588
    1PA    H12R 9261   4.711   2.835   3.514
    1PA    H12S 9262   4.855   2.893   3.596
    1PA    C111 9263   4.862   2.685   3.538
    1PA    H11R 9264   4.946   2.662   3.604
    1PA    H11S 9265   4.795   2.599   3.539
    1PA    C110 9266   4.913   2.706   3.395
    1PA    H10R 9267   4.829   2.735   3.331
    1PA    H10S 9268   4.985   2.788   3.393
    1PA     C19 9269   4.978   2.579   3.339
    1PA     H9R 9270   5.075   2.561   3.388
    1PA     H9S 9271   4.914   2.494   3.363
    1PA     C18 9272   4.995   2.584   3.187
    1PA     H8R 9273   5.007   2.482   3.149
    1PA     H8S 9274   4.902   2.621   3.143
    1PA     C17 9275   5.111   2.672   3.138
    1PA     H7R 9276   5.096   2.691   3.032
    1PA     H7S 9277   5.107   2.769   3.188
    1PA     C16 9278   5.251   2.611   3.157
    1PA     H6R 9279   5.325   2.682   3.120
    1PA     H6S 9280   5.270   2.597   3.264
    1PA     C15 9281   5.268   2.477   3.084
    1PA     H5R 9282   5.204   2.402   3.132
    1PA     H5S 9283   5.236   2.485   2.980
    1PA     C14 9284   5.412   2.425   3.091
    1PA     H4R 9285   5.459   2.455   3.185
    1PA     H4S 9286   5.409   2.316   3.091
    1PA     C13 9287   5.497   2.470   2.971
    1PA     H3R 9288   5.447   2.441   2.879
    1PA     H3S 9289   5.506   2.579   2.972
    1PA     C12 9290   5.636   2.406   2.977
    1PA     H2R 9291   5.686   2.436   3.069
    1PA     H2S 9292   5.627   2.297   2.979
    2PC     C11 9293   5.724   2.444   2.860
    2PC     O12 9294   5.682   2.481   2.753
    2PC     O11 9295   5.854   2.434   2.893
    2PC      C1 9296   5.958   2.466   2.799
    2PC      HR 9297   5.930   2.554   2.740
    2PC      HS 9298   6.047   2.492   2.856
    2PC      C2 9299   5.991   2.348   2.707
    2PC      HX 9300   6.090   2.364   2.663
    2PC      C3 9301   5.891   2.331   2.593
    2PC      HA 9302   5.794   2.296   2.630
    2PC      HB 9303   5.879   2.426   2.541
    2PC     O31 9304   5.944   2.233   2.501
    2PC     P31 9305   5.886   2.226   2.352
    2PC     O32 9306   5.731   2.193   2.374
    2PC     C31 9307   5.639   2.304   2.366
    2PC     H1A 9308   5.664   2.377   2.443
    2PC     H1B 9309   5.647   2.352   2.268
    2PC     C32 9310   5.497   2.249   2.386
    2PC     H2A 9311   5.461   2.207   2.292
    2PC     H2B 9312   5.501   2.170   2.461
    2PC     N31 9313   5.394   2.346   2.435
    2PC     C33 9314   5.261   2.277   2.434
    2PC     H3A 9315   5.185   2.345   2.472
    2PC     H3B 9316   5.238   2.249   2.331
    2PC     H3C 9317   5.267   2.188   2.497
    2PC     C34 9318   5.425   2.388   2.576
    2PC     H4A 9319   5.343   2.451   2.611
    2PC     H4B 9320   5.433   2.298   2.637
    2PC     H4C 9321   5.518   2.443   2.577
    2PC     C35 9322   5.387   2.467   2.347
    2PC     H5A 9323   5.485   2.514   2.343
    2PC     H5B 9324   5.315   2.537   2.389
    2PC     H5C 9325   5.355   2.437   2.247
    2PC     O33 9326   5.908   2.354   2.281
    2PC     O34 9327   5.954   2.120   2.272
    2PC     O21 9328   5.993   2.225   2.782
    2PC     C21 9329   6.091   2.203   2.871
    2PC     O22 9330   6.175   2.284   2.904
    3OL     C12 9331   6.087   2.061   2.923
    3OL     H2R 9332   6.187   2.033   2.957
    3OL     H2S 9333   6.061   1.995   2.840
    3OL     C13 9334   5.985   2.042   3.037
    3OL     H3R 9335   5.967   1.935   3.048
    3OL     H3S 9336   5.890   2.088   3.010
    3OL     C14 9337   6.037   2.098   3.169
    3OL     H4R 9338   6.037   2.207   3.167
    3OL     H4S 9339   6.141   2.067   3.182
    3OL     C15 9340   5.958   2.046   3.290
    3OL     H5R 9341   6.017   2.064   3.380
    3OL     H5S 9342   5.945   1.938   3.281
    3OL     C16 9343   5.821   2.114   3.307
    3OL     H6R 9344   5.761   2.101   3.217
    3OL     H6S 9345   5.836   2.221   3.323
    3OL     C17 9346   5.748   2.053   3.428
    3OL     H7R 9347   5.814   2.055   3.515
    3OL     H7S 9348   5.726   1.948   3.407
    3OL     C18 9349   5.618   2.127   3.460
    3OL     H8R 9350   5.553   2.126   3.372
    3OL     H8S 9351   5.640   2.232   3.482
    3OL     C19 9352   5.547   2.063   3.576
    3OL     H9R 9353   5.462   2.000   3.549
    3OL    C110 9354   5.575   2.080   3.704
    3OL    H10R 9355   5.515   2.030   3.780
    3OL    C111 9356   5.690   2.162   3.759
    3OL    H11R 9357   5.650   2.239   3.827
    3OL    H11S 9358   5.743   2.214   3.679
    3OL    C112 9359   5.788   2.073   3.837
    3OL    H12R 9360   5.816   1.988   3.775
    3OL    H12S 9361   5.738   2.035   3.927
    3OL    C113 9362   5.914   2.152   3.876
    3OL    H13R 9363   5.886   2.242   3.930
    3OL    H13S 9364   5.966   2.183   3.785
    3OL    C114 9365   6.008   2.066   3.962
    3OL    H14R 9366   6.033   1.974   3.908
    3OL    H14S 9367   5.957   2.037   4.054
    3OL    C115 9368   6.137   2.142   3.996
    3OL    H15R 9369   6.111   2.233   4.050
    3OL    H15S 9370   6.188   2.171   3.904
    3OL    C116 9371   6.230   2.055   4.082
    3OL    H16R 9372   6.244   1.958   4.033
    3OL    H16S 9373   6.183   2.037   4.178
    3OL    C117 9374   6.368   2.118   4.104
    3OL    H17R 9375   6.421   2.125   4.008
    3OL    H17S 9376   6.427   2.052   4.168
    3OL    C118 9377   6.363   2.257   4.168
    3OL    H18R 9378   6.311   2.254   4.264
    3OL    H18S 9379   6.313   2.329   4.103
    3OL    H18T 9380   0.017   2.293   4.187
    1PA    C116 9381   1.303   3.637   3.909
    1PA    H16R 9382   1.358   3.553   3.951
    1PA    H16S 9383   1.197   3.613   3.908
    1PA    H16T 9384   1.319   3.724   3.973
    1PA    C115 9385   1.353   3.665   3.766
    1PA    H15R 9386   1.461   3.684   3.769
    1PA    H15S 9387   1.336   3.577   3.704
    1PA    C114 9388   1.280   3.786   3.706
    1PA    H14R 9389   1.173   3.769   3.710
    1PA    H14S 9390   1.302   3.875   3.765
    1PA    C113 9391   1.324   3.809   3.560
    1PA    H13R 9392   1.433   3.818   3.557
    1PA    H13S 9393   1.296   3.722   3.499
    1PA    C112 9394   1.263   3.936   3.499
    1PA    H12R 9395   1.289   4.022   3.561
    1PA    H12S 9396   1.308   3.952   3.401
    1PA    C111 9397   1.110   3.928   3.485
    1PA    H11R 9398   1.082   3.841   3.426
    1PA    H11S 9399   1.065   3.917   3.583
    1PA    C110 9400   1.053   4.056   3.421
    1PA    H10R 9401   0.947   4.065   3.448
    1PA    H10S 9402   1.104   4.142   3.464
    1PA     C19 9403   1.067   4.058   3.268
    1PA     H9R 9404   1.067   4.162   3.235
    1PA     H9S 9405   1.161   4.013   3.238
    1PA     C18 9406   0.949   3.986   3.200
    1PA     H8R 9407   0.943   3.883   3.237
    1PA     H8S 9408   0.856   4.036   3.227
    1PA     C17 9409   0.966   3.985   3.048
    1PA     H7R 9410   0.988   4.086   3.013
    1PA     H7S 9411   1.051   3.923   3.021
    1PA     C16 9412   0.840   3.935   2.975
    1PA     H6R 9413   0.756   3.999   3.001
    1PA     H6S 9414   0.856   3.944   2.867
    1PA     C15 9415   0.807   3.789   3.009
    1PA     H5R 9416   0.896   3.728   2.993
    1PA     H5S 9417   0.779   3.780   3.114
    1PA     C14 9418   0.694   3.732   2.921
    1PA     H4R 9419   0.718   3.750   2.816
    1PA     H4S 9420   0.691   3.624   2.936
    1PA     C13 9421   0.556   3.790   2.955
    1PA     H3R 9422   0.531   3.763   3.058
    1PA     H3S 9423   0.558   3.899   2.949
    1PA     C12 9424   0.447   3.736   2.862
    1PA     H2R 9425   0.448   3.627   2.863
    1PA     H2S 9426   0.349   3.768   2.898
    2PC     C11 9427   0.463   3.784   2.720
    2PC     O12 9428   0.524   3.884   2.690
    2PC     O11 9429   0.405   3.703   2.630
    2PC      C1 9430   0.414   3.741   2.491
    2PC      HR 9431   0.367   3.839   2.477
    2PC      HS 9432   0.519   3.748   2.463
    2PC      C2 9433   0.346   3.635   2.404
    2PC      HX 9434   0.402   3.542   2.414
    2PC      C3 9435   0.347   3.675   2.255
    2PC      HA 9436   0.299   3.772   2.242
    2PC      HB 9437   0.450   3.681   2.219
    2PC     O31 9438   0.276   3.575   2.180
    2PC     P31 9439   0.243   3.601   2.026
    2PC     O32 9440   0.146   3.728   2.035
    2PC     C31 9441   0.163   3.833   1.938
    2PC     H1A 9442   0.266   3.868   1.942
    2PC     H1B 9443   0.143   3.794   1.838
    2PC     C32 9444   0.070   3.951   1.970
    2PC     H2A 9445   0.086   3.981   2.074
    2PC     H2B 9446   0.097   4.035   1.906
    2PC     N31 9447   6.370   3.934   1.954
    2PC     C33 9448   6.335   3.886   1.816
    2PC     H3A 9449   6.226   3.880   1.809
    2PC     H3B 9450   6.373   3.957   1.743
    2PC     H3C 9451   6.378   3.787   1.801
    2PC     C34 9452   6.315   3.838   2.056
    2PC     H4A 9453   6.338   3.877   2.155
    2PC     H4B 9454   6.207   3.831   2.042
    2PC     H4C 9455   6.362   3.741   2.041
    2PC     C35 9456   6.305   4.067   1.974
    2PC     H5A 9457   6.330   4.103   2.074
    2PC     H5B 9458   6.197   4.055   1.963
    2PC     H5C 9459   6.343   4.136   1.898
    2PC     O33 9460   0.363   3.626   1.943
    2PC     O34 9461   0.177   3.485   1.962
    2PC     O21 9462   0.211   3.611   2.448
    2PC     C21 9463   0.115   3.704   2.447
    2PC     O22 9464   0.129   3.820   2.414
    3OL     C12 9465   6.432   3.650   2.500
    3OL     H2R 9466   6.412   3.555   2.450
    3OL     H2S 9467   6.351   3.719   2.475
    3OL     C13 9468   6.439   3.628   2.652
    3OL     H3R 9469   0.078   3.565   2.676
    3OL     H3S 9470   6.350   3.574   2.684
    3OL     C14 9471   0.000   3.761   2.728
    3OL     H4R 9472   6.358   3.819   2.709
    3OL     H4S 9473   0.085   3.819   2.690
    3OL     C15 9474   0.018   3.739   2.878
    3OL     H5R 9475   0.111   3.685   2.896
    3OL     H5S 9476   6.383   3.678   2.916
    3OL     C16 9477   0.021   3.873   2.952
    3OL     H6R 9478   6.373   3.924   2.943
    3OL     H6S 9479   0.096   3.937   2.905
    3OL     C17 9480   0.058   3.857   3.101
    3OL     H7R 9481   0.083   3.956   3.141
    3OL     H7S 9482   0.148   3.796   3.109
    3OL     C18 9483   6.393   3.797   3.185
    3OL     H8R 9484   6.361   3.701   3.142
    3OL     H8S 9485   6.308   3.865   3.183
    3OL     C19 9486   6.441   3.778   3.327
    3OL     H9R 9487   0.068   3.850   3.359
    3OL    C110 9488   6.407   3.680   3.409
    3OL    H10R 9489   0.006   3.676   3.507
    3OL    C111 9490   6.301   3.576   3.385
    3OL    H11R 9491   6.348   3.479   3.367
    3OL    H11S 9492   6.240   3.600   3.297
    3OL    C112 9493   6.210   3.565   3.508
    3OL    H12R 9494   6.163   3.662   3.527
    3OL    H12S 9495   6.272   3.541   3.595
    3OL    C113 9496   6.102   3.457   3.491
    3OL    H13R 9497   6.149   3.360   3.476
    3OL    H13S 9498   6.044   3.480   3.401
    3OL    C114 9499   6.006   3.452   3.610
    3OL    H14R 9500   5.922   3.386   3.585
    3OL    H14S 9501   5.965   3.551   3.628
    3OL    C115 9502   6.073   3.398   3.738
    3OL    H15R 9503   6.155   3.464   3.768
    3OL    H15S 9504   6.117   3.301   3.716
    3OL    C116 9505   5.975   3.383   3.854
    3OL    H16R 9506   6.023   3.324   3.933
    3OL    H16S 9507   5.887   3.327   3.821
    3OL    C117 9508   5.932   3.518   3.913
    3OL    H17R 9509   5.885   3.580   3.836
    3OL    H17S 9510   6.020   3.571   3.950
    3OL    C118 9511   5.832   3.498   4.028
    3OL    H18R 9512   5.807   3.595   4.073
    3OL    H18S 9513   5.875   3.434   4.106
    3OL    H18T 9514   5.740   3.452   3.992
    1PA    C116 9515   2.679   2.984   3.435
    1PA    H16R 9516   2.703   3.057   3.513
    1PA    H16S 9517   2.737   3.008   3.346
    1PA    H16T 9518   2.710   2.885   3.470
    1PA    C115 9519   2.529   2.986   3.404
    1PA    H15R 9520   2.472   2.965   3.495
    1PA    H15S 9521   2.501   3.086   3.370
    1PA    C114 9522   2.494   2.883   3.296
    1PA    H14R 9523   2.554   2.903   3.206
    1PA    H14S 9524   2.519   2.783   3.331
    1PA    C113 9525   2.345   2.890   3.261
    1PA    H13R 9526   2.287   2.867   3.350
    1PA    H13S 9527   2.320   2.992   3.230
    1PA    C112 9528   2.309   2.791   3.149
    1PA    H12R 9529   2.371   2.808   3.061
    1PA    H12S 9530   2.330   2.690   3.185
    1PA    C111 9531   2.161   2.800   3.111
    1PA    H11R 9532   2.133   2.709   3.057
    1PA    H11S 9533   2.100   2.804   3.201
    1PA    C110 9534   2.130   2.920   3.021
    1PA    H10R 9535   2.159   3.013   3.072
    1PA    H10S 9536   2.189   2.914   2.929
    1PA     C19 9537   1.981   2.925   2.987
    1PA     H9R 9538   1.952   2.833   2.937
    1PA     H9S 9539   1.923   2.932   3.079
    1PA     C18 9540   1.948   3.045   2.896
    1PA     H8R 9541   1.978   3.138   2.945
    1PA     H8S 9542   2.004   3.037   2.803
    1PA     C17 9543   1.798   3.049   2.866
    1PA     H7R 9544   1.768   2.955   2.818
    1PA     H7S 9545   1.742   3.058   2.959
    1PA     C16 9546   1.762   3.166   2.773
    1PA     H6R 9547   1.794   3.260   2.821
    1PA     H6S 9548   1.816   3.156   2.679
    1PA     C15 9549   1.611   3.170   2.747
    1PA     H5R 9550   1.582   3.071   2.710
    1PA     H5S 9551   1.557   3.187   2.840
    1PA     C14 9552   1.570   3.273   2.641
    1PA     H4R 9553   1.638   3.272   2.556
    1PA     H4S 9554   1.473   3.242   2.603
    1PA     C13 9555   1.552   3.416   2.696
    1PA     H3R 9556   1.477   3.466   2.636
    1PA     H3S 9557   1.512   3.411   2.798
    1PA     C12 9558   1.680   3.500   2.694
    1PA     H2R 9559   1.658   3.598   2.737
    1PA     H2S 9560   1.758   3.455   2.754
    2PC     C11 9561   1.731   3.521   2.554
    2PC     O12 9562   1.833   3.470   2.511
    2PC     O11 9563   1.651   3.601   2.481
    2PC      C1 9564   1.683   3.621   2.342
    2PC      HR 9565   1.787   3.652   2.332
    2PC      HS 9566   1.669   3.527   2.288
    2PC      C2 9567   1.591   3.729   2.286
    2PC      HX 9568   1.487   3.701   2.306
    2PC      C3 9569   1.613   3.746   2.135
    2PC      HA 9570   1.579   3.655   2.083
    2PC      HB 9571   1.556   3.831   2.096
    2PC     O31 9572   1.753   3.764   2.109
    2PC     P31 9573   1.806   3.767   1.958
    2PC     O32 9574   1.879   3.909   1.948
    2PC     C31 9575   1.840   4.015   2.037
    2PC     H1A 9576   1.731   4.030   2.033
    2PC     H1B 9577   1.869   3.989   2.139
    2PC     C32 9578   1.914   4.143   1.994
    2PC     H2A 9579   1.895   4.221   2.067
    2PC     H2B 9580   2.021   4.123   1.992
    2PC     N31 9581   1.880   4.202   1.860
    2PC     C33 9582   1.936   4.119   1.749
    2PC     H3A 9583   2.044   4.108   1.765
    2PC     H3B 9584   1.888   4.021   1.750
    2PC     H3C 9585   1.916   4.169   1.654
    2PC     C34 9586   1.732   4.217   1.842
    2PC     H4A 9587   1.714   4.269   1.748
    2PC     H4B 9588   1.687   4.118   1.840
    2PC     H4C 9589   1.694   4.276   1.926
    2PC     C35 9590   1.941   4.338   1.853
    2PC     H5A 9591   1.902   4.398   1.936
    2PC     H5B 9592   1.913   4.383   1.758
    2PC     H5C 9593   2.049   4.329   1.861
    2PC     O33 9594   1.901   3.656   1.933
    2PC     O34 9595   1.698   3.756   1.857
    2PC     O21 9596   1.622   3.851   2.355
    2PC     C21 9597   1.539   3.957   2.349
    2PC     O22 9598   1.442   3.963   2.277
    3OL     C12 9599   1.580   4.064   2.448
    3OL     H2R 9600   1.672   4.111   2.412
    3OL     H2S 9601   1.603   4.015   2.542
    3OL     C13 9602   1.471   4.170   2.469
    3OL     H3R 9603   1.378   4.122   2.499
    3OL     H3S 9604   1.453   4.220   2.373
    3OL     C14 9605   1.512   4.276   2.572
    3OL     H4R 9606   1.447   4.363   2.561
    3OL     H4S 9607   1.614   4.310   2.549
    3OL     C15 9608   1.506   4.226   2.717
    3OL     H5R 9609   1.568   4.292   2.778
    3OL     H5S 9610   1.548   4.126   2.725
    3OL     C16 9611   1.363   4.229   2.772
    3OL     H6R 9612   1.297   4.175   2.704
    3OL     H6S 9613   1.327   4.332   2.775
    3OL     C17 9614   1.352   4.164   2.911
    3OL     H7R 9615   1.397   4.065   2.907
    3OL     H7S 9616   1.246   4.150   2.934
    3OL     C18 9617   1.416   4.245   3.025
    3OL     H8R 9618   1.521   4.262   3.000
    3OL     H8S 9619   1.413   4.183   3.115
    3OL     C19 9620   1.347   4.376   3.048
    3OL     H9R 9621   1.295   4.418   2.962
    3OL    C110 9622   1.341   4.442   3.163
    3OL    H10R 9623   1.287   4.536   3.168
    3OL    C111 9624   1.408   4.402   3.292
    3OL    H11R 9625   1.482   4.478   3.319
    3OL    H11S 9626   1.462   4.307   3.283
    3OL    C112 9627   1.308   4.392   3.408
    3OL    H12R 9628   1.233   4.316   3.386
    3OL    H12S 9629   1.256   4.487   3.419
    3OL    C113 9630   1.381   4.357   3.539
    3OL    H13R 9631   1.459   4.432   3.557
    3OL    H13S 9632   1.430   4.260   3.528
    3OL    C114 9633   1.286   4.355   3.659
    3OL    H14R 9634   1.207   4.281   3.642
    3OL    H14S 9635   1.238   4.452   3.669
    3OL    C115 9636   1.362   4.320   3.787
    3OL    H15R 9637   1.443   4.392   3.803
    3OL    H15S 9638   1.409   4.222   3.774
    3OL    C116 9639   1.271   4.315   3.910
    3OL    H16R 9640   1.324   4.264   3.991
    3OL    H16S 9641   1.182   4.257   3.887
    3OL    C117 9642   1.231   4.455   3.959
    3OL    H17R 9643   1.175   4.507   3.881
    3OL    H17S 9644   1.320   4.514   3.980
    3OL    C118 9645   1.144   4.446   4.085
    3OL    H18R 9646   1.200   4.399   4.166
    3OL    H18S 9647   1.054   4.388   4.066
    3OL    H18T 9648   1.115   4.546   4.118
    1PA    C116 9649   5.965   4.721   3.985
    1PA    H16R 9650   5.935   4.723   4.090
    1PA    H16S 9651   5.896   4.783   3.928
    1PA    H16T 9652   6.065   4.765   3.978
    1PA    C115 9653   5.965   4.577   3.932
    1PA    H15R 9654   6.033   4.516   3.993
    1PA    H15S 9655   5.865   4.534   3.942
    1PA    C114 9656   6.008   4.573   3.785
    1PA    H14R 9657   5.939   4.633   3.726
    1PA    H14S 9658   6.107   4.617   3.774
    1PA    C113 9659   6.010   4.429   3.732
    1PA    H13R 9660   6.082   4.370   3.790
    1PA    H13S 9661   5.912   4.382   3.746
    1PA    C112 9662   6.050   4.422   3.584
    1PA    H12R 9663   6.140   4.482   3.567
    1PA    H12S 9664   6.076   4.319   3.559
    1PA    C111 9665   5.937   4.468   3.492
    1PA    H11R 9666   5.846   4.412   3.514
    1PA    H11S 9667   5.916   4.574   3.509
    1PA    C110 9668   5.973   4.448   3.344
    1PA    H10R 9669   6.066   4.500   3.321
    1PA    H10S 9670   5.990   4.341   3.326
    1PA     C19 9671   5.862   4.498   3.251
    1PA     H9R 9672   5.769   4.444   3.273
    1PA     H9S 9673   5.844   4.604   3.270
    1PA     C18 9674   5.899   4.478   3.104
    1PA     H8R 9675   5.991   4.532   3.082
    1PA     H8S 9676   5.918   4.371   3.086
    1PA     C17 9677   5.788   4.526   3.010
    1PA     H7R 9678   5.696   4.472   3.033
    1PA     H7S 9679   5.768   4.632   3.028
    1PA     C16 9680   5.826   4.504   2.863
    1PA     H6R 9681   5.915   4.562   2.840
    1PA     H6S 9682   5.850   4.399   2.847
    1PA     C15 9683   5.711   4.546   2.770
    1PA     H5R 9684   5.622   4.489   2.798
    1PA     H5S 9685   5.688   4.651   2.784
    1PA     C14 9686   5.742   4.517   2.623
    1PA     H4R 9687   5.781   4.416   2.612
    1PA     H4S 9688   5.649   4.522   2.566
    1PA     C13 9689   5.842   4.618   2.563
    1PA     H3R 9690   5.804   4.719   2.580
    1PA     H3S 9691   5.939   4.610   2.612
    1PA     C12 9692   5.860   4.597   2.412
    1PA     H2R 9693   5.762   4.595   2.362
    1PA     H2S 9694   5.915   4.681   2.369
    2PC     C11 9695   5.934   4.470   2.380
    2PC     O12 9696   6.055   4.463   2.368
    2PC     O11 9697   5.853   4.365   2.367
    2PC      C1 9698   5.910   4.235   2.341
    2PC      HR 9699   5.974   4.240   2.253
    2PC      HS 9700   5.970   4.203   2.426
    2PC      C2 9701   5.794   4.138   2.315
    2PC      HX 9702   5.832   4.037   2.296
    2PC      C3 9703   5.714   4.188   2.194
    2PC      HA 9704   5.643   4.265   2.227
    2PC      HB 9705   5.781   4.232   2.120
    2PC     O31 9706   5.643   4.079   2.132
    2PC     P31 9707   5.538   4.116   2.017
    2PC     O32 9708   5.515   3.974   1.946
    2PC     C31 9709   5.598   3.933   1.836
    2PC     H1A 9710   5.704   3.947   1.863
    2PC     H1B 9711   5.580   3.826   1.819
    2PC     C32 9712   5.560   4.013   1.711
    2PC     H2A 9713   5.454   3.999   1.692
    2PC     H2B 9714   5.579   4.119   1.729
    2PC     N31 9715   5.631   3.981   1.582
    2PC     C33 9716   5.586   4.081   1.480
    2PC     H3A 9717   5.637   4.057   1.386
    2PC     H3B 9718   5.478   4.074   1.468
    2PC     H3C 9719   5.615   4.180   1.514
    2PC     C34 9720   5.779   3.991   1.597
    2PC     H4A 9721   5.813   3.916   1.669
    2PC     H4B 9722   5.826   3.973   1.500
    2PC     H4C 9723   5.804   4.091   1.632
    2PC     C35 9724   5.594   3.844   1.533
    2PC     H5A 9725   5.486   3.840   1.519
    2PC     H5B 9726   5.625   3.770   1.607
    2PC     H5C 9727   5.645   3.826   1.438
    2PC     O33 9728   5.412   4.166   2.076
    2PC     O34 9729   5.585   4.220   1.923
    2PC     O21 9730   5.705   4.139   2.428
    2PC     C21 9731   5.747   4.097   2.548
    2PC     O22 9732   5.851   4.037   2.567
    3OL     C12 9733   5.650   4.135   2.658
    3OL     H2R 9734   5.560   4.074   2.646
    3OL     H2S 9735   5.620   4.239   2.643
    3OL     C13 9736   5.710   4.117   2.798
    3OL     H3R 9737   5.798   4.180   2.809
    3OL     H3S 9738   5.741   4.014   2.812
    3OL     C14 9739   5.607   4.154   2.906
    3OL     H4R 9740   5.518   4.092   2.893
    3OL     H4S 9741   5.576   4.258   2.894
    3OL     C15 9742   5.662   4.133   3.048
    3OL     H5R 9743   5.736   4.211   3.070
    3OL     H5S 9744   5.713   4.037   3.053
    3OL     C16 9745   5.548   4.136   3.150
    3OL     H6R 9746   5.477   4.057   3.126
    3OL     H6S 9747   5.496   4.232   3.144
    3OL     C17 9748   5.600   4.115   3.293
    3OL     H7R 9749   5.657   4.203   3.325
    3OL     H7S 9750   5.668   4.029   3.295
    3OL     C18 9751   5.486   4.089   3.392
    3OL     H8R 9752   5.529   4.074   3.492
    3OL     H8S 9753   5.437   3.995   3.366
    3OL     C19 9754   5.386   4.202   3.398
    3OL     H9R 9755   5.422   4.292   3.449
    3OL    C110 9756   5.263   4.201   3.350
    3OL    H10R 9757   5.201   4.289   3.361
    3OL    C111 9758   5.198   4.086   3.278
    3OL    H11R 9759   5.222   3.991   3.326
    3OL    H11S 9760   5.237   4.081   3.176
    3OL    C112 9761   5.045   4.100   3.269
    3OL    H12R 9762   5.005   4.020   3.207
    3OL    H12S 9763   5.023   4.194   3.217
    3OL    C113 9764   4.974   4.102   3.405
    3OL    H13R 9765   4.869   4.123   3.389
    3OL    H13S 9766   5.014   4.184   3.465
    3OL    C114 9767   4.988   3.972   3.486
    3OL    H14R 9768   4.939   3.985   3.583
    3OL    H14S 9769   5.094   3.954   3.508
    3OL    C115 9770   4.930   3.847   3.418
    3OL    H15R 9771   4.960   3.760   3.476
    3OL    H15S 9772   4.973   3.835   3.318
    3OL    C116 9773   4.777   3.851   3.408
    3OL    H16R 9774   4.747   3.939   3.351
    3OL    H16S 9775   4.734   3.861   3.508
    3OL    C117 9776   4.720   3.727   3.339
    3OL    H17R 9777   4.770   3.711   3.244
    3OL    H17S 9778   4.614   3.745   3.317
    3OL    C118 9779   4.730   3.601   3.426
    3OL    H18R 9780   4.835   3.575   3.445
    3OL    H18S 9781   4.683   3.516   3.375
    3OL    H18T 9782   4.680   3.615   3.521
    1PA    C116 9783   4.902   5.914   3.944
    1PA    H16R 9784   4.845   5.915   4.037
    1PA    H16S 9785   4.839   5.870   3.866
    1PA    H16T 9786   4.924   6.017   3.916
    1PA    C115 9787   5.031   5.834   3.962
    1PA    H15R 9788   5.093   5.885   4.036
    1PA    H15S 9789   5.009   5.734   4.002
    1PA    C114 9790   5.110   5.822   3.831
    1PA    H14R 9791   5.107   5.917   3.777
    1PA    H14S 9792   5.215   5.802   3.857
    1PA    C113 9793   5.059   5.708   3.742
    1PA    H13R 9794   5.071   5.613   3.795
    1PA    H13S 9795   4.952   5.721   3.724
    1PA    C112 9796   5.131   5.699   3.607
    1PA    H12R 9797   5.089   5.617   3.550
    1PA    H12S 9798   5.113   5.791   3.551
    1PA    C111 9799   5.283   5.678   3.622
    1PA    H11R 9800   5.326   5.764   3.674
    1PA    H11S 9801   5.302   5.590   3.684
    1PA    C110 9802   5.354   5.664   3.487
    1PA    H10R 9803   5.313   5.734   3.415
    1PA    H10S 9804   5.459   5.691   3.502
    1PA     C19 9805   5.349   5.521   3.432
    1PA     H9R 9806   5.385   5.451   3.508
    1PA     H9S 9807   5.247   5.493   3.407
    1PA     C18 9808   5.438   5.510   3.307
    1PA     H8R 9809   5.393   5.567   3.225
    1PA     H8S 9810   5.535   5.556   3.328
    1PA     C17 9811   5.459   5.364   3.266
    1PA     H7R 9812   5.488   5.306   3.354
    1PA     H7S 9813   5.365   5.322   3.229
    1PA     C16 9814   5.569   5.350   3.160
    1PA     H6R 9815   5.658   5.405   3.192
    1PA     H6S 9816   5.598   5.244   3.153
    1PA     C15 9817   5.525   5.398   3.021
    1PA     H5R 9818   5.442   5.335   2.986
    1PA     H5S 9819   5.488   5.500   3.027
    1PA     C14 9820   5.641   5.391   2.922
    1PA     H4R 9821   5.722   5.455   2.956
    1PA     H4S 9822   5.679   5.289   2.916
    1PA     C13 9823   5.595   5.437   2.782
    1PA     H3R 9824   5.518   5.369   2.746
    1PA     H3S 9825   5.552   5.537   2.790
    1PA     C12 9826   5.712   5.438   2.683
    1PA     H2R 9827   5.790   5.506   2.719
    1PA     H2S 9828   5.755   5.338   2.675
    2PC     C11 9829   5.672   5.484   2.545
    2PC     O12 9830   5.733   5.451   2.446
    2PC     O11 9831   5.571   5.573   2.545
    2PC      C1 9832   5.524   5.632   2.422
    2PC      HR 9833   5.454   5.711   2.446
    2PC      HS 9834   5.609   5.677   2.370
    2PC      C2 9835   5.455   5.529   2.331
    2PC      HX 9836   5.523   5.447   2.307
    2PC      C3 9837   5.411   5.599   2.201
    2PC      HA 9838   5.329   5.668   2.223
    2PC      HB 9839   5.494   5.656   2.158
    2PC     O31 9840   5.364   5.502   2.105
    2PC     P31 9841   5.470   5.410   2.027
    2PC     O32 9842   5.458   5.462   1.877
    2PC     C31 9843   5.554   5.558   1.830
    2PC     H1A 9844   5.532   5.656   1.875
    2PC     H1B 9845   5.655   5.527   1.859
    2PC     C32 9846   5.544   5.563   1.677
    2PC     H2A 9847   5.566   5.464   1.638
    2PC     H2B 9848   5.443   5.590   1.648
    2PC     N31 9849   5.635   5.658   1.605
    2PC     C33 9850   5.779   5.630   1.634
    2PC     H3A 9851   5.798   5.647   1.740
    2PC     H3B 9852   5.800   5.526   1.607
    2PC     H3C 9853   5.841   5.697   1.574
    2PC     C34 9854   5.611   5.641   1.458
    2PC     H4A 9855   5.506   5.661   1.437
    2PC     H4B 9856   5.675   5.712   1.404
    2PC     H4C 9857   5.636   5.539   1.430
    2PC     C35 9858   5.604   5.800   1.643
    2PC     H5A 9859   5.625   5.814   1.749
    2PC     H5B 9860   5.499   5.820   1.622
    2PC     H5C 9861   5.667   5.866   1.583
    2PC     O33 9862   5.608   5.422   2.079
    2PC     O34 9863   5.438   5.266   2.036
    2PC     O21 9864   5.337   5.480   2.396
    2PC     C21 9865   5.346   5.373   2.477
    2PC     O22 9866   5.447   5.307   2.493
    3OL     C12 9867   5.217   5.343   2.549
    3OL     H2R 9868   5.173   5.252   2.507
    3OL     H2S 9869   5.146   5.424   2.531
    3OL     C13 9870   5.243   5.327   2.699
    3OL     H3R 9871   5.291   5.419   2.736
    3OL     H3S 9872   5.313   5.245   2.715
    3OL     C14 9873   5.115   5.302   2.779
    3OL     H4R 9874   5.068   5.209   2.745
    3OL     H4S 9875   5.044   5.384   2.762
    3OL     C15 9876   5.149   5.292   2.928
    3OL     H5R 9877   5.202   5.383   2.958
    3OL     H5S 9878   5.217   5.208   2.945
    3OL     C16 9879   5.024   5.275   3.016
    3OL     H6R 9880   4.976   5.179   2.994
    3OL     H6S 9881   4.953   5.354   2.994
    3OL     C17 9882   5.064   5.280   3.164
    3OL     H7R 9883   5.119   5.372   3.184
    3OL     H7S 9884   5.132   5.197   3.186
    3OL     C18 9885   4.943   5.273   3.258
    3OL     H8R 9886   4.898   5.174   3.249
    3OL     H8S 9887   4.869   5.347   3.227
    3OL     C19 9888   4.987   5.296   3.400
    3OL     H9R 9889   5.087   5.261   3.423
    3OL    C110 9890   4.918   5.357   3.495
    3OL    H10R 9891   4.962   5.368   3.594
    3OL    C111 9892   4.778   5.411   3.482
    3OL    H11R 9893   4.762   5.452   3.382
    3OL    H11S 9894   4.766   5.495   3.551
    3OL    C112 9895   4.670   5.306   3.511
    3OL    H12R 9896   4.677   5.226   3.437
    3OL    H12S 9897   4.573   5.353   3.498
    3OL    C113 9898   4.676   5.247   3.653
    3OL    H13R 9899   4.575   5.222   3.685
    3OL    H13S 9900   4.713   5.324   3.722
    3OL    C114 9901   4.764   5.122   3.665
    3OL    H14R 9902   4.788   5.106   3.770
    3OL    H14S 9903   4.860   5.136   3.613
    3OL    C115 9904   4.695   4.996   3.612
    3OL    H15R 9905   4.664   5.011   3.508
    3OL    H15S 9906   4.605   4.976   3.671
    3OL    C116 9907   4.789   4.875   3.620
    3OL    H16R 9908   4.823   4.861   3.723
    3OL    H16S 9909   4.878   4.894   3.558
    3OL    C117 9910   4.720   4.747   3.571
    3OL    H17R 9911   4.683   4.761   3.469
    3OL    H17S 9912   4.634   4.726   3.635
    3OL    C118 9913   4.816   4.627   3.574
    3OL    H18R 9914   4.902   4.645   3.509
    3OL    H18S 9915   4.765   4.537   3.540
    3OL    H18T 9916   4.852   4.609   3.676
    1PA    C116 9917   0.293   5.336   3.974
    1PA    H16R 9918   0.370   5.392   4.028
    1PA    H16S 9919   0.310   5.229   3.992
    1PA    H16T 9920   0.196   5.363   4.014
    1PA    C115 9921   0.301   5.366   3.824
    1PA    H15R 9922   0.287   5.474   3.808
    1PA    H15S 9923   0.400   5.340   3.787
    1PA    C114 9924   0.194   5.288   3.746
    1PA    H14R 9925   0.209   5.181   3.760
    1PA    H14S 9926   0.096   5.312   3.787
    1PA    C113 9927   0.192   5.321   3.596
    1PA    H13R 9928   0.103   5.275   3.553
    1PA    H13S 9929   0.182   5.429   3.582
    1PA    C112 9930   0.314   5.267   3.521
    1PA    H12R 9931   0.355   5.181   3.575
    1PA    H12S 9932   0.282   5.228   3.424
    1PA    C111 9933   0.426   5.370   3.499
    1PA    H11R 9934   0.427   5.444   3.579
    1PA    H11S 9935   0.521   5.318   3.503
    1PA    C110 9936   0.418   5.440   3.362
    1PA    H10R 9937   0.511   5.495   3.347
    1PA    H10S 9938   0.411   5.365   3.283
    1PA     C19 9939   0.300   5.538   3.352
    1PA     H9R 9940   0.205   5.484   3.360
    1PA     H9S 9941   0.306   5.607   3.437
    1PA     C18 9942   0.302   5.620   3.223
    1PA     H8R 9943   0.229   5.700   3.232
    1PA     H8S 9944   0.400   5.667   3.210
    1PA     C17 9945   0.269   5.536   3.099
    1PA     H7R 9946   0.345   5.458   3.087
    1PA     H7S 9947   0.173   5.485   3.111
    1PA     C16 9948   0.268   5.621   2.971
    1PA     H6R 9949   0.348   5.695   2.975
    1PA     H6S 9950   0.286   5.556   2.886
    1PA     C15 9951   0.133   5.691   2.951
    1PA     H5R 9952   0.056   5.617   2.926
    1PA     H5S 9953   0.102   5.738   3.045
    1PA     C14 9954   0.137   5.801   2.843
    1PA     H4R 9955   0.039   5.848   2.836
    1PA     H4S 9956   0.207   5.878   2.877
    1PA     C13 9957   0.181   5.753   2.704
    1PA     H3R 9958   0.205   5.840   2.643
    1PA     H3S 9959   0.273   5.693   2.711
    1PA     C12 9960   0.071   5.673   2.633
    1PA     H2R 9961   0.041   5.588   2.695
    1PA     H2S 9962   6.431   5.736   2.618
    2PC     C11 9963   0.116   5.622   2.499
    2PC     O12 9964   0.182   5.687   2.420
    2PC     O11 9965   0.081   5.494   2.478
    2PC      C1 9966   0.132   5.419   2.367
    2PC      HR 9967   0.090   5.318   2.371
    2PC      HS 9968   0.101   5.466   2.273
    2PC      C2 9969   0.285   5.409   2.372
    2PC      HX 9970   0.330   5.505   2.346
    2PC      C3 9971   0.335   5.302   2.273
    2PC      HA 9972   0.287   5.316   2.176
    2PC      HB 9973   0.443   5.308   2.260
    2PC     O31 9974   0.300   5.173   2.326
    2PC     P31 9975   0.311   5.042   2.234
    2PC     O32 9976   0.468   5.013   2.231
    2PC     C31 9977   0.536   4.985   2.355
    2PC     H1A 9978   0.526   5.071   2.422
    2PC     H1B 9979   0.490   4.898   2.403
    2PC     C32 9980   0.684   4.956   2.327
    2PC     H2A 9981   0.732   4.928   2.421
    2PC     H2B 9982   0.692   4.872   2.258
    2PC     N31 9983   0.769   5.066   2.269
    2PC     C33 9984   0.764   5.189   2.355
    2PC     H3A 9985   0.831   5.263   2.311
    2PC     H3B 9986   0.662   5.227   2.356
    2PC     H3C 9987   0.797   5.163   2.455
    2PC     C34 9988   0.911   5.018   2.262
    2PC     H4A 9989   0.973   5.098   2.222
    2PC     H4B 9990   0.943   4.991   2.363
    2PC     H4C 9991   0.914   4.930   2.198
    2PC     C35 9992   0.726   5.100   2.130
    2PC     H5A 9993   0.625   5.141   2.133
    2PC     H5B 9994   0.728   5.010   2.069
    2PC     H5C 9995   0.796   5.174   2.089
    2PC     O33 9996   0.231   4.930   2.288
    2PC     O34 9997   0.261   5.066   2.096
    2PC     O21 9998   0.320   5.373   2.507
    2PC     C21 9999   0.449   5.366   2.545
    2PC     O2210000   0.543   5.395   2.474
    3OL     C1210001   0.463   5.315   2.686
    3OL     H2R10002   0.391   5.368   2.749
    3OL     H2S10003   0.563   5.336   2.723
    3OL     C1310004   0.436   5.164   2.691
    3OL     H3R10005   0.509   5.114   2.627
    3OL     H3S10006   0.337   5.142   2.649
    3OL     C1410007   0.447   5.104   2.831
    3OL     H4R10008   0.545   5.127   2.874
    3OL     H4S10009   0.439   4.995   2.822
    3OL     C1510010   0.336   5.152   2.926
    3OL     H5R10011   0.239   5.135   2.879
    3OL     H5S10012   0.346   5.259   2.945
    3OL     C1610013   0.343   5.074   3.059
    3OL     H6R10014   0.443   5.088   3.101
    3OL     H6S10015   0.330   4.968   3.040
    3OL     C1710016   0.240   5.120   3.163
    3OL     H7R10017   0.247   5.228   3.178
    3OL     H7S10018   0.266   5.073   3.257
    3OL     C1810019   0.095   5.081   3.130
    3OL     H8R10020   0.039   5.075   3.223
    3OL     H8S10021   0.093   4.981   3.086
    3OL     C1910022   0.028   5.179   3.037
    3OL     H9R10023   0.035   5.155   2.932
    3OL    C11010024   6.405   5.284   3.075
    3OL    H10R10025   6.358   5.346   2.998
    3OL    C11110026   6.388   5.334   3.216
    3OL    H11R10027   6.406   5.442   3.218
    3OL    H11S10028   0.015   5.288   3.282
    3OL    C11210029   6.247   5.304   3.268
    3OL    H12R10030   6.228   5.197   3.257
    3OL    H12S10031   6.173   5.357   3.208
    3OL    C11310032   6.229   5.340   3.416
    3OL    H13R10033   6.305   5.288   3.476
    3OL    H13S10034   6.132   5.304   3.449
    3OL    C11410035   6.237   5.491   3.442
    3OL    H14R10036   6.170   5.542   3.372
    3OL    H14S10037   6.338   5.528   3.422
    3OL    C11510038   6.195   5.528   3.585
    3OL    H15R10039   6.098   5.484   3.607
    3OL    H15S10040   6.183   5.637   3.590
    3OL    C11610041   6.298   5.485   3.690
    3OL    H16R10042   6.395   5.529   3.667
    3OL    H16S10043   6.309   5.376   3.689
    3OL    C11710044   6.253   5.530   3.830
    3OL    H17R10045   6.155   5.486   3.853
    3OL    H17S10046   6.243   5.638   3.833
    3OL    C11810047   6.354   5.486   3.938
    3OL    H18R10048   6.320   5.519   4.036
    3OL    H18S10049   6.364   5.378   3.940
    3OL    H18T10050   0.004   5.530   3.918
    1PA    C11610051   1.707   2.839   3.614
    1PA    H16R10052   1.689   2.768   3.695
    1PA    H16S10053   1.811   2.870   3.617
    1PA    H16T10054   1.644   2.927   3.631
    1PA    C11510055   1.674   2.774   3.479
    1PA    H15R10056   1.735   2.683   3.468
    1PA    H15S10057   1.570   2.742   3.479
    1PA    C11410058   1.702   2.865   3.359
    1PA    H14R10059   1.809   2.887   3.354
    1PA    H14S10060   1.677   2.811   3.267
    1PA    C11310061   1.624   2.998   3.360
    1PA    H13R10062   1.655   3.058   3.445
    1PA    H13S10063   1.651   3.053   3.270
    1PA    C11210064   1.472   2.977   3.364
    1PA    H12R10065   1.442   2.912   3.282
    1PA    H12S10066   1.446   2.926   3.457
    1PA    C11110067   1.394   3.109   3.358
    1PA    H11R10068   1.292   3.089   3.391
    1PA    H11S10069   1.437   3.181   3.427
    1PA    C11010070   1.389   3.167   3.216
    1PA    H10R10071   1.490   3.194   3.183
    1PA    H10S10072   1.351   3.091   3.147
    1PA     C1910073   1.298   3.291   3.212
    1PA     H9R10074   1.199   3.265   3.249
    1PA     H9S10075   1.339   3.367   3.279
    1PA     C1810076   1.285   3.350   3.071
    1PA     H8R10077   1.231   3.445   3.079
    1PA     H8S10078   1.384   3.373   3.030
    1PA     C1710079   1.210   3.257   2.975
    1PA     H7R10080   1.273   3.171   2.950
    1PA     H7S10081   1.120   3.219   3.024
    1PA     C1610082   1.170   3.330   2.847
    1PA     H6R10083   1.103   3.413   2.872
    1PA     H6S10084   1.259   3.372   2.799
    1PA     C1510085   1.100   3.236   2.748
    1PA     H5R10086   1.173   3.167   2.704
    1PA     H5S10087   1.028   3.174   2.803
    1PA     C1410088   1.024   3.311   2.638
    1PA     H4R10089   0.969   3.240   2.577
    1PA     H4S10090   0.950   3.376   2.685
    1PA     C1310091   1.114   3.397   2.547
    1PA     H3R10092   1.048   3.463   2.489
    1PA     H3S10093   1.179   3.461   2.606
    1PA     C1210094   1.197   3.312   2.450
    1PA     H2R10095   1.270   3.252   2.504
    1PA     H2S10096   1.132   3.244   2.396
    2PC     C1110097   1.269   3.399   2.350
    2PC     O1210098   1.344   3.490   2.382
    2PC     O1110099   1.240   3.365   2.224
    2PC      C110100   1.301   3.435   2.114
    2PC      HR10101   1.402   3.470   2.141
    2PC      HS10102   1.311   3.365   2.032
    2PC      C210103   1.214   3.553   2.068
    2PC      HX10104   1.110   3.522   2.062
    2PC      C310105   1.257   3.601   1.929
    2PC      HA10106   1.357   3.646   1.932
    2PC      HB10107   1.259   3.517   1.859
    2PC     O3110108   1.161   3.698   1.884
    2PC     P3110109   1.170   3.748   1.732
    2PC     O3210110   1.040   3.842   1.729
    2PC     C3110111   0.912   3.782   1.701
    2PC     H1A10112   0.916   3.728   1.606
    2PC     H1B10113   0.889   3.711   1.781
    2PC     C3210114   0.805   3.892   1.697
    2PC     H2A10115   0.707   3.845   1.692
    2PC     H2B10116   0.810   3.949   1.790
    2PC     N3110117   0.810   3.991   1.585
    2PC     C3310118   0.699   4.090   1.605
    2PC     H3A10119   0.605   4.036   1.597
    2PC     H3B10120   0.710   4.134   1.704
    2PC     H3C10121   0.706   4.166   1.528
    2PC     C3410122   0.940   4.067   1.583
    2PC     H4A10123   0.955   4.112   1.681
    2PC     H4B10124   1.020   3.997   1.560
    2PC     H4C10125   0.933   4.144   1.506
    2PC     C3510126   0.790   3.924   1.453
    2PC     H5A10127   0.695   3.870   1.456
    2PC     H5B10128   0.872   3.855   1.435
    2PC     H5C10129   0.787   4.001   1.375
    2PC     O3310130   1.293   3.824   1.702
    2PC     O3410131   1.156   3.634   1.638
    2PC     O2110132   1.230   3.666   2.156
    2PC     C2110133   1.145   3.679   2.260
    2PC     O2210134   1.055   3.600   2.283
    3OL     C1210135   1.170   3.805   2.338
    3OL     H2R10136   1.195   3.884   2.268
    3OL     H2S10137   1.256   3.789   2.403
    3OL     C1310138   1.047   3.847   2.420
    3OL     H3R10139   1.017   3.766   2.486
    3OL     H3S10140   0.964   3.865   2.352
    3OL     C1410141   1.074   3.975   2.501
    3OL     H4R10142   0.998   4.049   2.472
    3OL     H4S10143   1.170   4.019   2.475
    3OL     C1510144   1.064   3.954   2.652
    3OL     H5R10145   0.978   3.892   2.677
    3OL     H5S10146   1.044   4.052   2.697
    3OL     C1610147   1.191   3.899   2.718
    3OL     H6R10148   1.188   3.928   2.823
    3OL     H6S10149   1.280   3.945   2.674
    3OL     C1710150   1.201   3.746   2.711
    3OL     H7R10151   1.221   3.716   2.608
    3OL     H7S10152   1.107   3.700   2.741
    3OL     C1810153   1.314   3.692   2.800
    3OL     H8R10154   1.408   3.742   2.774
    3OL     H8S10155   1.326   3.586   2.779
    3OL     C1910156   1.280   3.710   2.946
    3OL     H9R10157   1.174   3.712   2.968
    3OL    C11010158   1.366   3.726   3.046
    3OL    H10R10159   1.327   3.741   3.146
    3OL    C11110160   1.517   3.723   3.037
    3OL    H11R10161   1.556   3.818   3.073
    3OL    H11S10162   1.550   3.713   2.933
    3OL    C11210163   1.578   3.610   3.120
    3OL    H12R10164   1.687   3.618   3.116
    3OL    H12S10165   1.551   3.514   3.076
    3OL    C11310166   1.533   3.613   3.267
    3OL    H13R10167   1.425   3.597   3.273
    3OL    H13S10168   1.554   3.712   3.309
    3OL    C11410169   1.603   3.505   3.350
    3OL    H14R10170   1.711   3.522   3.348
    3OL    H14S10171   1.584   3.407   3.308
    3OL    C11510172   1.553   3.510   3.495
    3OL    H15R10173   1.445   3.494   3.495
    3OL    H15S10174   1.570   3.609   3.538
    3OL    C11610175   1.617   3.404   3.585
    3OL    H16R10176   1.615   3.307   3.535
    3OL    H16S10177   1.557   3.395   3.676
    3OL    C11710178   1.761   3.440   3.625
    3OL    H17R10179   1.762   3.539   3.673
    3OL    H17S10180   1.824   3.445   3.537
    3OL    C11810181   1.818   3.337   3.723
    3OL    H18R10182   1.757   3.332   3.814
    3OL    H18S10183   1.920   3.365   3.752
    3OL    H18T10184   1.821   3.238   3.677
    1PA    C11610185   6.232   3.229   2.842
    1PA    H16R10186   6.278   3.253   2.746
    1PA    H16S10187   6.165   3.144   2.826
    1PA    H16T10188   6.310   3.200   2.912
    1PA    C11510189   6.153   3.350   2.894
    1PA    H15R10190   6.221   3.435   2.899
    1PA    H15S10191   6.075   3.376   2.823
    1PA    C11410192   6.092   3.327   3.033
    1PA    H14R10193   6.171   3.302   3.104
    1PA    H14S10194   6.048   3.421   3.066
    1PA    C11310195   5.986   3.217   3.034
    1PA    H13R10196   5.913   3.234   2.954
    1PA    H13S10197   6.034   3.121   3.014
    1PA    C11210198   5.914   3.207   3.169
    1PA    H12R10199   5.871   3.107   3.179
    1PA    H12S10200   5.986   3.220   3.250
    1PA    C11110201   5.801   3.311   3.180
    1PA    H11R10202   5.843   3.410   3.164
    1PA    H11S10203   5.728   3.295   3.101
    1PA    C11010204   5.733   3.310   3.318
    1PA    H10R10205   5.811   3.320   3.394
    1PA    H10S10206   5.669   3.399   3.327
    1PA     C1910207   5.650   3.185   3.349
    1PA     H9R10208   5.698   3.094   3.312
    1PA     H9S10209   5.649   3.176   3.458
    1PA     C1810210   5.504   3.192   3.304
    1PA     H8R10211   5.445   3.128   3.370
    1PA     H8S10212   5.466   3.294   3.316
    1PA     C1710213   5.482   3.144   3.160
    1PA     H7R10214   5.535   3.209   3.090
    1PA     H7S10215   5.523   3.043   3.149
    1PA     C1610216   5.333   3.144   3.125
    1PA     H6R10217   5.279   3.075   3.190
    1PA     H6S10218   5.293   3.244   3.143
    1PA     C1510219   5.307   3.108   2.978
    1PA     H5R10220   5.204   3.136   2.954
    1PA     H5S10221   5.373   3.166   2.913
    1PA     C1410222   5.324   2.958   2.948
    1PA     H4R10223   5.428   2.928   2.963
    1PA     H4S10224   5.262   2.901   3.017
    1PA     C1310225   5.281   2.928   2.804
    1PA     H3R10226   5.177   2.961   2.790
    1PA     H3S10227   5.343   2.985   2.734
    1PA     C1210228   5.291   2.779   2.771
    1PA     H2R10229   5.395   2.746   2.775
    1PA     H2S10230   5.234   2.721   2.844
    2PC     C1110231   5.234   2.750   2.634
    2PC     O1210232   5.303   2.724   2.538
    2PC     O1110233   5.101   2.761   2.630
    2PC      C110234   5.030   2.737   2.507
    2PC      HR10235   4.926   2.767   2.518
    2PC      HS10236   5.075   2.796   2.427
    2PC      C210237   5.035   2.588   2.470
    2PC      HX10238   5.138   2.552   2.473
    2PC      C310239   4.982   2.561   2.329
    2PC      HA10240   4.875   2.582   2.322
    2PC      HB10241   5.037   2.623   2.258
    2PC     O3110242   5.007   2.422   2.301
    2PC     P3110243   5.022   2.372   2.149
    2PC     O3210244   4.873   2.369   2.091
    2PC     C3110245   4.800   2.245   2.091
    2PC     H1A10246   4.868   2.161   2.076
    2PC     H1B10247   4.750   2.234   2.188
    2PC     C3210248   4.697   2.250   1.978
    2PC     H2A10249   4.627   2.167   1.991
    2PC     H2B10250   4.641   2.343   1.984
    2PC     N3110251   4.747   2.239   1.837
    2PC     C3310252   4.815   2.107   1.815
    2PC     H3A10253   4.903   2.102   1.878
    2PC     H3B10254   4.745   2.027   1.840
    2PC     H3C10255   4.843   2.100   1.710
    2PC     C3410256   4.629   2.248   1.744
    2PC     H4A10257   4.561   2.166   1.767
    2PC     H4B10258   4.580   2.344   1.759
    2PC     H4C10259   4.665   2.240   1.642
    2PC     C3510260   4.841   2.350   1.802
    2PC     H5A10261   4.790   2.445   1.820
    2PC     H5B10262   4.868   2.341   1.697
    2PC     H5C10263   4.930   2.342   1.865
    2PC     O3310264   5.104   2.466   2.069
    2PC     O3410265   5.096   2.244   2.138
    2PC     O2110266   4.954   2.513   2.563
    2PC     C2110267   5.013   2.458   2.671
    2PC     O2210268   5.132   2.465   2.695
    3OL     C1210269   4.913   2.383   2.755
    3OL     H2R10270   4.859   2.314   2.690
    3OL     H2S10271   4.841   2.454   2.795
    3OL     C1310272   4.979   2.304   2.869
    3OL     H3R10273   5.023   2.373   2.942
    3OL     H3S10274   5.061   2.244   2.828
    3OL     C1410275   4.881   2.210   2.939
    3OL     H4R10276   4.936   2.146   3.008
    3OL     H4S10277   4.835   2.145   2.864
    3OL     C1510278   4.772   2.286   3.017
    3OL     H5R10279   4.718   2.354   2.952
    3OL     H5S10280   4.820   2.346   3.095
    3OL     C1610281   4.673   2.190   3.084
    3OL     H6R10282   4.615   2.245   3.158
    3OL     H6S10283   4.727   2.111   3.137
    3OL     C1710284   4.576   2.126   2.983
    3OL     H7R10285   4.632   2.070   2.909
    3OL     H7S10286   4.520   2.204   2.931
    3OL     C1810287   4.479   2.031   3.055
    3OL     H8R10288   4.417   2.090   3.123
    3OL     H8S10289   4.536   1.961   3.115
    3OL     C1910290   4.391   1.961   2.954
    3OL     H9R10291   4.343   2.026   2.882
    3OL    C11010292   4.371   1.830   2.945
    3OL    H10R10293   4.307   1.793   2.866
    3OL    C11110294   4.424   1.725   3.039
    3OL    H11R10295   4.459   1.768   3.133
    3OL    H11S10296   4.509   1.675   2.992
    3OL    C11210297   4.316   1.620   3.068
    3OL    H12R10298   4.277   1.583   2.973
    3OL    H12S10299   4.233   1.665   3.123
    3OL    C11310300   4.372   1.499   3.146
    3OL    H13R10301   4.462   1.463   3.097
    3OL    H13S10302   4.298   1.419   3.142
    3OL    C11410303   4.401   1.531   3.293
    3OL    H14R10304   4.311   1.567   3.342
    3OL    H14S10305   4.476   1.611   3.299
    3OL    C11510306   4.454   1.407   3.365
    3OL    H15R10307   4.544   1.371   3.316
    3OL    H15S10308   4.379   1.327   3.358
    3OL    C11610309   4.484   1.436   3.513
    3OL    H16R10310   4.394   1.470   3.564
    3OL    H16S10311   4.557   1.518   3.518
    3OL    C11710312   4.543   1.315   3.586
    3OL    H17R10313   4.579   1.347   3.684
    3OL    H17S10314   4.628   1.275   3.531
    3OL    C11810315   4.439   1.203   3.607
    3OL    H18R10316   4.483   1.122   3.666
    3OL    H18S10317   4.406   1.162   3.512
    3OL    H18T10318   4.352   1.241   3.661
    1PA    C11610319   5.376   1.444   4.151
    1PA    H16R10320   5.437   1.377   4.212
    1PA    H16S10321   5.310   1.501   4.217
    1PA    H16T10322   5.442   1.514   4.100
    1PA    C11510323   5.293   1.364   4.049
    1PA    H15R10324   5.232   1.292   4.104
    1PA    H15S10325   5.224   1.430   3.996
    1PA    C11410326   5.382   1.289   3.950
    1PA    H14R10327   5.473   1.255   4.001
    1PA    H14S10328   5.329   1.200   3.916
    1PA    C11310329   5.419   1.375   3.828
    1PA    H13R10330   5.330   1.392   3.768
    1PA    H13S10331   5.454   1.472   3.862
    1PA    C11210332   5.529   1.312   3.742
    1PA    H12R10333   5.557   1.382   3.662
    1PA    H12S10334   5.618   1.299   3.804
    1PA    C11110335   5.493   1.177   3.679
    1PA    H11R10336   5.585   1.125   3.651
    1PA    H11S10337   5.445   1.113   3.754
    1PA    C11010338   5.401   1.189   3.557
    1PA    H10R10339   5.343   1.097   3.547
    1PA    H10S10340   5.329   1.269   3.574
    1PA     C1910341   5.476   1.215   3.426
    1PA     H9R10342   5.404   1.250   3.352
    1PA     H9S10343   5.550   1.294   3.440
    1PA     C1810344   5.545   1.088   3.373
    1PA     H8R10345   5.619   1.054   3.445
    1PA     H8S10346   5.472   1.008   3.362
    1PA     C1710347   5.616   1.111   3.239
    1PA     H7R10348   5.679   1.200   3.245
    1PA     H7S10349   5.682   1.026   3.220
    1PA     C1610350   5.517   1.125   3.122
    1PA     H6R10351   5.454   1.036   3.117
    1PA     H6S10352   5.452   1.211   3.141
    1PA     C1510353   5.587   1.147   2.988
    1PA     H5R10354   5.514   1.190   2.919
    1PA     H5S10355   5.668   1.220   2.998
    1PA     C1410356   5.638   1.017   2.925
    1PA     H4R10357   5.720   0.976   2.984
    1PA     H4S10358   5.558   0.943   2.923
    1PA     C1310359   5.685   1.043   2.781
    1PA     H3R10360   5.604   1.091   2.726
    1PA     H3S10361   5.770   1.112   2.781
    1PA     C1210362   5.724   0.912   2.710
    1PA     H2R10363   5.816   0.872   2.754
    1PA     H2S10364   5.646   0.838   2.725
    2PC     C1110365   5.744   0.928   2.562
    2PC     O1210366   5.713   1.028   2.499
    2PC     O1110367   5.801   0.818   2.510
    2PC      C110368   5.812   0.795   2.369
    2PC      HR10369   5.853   0.695   2.355
    2PC      HS10370   5.712   0.798   2.324
    2PC      C210371   5.904   0.896   2.298
    2PC      HX10372   5.857   0.994   2.300
    2PC      C310373   5.926   0.855   2.152
    2PC      HA10374   5.830   0.861   2.101
    2PC      HB10375   5.996   0.923   2.103
    2PC     O3110376   5.975   0.720   2.140
    2PC     P3110377   5.951   0.640   2.003
    2PC     O3210378   6.097   0.595   1.954
    2PC     C3110379   6.128   0.614   1.815
    2PC     H1A10380   6.057   0.559   1.753
    2PC     H1B10381   6.119   0.721   1.791
    2PC     C3210382   6.273   0.570   1.788
    2PC     H2A10383   6.320   0.643   1.722
    2PC     H2B10384   6.328   0.570   1.882
    2PC     N3110385   6.295   0.437   1.724
    2PC     C3310386   6.442   0.412   1.714
    2PC     H3A10387   0.039   0.489   1.651
    2PC     H3B10388   0.037   0.417   1.815
    2PC     H3C10389   0.010   0.313   1.671
    2PC     C3410390   6.236   0.326   1.807
    2PC     H4A10391   6.281   0.332   1.906
    2PC     H4B10392   6.128   0.341   1.813
    2PC     H4C10393   6.260   0.231   1.760
    2PC     C3510394   6.237   0.433   1.586
    2PC     H5A10395   6.280   0.515   1.529
    2PC     H5B10396   6.128   0.444   1.593
    2PC     H5C10397   6.262   0.337   1.540
    2PC     O3310398   5.867   0.518   2.021
    2PC     O3410399   5.883   0.722   1.901
    2PC     O2110400   6.028   0.902   2.371
    2PC     C2110401   6.114   1.003   2.353
    2PC     O2210402   6.105   1.087   2.265
    3OL     C1210403   6.217   1.008   2.463
    3OL     H2R10404   6.305   0.949   2.434
    3OL     H2S10405   6.174   0.961   2.552
    3OL     C1310406   6.257   1.152   2.497
    3OL     H3R10407   6.168   1.215   2.496
    3OL     H3S10408   6.325   1.190   2.420
    3OL     C1410409   6.323   1.162   2.635
    3OL     H4R10410   6.412   1.099   2.638
    3OL     H4S10411   6.253   1.127   2.711
    3OL     C1510412   6.361   1.308   2.664
    3OL     H5R10413   6.276   1.372   2.643
    3OL     H5S10414   6.442   1.339   2.598
    3OL     C1610415   6.401   1.330   2.811
    3OL     H6R10416   6.317   1.302   2.875
    3OL     H6S10417   6.420   1.437   2.826
    3OL     C1710418   0.078   1.251   2.853
    3OL     H7R10419   0.162   1.276   2.788
    3OL     H7S10420   0.058   1.144   2.844
    3OL     C1810421   0.114   1.284   2.999
    3OL     H8R10422   0.023   1.286   3.058
    3OL     H8S10423   0.157   1.385   3.002
    3OL     C1910424   0.214   1.186   3.055
    3OL     H9R10425   0.303   1.171   2.995
    3OL    C11010426   0.200   1.120   3.169
    3OL    H10R10427   0.278   1.052   3.201
    3OL    C11110428   0.082   1.130   3.263
    3OL    H11R10429   0.082   1.045   3.330
    3OL    H11S10430   6.437   1.126   3.206
    3OL    C11210431   0.087   1.260   3.345
    3OL    H12R10432   0.094   1.346   3.277
    3OL    H12S10433   0.176   1.260   3.408
    3OL    C11310434   6.409   1.275   3.432
    3OL    H13R10435   6.407   1.196   3.507
    3OL    H13S10436   6.320   1.266   3.370
    3OL    C11410437   6.409   1.413   3.501
    3OL    H14R10438   6.412   1.491   3.425
    3OL    H14S10439   0.050   1.423   3.563
    3OL    C11510440   6.283   1.431   3.588
    3OL    H15R10441   6.284   1.357   3.669
    3OL    H15S10442   6.194   1.413   3.527
    3OL    C11610443   6.278   1.573   3.646
    3OL    H16R10444   6.275   1.645   3.564
    3OL    H16S10445   6.368   1.592   3.704
    3OL    C11710446   6.154   1.591   3.735
    3OL    H17R10447   6.159   1.522   3.819
    3OL    H17S10448   6.064   1.569   3.678
    3OL    C11810449   6.147   1.735   3.787
    3OL    H18R10450   6.132   1.806   3.705
    3OL    H18S10451   6.238   1.762   3.840
    3OL    H18T10452   6.063   1.746   3.857
    1PA    C11610453   5.622   3.373   3.688
    1PA    H16R10454   5.682   3.289   3.724
    1PA    H16S10455   5.642   3.460   3.751
    1PA    H16T10456   5.654   3.396   3.586
    1PA    C11510457   5.473   3.336   3.691
    1PA    H15R10458   5.458   3.244   3.634
    1PA    H15S10459   5.443   3.317   3.794
    1PA    C11410460   5.388   3.449   3.632
    1PA    H14R10461   5.410   3.542   3.685
    1PA    H14S10462   5.414   3.465   3.527
    1PA    C11310463   5.237   3.421   3.644
    1PA    H13R10464   5.213   3.395   3.747
    1PA    H13S10465   5.182   3.512   3.620
    1PA    C11210466   5.191   3.309   3.550
    1PA    H12R10467   5.215   3.335   3.447
    1PA    H12S10468   5.244   3.216   3.573
    1PA    C11110469   5.040   3.285   3.563
    1PA    H11R10470   5.017   3.267   3.668
    1PA    H11S10471   4.985   3.374   3.533
    1PA    C11010472   4.994   3.164   3.481
    1PA    H10R10473   5.063   3.080   3.497
    1PA    H10S10474   4.896   3.132   3.518
    1PA     C1910475   4.983   3.195   3.331
    1PA     H9R10476   4.909   3.275   3.316
    1PA     H9S10477   5.079   3.231   3.294
    1PA     C1810478   4.941   3.070   3.253
    1PA     H8R10479   5.016   2.992   3.269
    1PA     H8S10480   4.846   3.031   3.290
    1PA     C1710481   4.932   3.097   3.102
    1PA     H7R10482   5.016   3.160   3.072
    1PA     H7S10483   4.942   3.002   3.050
    1PA     C1610484   4.799   3.163   3.063
    1PA     H6R10485   4.718   3.091   3.077
    1PA     H6S10486   4.779   3.248   3.128
    1PA     C1510487   4.798   3.213   2.918
    1PA     H5R10488   4.700   3.256   2.896
    1PA     H5S10489   4.872   3.293   2.907
    1PA     C1410490   4.829   3.103   2.815
    1PA     H4R10491   4.926   3.059   2.836
    1PA     H4S10492   4.754   3.023   2.823
    1PA     C1310493   4.831   3.159   2.672
    1PA     H3R10494   4.733   3.198   2.645
    1PA     H3S10495   4.902   3.241   2.667
    1PA     C1210496   4.873   3.049   2.573
    1PA     H2R10497   4.963   3.000   2.611
    1PA     H2S10498   4.795   2.973   2.565
    2PC     C1110499   4.904   3.103   2.436
    2PC     O1210500   4.867   3.211   2.395
    2PC     O1110501   4.985   3.019   2.368
    2PC      C110502   5.016   3.045   2.230
    2PC      HR10503   5.020   3.153   2.211
    2PC      HS10504   5.115   3.003   2.209
    2PC      C210505   4.913   2.978   2.140
    2PC      HX10506   4.911   2.871   2.161
    2PC      C310507   4.949   2.999   1.992
    2PC      HA10508   5.046   2.955   1.971
    2PC      HB10509   4.874   2.952   1.927
    2PC     O3110510   4.955   3.141   1.967
    2PC     P3110511   5.006   3.195   1.825
    2PC     O3210512   4.891   3.131   1.733
    2PC     C3110513   4.883   3.172   1.596
    2PC     H1A10514   4.869   3.281   1.592
    2PC     H1B10515   4.976   3.147   1.544
    2PC     C3210516   4.763   3.103   1.531
    2PC     H2A10517   4.675   3.116   1.594
    2PC     H2B10518   4.742   3.150   1.434
    2PC     N3110519   4.772   2.956   1.502
    2PC     C3310520   4.641   2.910   1.446
    2PC     H3A10521   4.621   2.966   1.354
    2PC     H3B10522   4.648   2.803   1.425
    2PC     H3C10523   4.563   2.929   1.520
    2PC     C3410524   4.879   2.928   1.401
    2PC     H4A10525   4.878   2.821   1.378
    2PC     H4B10526   4.858   2.986   1.311
    2PC     H4C10527   4.976   2.956   1.443
    2PC     C3510528   4.799   2.876   1.626
    2PC     H5A10529   4.895   2.907   1.668
    2PC     H5B10530   4.801   2.771   1.599
    2PC     H5C10531   4.718   2.895   1.697
    2PC     O3310532   5.003   3.343   1.822
    2PC     O3410533   5.143   3.149   1.791
    2PC     O2110534   4.784   3.035   2.168
    2PC     C2110535   4.672   2.973   2.126
    2PC     O2210536   4.671   2.871   2.061
    3OL     C1210537   4.546   3.042   2.173
    3OL     H2R10538   4.460   2.979   2.147
    3OL     H2S10539   4.536   3.136   2.119
    3OL     C1310540   4.548   3.068   2.324
    3OL     H3R10541   4.622   3.145   2.346
    3OL     H3S10542   4.578   2.977   2.376
    3OL     C1410543   4.410   3.113   2.375
    3OL     H4R10544   4.337   3.034   2.358
    3OL     H4S10545   4.378   3.200   2.318
    3OL     C1510546   4.412   3.150   2.524
    3OL     H5R10547   4.315   3.194   2.549
    3OL     H5S10548   4.488   3.227   2.541
    3OL     C1610549   4.438   3.030   2.616
    3OL     H6R10550   4.537   2.989   2.597
    3OL     H6S10551   4.365   2.952   2.595
    3OL     C1710552   4.427   3.073   2.763
    3OL     H7R10553   4.328   3.115   2.781
    3OL     H7S10554   4.501   3.151   2.783
    3OL     C1810555   4.451   2.955   2.859
    3OL     H8R10556   4.551   2.913   2.843
    3OL     H8S10557   4.378   2.877   2.838
    3OL     C1910558   4.435   3.002   3.002
    3OL     H9R10559   4.383   3.097   3.013
    3OL    C11010560   4.482   2.941   3.109
    3OL    H10R10561   4.465   2.987   3.207
    3OL    C11110562   4.553   2.808   3.114
    3OL    H11R10563   4.652   2.822   3.157
    3OL    H11S10564   4.565   2.765   3.014
    3OL    C11210565   4.473   2.711   3.202
    3OL    H12R10566   4.379   2.685   3.152
    3OL    H12S10567   4.448   2.762   3.295
    3OL    C11310568   4.551   2.582   3.234
    3OL    H13R10569   4.644   2.607   3.286
    3OL    H13S10570   4.578   2.533   3.141
    3OL    C11410571   4.468   2.485   3.319
    3OL    H14R10572   4.522   2.390   3.325
    3OL    H14S10573   4.373   2.465   3.270
    3OL    C11510574   4.443   2.538   3.461
    3OL    H15R10575   4.390   2.633   3.455
    3OL    H15S10576   4.538   2.558   3.511
    3OL    C11610577   4.357   2.443   3.545
    3OL    H16R10578   4.267   2.418   3.489
    3OL    H16S10579   4.324   2.496   3.635
    3OL    C11710580   4.427   2.313   3.587
    3OL    H17R10581   4.464   2.260   3.499
    3OL    H17S10582   4.354   2.248   3.636
    3OL    C11810583   4.542   2.338   3.686
    3OL    H18R10584   4.623   2.395   3.639
    3OL    H18S10585   4.584   2.243   3.720
    3OL    H18T10586   4.507   2.393   3.773
    1PA    C11610587   1.462   2.513   3.314
    1PA    H16R10588   1.422   2.574   3.395
    1PA    H16S10589   1.550   2.563   3.272
    1PA    H16T10590   1.494   2.417   3.358
    1PA    C11510591   1.357   2.487   3.205
    1PA    H15R10592   1.401   2.424   3.128
    1PA    H15S10593   1.272   2.433   3.248
    1PA    C11410594   1.309   2.618   3.140
    1PA    H14R10595   1.395   2.676   3.107
    1PA    H14S10596   1.251   2.592   3.051
    1PA    C11310597   1.222   2.701   3.235
    1PA    H13R10598   1.136   2.642   3.270
    1PA    H13S10599   1.281   2.727   3.323
    1PA    C11210600   1.173   2.831   3.170
    1PA    H12R10601   1.139   2.899   3.249
    1PA    H12S10602   1.255   2.879   3.118
    1PA    C11110603   1.056   2.807   3.073
    1PA    H11R10604   1.087   2.737   2.995
    1PA    H11S10605   0.972   2.762   3.127
    1PA    C11010606   1.012   2.939   3.009
    1PA    H10R10607   0.985   3.010   3.088
    1PA    H10S10608   1.095   2.982   2.953
    1PA     C1910609   0.892   2.923   2.915
    1PA     H9R10610   0.808   2.879   2.969
    1PA     H9S10611   0.860   3.021   2.881
    1PA     C1810612   0.925   2.836   2.793
    1PA     H8R10613   1.016   2.873   2.745
    1PA     H8S10614   0.944   2.733   2.825
    1PA     C1710615   0.809   2.836   2.692
    1PA     H7R10616   0.717   2.809   2.743
    1PA     H7S10617   0.796   2.937   2.652
    1PA     C1610618   0.831   2.738   2.576
    1PA     H6R10619   0.831   2.636   2.616
    1PA     H6S10620   0.746   2.745   2.507
    1PA     C1510621   0.962   2.758   2.497
    1PA     H5R10622   1.047   2.737   2.562
    1PA     H5S10623   0.966   2.685   2.417
    1PA     C1410624   0.980   2.899   2.438
    1PA     H4R10625   0.980   2.974   2.517
    1PA     H4S10626   1.078   2.903   2.390
    1PA     C1310627   0.871   2.933   2.334
    1PA     H3R10628   0.863   2.853   2.260
    1PA     H3S10629   0.775   2.939   2.385
    1PA     C1210630   0.898   3.067   2.265
    1PA     H2R10631   0.806   3.098   2.214
    1PA     H2S10632   0.919   3.143   2.340
    2PC     C1110633   1.009   3.067   2.163
    2PC     O1210634   1.039   3.167   2.101
    2PC     O1110635   1.071   2.948   2.148
    2PC      C110636   1.179   2.930   2.055
    2PC      HR10637   1.200   2.823   2.048
    2PC      HS10638   1.148   2.966   1.956
    2PC      C210639   1.306   3.003   2.100
    2PC      HX10640   1.287   3.111   2.105
    2PC      C310641   1.423   2.973   2.006
    2PC      HA10642   1.508   3.038   2.028
    2PC      HB10643   1.454   2.869   2.020
    2PC     O3110644   1.383   2.992   1.869
    2PC     P3110645   1.469   2.924   1.751
    2PC     O3210646   1.463   3.039   1.640
    2PC     C3110647   1.344   3.058   1.562
    2PC     H1A10648   1.323   2.966   1.506
    2PC     H1B10649   1.260   3.080   1.627
    2PC     C3210650   1.370   3.172   1.463
    2PC     H2A10651   1.458   3.149   1.404
    2PC     H2B10652   1.285   3.180   1.395
    2PC     N3110653   1.390   3.310   1.518
    2PC     C3310654   1.272   3.354   1.599
    2PC     H3A10655   1.289   3.457   1.630
    2PC     H3B10656   1.183   3.346   1.537
    2PC     H3C10657   1.264   3.289   1.687
    2PC     C3410658   1.513   3.320   1.604
    2PC     H4A10659   1.527   3.424   1.633
    2PC     H4B10660   1.499   3.258   1.692
    2PC     H4C10661   1.598   3.284   1.546
    2PC     C3510662   1.407   3.406   1.403
    2PC     H5A10663   1.496   3.377   1.347
    2PC     H5B10664   1.419   3.506   1.444
    2PC     H5C10665   1.318   3.401   1.341
    2PC     O3310666   1.612   2.898   1.777
    2PC     O3410667   1.413   2.793   1.709
    2PC     O2110668   1.341   2.951   2.230
    2PC     C2110669   1.417   3.025   2.312
    2PC     O2210670   1.445   3.141   2.291
    3OL     C1210671   1.461   2.951   2.435
    3OL     H2R10672   1.518   3.019   2.499
    3OL     H2S10673   1.528   2.870   2.404
    3OL     C1310674   1.342   2.892   2.512
    3OL     H3R10675   1.292   2.817   2.451
    3OL     H3S10676   1.270   2.972   2.532
    3OL     C1410677   1.382   2.830   2.647
    3OL     H4R10678   1.292   2.794   2.697
    3OL     H4S10679   1.427   2.906   2.711
    3OL     C1510680   1.480   2.712   2.630
    3OL     H5R10681   1.575   2.748   2.589
    3OL     H5S10682   1.439   2.640   2.559
    3OL     C1610683   1.508   2.643   2.764
    3OL     H6R10684   1.413   2.610   2.809
    3OL     H6S10685   1.554   2.714   2.833
    3OL     C1710686   1.600   2.522   2.745
    3OL     H7R10687   1.698   2.557   2.711
    3OL     H7S10688   1.560   2.457   2.667
    3OL     C1810689   1.615   2.442   2.875
    3OL     H8R10690   1.518   2.400   2.900
    3OL     H8S10691   1.645   2.509   2.956
    3OL     C1910692   1.715   2.330   2.856
    3OL     H9R10693   1.712   2.282   2.759
    3OL    C11010694   1.807   2.294   2.944
    3OL    H10R10695   1.876   2.214   2.919
    3OL    C11110696   1.822   2.349   3.084
    3OL    H11R10697   1.868   2.272   3.147
    3OL    H11S10698   1.724   2.371   3.127
    3OL    C11210699   1.909   2.476   3.085
    3OL    H12R10700   1.855   2.556   3.034
    3OL    H12S10701   2.001   2.459   3.029
    3OL    C11310702   1.942   2.521   3.228
    3OL    H13R10703   1.857   2.505   3.294
    3OL    H13S10704   1.962   2.628   3.226
    3OL    C11410705   2.066   2.449   3.282
    3OL    H14R10706   2.149   2.462   3.211
    3OL    H14S10707   2.046   2.341   3.289
    3OL    C11510708   2.107   2.502   3.419
    3OL    H15R10709   2.023   2.491   3.488
    3OL    H15S10710   2.129   2.609   3.413
    3OL    C11610711   2.229   2.428   3.477
    3OL    H16R10712   2.211   2.320   3.473
    3OL    H16S10713   2.240   2.455   3.582
    3OL    C11710714   2.359   2.463   3.404
    3OL    H17R10715   2.378   2.570   3.411
    3OL    H17S10716   2.350   2.438   3.298
    3OL    C11810717   2.478   2.385   3.463
    3OL    H18R10718   2.494   2.414   3.567
    3OL    H18S10719   2.568   2.407   3.406
    3OL    H18T10720   2.459   2.278   3.458
    1PA    C11610721   5.220   5.511   4.221
    1PA    H16R10722   5.292   5.544   4.296
    1PA    H16S10723   5.148   5.444   4.270
    1PA    H16T10724   5.165   5.598   4.184
    1PA    C11510725   5.290   5.437   4.106
    1PA    H15R10726   5.340   5.348   4.145
    1PA    H15S10727   5.216   5.406   4.033
    1PA    C11410728   5.393   5.529   4.038
    1PA    H14R10729   5.343   5.617   4.000
    1PA    H14S10730   5.467   5.562   4.112
    1PA    C11310731   5.464   5.457   3.923
    1PA    H13R10732   5.518   5.370   3.961
    1PA    H13S10733   5.390   5.422   3.851
    1PA    C11210734   5.563   5.552   3.854
    1PA    H12R10735   5.509   5.641   3.820
    1PA    H12S10736   5.638   5.585   3.926
    1PA    C11110737   5.631   5.486   3.734
    1PA    H11R10738   5.688   5.398   3.766
    1PA    H11S10739   5.555   5.452   3.663
    1PA    C11010740   5.724   5.586   3.664
    1PA    H10R10741   5.669   5.679   3.646
    1PA    H10S10742   5.808   5.611   3.730
    1PA     C1910743   5.777   5.533   3.530
    1PA     H9R10744   5.842   5.446   3.547
    1PA     H9S10745   5.692   5.500   3.469
    1PA     C1810746   5.854   5.643   3.457
    1PA     H8R10747   5.798   5.736   3.464
    1PA     H8S10748   5.950   5.660   3.505
    1PA     C1710749   5.875   5.611   3.308
    1PA     H7R10750   5.938   5.522   3.297
    1PA     H7S10751   5.778   5.589   3.262
    1PA     C1610752   5.938   5.731   3.237
    1PA     H6R10753   5.881   5.820   3.263
    1PA     H6S10754   6.040   5.747   3.273
    1PA     C1510755   5.937   5.717   3.084
    1PA     H5R10756   5.841   5.679   3.052
    1PA     H5S10757   5.948   5.817   3.041
    1PA     C1410758   6.050   5.628   3.030
    1PA     H4R10759   6.147   5.667   3.064
    1PA     H4S10760   6.039   5.527   3.069
    1PA     C1310761   6.045   5.627   2.877
    1PA     H3R10762   5.948   5.589   2.845
    1PA     H3S10763   6.056   5.728   2.839
    1PA     C1210764   6.155   5.538   2.816
    1PA     H2R10765   6.253   5.574   2.848
    1PA     H2S10766   6.144   5.435   2.850
    2PC     C1110767   6.148   5.542   2.666
    2PC     O1210768   6.212   5.620   2.598
    2PC     O1110769   6.064   5.451   2.614
    2PC      C110770   6.069   5.426   2.472
    2PC      HR10771   5.980   5.368   2.443
    2PC      HS10772   6.067   5.520   2.417
    2PC      C210773   6.195   5.345   2.440
    2PC      HX10774   6.282   5.389   2.489
    2PC      C310775   6.228   5.341   2.290
    2PC      HA10776   6.280   5.433   2.263
    2PC      HB10777   6.294   5.256   2.269
    2PC     O3110778   6.109   5.330   2.210
    2PC     P3110779   6.124   5.329   2.050
    2PC     O3210780   6.113   5.172   2.019
    2PC     C3110781   6.230   5.102   1.974
    2PC     H1A10782   6.271   5.152   1.886
    2PC     H1B10783   6.305   5.102   2.054
    2PC     C3210784   6.194   4.957   1.939
    2PC     H2A10785   6.285   4.905   1.910
    2PC     H2B10786   6.154   4.907   2.028
    2PC     N3110787   6.096   4.932   1.829
    2PC     C3310788   6.097   4.786   1.796
    2PC     H3A10789   6.023   4.767   1.718
    2PC     H3B10790   6.197   4.758   1.762
    2PC     H3C10791   6.071   4.730   1.887
    2PC     C3410792   5.956   4.970   1.869
    2PC     H4A10793   5.930   4.913   1.959
    2PC     H4B10794   5.953   5.077   1.890
    2PC     H4C10795   5.889   4.945   1.787
    2PC     C3510796   6.133   5.007   1.704
    2PC     H5A10797   6.063   4.980   1.625
    2PC     H5B10798   6.234   4.979   1.676
    2PC     H5C10799   6.126   5.114   1.725
    2PC     O3310800   6.017   5.402   1.980
    2PC     O3410801   6.249   5.392   2.002
    2PC     O2110802   6.173   5.211   2.487
    2PC     C2110803   6.211   5.181   2.613
    2PC     O2210804   6.278   5.255   2.682
    3OL     C1210805   6.157   5.049   2.660
    3OL     H2R10806   6.215   4.970   2.612
    3OL     H2S10807   6.054   5.037   2.626
    3OL     C1310808   6.165   5.033   2.812
    3OL     H3R10809   6.267   5.052   2.845
    3OL     H3S10810   6.142   4.930   2.839
    3OL     C1410811   6.069   5.128   2.887
    3OL     H4R10812   6.050   5.216   2.826
    3OL     H4S10813   6.118   5.163   2.978
    3OL     C1510814   5.936   5.061   2.922
    3OL     H5R10815   5.910   4.987   2.845
    3OL     H5S10816   5.856   5.136   2.920
    3OL     C1610817   5.938   4.994   3.060
    3OL     H6R10818   6.033   4.941   3.074
    3OL     H6S10819   5.859   4.919   3.064
    3OL     C1710820   5.917   5.095   3.173
    3OL     H7R10821   5.821   5.145   3.159
    3OL     H7S10822   5.994   5.172   3.168
    3OL     C1810823   5.920   5.030   3.311
    3OL     H8R10824   6.016   4.979   3.323
    3OL     H8S10825   5.841   4.955   3.318
    3OL     C1910826   5.905   5.134   3.419
    3OL     H9R10827   5.930   5.235   3.388
    3OL    C11010828   5.863   5.115   3.543
    3OL    H10R10829   5.856   5.200   3.610
    3OL    C11110830   5.824   4.983   3.605
    3OL    H11R10831   5.889   4.965   3.692
    3OL    H11S10832   5.838   4.900   3.536
    3OL    C11210833   5.678   4.988   3.653
    3OL    H12R10834   5.612   4.993   3.567
    3OL    H12S10835   5.663   5.080   3.710
    3OL    C11310836   5.639   4.870   3.743
    3OL    H13R10837   5.536   4.884   3.777
    3OL    H13S10838   5.702   4.871   3.832
    3OL    C11410839   5.650   4.732   3.676
    3OL    H14R10840   5.623   4.656   3.750
    3OL    H14S10841   5.753   4.713   3.646
    3OL    C11510842   5.558   4.718   3.554
    3OL    H15R10843   5.591   4.788   3.476
    3OL    H15S10844   5.456   4.744   3.582
    3OL    C11610845   5.562   4.576   3.497
    3OL    H16R10846   5.529   4.504   3.572
    3OL    H16S10847   5.665   4.551   3.471
    3OL    C11710848   5.476   4.562   3.370
    3OL    H17R10849   5.498   4.465   3.324
    3OL    H17S10850   5.502   4.639   3.298
    3OL    C11810851   5.326   4.568   3.402
    3OL    H18R10852   5.299   4.494   3.477
    3OL    H18S10853   5.268   4.547   3.311
    3OL    H18T10854   5.298   4.667   3.438
    1PA    C11610855   4.336   2.020   3.876
    1PA    H16R10856   4.367   1.959   3.962
    1PA    H16S10857   4.229   2.041   3.885
    1PA    H16T10858   4.390   2.115   3.881
    1PA    C11510859   4.365   1.947   3.744
    1PA    H15R10860   4.307   1.855   3.740
    1PA    H15S10861   4.333   2.011   3.662
    1PA    C11410862   4.514   1.914   3.732
    1PA    H14R10863   4.574   2.005   3.738
    1PA    H14S10864   4.543   1.851   3.816
    1PA    C11310865   4.548   1.838   3.603
    1PA    H13R10866   4.650   1.799   3.609
    1PA    H13S10867   4.482   1.751   3.596
    1PA    C11210868   4.533   1.921   3.475
    1PA    H12R10869   4.534   1.855   3.388
    1PA    H12S10870   4.435   1.970   3.475
    1PA    C11110871   4.642   2.028   3.457
    1PA    H11R10872   4.605   2.104   3.389
    1PA    H11S10873   4.662   2.078   3.552
    1PA    C11010874   4.772   1.971   3.399
    1PA    H10R10875   4.811   1.892   3.464
    1PA    H10S10876   4.751   1.927   3.301
    1PA     C1910877   4.877   2.081   3.385
    1PA     H9R10878   4.836   2.165   3.328
    1PA     H9S10879   4.903   2.120   3.484
    1PA     C1810880   5.004   2.031   3.315
    1PA     H8R10881   5.048   1.949   3.374
    1PA     H8S10882   4.979   1.991   3.217
    1PA     C1710883   5.106   2.145   3.301
    1PA     H7R10884   5.065   2.225   3.240
    1PA     H7S10885   5.124   2.186   3.401
    1PA     C1610886   5.241   2.097   3.245
    1PA     H6R10887   5.317   2.171   3.269
    1PA     H6S10888   5.270   2.004   3.293
    1PA     C1510889   5.239   2.077   3.092
    1PA     H5R10890   5.162   2.004   3.065
    1PA     H5S10891   5.214   2.171   3.043
    1PA     C1410892   5.377   2.028   3.045
    1PA     H4R10893   5.454   2.096   3.082
    1PA     H4S10894   5.398   1.930   3.089
    1PA     C1310895   5.388   2.020   2.892
    1PA     H3R10896   5.362   2.116   2.847
    1PA     H3S10897   5.493   2.000   2.868
    1PA     C1210898   5.301   1.908   2.834
    1PA     H2R10899   5.323   1.813   2.885
    1PA     H2S10900   5.196   1.931   2.849
    2PC     C1110901   5.325   1.889   2.686
    2PC     O1210902   5.258   1.944   2.601
    2PC     O1110903   5.426   1.805   2.660
    2PC      C110904   5.455   1.766   2.525
    2PC      HR10905   5.528   1.685   2.526
    2PC      HS10906   5.363   1.729   2.479
    2PC      C210907   5.511   1.884   2.444
    2PC      HX10908   5.448   1.973   2.456
    2PC      C310909   5.514   1.848   2.294
    2PC      HA10910   5.607   1.795   2.270
    2PC      HB10911   5.430   1.784   2.270
    2PC     O3110912   5.505   1.969   2.216
    2PC     P3110913   5.507   1.953   2.057
    2PC     O3210914   5.664   1.957   2.027
    2PC     C3110915   5.728   2.085   2.009
    2PC     H1A10916   5.671   2.145   1.938
    2PC     H1B10917   5.732   2.138   2.105
    2PC     C3210918   5.870   2.063   1.955
    2PC     H2A10919   5.911   2.159   1.924
    2PC     H2B10920   5.934   2.024   2.035
    2PC     N3110921   5.886   1.970   1.839
    2PC     C3310922   6.022   1.990   1.779
    2PC     H3A10923   6.027   2.092   1.739
    2PC     H3B10924   6.097   1.978   1.857
    2PC     H3C10925   6.037   1.917   1.699
    2PC     C3410926   5.877   1.827   1.885
    2PC     H4A10927   5.901   1.762   1.801
    2PC     H4B10928   5.949   1.813   1.966
    2PC     H4C10929   5.776   1.807   1.921
    2PC     C3510930   5.784   1.993   1.732
    2PC     H5A10931   5.685   1.973   1.774
    2PC     H5B10932   5.805   1.925   1.649
    2PC     H5C10933   5.791   2.097   1.699
    2PC     O3310934   5.443   1.828   2.012
    2PC     O3410935   5.432   2.057   1.983
    2PC     O2110936   5.646   1.909   2.486
    2PC     C2110937   5.667   1.988   2.593
    2PC     O2210938   5.585   2.064   2.640
    3OL     C1210939   5.805   1.969   2.651
    3OL     H2R10940   5.821   2.044   2.729
    3OL     H2S10941   5.878   1.987   2.572
    3OL     C1310942   5.826   1.828   2.708
    3OL     H3R10943   5.931   1.817   2.737
    3OL     H3S10944   5.805   1.754   2.631
    3OL     C1410945   5.736   1.804   2.830
    3OL     H4R10946   5.632   1.821   2.801
    3OL     H4S10947   5.759   1.875   2.909
    3OL     C1510948   5.746   1.660   2.884
    3OL     H5R10949   5.745   1.589   2.801
    3OL     H5S10950   5.658   1.641   2.944
    3OL     C1610951   5.870   1.637   2.971
    3OL     H6R10952   5.876   1.715   3.048
    3OL     H6S10953   5.961   1.643   2.910
    3OL     C1710954   5.862   1.500   3.039
    3OL     H7R10955   5.857   1.421   2.964
    3OL     H7S10956   5.769   1.495   3.097
    3OL     C1810957   5.979   1.474   3.135
    3OL     H8R10958   5.953   1.387   3.196
    3OL     H8S10959   5.991   1.558   3.203
    3OL     C1910960   6.106   1.442   3.060
    3OL     H9R10961   6.099   1.357   2.993
    3OL    C11010962   6.221   1.508   3.068
    3OL    H10R10963   6.305   1.474   3.007
    3OL    C11110964   6.252   1.629   3.152
    3OL    H11R10965   6.354   1.619   3.191
    3OL    H11S10966   6.186   1.635   3.239
    3OL    C11210967   6.242   1.759   3.072
    3OL    H12R10968   6.283   1.841   3.131
    3OL    H12S10969   6.136   1.781   3.056
    3OL    C11310970   6.310   1.755   2.935
    3OL    H13R10971   6.295   1.851   2.884
    3OL    H13S10972   6.262   1.680   2.872
    3OL    C11410973   0.013   1.726   2.942
    3OL    H14R10974   0.030   1.631   2.993
    3OL    H14S10975   0.063   1.805   3.000
    3OL    C11510976   0.073   1.719   2.801
    3OL    H15R10977   0.063   1.817   2.752
    3OL    H15S10978   0.016   1.647   2.741
    3OL    C11610979   0.220   1.678   2.805
    3OL    H16R10980   0.231   1.584   2.859
    3OL    H16S10981   0.278   1.754   2.857
    3OL    C11710982   0.275   1.661   2.662
    3OL    H17R10983   0.263   1.755   2.607
    3OL    H17S10984   0.217   1.585   2.609
    3OL    C11810985   0.423   1.621   2.663
    3OL    H18R10986   0.435   1.525   2.715
    3OL    H18S10987   0.483   1.696   2.715
    3OL    H18T10988   0.460   1.610   2.561
    1PA    C11610989   5.927   4.036   4.114
    1PA    H16R10990   5.947   4.136   4.073
    1PA    H16S10991   5.960   4.035   4.218
    1PA    H16T10992   5.820   4.018   4.112
    1PA    C11510993   6.002   3.929   4.035
    1PA    H15R10994   6.110   3.947   4.039
    1PA    H15S10995   5.984   3.832   4.082
    1PA    C11410996   5.956   3.921   3.888
    1PA    H14R10997   5.992   3.827   3.846
    1PA    H14S10998   5.847   3.919   3.885
    1PA    C11310999   6.009   4.038   3.804
    1PA    H13R11000   5.973   4.132   3.847
    1PA    H13S11001   6.118   4.040   3.809
    1PA    C11211002   5.964   4.030   3.658
    1PA    H12R11003   5.855   4.020   3.653
    1PA    H12S11004   5.989   4.125   3.610
    1PA    C11111005   6.031   3.916   3.581
    1PA    H11R11006   6.140   3.922   3.592
    1PA    H11S11007   5.999   3.821   3.624
    1PA    C11011008   5.995   3.916   3.432
    1PA    H10R11009   6.019   3.819   3.390
    1PA    H10S11010   5.887   3.931   3.419
    1PA     C1911011   6.072   4.024   3.354
    1PA     H9R11012   6.047   4.123   3.393
    1PA     H9S11013   6.179   4.009   3.368
    1PA     C1811014   6.039   4.018   3.204
    1PA     H8R11015   6.065   3.920   3.165
    1PA     H8S11016   5.931   4.032   3.190
    1PA     C1711017   6.115   4.127   3.127
    1PA     H7R11018   6.087   4.226   3.164
    1PA     H7S11019   6.222   4.115   3.142
    1PA     C1611020   6.085   4.119   2.976
    1PA     H6R11021   6.124   4.024   2.939
    1PA     H6S11022   5.977   4.119   2.960
    1PA     C1511023   6.148   4.235   2.900
    1PA     H5R11024   6.103   4.328   2.934
    1PA     H5S11025   6.255   4.242   2.923
    1PA     C1411026   6.127   4.223   2.748
    1PA     H4R11027   6.021   4.207   2.728
    1PA     H4S11028   6.153   4.318   2.701
    1PA     C1311029   6.208   4.110   2.683
    1PA     H3R11030   6.184   4.015   2.731
    1PA     H3S11031   6.177   4.100   2.579
    1PA     C1211032   6.360   4.132   2.687
    1PA     H2R11033   6.395   4.149   2.790
    1PA     H2S11034   6.410   4.043   2.651
    2PC     C1111035   6.401   4.248   2.600
    2PC     O1211036   6.424   4.233   2.481
    2PC     O1111037   6.412   4.363   2.667
    2PC      C111038   6.432   4.487   2.597
    2PC      HR11039   0.051   4.551   2.654
    2PC      HS11040   0.031   4.468   2.500
    2PC      C211041   6.296   4.555   2.576
    2PC      HX11042   6.231   4.485   2.523
    2PC      C311043   6.308   4.681   2.487
    2PC      HA11044   6.364   4.761   2.536
    2PC      HB11045   6.360   4.653   2.395
    2PC     O3111046   6.177   4.728   2.452
    2PC     P3111047   6.162   4.822   2.323
    2PC     O3211048   6.041   4.918   2.363
    2PC     C3111049   6.016   5.026   2.271
    2PC     H1A11050   6.106   5.088   2.268
    2PC     H1B11051   5.998   4.985   2.171
    2PC     C3211052   5.898   5.112   2.316
    2PC     H2A11053   5.916   5.150   2.416
    2PC     H2B11054   5.891   5.198   2.248
    2PC     N3111055   5.761   5.051   2.316
    2PC     C3311056   5.744   4.957   2.432
    2PC     H3A11057   5.819   4.879   2.423
    2PC     H3B11058   5.758   5.014   2.524
    2PC     H3C11059   5.644   4.915   2.427
    2PC     C3411060   5.659   5.161   2.327
    2PC     H4A11061   5.668   5.225   2.240
    2PC     H4B11062   5.560   5.116   2.331
    2PC     H4C11063   5.678   5.218   2.418
    2PC     C3511064   5.733   4.976   2.189
    2PC     H5A11065   5.800   4.890   2.184
    2PC     H5B11066   5.750   5.043   2.105
    2PC     H5C11067   5.629   4.943   2.190
    2PC     O3311068   6.286   4.896   2.293
    2PC     O3411069   6.130   4.747   2.199
    2PC     O2111070   6.235   4.585   2.703
    2PC     C2111071   6.292   4.667   2.793
    2PC     O2211072   6.392   4.733   2.775
    3OL     C1211073   6.216   4.662   2.924
    3OL     H2R11074   6.206   4.557   2.952
    3OL     H2S11075   6.116   4.701   2.908
    3OL     C1311076   6.287   4.740   3.036
    3OL     H3R11077   6.284   4.847   3.015
    3OL     H3S11078   6.391   4.710   3.042
    3OL     C1411079   6.218   4.711   3.170
    3OL     H4R11080   6.221   4.603   3.189
    3OL     H4S11081   6.114   4.741   3.166
    3OL     C1511082   6.288   4.783   3.287
    3OL     H5R11083   6.284   4.891   3.271
    3OL     H5S11084   6.393   4.753   3.291
    3OL     C1611085   6.218   4.747   3.419
    3OL     H6R11086   6.218   4.638   3.431
    3OL     H6S11087   6.114   4.779   3.414
    3OL     C1711088   6.284   4.812   3.542
    3OL     H7R11089   6.216   4.801   3.626
    3OL     H7S11090   6.299   4.919   3.525
    3OL     C1811091   6.417   4.744   3.578
    3OL     H8R11092   0.044   4.770   3.503
    3OL     H8S11093   6.406   4.636   3.575
    3OL     C1911094   0.017   4.791   3.713
    3OL     H9R11095   0.068   4.887   3.713
    3OL    C11011096   0.004   4.726   3.828
    3OL    H10R11097   0.045   4.771   3.918
    3OL    C11111098   6.383   4.593   3.849
    3OL    H11R11099   6.346   4.552   3.755
    3OL    H11S11100   6.297   4.608   3.914
    3OL    C11211101   0.030   4.492   3.916
    3OL    H12R11102   0.047   4.520   4.020
    3OL    H12S11103   0.127   4.498   3.866
    3OL    C11311104   6.428   4.348   3.905
    3OL    H13R11105   0.059   4.280   3.938
    3OL    H13S11106   6.409   4.325   3.800
    3OL    C11411107   6.299   4.321   3.985
    3OL    H14R11108   6.252   4.230   3.947
    3OL    H14S11109   6.228   4.402   3.968
    3OL    C11511110   6.322   4.306   4.136
    3OL    H15R11111   6.225   4.318   4.186
    3OL    H15S11112   6.387   4.385   4.173
    3OL    C11611113   6.379   4.168   4.172
    3OL    H16R11114   0.029   4.157   4.124
    3OL    H16S11115   6.315   4.089   4.133
    3OL    C11711116   6.397   4.149   4.323
    3OL    H17R11117   0.004   4.234   4.365
    3OL    H17S11118   0.009   4.060   4.340
    3OL    C11811119   6.263   4.133   4.396
    3OL    H18R11120   6.280   4.114   4.502
    3OL    H18S11121   6.207   4.049   4.355
    3OL    H18T11122   6.202   4.223   4.387
    1PA    C11611123   1.489   2.446   4.203
    1PA    H16R11124   1.589   2.481   4.229
    1PA    H16S11125   1.490   2.337   4.202
    1PA    H16T11126   1.420   2.479   4.282
    1PA    C11511127   1.445   2.503   4.068
    1PA    H15R11128   1.343   2.469   4.045
    1PA    H15S11129   1.443   2.612   4.073
    1PA    C11411130   1.540   2.459   3.956
    1PA    H14R11131   1.641   2.496   3.977
    1PA    H14S11132   1.545   2.350   3.953
    1PA    C11311133   1.495   2.512   3.819
    1PA    H13R11134   1.394   2.476   3.797
    1PA    H13S11135   1.490   2.621   3.823
    1PA    C11211136   1.591   2.471   3.707
    1PA    H12R11137   1.571   2.533   3.619
    1PA    H12S11138   1.694   2.491   3.737
    1PA    C11111139   1.575   2.323   3.668
    1PA    H11R11140   1.588   2.260   3.756
    1PA    H11S11141   1.474   2.307   3.630
    1PA    C11011142   1.679   2.283   3.562
    1PA    H10R11143   1.668   2.344   3.472
    1PA    H10S11144   1.778   2.302   3.602
    1PA     C1911145   1.669   2.133   3.527
    1PA     H9R11146   1.761   2.103   3.476
    1PA     H9S11147   1.663   2.076   3.619
    1PA     C1811148   1.549   2.098   3.438
    1PA     H8R11149   1.529   1.991   3.448
    1PA     H8S11150   1.459   2.150   3.471
    1PA     C1711151   1.576   2.128   3.289
    1PA     H7R11152   1.589   2.235   3.275
    1PA     H7S11153   1.668   2.079   3.258
    1PA     C1611154   1.461   2.078   3.201
    1PA     H6R11155   1.452   1.970   3.211
    1PA     H6S11156   1.367   2.122   3.235
    1PA     C1511157   1.484   2.115   3.054
    1PA     H5R11158   1.484   2.224   3.044
    1PA     H5S11159   1.582   2.078   3.022
    1PA     C1411160   1.374   2.056   2.964
    1PA     H4R11161   1.379   1.947   2.968
    1PA     H4S11162   1.277   2.086   3.003
    1PA     C1311163   1.385   2.103   2.818
    1PA     H3R11164   1.296   2.070   2.765
    1PA     H3S11165   1.387   2.212   2.815
    1PA     C1211166   1.509   2.048   2.746
    1PA     H2R11167   1.600   2.085   2.793
    1PA     H2S11168   1.511   1.939   2.752
    2PC     C1111169   1.507   2.088   2.600
    2PC     O1211170   1.428   2.043   2.520
    2PC     O1111171   1.605   2.175   2.570
    2PC      C111172   1.626   2.209   2.432
    2PC      HR11173   1.651   2.119   2.375
    2PC      HS11174   1.534   2.252   2.390
    2PC      C211175   1.741   2.310   2.423
    2PC      HX11176   1.715   2.398   2.484
    2PC      C311177   1.769   2.354   2.279
    2PC      HA11178   1.680   2.405   2.239
    2PC      HB11179   1.852   2.425   2.277
    2PC     O3111180   1.799   2.241   2.196
    2PC     P3111181   1.827   2.266   2.040
    2PC     O3211182   1.848   2.116   1.988
    2PC     C3111183   1.766   2.071   1.879
    2PC     H1A11184   1.663   2.064   1.913
    2PC     H1B11185   1.771   2.143   1.796
    2PC     C3211186   1.814   1.932   1.833
    2PC     H2A11187   1.812   1.864   1.917
    2PC     H2B11188   1.745   1.895   1.757
    2PC     N3111189   1.951   1.922   1.773
    2PC     C3311190   2.058   1.945   1.876
    2PC     H3A11191   2.043   1.874   1.957
    2PC     H3B11192   2.155   1.930   1.830
    2PC     H3C11193   2.049   2.047   1.914
    2PC     C3411194   1.970   1.783   1.719
    2PC     H4A11195   1.959   1.712   1.801
    2PC     H4B11196   1.894   1.765   1.643
    2PC     H4C11197   2.070   1.776   1.676
    2PC     C3511198   1.970   2.019   1.661
    2PC     H5A11199   1.963   2.121   1.700
    2PC     H5B11200   1.891   2.003   1.587
    2PC     H5C11201   2.068   2.003   1.616
    2PC     O3311202   1.714   2.335   1.974
    2PC     O3411203   1.950   2.346   2.017
    2PC     O2111204   1.858   2.247   2.478
    2PC     C2111205   1.962   2.321   2.520
    2PC     O2211206   1.968   2.442   2.513
    3OL     C1211207   2.072   2.234   2.575
    3OL     H2R11208   2.154   2.229   2.504
    3OL     H2S11209   2.033   2.132   2.585
    3OL     C1311210   2.122   2.279   2.713
    3OL     H3R11211   2.162   2.191   2.765
    3OL     H3S11212   2.038   2.315   2.774
    3OL     C1411213   2.231   2.386   2.705
    3OL     H4R11214   2.189   2.481   2.671
    3OL     H4S11215   2.307   2.356   2.632
    3OL     C1511216   2.298   2.404   2.842
    3OL     H5R11217   2.338   2.308   2.875
    3OL     H5S11218   2.223   2.436   2.915
    3OL     C1611219   2.412   2.507   2.839
    3OL     H6R11220   2.372   2.606   2.817
    3OL     H6S11221   2.483   2.481   2.759
    3OL     C1711222   2.485   2.508   2.974
    3OL     H7R11223   2.527   2.410   2.993
    3OL     H7S11224   2.412   2.529   3.053
    3OL     C1811225   2.598   2.612   2.980
    3OL     H8R11226   2.556   2.710   2.956
    3OL     H8S11227   2.673   2.588   2.905
    3OL     C1911228   2.657   2.615   3.118
    3OL     H9R11229   2.596   2.571   3.196
    3OL    C11011230   2.775   2.666   3.151
    3OL    H10R11231   2.806   2.662   3.255
    3OL    C11111232   2.873   2.732   3.058
    3OL    H11R11233   2.868   2.840   3.073
    3OL    H11S11234   2.848   2.713   2.953
    3OL    C11211235   3.017   2.688   3.085
    3OL    H12R11236   3.042   2.709   3.189
    3OL    H12S11237   3.085   2.747   3.023
    3OL    C11311238   3.040   2.539   3.055
    3OL    H13R11239   3.019   2.521   2.949
    3OL    H13S11240   2.971   2.477   3.112
    3OL    C11411241   3.185   2.497   3.085
    3OL    H14R11242   3.254   2.573   3.047
    3OL    H14S11243   3.207   2.405   3.031
    3OL    C11511244   3.209   2.472   3.234
    3OL    H15R11245   3.140   2.395   3.270
    3OL    H15S11246   3.189   2.563   3.291
    3OL    C11611247   3.353   2.428   3.259
    3OL    H16R11248   3.422   2.505   3.224
    3OL    H16S11249   3.374   2.337   3.201
    3OL    C11711250   3.379   2.400   3.408
    3OL    H17R11251   3.312   2.320   3.442
    3OL    H17S11252   3.356   2.489   3.466
    3OL    C11811253   3.524   2.358   3.431
    3OL    H18R11254   3.542   2.338   3.537
    3OL    H18S11255   3.592   2.438   3.400
    3OL    H18T11256   3.549   2.268   3.375
    1PA    C11611257   1.973   1.282   3.633
    1PA    H16R11258   2.070   1.318   3.668
    1PA    H16S11259   1.980   1.174   3.614
    1PA    H16T11260   1.899   1.298   3.712
    1PA    C11511261   1.930   1.356   3.506
    1PA    H15R11262   1.829   1.327   3.478
    1PA    H15S11263   1.930   1.464   3.525
    1PA    C11411264   2.027   1.324   3.391
    1PA    H14R11265   2.129   1.348   3.421
    1PA    H14S11266   2.022   1.217   3.370
    1PA    C11311267   1.992   1.402   3.263
    1PA    H13R11268   1.889   1.382   3.233
    1PA    H13S11269   2.001   1.510   3.283
    1PA    C11211270   2.089   1.363   3.150
    1PA    H12R11271   2.191   1.373   3.186
    1PA    H12S11272   2.073   1.258   3.124
    1PA    C11111273   2.071   1.451   3.026
    1PA    H11R11274   1.968   1.443   2.988
    1PA    H11S11275   2.089   1.555   3.053
    1PA    C11011276   2.169   1.406   2.917
    1PA    H10R11277   2.269   1.400   2.959
    1PA    H10S11278   2.142   1.306   2.883
    1PA     C1911279   2.173   1.500   2.796
    1PA     H9R11280   2.227   1.450   2.715
    1PA     H9S11281   2.072   1.520   2.760
    1PA     C1811282   2.245   1.631   2.830
    1PA     H8R11283   2.185   1.688   2.902
    1PA     H8S11284   2.341   1.609   2.877
    1PA     C1711285   2.269   1.717   2.705
    1PA     H7R11286   2.332   1.663   2.634
    1PA     H7S11287   2.174   1.738   2.655
    1PA     C1611288   2.337   1.849   2.743
    1PA     H6R11289   2.272   1.905   2.811
    1PA     H6S11290   2.430   1.827   2.796
    1PA     C1511291   2.366   1.935   2.619
    1PA     H5R11292   2.431   1.880   2.551
    1PA     H5S11293   2.272   1.954   2.566
    1PA     C1411294   2.430   2.069   2.655
    1PA     H4R11295   2.433   2.131   2.564
    1PA     H4S11296   2.369   2.121   2.728
    1PA     C1311297   2.573   2.053   2.710
    1PA     H3R11298   2.568   2.001   2.806
    1PA     H3S11299   2.632   1.992   2.642
    1PA     C1211300   2.642   2.188   2.731
    1PA     H2R11301   2.578   2.254   2.790
    1PA     H2S11302   2.734   2.173   2.788
    2PC     C1111303   2.678   2.257   2.602
    2PC     O1211304   2.670   2.205   2.493
    2PC     O1111305   2.720   2.383   2.621
    2PC      C111306   2.752   2.463   2.505
    2PC      HR11307   2.809   2.550   2.538
    2PC      HS11308   2.814   2.404   2.436
    2PC      C211309   2.624   2.512   2.436
    2PC      HX11310   2.550   2.432   2.432
    2PC      C311311   2.655   2.561   2.294
    2PC      HA11312   2.713   2.653   2.297
    2PC      HB11313   2.710   2.485   2.238
    2PC     O3111314   2.530   2.585   2.226
    2PC     P3111315   2.528   2.637   2.075
    2PC     O3211316   2.525   2.796   2.093
    2PC     C3111317   2.403   2.857   2.140
    2PC     H1A11318   2.323   2.838   2.069
    2PC     H1B11319   2.377   2.813   2.237
    2PC     C3211320   2.427   3.008   2.159
    2PC     H2A11321   2.338   3.052   2.204
    2PC     H2B11322   2.511   3.023   2.227
    2PC     N3111323   2.455   3.091   2.037
    2PC     C3311324   2.459   3.236   2.075
    2PC     H3A11325   2.544   3.252   2.141
    2PC     H3B11326   2.471   3.295   1.984
    2PC     H3C11327   2.366   3.262   2.126
    2PC     C3411328   2.589   3.059   1.978
    2PC     H4A11329   2.588   2.955   1.945
    2PC     H4B11330   2.606   3.126   1.893
    2PC     H4C11331   2.665   3.075   2.054
    2PC     C3511332   2.348   3.072   1.934
    2PC     H5A11333   2.350   2.967   1.901
    2PC     H5B11334   2.369   3.138   1.849
    2PC     H5C11335   2.252   3.096   1.978
    2PC     O3311336   2.646   2.599   1.992
    2PC     O3411337   2.416   2.578   1.998
    2PC     O2111338   2.577   2.623   2.514
    2PC     C2111339   2.448   2.659   2.509
    2PC     O2211340   2.359   2.592   2.461
    3OL     C1211341   2.429   2.794   2.573
    3OL     H2R11342   2.502   2.862   2.529
    3OL     H2S11343   2.453   2.787   2.680
    3OL     C1311344   2.287   2.849   2.555
    3OL     H3R11345   2.216   2.782   2.605
    3OL     H3S11346   2.261   2.850   2.449
    3OL     C1411347   2.271   2.990   2.613
    3OL     H4R11348   2.308   2.992   2.716
    3OL     H4S11349   2.165   3.014   2.616
    3OL     C1511350   2.344   3.096   2.529
    3OL     H5R11351   2.306   3.095   2.427
    3OL     H5S11352   2.450   3.071   2.523
    3OL     C1611353   2.332   3.237   2.587
    3OL     H6R11354   2.401   3.303   2.533
    3OL     H6S11355   2.364   3.237   2.692
    3OL     C1711356   2.190   3.293   2.576
    3OL     H7R11357   2.121   3.232   2.635
    3OL     H7S11358   2.156   3.290   2.472
    3OL     C1811359   2.181   3.438   2.627
    3OL     H8R11360   2.223   3.444   2.728
    3OL     H8S11361   2.076   3.464   2.636
    3OL     C1911362   2.247   3.536   2.534
    3OL     H9R11363   2.187   3.561   2.446
    3OL    C11011364   2.362   3.599   2.552
    3OL    H10R11365   2.394   3.672   2.478
    3OL    C11111366   2.460   3.576   2.664
    3OL    H11R11367   2.431   3.492   2.727
    3OL    H11S11368   2.464   3.665   2.727
    3OL    C11211369   2.600   3.550   2.606
    3OL    H12R11370   2.631   3.634   2.543
    3OL    H12S11371   2.595   3.461   2.543
    3OL    C11311372   2.705   3.525   2.715
    3OL    H13R11373   2.793   3.480   2.669
    3OL    H13S11374   2.667   3.454   2.789
    3OL    C11411375   2.749   3.655   2.785
    3OL    H14R11376   2.662   3.702   2.832
    3OL    H14S11377   2.788   3.725   2.710
    3OL    C11511378   2.856   3.627   2.891
    3OL    H15R11379   2.936   3.569   2.846
    3OL    H15S11380   2.813   3.566   2.971
    3OL    C11611381   2.916   3.755   2.950
    3OL    H16R11382   2.966   3.810   2.870
    3OL    H16S11383   2.993   3.728   3.023
    3OL    C11711384   2.815   3.850   3.018
    3OL    H17R11385   2.741   3.885   2.945
    3OL    H17S11386   2.868   3.938   3.054
    3OL    C11811387   2.743   3.784   3.136
    3OL    H18R11388   2.678   3.857   3.186
    3OL    H18S11389   2.815   3.746   3.209
    3OL    H18T11390   2.680   3.701   3.102
    1PA    C11611391   3.428   4.048   3.840
    1PA    H16R11392   3.481   4.033   3.745
    1PA    H16S11393   3.321   4.042   3.821
    1PA    H16T11394   3.456   3.968   3.908
    1PA    C11511395   3.463   4.185   3.900
    1PA    H15R11396   3.429   4.262   3.830
    1PA    H15S11397   3.408   4.199   3.994
    1PA    C11411398   3.613   4.199   3.926
    1PA    H14R11399   3.645   4.121   3.997
    1PA    H14S11400   3.668   4.182   3.833
    1PA    C11311401   3.651   4.336   3.983
    1PA    H13R11402   3.596   4.354   4.076
    1PA    H13S11403   3.757   4.336   4.009
    1PA    C11211404   3.624   4.449   3.883
    1PA    H12R11405   3.673   4.426   3.789
    1PA    H12S11406   3.517   4.456   3.864
    1PA    C11111407   3.673   4.585   3.935
    1PA    H11R11408   3.629   4.603   4.034
    1PA    H11S11409   3.781   4.585   3.946
    1PA    C11011410   3.629   4.699   3.841
    1PA    H10R11411   3.522   4.690   3.822
    1PA    H10S11412   3.645   4.795   3.891
    1PA     C1911413   3.706   4.699   3.708
    1PA     H9R11414   3.809   4.729   3.725
    1PA     H9S11415   3.707   4.599   3.665
    1PA     C1811416   3.638   4.794   3.608
    1PA     H8R11417   3.535   4.763   3.594
    1PA     H8S11418   3.637   4.895   3.648
    1PA     C1711419   3.711   4.791   3.473
    1PA     H7R11420   3.810   4.835   3.483
    1PA     H7S11421   3.723   4.688   3.440
    1PA     C1611422   3.630   4.868   3.367
    1PA     H6R11423   3.532   4.822   3.356
    1PA     H6S11424   3.616   4.971   3.398
    1PA     C1511425   3.702   4.865   3.231
    1PA     H5R11426   3.799   4.915   3.240
    1PA     H5S11427   3.722   4.762   3.201
    1PA     C1411428   3.618   4.934   3.123
    1PA     H4R11429   3.521   4.887   3.115
    1PA     H4S11430   3.603   5.039   3.150
    1PA     C1311431   3.690   4.925   2.987
    1PA     H3R11432   3.790   4.967   2.998
    1PA     H3S11433   3.700   4.821   2.958
    1PA     C1211434   3.614   5.001   2.878
    1PA     H2R11435   3.514   4.957   2.865
    1PA     H2S11436   3.601   5.105   2.907
    2PC     C1111437   3.684   4.998   2.745
    2PC     O1211438   3.629   5.029   2.641
    2PC     O1111439   3.815   4.969   2.755
    2PC      C111440   3.899   4.961   2.638
    2PC      HR11441   3.871   5.038   2.566
    2PC      HS11442   4.001   4.979   2.671
    2PC      C211443   3.893   4.821   2.576
    2PC      HX11444   3.920   4.748   2.652
    2PC      C311445   3.992   4.811   2.459
    2PC      HA11446   3.975   4.893   2.389
    2PC      HB11447   4.095   4.819   2.496
    2PC     O3111448   3.974   4.685   2.393
    2PC     P3111449   4.052   4.657   2.256
    2PC     O3211450   4.003   4.506   2.233
    2PC     C3111451   3.864   4.485   2.201
    2PC     H1A11452   3.802   4.544   2.269
    2PC     H1B11453   3.844   4.516   2.098
    2PC     C3211454   3.830   4.336   2.222
    2PC     H2A11455   3.869   4.304   2.318
    2PC     H2B11456   3.721   4.325   2.223
    2PC     N3111457   3.880   4.237   2.121
    2PC     C3311458   3.819   4.262   1.986
    2PC     H3A11459   3.857   4.186   1.917
    2PC     H3B11460   3.711   4.255   1.994
    2PC     H3C11461   3.848   4.361   1.952
    2PC     C3411462   4.029   4.240   2.110
    2PC     H4A11463   4.061   4.161   2.043
    2PC     H4B11464   4.060   4.338   2.072
    2PC     H4C11465   4.071   4.224   2.210
    2PC     C3511466   3.840   4.100   2.166
    2PC     H5A11467   3.878   4.028   2.093
    2PC     H5B11468   3.731   4.095   2.172
    2PC     H5C11469   3.886   4.081   2.263
    2PC     O3311470   4.014   4.749   2.146
    2PC     O3411471   4.199   4.671   2.272
    2PC     O2111472   3.760   4.799   2.525
    2PC     C2111473   3.693   4.689   2.563
    2PC     O2211474   3.739   4.605   2.638
    3OL     C1211475   3.554   4.683   2.507
    3OL     H2R11476   3.558   4.637   2.408
    3OL     H2S11477   3.515   4.784   2.494
    3OL     C1311478   3.459   4.602   2.597
    3OL     H3R11479   3.500   4.503   2.615
    3OL     H3S11480   3.363   4.589   2.545
    3OL     C1411481   3.433   4.673   2.731
    3OL     H4R11482   3.383   4.768   2.712
    3OL     H4S11483   3.529   4.695   2.780
    3OL     C1511484   3.348   4.587   2.825
    3OL     H5R11485   3.400   4.494   2.847
    3OL     H5S11486   3.254   4.561   2.775
    3OL     C1611487   3.319   4.662   2.955
    3OL     H6R11488   3.264   4.754   2.931
    3OL     H6S11489   3.413   4.691   3.002
    3OL     C1711490   3.235   4.578   3.053
    3OL     H7R11491   3.289   4.486   3.077
    3OL     H7S11492   3.140   4.551   3.006
    3OL     C1811493   3.208   4.658   3.181
    3OL     H8R11494   3.153   4.749   3.155
    3OL     H8S11495   3.304   4.689   3.225
    3OL     C1911496   3.128   4.579   3.281
    3OL     H9R11497   3.072   4.495   3.239
    3OL    C11011498   3.125   4.601   3.411
    3OL    H10R11499   3.065   4.536   3.475
    3OL    C11111500   3.194   4.715   3.482
    3OL    H11R11501   3.242   4.782   3.411
    3OL    H11S11502   3.271   4.675   3.548
    3OL    C11211503   3.094   4.796   3.566
    3OL    H12R11504   3.061   4.736   3.651
    3OL    H12S11505   3.006   4.819   3.506
    3OL    C11311506   3.158   4.926   3.615
    3OL    H13R11507   3.187   4.987   3.529
    3OL    H13S11508   3.249   4.903   3.672
    3OL    C11411509   3.062   5.006   3.704
    3OL    H14R11510   3.038   4.948   3.793
    3OL    H14S11511   2.968   5.022   3.649
    3OL    C11511512   3.124   5.141   3.743
    3OL    H15R11513   3.142   5.200   3.654
    3OL    H15S11514   3.220   5.122   3.790
    3OL    C11611515   3.035   5.220   3.840
    3OL    H16R11516   3.093   5.303   3.880
    3OL    H16S11517   3.008   5.156   3.925
    3OL    C11711518   2.909   5.275   3.773
    3OL    H17R11519   2.848   5.193   3.735
    3OL    H17S11520   2.937   5.338   3.689
    3OL    C11811521   2.825   5.357   3.873
    3OL    H18R11522   2.884   5.440   3.913
    3OL    H18S11523   2.792   5.294   3.956
    3OL    H18T11524   2.737   5.398   3.823
    1PA    C11611525   2.085   2.973   3.638
    1PA    H16R11526   2.192   2.980   3.660
    1PA    H16S11527   2.056   2.868   3.643
    1PA    H16T11528   2.030   3.028   3.715
    1PA    C11511529   2.055   3.029   3.499
    1PA    H15R11530   2.108   2.970   3.423
    1PA    H15S11531   1.948   3.021   3.478
    1PA    C11411532   2.097   3.177   3.488
    1PA    H14R11533   2.037   3.236   3.557
    1PA    H14S11534   2.202   3.187   3.517
    1PA    C11311535   2.079   3.230   3.345
    1PA    H13R11536   2.144   3.175   3.278
    1PA    H13S11537   1.976   3.213   3.314
    1PA    C11211538   2.112   3.380   3.339
    1PA    H12R11539   2.039   3.436   3.397
    1PA    H12S11540   2.210   3.397   3.384
    1PA    C11111541   2.115   3.433   3.195
    1PA    H11R11542   2.150   3.537   3.197
    1PA    H11S11543   2.188   3.376   3.137
    1PA    C11011544   1.979   3.427   3.124
    1PA    H10R11545   1.945   3.323   3.121
    1PA    H10S11546   1.904   3.484   3.179
    1PA     C1911547   1.990   3.478   2.980
    1PA     H9R11548   2.085   3.445   2.936
    1PA     H9S11549   1.910   3.433   2.921
    1PA     C1811550   1.977   3.631   2.970
    1PA     H8R11551   1.876   3.660   3.000
    1PA     H8S11552   2.047   3.679   3.038
    1PA     C1711553   2.004   3.678   2.827
    1PA     H7R11554   2.109   3.660   2.802
    1PA     H7S11555   1.942   3.621   2.757
    1PA     C1611556   1.974   3.828   2.811
    1PA     H6R11557   1.867   3.846   2.823
    1PA     H6S11558   2.025   3.883   2.890
    1PA     C1511559   2.020   3.882   2.675
    1PA     H5R11560   2.008   3.991   2.676
    1PA     H5S11561   2.127   3.862   2.663
    1PA     C1411562   1.942   3.824   2.556
    1PA     H4R11563   1.958   3.717   2.548
    1PA     H4S11564   1.835   3.841   2.572
    1PA     C1311565   1.983   3.892   2.424
    1PA     H3R11566   1.908   3.870   2.348
    1PA     H3S11567   1.983   4.000   2.438
    1PA     C1211568   2.120   3.846   2.374
    1PA     H2R11569   2.192   3.843   2.456
    1PA     H2S11570   2.113   3.746   2.331
    2PC     C1111571   2.172   3.941   2.269
    2PC     O1211572   2.131   3.944   2.155
    2PC     O1111573   2.266   4.024   2.317
    2PC      C111574   2.313   4.134   2.237
    2PC      HR11575   2.397   4.182   2.289
    2PC      HS11576   2.348   4.097   2.140
    2PC      C211577   2.199   4.235   2.218
    2PC      HX11578   2.115   4.187   2.168
    2PC      C311579   2.245   4.357   2.137
    2PC      HA11580   2.301   4.424   2.203
    2PC      HB11581   2.309   4.328   2.054
    2PC     O3111582   2.129   4.426   2.086
    2PC     P3111583   2.138   4.581   2.048
    2PC     O3211584   2.277   4.590   1.969
    2PC     C3111585   2.308   4.716   1.907
    2PC     H1A11586   2.226   4.744   1.840
    2PC     H1B11587   2.318   4.793   1.984
    2PC     C3211588   2.438   4.705   1.827
    2PC     H2A11589   2.451   4.798   1.770
    2PC     H2B11590   2.522   4.696   1.896
    2PC     N3111591   2.451   4.593   1.728
    2PC     C3311592   2.324   4.570   1.653
    2PC     H3A11593   2.297   4.662   1.601
    2PC     H3B11594   2.341   4.489   1.581
    2PC     H3C11595   2.246   4.541   1.723
    2PC     C3411596   2.557   4.628   1.628
    2PC     H4A11597   2.527   4.719   1.575
    2PC     H4B11598   2.652   4.643   1.680
    2PC     H4C11599   2.566   4.545   1.557
    2PC     C3511600   2.493   4.467   1.798
    2PC     H5A11601   2.417   4.442   1.873
    2PC     H5B11602   2.589   4.484   1.846
    2PC     H5C11603   2.501   4.387   1.724
    2PC     O3311604   2.029   4.617   1.955
    2PC     O3411605   2.130   4.673   2.164
    2PC     O2111606   2.162   4.282   2.349
    2PC     C2111607   2.033   4.299   2.382
    2PC     O2211608   1.939   4.267   2.314
    3OL     C1211609   2.023   4.357   2.521
    3OL     H2R11610   1.993   4.462   2.514
    3OL     H2S11611   2.123   4.355   2.565
    3OL     C1311612   1.925   4.282   2.613
    3OL     H3R11613   1.913   4.179   2.578
    3OL     H3S11614   1.828   4.330   2.609
    3OL     C1411615   1.980   4.281   2.756
    3OL     H4R11616   2.003   4.383   2.787
    3OL     H4S11617   2.073   4.225   2.758
    3OL     C1511618   1.882   4.220   2.857
    3OL     H5R11619   1.851   4.121   2.824
    3OL     H5S11620   1.793   4.283   2.864
    3OL     C1611621   1.950   4.211   2.995
    3OL     H6R11622   1.994   4.308   3.018
    3OL     H6S11623   2.031   4.138   2.991
    3OL     C1711624   1.853   4.174   3.108
    3OL     H7R11625   1.771   4.245   3.111
    3OL     H7S11626   1.908   4.183   3.203
    3OL     C1811627   1.797   4.031   3.098
    3OL     H8R11628   1.879   3.961   3.081
    3OL     H8S11629   1.730   4.025   3.012
    3OL     C1911630   1.721   3.998   3.223
    3OL     H9R11631   1.631   4.058   3.240
    3OL    C11011632   1.754   3.905   3.311
    3OL    H10R11633   1.691   3.890   3.399
    3OL    C11111634   1.874   3.815   3.302
    3OL    H11R11635   1.961   3.870   3.267
    3OL    H11S11636   1.853   3.736   3.229
    3OL    C11211637   1.908   3.747   3.435
    3OL    H12R11638   1.986   3.672   3.417
    3OL    H12S11639   1.820   3.694   3.472
    3OL    C11311640   1.957   3.846   3.542
    3OL    H13R11641   1.877   3.916   3.567
    3OL    H13S11642   2.041   3.904   3.502
    3OL    C11411643   2.002   3.770   3.667
    3OL    H14R11644   2.077   3.696   3.640
    3OL    H14S11645   1.917   3.717   3.710
    3OL    C11511646   2.061   3.866   3.772
    3OL    H15R11647   1.984   3.936   3.806
    3OL    H15S11648   2.141   3.924   3.726
    3OL    C11611649   2.119   3.790   3.893
    3OL    H16R11650   2.176   3.861   3.953
    3OL    H16S11651   2.189   3.714   3.858
    3OL    C11711652   2.012   3.726   3.981
    3OL    H17R11653   1.954   3.653   3.923
    3OL    H17S11654   1.942   3.802   4.016
    3OL    C11811655   2.074   3.655   4.102
    3OL    H18R11656   2.130   3.727   4.163
    3OL    H18S11657   2.143   3.576   4.069
    3OL    H18T11658   1.997   3.610   4.164
    1PA    C11611659   4.937   5.076   4.026
    1PA    H16R11660   4.873   5.154   3.983
    1PA    H16S11661   4.983   5.116   4.117
    1PA    H16T11662   4.874   4.992   4.054
    1PA    C11511663   5.044   5.032   3.926
    1PA    H15R11664   5.106   4.955   3.973
    1PA    H15S11665   4.997   4.988   3.838
    1PA    C11411666   5.133   5.150   3.884
    1PA    H14R11667   5.073   5.228   3.837
    1PA    H14S11668   5.177   5.193   3.975
    1PA    C11311669   5.247   5.106   3.792
    1PA    H13R11670   5.327   5.179   3.799
    1PA    H13S11671   5.288   5.011   3.826
    1PA    C11211672   5.204   5.095   3.645
    1PA    H12R11673   5.121   5.025   3.634
    1PA    H12S11674   5.171   5.193   3.609
    1PA    C11111675   5.323   5.047   3.560
    1PA    H11R11676   5.408   5.112   3.579
    1PA    H11S11677   5.351   4.946   3.593
    1PA    C11011678   5.295   5.045   3.409
    1PA    H10R11679   5.208   4.983   3.388
    1PA    H10S11680   5.273   5.147   3.376
    1PA     C1911681   5.418   4.991   3.336
    1PA     H9R11682   5.506   5.046   3.370
    1PA     H9S11683   5.432   4.886   3.363
    1PA     C1811684   5.409   5.002   3.183
    1PA     H8R11685   5.325   4.943   3.147
    1PA     H8S11686   5.392   5.106   3.154
    1PA     C1711687   5.540   4.951   3.121
    1PA     H7R11688   5.624   4.998   3.173
    1PA     H7S11689   5.549   4.844   3.137
    1PA     C1611690   5.554   4.983   2.972
    1PA     H6R11691   5.542   5.091   2.956
    1PA     H6S11692   5.654   4.956   2.939
    1PA     C1511693   5.452   4.907   2.886
    1PA     H5R11694   5.461   4.800   2.905
    1PA     H5S11695   5.350   4.937   2.914
    1PA     C1411696   5.474   4.935   2.737
    1PA     H4R11697   5.475   5.043   2.721
    1PA     H4S11698   5.572   4.898   2.705
    1PA     C1311699   5.363   4.874   2.650
    1PA     H3R11700   5.267   4.901   2.693
    1PA     H3S11701   5.368   4.917   2.550
    1PA     C1211702   5.375   4.721   2.639
    1PA     H2R11703   5.462   4.696   2.578
    1PA     H2S11704   5.389   4.676   2.737
    2PC     C1111705   5.253   4.658   2.577
    2PC     O1211706   5.234   4.538   2.577
    2PC     O1111707   5.169   4.746   2.521
    2PC      C111708   5.049   4.699   2.457
    2PC      HR11709   5.077   4.634   2.374
    2PC      HS11710   4.989   4.641   2.528
    2PC      C211711   4.969   4.819   2.406
    2PC      HX11712   4.876   4.785   2.360
    2PC      C311713   5.049   4.901   2.304
    2PC      HA11714   5.129   4.957   2.353
    2PC      HB11715   5.094   4.834   2.230
    2PC     O3111716   4.959   4.991   2.237
    2PC     P3111717   5.010   5.071   2.108
    2PC     O3211718   4.991   5.222   2.159
    2PC     C3111719   5.108   5.304   2.169
    2PC     H1A11720   5.179   5.258   2.239
    2PC     H1B11721   5.156   5.313   2.071
    2PC     C3211722   5.069   5.443   2.222
    2PC     H2A11723   5.015   5.432   2.316
    2PC     H2B11724   5.160   5.500   2.241
    2PC     N3111725   4.985   5.531   2.134
    2PC     C3311726   4.846   5.477   2.118
    2PC     H3A11727   4.803   5.462   2.217
    2PC     H3B11728   4.787   5.549   2.062
    2PC     H3C11729   4.852   5.382   2.065
    2PC     C3411730   4.976   5.666   2.199
    2PC     H4A11731   4.918   5.732   2.135
    2PC     H4B11732   4.926   5.655   2.296
    2PC     H4C11733   5.077   5.705   2.213
    2PC     C3511734   5.047   5.549   1.999
    2PC     H5A11735   5.045   5.453   1.947
    2PC     H5B11736   5.150   5.583   2.012
    2PC     H5C11737   4.989   5.623   1.944
    2PC     O3311738   5.149   5.040   2.069
    2PC     O3411739   4.929   5.035   1.989
    2PC     O2111740   4.940   4.908   2.516
    2PC     C2111741   4.843   4.877   2.604
    2PC     O2211742   4.768   4.782   2.594
    3OL     C1211743   4.840   4.974   2.719
    3OL     H2R11744   4.927   5.040   2.712
    3OL     H2S11745   4.847   4.920   2.813
    3OL     C1311746   4.712   5.059   2.716
    3OL     H3R11747   4.626   4.996   2.739
    3OL     H3S11748   4.697   5.099   2.615
    3OL     C1411749   4.720   5.175   2.816
    3OL     H4R11750   4.801   5.242   2.787
    3OL     H4S11751   4.742   5.136   2.915
    3OL     C1511752   4.587   5.252   2.818
    3OL     H5R11753   4.509   5.182   2.848
    3OL     H5S11754   4.562   5.288   2.718
    3OL     C1611755   4.587   5.369   2.917
    3OL     H6R11756   4.638   5.340   3.009
    3OL     H6S11757   4.483   5.390   2.943
    3OL     C1711758   4.650   5.495   2.857
    3OL     H7R11759   4.595   5.525   2.768
    3OL     H7S11760   4.753   5.473   2.826
    3OL     C1811761   4.653   5.611   2.958
    3OL     H8R11762   4.711   5.693   2.915
    3OL     H8S11763   4.706   5.576   3.046
    3OL     C1911764   4.515   5.657   2.998
    3OL     H9R11765   4.440   5.579   3.005
    3OL    C11011766   4.477   5.782   3.022
    3OL    H10R11767   4.374   5.801   3.049
    3OL    C11111768   4.565   5.905   3.020
    3OL    H11R11769   4.669   5.881   2.999
    3OL    H11S11770   4.563   5.950   3.119
    3OL    C11211771   4.514   6.010   2.920
    3OL    H12R11772   4.573   6.101   2.930
    3OL    H12S11773   4.411   6.036   2.947
    3OL    C11311774   4.517   5.962   2.775
    3OL    H13R11775   4.457   6.032   2.716
    3OL    H13S11776   4.470   5.864   2.765
    3OL    C11411777   4.660   5.959   2.719
    3OL    H14R11778   4.722   5.894   2.780
    3OL    H14S11779   4.703   6.060   2.725
    3OL    C11511780   4.668   5.910   2.573
    3OL    H15R11781   4.625   5.810   2.565
    3OL    H15S11782   4.773   5.902   2.547
    3OL    C11611783   4.600   6.006   2.474
    3OL    H16R11784   4.663   6.013   2.384
    3OL    H16S11785   4.594   6.106   2.516
    3OL    C11711786   4.461   5.957   2.432
    3OL    H17R11787   4.397   5.944   2.520
    3OL    H17S11788   4.469   5.860   2.382
    3OL    C11811789   4.395   6.058   2.337
    3OL    H18R11790   4.384   6.155   2.386
    3OL    H18S11791   4.295   6.022   2.307
    3OL    H18T11792   4.455   6.071   2.247
    1PA    C11611793   3.432   5.235   4.006
    1PA    H16R11794   3.429   5.234   4.115
    1PA    H16S11795   3.360   5.161   3.969
    1PA    H16T11796   3.401   5.334   3.971
    1PA    C11511797   3.573   5.202   3.957
    1PA    H15R11798   3.644   5.272   4.001
    1PA    H15S11799   3.600   5.101   3.990
    1PA    C11411800   3.582   5.209   3.803
    1PA    H14R11801   3.513   5.137   3.759
    1PA    H14S11802   3.551   5.309   3.770
    1PA    C11311803   3.725   5.182   3.756
    1PA    H13R11804   3.793   5.253   3.803
    1PA    H13S11805   3.755   5.081   3.787
    1PA    C11211806   3.736   5.194   3.603
    1PA    H12R11807   3.670   5.120   3.556
    1PA    H12S11808   3.701   5.293   3.573
    1PA    C11111809   3.880   5.173   3.557
    1PA    H11R11810   3.945   5.246   3.606
    1PA    H11S11811   3.914   5.074   3.589
    1PA    C11011812   3.898   5.184   3.405
    1PA    H10R11813   4.002   5.164   3.381
    1PA    H10S11814   3.837   5.108   3.356
    1PA     C1911815   3.860   5.323   3.351
    1PA     H9R11816   3.751   5.336   3.356
    1PA     H9S11817   3.905   5.399   3.415
    1PA     C1811818   3.909   5.346   3.208
    1PA     H8R11819   3.897   5.451   3.183
    1PA     H8S11820   4.015   5.323   3.202
    1PA     C1711821   3.833   5.262   3.103
    1PA     H7R11822   3.838   5.156   3.128
    1PA     H7S11823   3.728   5.291   3.105
    1PA     C1611824   3.890   5.286   2.963
    1PA     H6R11825   3.815   5.257   2.889
    1PA     H6S11826   3.910   5.392   2.948
    1PA     C1511827   4.017   5.203   2.939
    1PA     H5R11828   4.087   5.218   3.021
    1PA     H5S11829   3.991   5.096   2.938
    1PA     C1411830   4.086   5.240   2.807
    1PA     H4R11831   4.016   5.227   2.724
    1PA     H4S11832   4.115   5.345   2.811
    1PA     C1311833   4.210   5.153   2.787
    1PA     H3R11834   4.275   5.162   2.874
    1PA     H3S11835   4.182   5.048   2.779
    1PA     C1211836   4.293   5.193   2.664
    1PA     H2R11837   4.325   5.297   2.674
    1PA     H2S11838   4.384   5.132   2.660
    2PC     C1111839   4.222   5.177   2.532
    2PC     O1211840   4.118   5.116   2.516
    2PC     O1111841   4.285   5.244   2.434
    2PC      C111842   4.219   5.255   2.307
    2PC      HR11843   4.289   5.297   2.233
    2PC      HS11844   4.189   5.155   2.273
    2PC      C211845   4.096   5.345   2.321
    2PC      HX11846   4.025   5.300   2.390
    2PC      C311847   4.029   5.366   2.185
    2PC      HA11848   3.992   5.271   2.145
    2PC      HB11849   3.944   5.435   2.195
    2PC     O3111850   4.127   5.421   2.095
    2PC     P3111851   4.079   5.472   1.951
    2PC     O3211852   4.054   5.332   1.877
    2PC     C3111853   4.167   5.247   1.855
    2PC     H1A11854   4.236   5.295   1.784
    2PC     H1B11855   4.219   5.231   1.950
    2PC     C3211856   4.120   5.110   1.803
    2PC     H2A11857   4.206   5.043   1.802
    2PC     H2B11858   4.045   5.069   1.871
    2PC     N3111859   4.062   5.102   1.664
    2PC     C3311860   3.930   5.173   1.656
    2PC     H3A11861   3.892   5.162   1.554
    2PC     H3B11862   3.862   5.127   1.727
    2PC     H3C11863   3.946   5.278   1.679
    2PC     C3411864   4.156   5.161   1.563
    2PC     H4A11865   4.114   5.146   1.464
    2PC     H4B11866   4.168   5.268   1.583
    2PC     H4C11867   4.252   5.110   1.571
    2PC     C3511868   4.042   4.958   1.630
    2PC     H5A11869   4.138   4.906   1.637
    2PC     H5B11870   4.003   4.951   1.529
    2PC     H5C11871   3.971   4.914   1.701
    2PC     O3311872   3.957   5.555   1.961
    2PC     O3411873   4.185   5.557   1.892
    2PC     O2111874   4.140   5.472   2.373
    2PC     C2111875   4.048   5.558   2.419
    2PC     O2211876   3.929   5.534   2.423
    3OL     C1211877   4.108   5.689   2.465
    3OL     H2R11878   4.043   5.771   2.432
    3OL     H2S11879   4.204   5.703   2.416
    3OL     C1311880   4.126   5.694   2.617
    3OL     H3R11881   4.174   5.789   2.643
    3OL     H3S11882   4.194   5.614   2.648
    3OL     C1411883   3.993   5.682   2.691
    3OL     H4R11884   3.950   5.583   2.673
    3OL     H4S11885   3.922   5.755   2.653
    3OL     C1511886   4.007   5.699   2.843
    3OL     H5R11887   4.088   5.636   2.881
    3OL     H5S11888   3.914   5.664   2.890
    3OL     C1611889   4.030   5.845   2.883
    3OL     H6R11890   3.955   5.908   2.834
    3OL     H6S11891   4.128   5.879   2.849
    3OL     C1711892   4.019   5.863   3.035
    3OL     H7R11893   4.095   5.803   3.085
    3OL     H7S11894   3.921   5.827   3.068
    3OL     C1811895   4.035   6.010   3.075
    3OL     H8R11896   3.976   6.073   3.008
    3OL     H8S11897   4.140   6.040   3.063
    3OL     C1911898   3.993   6.030   3.219
    3OL     H9R11899   4.053   5.974   3.291
    3OL    C11011900   3.892   6.103   3.263
    3OL    H10R11901   3.873   6.104   3.370
    3OL    C11111902   3.799   6.189   3.182
    3OL    H11R11903   3.835   6.202   3.079
    3OL    H11S11904   3.798   6.289   3.227
    3OL    C11211905   3.656   6.136   3.181
    3OL    H12R11906   3.591   6.208   3.130
    3OL    H12S11907   3.621   6.128   3.284
    3OL    C11311908   3.641   5.998   3.114
    3OL    H13R11909   3.543   5.958   3.138
    3OL    H13S11910   3.715   5.929   3.155
    3OL    C11411911   3.655   6.005   2.961
    3OL    H14R11912   3.754   6.044   2.934
    3OL    H14S11913   3.581   6.074   2.921
    3OL    C11511914   3.636   5.866   2.900
    3OL    H15R11915   3.538   5.827   2.926
    3OL    H15S11916   3.710   5.798   2.943
    3OL    C11611917   3.653   5.865   2.747
    3OL    H16R11918   3.666   5.762   2.714
    3OL    H16S11919   3.742   5.921   2.719
    3OL    C11711920   3.530   5.924   2.676
    3OL    H17R11921   3.516   6.028   2.707
    3OL    H17S11922   3.440   5.869   2.705
    3OL    C11811923   3.547   5.919   2.524
    3OL    H18R11924   3.459   5.962   2.475
    3OL    H18S11925   3.558   5.816   2.490
    3OL    H18T11926   3.635   5.976   2.493
    1PA    C11611927   1.340   5.176   3.447
    1PA    H16R11928   1.388   5.163   3.349
    1PA    H16S11929   1.242   5.221   3.432
    1PA    H16T11930   1.325   5.077   3.490
    1PA    C11511931   1.427   5.262   3.540
    1PA    H15R11932   1.375   5.270   3.635
    1PA    H15S11933   1.522   5.211   3.559
    1PA    C11411934   1.453   5.402   3.485
    1PA    H14R11935   1.359   5.450   3.456
    1PA    H14S11936   1.496   5.463   3.564
    1PA    C11311937   1.550   5.401   3.366
    1PA    H13R11938   1.643   5.353   3.397
    1PA    H13S11939   1.508   5.343   3.284
    1PA    C11211940   1.581   5.543   3.317
    1PA    H12R11941   1.490   5.591   3.281
    1PA    H12S11942   1.619   5.603   3.400
    1PA    C11111943   1.686   5.540   3.206
    1PA    H11R11944   1.776   5.489   3.244
    1PA    H11S11945   1.649   5.481   3.121
    1PA    C11011946   1.726   5.680   3.157
    1PA    H10R11947   1.642   5.726   3.105
    1PA    H10S11948   1.749   5.743   3.244
    1PA     C1911949   1.848   5.672   3.065
    1PA     H9R11950   1.930   5.627   3.122
    1PA     H9S11951   1.828   5.608   2.980
    1PA     C1811952   1.893   5.811   3.018
    1PA     H8R11953   1.867   5.886   3.093
    1PA     H8S11954   2.002   5.812   3.008
    1PA     C1711955   1.833   5.850   2.882
    1PA     H7R11956   1.876   5.786   2.805
    1PA     H7S11957   1.725   5.833   2.883
    1PA     C1611958   1.861   5.997   2.851
    1PA     H6R11959   1.795   6.058   2.913
    1PA     H6S11960   1.963   6.024   2.879
    1PA     C1511961   1.837   6.032   2.704
    1PA     H5R11962   1.750   5.977   2.666
    1PA     H5S11963   1.814   6.139   2.697
    1PA     C1411964   1.962   6.004   2.619
    1PA     H4R11965   2.045   6.062   2.659
    1PA     H4S11966   1.989   5.899   2.626
    1PA     C1311967   1.943   6.043   2.472
    1PA     H3R11968   1.899   6.143   2.465
    1PA     H3S11969   2.041   6.048   2.424
    1PA     C1211970   1.857   5.942   2.395
    1PA     H2R11971   1.902   5.842   2.402
    1PA     H2S11972   1.757   5.936   2.439
    2PC     C1111973   1.842   5.976   2.249
    2PC     O1211974   1.885   6.078   2.198
    2PC     O1111975   1.771   5.883   2.184
    2PC      C111976   1.743   5.902   2.044
    2PC      HR11977   1.711   6.005   2.025
    2PC      HS11978   1.833   5.882   1.985
    2PC      C211979   1.630   5.806   2.005
    2PC      HX11980   1.660   5.704   2.033
    2PC      C311981   1.598   5.811   1.855
    2PC      HA11982   1.683   5.771   1.799
    2PC      HB11983   1.509   5.752   1.833
    2PC     O3111984   1.576   5.948   1.814
    2PC     P3111985   1.569   5.985   1.658
    2PC     O3211986   1.411   5.988   1.630
    2PC     C3111987   1.371   5.999   1.492
    2PC     H1A11988   1.450   6.048   1.435
    2PC     H1B11989   1.354   5.899   1.452
    2PC     C3211990   1.243   6.084   1.486
    2PC     H2A11991   1.164   6.033   1.541
    2PC     H2B11992   1.262   6.180   1.532
    2PC     N3111993   1.189   6.113   1.349
    2PC     C3311994   1.143   5.987   1.283
    2PC     H3A11995   1.066   5.941   1.345
    2PC     H3B11996   1.103   6.012   1.185
    2PC     H3C11997   1.229   5.919   1.273
    2PC     C3411998   1.071   6.205   1.362
    2PC     H4A11999   1.033   6.226   1.262
    2PC     H4B12000   0.994   6.154   1.421
    2PC     H4C12001   1.102   6.297   1.411
    2PC     C3512002   1.290   6.182   1.263
    2PC     H5A12003   1.374   6.114   1.245
    2PC     H5B12004   1.325   6.272   1.314
    2PC     H5C12005   1.243   6.209   1.169
    2PC     O3312006   1.622   6.121   1.636
    2PC     O3412007   1.639   5.890   1.568
    2PC     O2112008   1.514   5.845   2.081
    2PC     C2112009   1.422   5.753   2.112
    2PC     O2212010   1.425   5.636   2.077
    3OL     C1212011   1.317   5.812   2.203
    3OL     H2R12012   1.264   5.889   2.148
    3OL     H2S12013   1.367   5.860   2.287
    3OL     C1312014   1.218   5.706   2.254
    3OL     H3R12015   1.272   5.628   2.309
    3OL     H3S12016   1.168   5.659   2.169
    3OL     C1412017   1.112   5.770   2.345
    3OL     H4R12018   1.061   5.849   2.289
    3OL     H4S12019   1.158   5.816   2.432
    3OL     C1512020   1.007   5.666   2.389
    3OL     H5R12021   0.975   5.607   2.303
    3OL     H5S12022   0.919   5.720   2.426
    3OL     C1612023   1.057   5.574   2.502
    3OL     H6R12024   1.083   5.635   2.589
    3OL     H6S12025   1.147   5.521   2.470
    3OL     C1712026   0.947   5.474   2.538
    3OL     H7R12027   0.928   5.409   2.453
    3OL     H7S12028   0.854   5.528   2.559
    3OL     C1812029   0.985   5.389   2.660
    3OL     H8R12030   1.008   5.455   2.744
    3OL     H8S12031   1.075   5.331   2.638
    3OL     C1912032   0.869   5.300   2.699
    3OL     H9R12033   0.776   5.353   2.719
    3OL    C11012034   0.873   5.168   2.711
    3OL    H10R12035   0.782   5.115   2.739
    3OL    C11112036   0.994   5.082   2.688
    3OL    H11R12037   1.065   5.099   2.769
    3OL    H11S12038   1.042   5.107   2.594
    3OL    C11212039   0.953   4.934   2.688
    3OL    H12R12040   0.886   4.917   2.604
    3OL    H12S12041   0.897   4.911   2.779
    3OL    C11312042   1.072   4.838   2.675
    3OL    H13R12043   1.125   4.858   2.581
    3OL    H13S12044   1.033   4.736   2.667
    3OL    C11412045   1.173   4.842   2.791
    3OL    H14R12046   1.232   4.933   2.784
    3OL    H14S12047   1.242   4.758   2.779
    3OL    C11512048   1.108   4.835   2.930
    3OL    H15R12049   1.041   4.749   2.934
    3OL    H15S12050   1.048   4.925   2.947
    3OL    C11612051   1.214   4.825   3.040
    3OL    H16R12052   1.289   4.903   3.025
    3OL    H16S12053   1.265   4.729   3.032
    3OL    C11712054   1.154   4.841   3.181
    3OL    H17R12055   1.105   4.938   3.188
    3OL    H17S12056   1.236   4.840   3.253
    3OL    C11812057   1.055   4.730   3.217
    3OL    H18R12058   0.968   4.732   3.152
    3OL    H18S12059   1.021   4.743   3.320
    3OL    H18T12060   1.102   4.632   3.209
    1PA    C11612061   2.694   4.735   4.050
    1PA    H16R12062   2.726   4.833   4.086
    1PA    H16S12063   2.735   4.659   4.117
    1PA    H16T12064   2.585   4.730   4.055
    1PA    C11512065   2.743   4.713   3.906
    1PA    H15R12066   2.707   4.794   3.843
    1PA    H15S12067   2.852   4.716   3.905
    1PA    C11412068   2.694   4.577   3.853
    1PA    H14R12069   2.729   4.499   3.920
    1PA    H14S12070   2.585   4.574   3.853
    1PA    C11312071   2.746   4.548   3.711
    1PA    H13R12072   2.854   4.567   3.707
    1PA    H13S12073   2.731   4.442   3.691
    1PA    C11212074   2.673   4.630   3.604
    1PA    H12R12075   2.566   4.609   3.609
    1PA    H12S12076   2.686   4.736   3.625
    1PA    C11112077   2.724   4.603   3.462
    1PA    H11R12078   2.676   4.674   3.394
    1PA    H11S12079   2.831   4.621   3.457
    1PA    C11012080   2.693   4.460   3.414
    1PA    H10R12081   2.749   4.388   3.473
    1PA    H10S12082   2.586   4.439   3.428
    1PA     C1912083   2.729   4.443   3.266
    1PA     H9R12084   2.672   4.514   3.206
    1PA     H9S12085   2.835   4.465   3.252
    1PA     C1812086   2.699   4.300   3.217
    1PA     H8R12087   2.761   4.228   3.271
    1PA     H8S12088   2.595   4.277   3.240
    1PA     C1712089   2.719   4.285   3.066
    1PA     H7R12090   2.674   4.191   3.034
    1PA     H7S12091   2.666   4.365   3.014
    1PA     C1612092   2.867   4.284   3.025
    1PA     H6R12093   2.917   4.373   3.064
    1PA     H6S12094   2.916   4.197   3.068
    1PA     C1512095   2.882   4.282   2.872
    1PA     H5R12096   2.836   4.192   2.832
    1PA     H5S12097   2.828   4.368   2.830
    1PA     C1412098   3.029   4.288   2.831
    1PA     H4R12099   3.077   4.375   2.877
    1PA     H4S12100   3.080   4.200   2.869
    1PA     C1312101   3.049   4.295   2.679
    1PA     H3R12102   3.154   4.277   2.656
    1PA     H3S12103   2.991   4.216   2.630
    1PA     C1212104   3.009   4.432   2.621
    1PA     H2R12105   2.902   4.447   2.632
    1PA     H2S12106   3.060   4.512   2.676
    2PC     C1112107   3.044   4.443   2.475
    2PC     O1212108   3.140   4.505   2.434
    2PC     O1112109   2.956   4.380   2.396
    2PC      C112110   2.967   4.396   2.254
    2PC      HR12111   2.995   4.498   2.230
    2PC      HS12112   3.042   4.327   2.214
    2PC      C212113   2.830   4.367   2.192
    2PC      HX12114   2.800   4.264   2.214
    2PC      C312115   2.833   4.389   2.040
    2PC      HA12116   2.908   4.324   1.994
    2PC      HB12117   2.735   4.367   1.995
    2PC     O3112118   2.868   4.526   2.014
    2PC     P3112119   2.872   4.579   1.863
    2PC     O3212120   2.754   4.687   1.872
    2PC     C3112121   2.786   4.827   1.889
    2PC     H1A12122   2.852   4.858   1.808
    2PC     H1B12123   2.692   4.883   1.882
    2PC     C3212124   2.850   4.850   2.026
    2PC     H2A12125   2.780   4.819   2.104
    2PC     H2B12126   2.940   4.789   2.035
    2PC     N3112127   2.892   4.990   2.059
    2PC     C3312128   2.775   5.084   2.056
    2PC     H3A12129   2.735   5.086   1.954
    2PC     H3B12130   2.699   5.047   2.125
    2PC     H3C12131   2.809   5.183   2.085
    2PC     C3412132   2.950   4.990   2.197
    2PC     H4A12133   2.873   4.958   2.267
    2PC     H4B12134   3.034   4.921   2.198
    2PC     H4C12135   2.984   5.091   2.220
    2PC     C3512136   2.995   5.038   1.962
    2PC     H5A12137   3.079   4.968   1.963
    2PC     H5B12138   3.029   5.137   1.993
    2PC     H5C12139   2.951   5.043   1.862
    2PC     O3312140   3.006   4.635   1.833
    2PC     O3412141   2.838   4.476   1.762
    2PC     O2112142   2.738   4.459   2.252
    2PC     C2112143   2.606   4.448   2.231
    2PC     O2212144   2.553   4.364   2.161
    3OL     C1212145   2.528   4.551   2.309
    3OL     H2R12146   2.440   4.582   2.252
    3OL     H2S12147   2.591   4.640   2.322
    3OL     C1312148   2.488   4.494   2.445
    3OL     H3R12149   2.578   4.467   2.501
    3OL     H3S12150   2.429   4.403   2.431
    3OL     C1412151   2.407   4.596   2.526
    3OL     H4R12152   2.316   4.621   2.470
    3OL     H4S12153   2.465   4.688   2.538
    3OL     C1512154   2.369   4.540   2.664
    3OL     H5R12155   2.461   4.513   2.717
    3OL     H5S12156   2.310   4.449   2.653
    3OL     C1612157   2.292   4.642   2.748
    3OL     H6R12158   2.347   4.736   2.752
    3OL     H6S12159   2.284   4.605   2.850
    3OL     C1712160   2.150   4.667   2.694
    3OL     H7R12161   2.092   4.574   2.698
    3OL     H7S12162   2.155   4.697   2.589
    3OL     C1812163   2.078   4.776   2.774
    3OL     H8R12164   2.145   4.860   2.789
    3OL     H8S12165   2.051   4.736   2.872
    3OL     C1912166   1.953   4.820   2.700
    3OL     H9R12167   1.910   4.745   2.635
    3OL    C11012168   1.897   4.939   2.707
    3OL    H10R12169   1.808   4.959   2.648
    3OL    C11112170   1.943   5.055   2.792
    3OL    H11R12171   1.939   5.147   2.732
    3OL    H11S12172   2.047   5.043   2.823
    3OL    C11212173   1.854   5.073   2.915
    3OL    H12R12174   1.855   4.980   2.973
    3OL    H12S12175   1.751   5.092   2.885
    3OL    C11312176   1.906   5.188   3.002
    3OL    H13R12177   1.909   5.279   2.942
    3OL    H13S12178   2.008   5.167   3.034
    3OL    C11412179   1.819   5.217   3.126
    3OL    H14R12180   1.720   5.249   3.096
    3OL    H14S12181   1.866   5.301   3.178
    3OL    C11512182   1.810   5.100   3.225
    3OL    H15R12183   1.816   5.140   3.327
    3OL    H15S12184   1.894   5.032   3.213
    3OL    C11612185   1.677   5.024   3.212
    3OL    H16R12186   1.667   4.982   3.112
    3OL    H16S12187   1.594   5.093   3.227
    3OL    C11712188   1.668   4.911   3.316
    3OL    H17R12189   1.683   4.951   3.416
    3OL    H17S12190   1.747   4.838   3.297
    3OL    C11812191   1.532   4.840   3.309
    3OL    H18R12192   1.452   4.911   3.333
    3OL    H18S12193   1.528   4.758   3.381
    3OL    H18T12194   1.514   4.800   3.209
    1PA    C11612195   4.009   1.626   3.397
    1PA    H16R12196   3.943   1.606   3.482
    1PA    H16S12197   4.107   1.657   3.435
    1PA    H16T12198   4.022   1.534   3.341
    1PA    C11512199   3.949   1.735   3.307
    1PA    H15R12200   4.013   1.749   3.219
    1PA    H15S12201   3.852   1.700   3.271
    1PA    C11412202   3.929   1.868   3.380
    1PA    H14R12203   3.873   1.935   3.314
    1PA    H14S12204   3.866   1.851   3.467
    1PA    C11312205   4.057   1.939   3.425
    1PA    H13R12206   4.031   2.034   3.470
    1PA    H13S12207   4.105   1.880   3.503
    1PA    C11212208   4.160   1.962   3.313
    1PA    H12R12209   4.248   2.011   3.356
    1PA    H12S12210   4.194   1.866   3.275
    1PA    C11112211   4.110   2.048   3.196
    1PA    H11R12212   4.183   2.039   3.115
    1PA    H11S12213   4.016   2.008   3.157
    1PA    C11012214   4.093   2.195   3.234
    1PA    H10R12215   4.011   2.204   3.305
    1PA    H10S12216   4.183   2.232   3.283
    1PA     C1912217   4.062   2.283   3.112
    1PA     H9R12218   3.982   2.238   3.053
    1PA     H9S12219   4.026   2.380   3.147
    1PA     C1812220   4.186   2.306   3.025
    1PA     H8R12221   4.266   2.349   3.086
    1PA     H8S12222   4.222   2.211   2.986
    1PA     C1712223   4.157   2.400   2.906
    1PA     H7R12224   4.077   2.356   2.847
    1PA     H7S12225   4.121   2.496   2.943
    1PA     C1612226   4.280   2.419   2.817
    1PA     H6R12227   4.327   2.322   2.798
    1PA     H6S12228   4.247   2.459   2.721
    1PA     C1512229   4.382   2.516   2.879
    1PA     H5R12230   4.339   2.616   2.886
    1PA     H5S12231   4.405   2.483   2.980
    1PA     C1412232   4.514   2.521   2.800
    1PA     H4R12233   4.588   2.573   2.860
    1PA     H4S12234   4.550   2.419   2.784
    1PA     C1312235   4.501   2.592   2.665
    1PA     H3R12236   4.427   2.541   2.603
    1PA     H3S12237   4.466   2.695   2.680
    1PA     C1212238   4.636   2.595   2.592
    1PA     H2R12239   4.710   2.648   2.653
    1PA     H2S12240   4.671   2.492   2.578
    2PC     C1112241   4.628   2.660   2.457
    2PC     O1212242   4.697   2.756   2.425
    2PC     O1112243   4.537   2.603   2.376
    2PC      C112244   4.521   2.656   2.243
    2PC      HR12245   4.491   2.761   2.248
    2PC      HS12246   4.616   2.648   2.190
    2PC      C212247   4.413   2.575   2.170
    2PC      HX12248   4.433   2.468   2.179
    2PC      C312249   4.406   2.614   2.021
    2PC      HA12250   4.332   2.692   2.008
    2PC      HB12251   4.503   2.651   1.985
    2PC     O3112252   4.370   2.498   1.944
    2PC     P3112253   4.304   2.519   1.800
    2PC     O3212254   4.154   2.482   1.841
    2PC     C3112255   4.056   2.585   1.860
    2PC     H1A12256   3.984   2.550   1.934
    2PC     H1B12257   4.103   2.676   1.899
    2PC     C3212258   3.982   2.615   1.728
    2PC     H2A12259   3.897   2.680   1.751
    2PC     H2B12260   4.049   2.670   1.661
    2PC     N3112261   3.927   2.501   1.649
    2PC     C3312262   3.839   2.556   1.541
    2PC     H3A12263   3.759   2.613   1.587
    2PC     H3B12264   3.900   2.621   1.477
    2PC     H3C12265   3.799   2.473   1.483
    2PC     C3412266   4.036   2.421   1.584
    2PC     H4A12267   3.990   2.348   1.517
    2PC     H4B12268   4.099   2.489   1.527
    2PC     H4C12269   4.093   2.370   1.661
    2PC     C3512270   3.844   2.409   1.733
    2PC     H5A12271   3.905   2.373   1.816
    2PC     H5B12272   3.810   2.325   1.672
    2PC     H5C12273   3.758   2.465   1.771
    2PC     O3312274   4.327   2.651   1.739
    2PC     O3412275   4.356   2.425   1.697
    2PC     O2112276   4.284   2.608   2.225
    2PC     C2112277   4.242   2.547   2.337
    2PC     O2212278   4.296   2.451   2.389
    3OL     C1212279   4.119   2.611   2.396
    3OL     H2R12280   4.064   2.535   2.451
    3OL     H2S12281   4.054   2.649   2.317
    3OL     C1312282   4.159   2.726   2.491
    3OL     H3R12283   4.182   2.815   2.432
    3OL     H3S12284   4.250   2.697   2.545
    3OL     C1412285   4.048   2.755   2.592
    3OL     H4R12286   4.027   2.664   2.649
    3OL     H4S12287   3.957   2.783   2.540
    3OL     C1512288   4.090   2.867   2.688
    3OL     H5R12289   4.098   2.960   2.632
    3OL     H5S12290   4.189   2.846   2.729
    3OL     C1612291   3.990   2.885   2.803
    3OL     H6R12292   3.888   2.878   2.764
    3OL     H6S12293   4.003   2.985   2.845
    3OL     C1712294   4.011   2.782   2.914
    3OL     H7R12295   4.114   2.789   2.951
    3OL     H7S12296   3.997   2.681   2.874
    3OL     C1812297   3.914   2.805   3.031
    3OL     H8R12298   3.811   2.789   2.996
    3OL     H8S12299   3.920   2.908   3.065
    3OL     C1912300   3.943   2.710   3.144
    3OL     H9R12301   3.886   2.618   3.143
    3OL    C11012302   4.029   2.732   3.243
    3OL    H10R12303   4.041   2.657   3.320
    3OL    C11112304   4.118   2.853   3.259
    3OL    H11R12305   4.099   2.928   3.181
    3OL    H11S12306   4.221   2.821   3.249
    3OL    C11212307   4.100   2.917   3.397
    3OL    H12R12308   4.105   2.838   3.473
    3OL    H12S12309   4.001   2.963   3.405
    3OL    C11312310   4.209   3.020   3.429
    3OL    H13R12311   4.308   2.974   3.415
    3OL    H13S12312   4.201   3.049   3.534
    3OL    C11412313   4.198   3.146   3.342
    3OL    H14R12314   4.099   3.191   3.355
    3OL    H14S12315   4.208   3.119   3.236
    3OL    C11512316   4.306   3.248   3.379
    3OL    H15R12317   4.405   3.204   3.363
    3OL    H15S12318   4.298   3.270   3.485
    3OL    C11612319   4.293   3.379   3.301
    3OL    H16R12320   4.359   3.454   3.346
    3OL    H16S12321   4.191   3.417   3.312
    3OL    C11712322   4.326   3.367   3.151
    3OL    H17R12323   4.298   3.461   3.102
    3OL    H17S12324   4.268   3.288   3.105
    3OL    C11812325   4.476   3.344   3.126
    3OL    H18R12326   4.496   3.341   3.019
    3OL    H18S12327   4.508   3.249   3.169
    3OL    H18T12328   4.536   3.424   3.170
    1PA    C11612329   4.656   1.250   3.984
    1PA    H16R12330   4.549   1.274   3.977
    1PA    H16S12331   4.672   1.191   4.074
    1PA    H16T12332   4.682   1.190   3.897
    1PA    C11512333   4.738   1.380   3.988
    1PA    H15R12334   4.719   1.437   3.896
    1PA    H15S12335   4.703   1.441   4.071
    1PA    C11412336   4.888   1.356   4.004
    1PA    H14R12337   4.940   1.453   4.002
    1PA    H14S12338   4.907   1.313   4.103
    1PA    C11312339   4.951   1.264   3.898
    1PA    H13R12340   5.058   1.255   3.919
    1PA    H13S12341   4.909   1.164   3.907
    1PA    C11212342   4.932   1.317   3.756
    1PA    H12R12343   4.825   1.322   3.732
    1PA    H12S12344   4.972   1.419   3.749
    1PA    C11112345   5.002   1.226   3.654
    1PA    H11R12346   5.110   1.228   3.670
    1PA    H11S12347   4.968   1.123   3.671
    1PA    C11012348   4.969   1.265   3.509
    1PA    H10R12349   5.005   1.186   3.443
    1PA    H10S12350   4.860   1.270   3.497
    1PA     C1912351   5.033   1.398   3.468
    1PA     H9R12352   5.003   1.478   3.536
    1PA     H9S12353   5.141   1.388   3.476
    1PA     C1812354   4.998   1.437   3.324
    1PA     H8R12355   5.069   1.513   3.291
    1PA     H8S12356   5.009   1.351   3.259
    1PA     C1712357   4.856   1.494   3.313
    1PA     H7R12358   4.784   1.420   3.348
    1PA     H7S12359   4.845   1.583   3.376
    1PA     C1612360   4.820   1.530   3.168
    1PA     H6R12361   4.848   1.447   3.102
    1PA     H6S12362   4.712   1.542   3.160
    1PA     C1512363   4.888   1.659   3.121
    1PA     H5R12364   4.850   1.743   3.179
    1PA     H5S12365   4.996   1.653   3.138
    1PA     C1412366   4.863   1.683   2.971
    1PA     H4R12367   4.902   1.598   2.915
    1PA     H4S12368   4.756   1.690   2.952
    1PA     C1312369   4.932   1.812   2.925
    1PA     H3R12370   4.884   1.898   2.973
    1PA     H3S12371   5.036   1.811   2.957
    1PA     C1212372   4.924   1.829   2.773
    1PA     H2R12373   4.820   1.824   2.740
    1PA     H2S12374   4.961   1.928   2.744
    2PC     C1112375   5.005   1.725   2.699
    2PC     O1212376   5.110   1.680   2.739
    2PC     O1112377   4.944   1.686   2.585
    2PC      C112378   5.005   1.583   2.506
    2PC      HR12379   5.105   1.615   2.475
    2PC      HS12380   5.015   1.491   2.564
    2PC      C212381   4.917   1.560   2.383
    2PC      HX12382   4.961   1.484   2.318
    2PC      C312383   4.897   1.690   2.304
    2PC      HA12384   4.843   1.762   2.366
    2PC      HB12385   4.995   1.732   2.277
    2PC     O3112386   4.822   1.663   2.184
    2PC     P3112387   4.790   1.783   2.083
    2PC     O3212388   4.846   1.722   1.946
    2PC     C3112389   4.987   1.693   1.940
    2PC     H1A12390   5.042   1.787   1.938
    2PC     H1B12391   5.016   1.634   2.027
    2PC     C3212392   5.013   1.612   1.812
    2PC     H2A12393   4.956   1.519   1.817
    2PC     H2B12394   4.980   1.669   1.725
    2PC     N3112395   5.155   1.573   1.785
    2PC     C3312396   5.158   1.489   1.661
    2PC     H3A12397   5.261   1.458   1.643
    2PC     H3B12398   5.095   1.402   1.676
    2PC     H3C12399   5.122   1.550   1.577
    2PC     C3412400   5.241   1.694   1.765
    2PC     H4A12401   5.196   1.757   1.688
    2PC     H4B12402   5.248   1.749   1.859
    2PC     H4C12403   5.340   1.662   1.734
    2PC     C3512404   5.213   1.491   1.897
    2PC     H5A12405   5.315   1.463   1.870
    2PC     H5B12406   5.152   1.401   1.910
    2PC     H5C12407   5.213   1.551   1.988
    2PC     O3312408   4.644   1.807   2.077
    2PC     O3412409   4.853   1.911   2.123
    2PC     O2112410   4.786   1.517   2.427
    2PC     C2112411   4.770   1.392   2.473
    2PC     O2212412   4.855   1.306   2.470
    3OL     C1212413   4.635   1.373   2.537
    3OL     H2R12414   4.620   1.267   2.559
    3OL     H2S12415   4.558   1.405   2.467
    3OL     C1312416   4.625   1.457   2.666
    3OL     H3R12417   4.653   1.560   2.644
    3OL     H3S12418   4.697   1.420   2.740
    3OL     C1412419   4.484   1.457   2.726
    3OL     H4R12420   4.415   1.500   2.653
    3OL     H4S12421   4.483   1.523   2.813
    3OL     C1512422   4.432   1.319   2.769
    3OL     H5R12423   4.423   1.254   2.682
    3OL     H5S12424   4.331   1.333   2.809
    3OL     C1612425   4.519   1.252   2.875
    3OL     H6R12426   4.540   1.322   2.956
    3OL     H6S12427   4.615   1.222   2.831
    3OL     C1712428   4.449   1.128   2.931
    3OL     H7R12429   4.432   1.055   2.851
    3OL     H7S12430   4.351   1.157   2.970
    3OL     C1812431   4.530   1.062   3.044
    3OL     H8R12432   4.551   1.138   3.120
    3OL     H8S12433   4.625   1.028   3.004
    3OL     C1912434   4.450   0.951   3.106
    3OL     H9R12435   4.346   0.975   3.124
    3OL    C11012436   4.493   0.829   3.136
    3OL    H10R12437   4.423   0.758   3.179
    3OL    C11112438   4.634   0.777   3.123
    3OL    H11R12439   4.703   0.852   3.083
    3OL    H11S12440   4.634   0.693   3.052
    3OL    C11212441   4.687   0.725   3.257
    3OL    H12R12442   4.780   0.671   3.241
    3OL    H12S12443   4.614   0.655   3.299
    3OL    C11312444   4.711   0.838   3.358
    3OL    H13R12445   4.619   0.895   3.374
    3OL    H13S12446   4.786   0.907   3.318
    3OL    C11412447   4.760   0.782   3.492
    3OL    H14R12448   4.850   0.722   3.475
    3OL    H14S12449   4.683   0.716   3.534
    3OL    C11512450   4.791   0.894   3.592
    3OL    H15R12451   4.703   0.958   3.601
    3OL    H15S12452   4.871   0.957   3.553
    3OL    C11612453   4.826   0.841   3.731
    3OL    H16R12454   4.747   0.775   3.765
    3OL    H16S12455   4.829   0.925   3.802
    3OL    C11712456   4.960   0.767   3.738
    3OL    H17R12457   4.965   0.689   3.662
    3OL    H17S12458   4.967   0.716   3.835
    3OL    C11812459   5.081   0.860   3.725
    3OL    H18R12460   5.082   0.910   3.628
    3OL    H18S12461   5.174   0.804   3.735
    3OL    H18T12462   5.079   0.937   3.804
    1PA    C11612463   6.401   0.822   3.529
    1PA    H16R12464   6.351   0.851   3.437
    1PA    H16S12465   6.447   0.910   3.573
    1PA    H16T12466   6.325   0.784   3.599
    1PA    C11512467   0.058   0.713   3.502
    1PA    H15R12468   0.101   0.680   3.596
    1PA    H15S12469   0.010   0.627   3.455
    1PA    C11412470   0.169   0.767   3.411
    1PA    H14R12471   0.125   0.801   3.316
    1PA    H14S12472   0.216   0.854   3.458
    1PA    C11312473   0.276   0.661   3.382
    1PA    H13R12474   0.321   0.627   3.475
    1PA    H13S12475   0.230   0.575   3.333
    1PA    C11212476   0.385   0.720   3.291
    1PA    H12R12477   0.338   0.757   3.199
    1PA    H12S12478   0.431   0.806   3.340
    1PA    C11112479   0.493   0.617   3.254
    1PA    H11R12480   0.545   0.584   3.344
    1PA    H11S12481   0.446   0.530   3.208
    1PA    C11012482   0.592   0.680   3.156
    1PA    H10R12483   0.536   0.717   3.070
    1PA    H10S12484   0.640   0.767   3.203
    1PA     C1912485   0.700   0.581   3.110
    1PA     H9R12486   0.758   0.550   3.196
    1PA     H9S12487   0.654   0.492   3.067
    1PA     C1812488   0.794   0.646   3.007
    1PA     H8R12489   0.829   0.742   3.045
    1PA     H8S12490   0.882   0.582   2.994
    1PA     C1712491   0.726   0.664   2.870
    1PA     H7R12492   0.704   0.566   2.827
    1PA     H7S12493   0.632   0.717   2.883
    1PA     C1612494   0.814   0.744   2.773
    1PA     H6R12495   0.843   0.838   2.821
    1PA     H6S12496   0.905   0.689   2.751
    1PA     C1512497   0.737   0.774   2.644
    1PA     H5R12498   0.718   0.680   2.591
    1PA     H5S12499   0.640   0.817   2.669
    1PA     C1412500   0.813   0.871   2.553
    1PA     H4R12501   0.834   0.962   2.609
    1PA     H4S12502   0.909   0.827   2.524
    1PA     C1312503   0.731   0.905   2.428
    1PA     H3R12504   0.714   0.815   2.369
    1PA     H3S12505   0.633   0.944   2.458
    1PA     C1212506   0.803   1.010   2.343
    1PA     H2R12507   0.821   1.100   2.403
    1PA     H2S12508   0.900   0.972   2.310
    2PC     C1112509   0.722   1.048   2.222
    2PC     O1212510   0.703   0.973   2.128
    2PC     O1112511   0.676   1.174   2.228
    2PC      C112512   0.595   1.227   2.122
    2PC      HR12513   0.584   1.335   2.136
    2PC      HS12514   0.645   1.209   2.026
    2PC      C212515   0.455   1.164   2.121
    2PC      HX12516   0.463   1.055   2.119
    2PC      C312517   0.374   1.212   2.000
    2PC      HA12518   0.420   1.174   1.908
    2PC      HB12519   0.272   1.173   2.005
    2PC     O3112520   0.371   1.355   1.996
    2PC     P3112521   0.285   1.428   1.883
    2PC     O3212522   0.346   1.355   1.754
    2PC     C3112523   0.464   1.412   1.694
    2PC     H1A12524   0.442   1.512   1.655
    2PC     H1B12525   0.543   1.419   1.769
    2PC     C3212526   0.509   1.318   1.581
    2PC     H2A12527   0.600   1.358   1.537
    2PC     H2B12528   0.532   1.220   1.623
    2PC     N3112529   0.415   1.294   1.467
    2PC     C3312530   0.488   1.213   1.364
    2PC     H3A12531   0.576   1.269   1.333
    2PC     H3B12532   0.518   1.118   1.409
    2PC     H3C12533   0.421   1.196   1.280
    2PC     C3412534   0.294   1.215   1.507
    2PC     H4A12535   0.327   1.122   1.552
    2PC     H4B12536   0.236   1.274   1.579
    2PC     H4C12537   0.234   1.196   1.418
    2PC     C3512538   0.371   1.424   1.405
    2PC     H5A12539   0.313   1.480   1.478
    2PC     H5B12540   0.311   1.401   1.317
    2PC     H5C12541   0.460   1.480   1.376
    2PC     O3312542   0.140   1.399   1.893
    2PC     O3412543   0.297   1.575   1.873
    2PC     O2112544   0.385   1.206   2.239
    2PC     C2112545   0.274   1.140   2.276
    2PC     O2212546   0.238   1.034   2.229
    3OL     C1212547   0.194   1.214   2.382
    3OL     H2R12548   0.121   1.146   2.425
    3OL     H2S12549   0.140   1.295   2.332
    3OL     C1312550   0.283   1.274   2.492
    3OL     H3R12551   0.221   1.337   2.556
    3OL     H3S12552   0.359   1.339   2.448
    3OL     C1412553   0.349   1.165   2.576
    3OL     H4R12554   0.408   1.099   2.512
    3OL     H4S12555   0.272   1.105   2.624
    3OL     C1512556   0.441   1.226   2.683
    3OL     H5R12557   0.383   1.294   2.747
    3OL     H5S12558   0.519   1.285   2.635
    3OL     C1612559   0.505   1.117   2.770
    3OL     H6R12560   0.566   1.052   2.708
    3OL     H6S12561   0.427   1.056   2.816
    3OL     C1712562   0.592   1.182   2.879
    3OL     H7R12563   0.530   1.247   2.941
    3OL     H7S12564   0.669   1.243   2.832
    3OL     C1812565   0.658   1.076   2.969
    3OL     H8R12566   0.728   1.017   2.909
    3OL     H8S12567   0.582   1.007   3.007
    3OL     C1912568   0.733   1.143   3.082
    3OL     H9R12569   0.826   1.190   3.054
    3OL    C11012570   0.694   1.145   3.208
    3OL    H10R12571   0.756   1.195   3.282
    3OL    C11112572   0.565   1.087   3.261
    3OL    H11R12573   0.580   0.980   3.279
    3OL    H11S12574   0.486   1.098   3.187
    3OL    C11212575   0.522   1.151   3.393
    3OL    H12R12576   0.600   1.138   3.468
    3OL    H12S12577   0.433   1.100   3.430
    3OL    C11312578   0.491   1.301   3.379
    3OL    H13R12579   0.414   1.316   3.303
    3OL    H13S12580   0.581   1.355   3.347
    3OL    C11412581   0.443   1.357   3.514
    3OL    H14R12582   0.520   1.341   3.590
    3OL    H14S12583   0.353   1.303   3.545
    3OL    C11512584   0.411   1.507   3.505
    3OL    H15R12585   0.336   1.524   3.426
    3OL    H15S12586   0.501   1.562   3.477
    3OL    C11612587   0.358   1.559   3.639
    3OL    H16R12588   0.430   1.534   3.717
    3OL    H16S12589   0.264   1.509   3.665
    3OL    C11712590   0.337   1.711   3.638
    3OL    H17R12591   0.426   1.761   3.599
    3OL    H17S12592   0.324   1.745   3.741
    3OL    C11812593   0.213   1.753   3.558
    3OL    H18R12594   0.222   1.722   3.453
    3OL    H18S12595   0.202   1.861   3.560
    3OL    H18T12596   0.123   1.708   3.600
    1PA    C11612597   6.330   6.390   3.797
    1PA    H16R12598   6.428   6.398   3.749
    1PA    H16S12599   6.342   6.341   3.894
    1PA    H16T12600   6.290   0.042   3.813
    1PA    C11512601   6.234   6.307   3.710
    1PA    H15R12602   6.269   6.204   3.702
    1PA    H15S12603   6.136   6.305   3.759
    1PA    C11412604   6.217   6.367   3.569
    1PA    H14R12605   6.128   6.322   3.524
    1PA    H14S12606   6.199   0.026   3.575
    1PA    C11312607   6.338   6.337   3.479
    1PA    H13R12608   6.427   6.385   3.520
    1PA    H13S12609   6.356   6.230   3.477
    1PA    C11212610   6.314   6.388   3.336
    1PA    H12R12611   6.222   6.344   3.297
    1PA    H12S12612   6.302   0.048   3.337
    1PA    C11112613   6.432   6.350   3.245
    1PA    H11R12614   0.075   6.398   3.280
    1PA    H11S12615   6.447   6.242   3.250
    1PA    C11012616   6.404   6.390   3.100
    1PA    H10R12617   6.309   6.348   3.068
    1PA    H10S12618   6.397   0.051   3.092
    1PA     C1912619   0.067   6.339   3.006
    1PA     H9R12620   0.163   6.384   3.032
    1PA     H9S12621   0.077   6.231   3.021
    1PA     C1812622   0.033   6.363   2.859
    1PA     H8R12623   0.077   6.283   2.799
    1PA     H8S12624   6.372   6.357   2.845
    1PA     C1712625   0.084   0.050   2.806
    1PA     H7R12626   0.040   0.132   2.862
    1PA     H7S12627   0.193   0.055   2.818
    1PA     C1612628   0.049   0.062   2.657
    1PA     H6R12629   0.094   6.427   2.602
    1PA     H6S12630   6.388   0.053   2.647
    1PA     C1512631   0.094   0.194   2.593
    1PA     H5R12632   0.051   0.278   2.646
    1PA     H5S12633   0.203   0.202   2.599
    1PA     C1412634   0.050   0.197   2.446
    1PA     H4R12635   0.100   0.116   2.391
    1PA     H4S12636   6.391   0.178   2.441
    1PA     C1312637   0.079   0.331   2.376
    1PA     H3R12638   0.031   0.411   2.432
    1PA     H3S12639   0.187   0.350   2.375
    1PA     C1212640   0.024   0.326   2.233
    1PA     H2R12641   0.082   0.253   2.175
    1PA     H2S12642   6.369   0.291   2.236
    2PC     C1112643   0.025   0.457   2.158
    2PC     O1212644   0.001   0.464   2.040
    2PC     O1112645   0.045   0.565   2.236
    2PC      C112646   0.029   0.697   2.179
    2PC      HR12647   0.070   0.770   2.249
    2PC      HS12648   0.086   0.703   2.085
    2PC      C212649   6.330   0.728   2.152
    2PC      HX12650   6.286   0.653   2.086
    2PC      C312651   6.316   0.865   2.082
    2PC      HA12652   6.220   0.910   2.110
    2PC      HB12653   6.397   0.932   2.111
    2PC     O3112654   6.317   0.844   1.940
    2PC     P3112655   6.314   0.971   1.842
    2PC     O3212656   6.187   1.051   1.899
    2PC     C3112657   6.056   1.023   1.846
    2PC     H1A12658   6.044   0.915   1.834
    2PC     H1B12659   5.982   1.057   1.918
    2PC     C3212660   6.034   1.093   1.712
    2PC     H2A12661   6.112   1.064   1.642
    2PC     H2B12662   5.938   1.060   1.671
    2PC     N3112663   6.029   1.243   1.712
    2PC     C3312664   6.006   1.290   1.571
    2PC     H3A12665   6.003   1.399   1.571
    2PC     H3B12666   6.087   1.254   1.508
    2PC     H3C12667   5.910   1.250   1.537
    2PC     C3412668   5.918   1.294   1.798
    2PC     H4A12669   5.824   1.249   1.765
    2PC     H4B12670   5.939   1.268   1.902
    2PC     H4C12671   5.912   1.403   1.787
    2PC     C3512672   6.159   1.301   1.758
    2PC     H5A12673   6.173   1.276   1.864
    2PC     H5B12674   6.156   1.409   1.746
    2PC     H5C12675   6.239   1.258   1.698
    2PC     O3312676   6.440   1.050   1.845
    2PC     O3412677   6.298   0.937   1.699
    2PC     O2112678   6.259   0.732   2.277
    2PC     C2112679   6.209   0.617   2.325
    2PC     O2212680   6.201   0.513   2.263
    3OL     C1212681   6.165   0.627   2.469
    3OL     H2R12682   6.061   0.593   2.477
    3OL     H2S12683   6.169   0.731   2.502
    3OL     C1312684   6.256   0.541   2.558
    3OL     H3R12685   6.359   0.576   2.547
    3OL     H3S12686   6.253   0.437   2.524
    3OL     C1412687   6.216   0.547   2.706
    3OL     H4R12688   6.114   0.510   2.718
    3OL     H4S12689   6.217   0.651   2.740
    3OL     C1512690   6.313   0.464   2.791
    3OL     H5R12691   6.415   0.501   2.776
    3OL     H5S12692   6.310   0.360   2.758
    3OL     C1612693   6.277   0.471   2.940
    3OL     H6R12694   6.177   0.429   2.955
    3OL     H6S12695   6.273   0.576   2.971
    3OL     C1712696   6.380   0.396   3.025
    3OL     H7R12697   0.032   0.436   3.005
    3OL     H7S12698   6.381   0.291   2.996
    3OL     C1812699   6.351   0.406   3.175
    3OL     H8R12700   6.360   0.510   3.207
    3OL     H8S12701   6.428   0.349   3.229
    3OL     C1912702   6.216   0.349   3.209
    3OL     H9R12703   6.198   0.249   3.173
    3OL    C11012704   6.119   0.414   3.273
    3OL    H10R12705   6.024   0.363   3.288
    3OL    C11112706   6.129   0.552   3.333
    3OL    H11R12707   6.133   0.627   3.254
    3OL    H11S12708   6.220   0.560   3.393
    3OL    C11212709   6.006   0.578   3.422
    3OL    H12R12710   5.995   0.493   3.490
    3OL    H12S12711   5.916   0.581   3.360
    3OL    C11312712   6.017   0.705   3.506
    3OL    H13R12713   6.114   0.708   3.557
    3OL    H13S12714   5.941   0.700   3.585
    3OL    C11412715   5.995   0.834   3.427
    3OL    H14R12716   5.903   0.826   3.369
    3OL    H14S12717   6.077   0.851   3.358
    3OL    C11512718   5.983   0.953   3.524
    3OL    H15R12719   6.075   0.963   3.582
    3OL    H15S12720   5.901   0.934   3.594
    3OL    C11612721   5.955   1.085   3.450
    3OL    H16R12722   5.867   1.073   3.386
    3OL    H16S12723   6.039   1.111   3.387
    3OL    C11712724   5.929   1.198   3.551
    3OL    H17R12725   6.016   1.210   3.616
    3OL    H17S12726   5.844   1.171   3.615
    3OL    C11812727   5.899   1.331   3.482
    3OL    H18R12728   5.878   1.408   3.556
    3OL    H18S12729   5.811   1.322   3.417
    3OL    H18T12730   5.984   1.363   3.422
    1PA    C11612731   5.594   6.418   3.833
    1PA    H16R12732   5.691   0.006   3.799
    1PA    H16S12733   5.603   6.388   3.938
    1PA    H16T12734   5.523   0.053   3.827
    1PA    C11512735   5.546   6.301   3.747
    1PA    H15R12736   5.449   6.267   3.784
    1PA    H15S12737   5.532   6.336   3.644
    1PA    C11412738   5.646   6.185   3.751
    1PA    H14R12739   5.743   6.218   3.713
    1PA    H14S12740   5.660   6.154   3.855
    1PA    C11312741   5.599   6.063   3.670
    1PA    H13R12742   5.665   5.979   3.691
    1PA    H13S12743   5.498   6.034   3.701
    1PA    C11212744   5.601   6.090   3.519
    1PA    H12R12745   5.528   6.168   3.494
    1PA    H12S12746   5.699   6.127   3.489
    1PA    C11112747   5.567   5.963   3.438
    1PA    H11R12748   5.637   5.884   3.465
    1PA    H11S12749   5.467   5.929   3.463
    1PA    C11012750   5.578   5.993   3.288
    1PA    H10R12751   5.505   6.071   3.263
    1PA    H10S12752   5.677   6.033   3.267
    1PA     C1912753   5.552   5.872   3.199
    1PA     H9R12754   5.620   5.790   3.226
    1PA     H9S12755   5.449   5.836   3.211
    1PA     C1812756   5.577   5.913   3.053
    1PA     H8R12757   5.508   5.993   3.026
    1PA     H8S12758   5.678   5.953   3.046
    1PA     C1712759   5.560   5.797   2.953
    1PA     H7R12760   5.621   5.712   2.984
    1PA     H7S12761   5.456   5.765   2.954
    1PA     C1612762   5.599   5.840   2.811
    1PA     H6R12763   5.564   5.764   2.741
    1PA     H6S12764   5.547   5.933   2.786
    1PA     C1512765   5.750   5.857   2.796
    1PA     H5R12766   5.787   5.933   2.865
    1PA     H5S12767   5.798   5.763   2.823
    1PA     C1412768   5.796   5.894   2.654
    1PA     H4R12769   5.905   5.895   2.652
    1PA     H4S12770   5.762   5.818   2.584
    1PA     C1312771   5.744   6.032   2.609
    1PA     H3R12772   5.636   6.026   2.596
    1PA     H3S12773   5.765   6.107   2.685
    1PA     C1212774   5.809   6.074   2.476
    1PA     H2R12775   5.909   6.112   2.494
    1PA     H2S12776   5.818   5.987   2.411
    2PC     C1112777   5.726   6.177   2.405
    2PC     O1212778   5.615   6.152   2.362
    2PC     O1112779   5.786   6.296   2.392
    2PC      C112780   5.718   6.407   2.331
    2PC      HR12781   5.617   6.378   2.299
    2PC      HS12782   5.707   0.039   2.405
    2PC      C212783   5.797   0.010   2.210
    2PC      HX12784   5.748   0.100   2.172
    2PC      C312785   5.805   6.355   2.097
    2PC      HA12786   5.880   6.279   2.122
    2PC      HB12787   5.709   6.306   2.082
    2PC     O3112788   5.842   6.425   1.978
    2PC     P3112789   5.895   6.342   1.851
    2PC     O3212790   6.050   6.329   1.887
    2PC     C3112791   6.114   6.200   1.874
    2PC     H1A12792   6.207   6.202   1.931
    2PC     H1B12793   6.049   6.123   1.917
    2PC     C3212794   6.142   6.168   1.727
    2PC     H2A12795   6.178   6.066   1.721
    2PC     H2B12796   6.050   6.177   1.669
    2PC     N3112797   6.245   6.251   1.656
    2PC     C3312798   6.380   6.235   1.720
    2PC     H3A12799   6.376   6.276   1.821
    2PC     H3B12800   6.405   6.129   1.723
    2PC     H3C12801   0.005   6.289   1.660
    2PC     C3412802   6.255   6.203   1.514
    2PC     H4A12803   6.284   6.098   1.515
    2PC     H4B12804   6.158   6.216   1.467
    2PC     H4C12805   6.330   6.263   1.463
    2PC     C3512806   6.207   6.396   1.653
    2PC     H5A12807   6.282   0.002   1.595
    2PC     H5B12808   6.205   6.433   1.756
    2PC     H5C12809   6.109   6.405   1.607
    2PC     O3312810   5.827   6.211   1.837
    2PC     O3412811   5.869   6.410   1.722
    2PC     O2112812   5.931   0.042   2.251
    2PC     C2112813   5.953   0.152   2.324
    2PC     O2212814   5.868   0.236   2.347
    3OL     C1212815   6.093   0.159   2.379
    3OL     H2R12816   6.120   0.264   2.398
    3OL     H2S12817   6.162   0.121   2.303
    3OL     C1312818   6.108   0.076   2.507
    3OL     H3R12819   6.214   0.061   2.527
    3OL     H3S12820   6.064   6.425   2.492
    3OL     C1412821   6.042   0.144   2.628
    3OL     H4R12822   5.935   0.157   2.610
    3OL     H4S12823   6.086   0.244   2.642
    3OL     C1512824   6.063   0.061   2.755
    3OL     H5R12825   6.170   0.050   2.774
    3OL     H5S12826   6.022   6.409   2.739
    3OL     C1612827   5.996   0.125   2.877
    3OL     H6R12828   5.889   0.137   2.857
    3OL     H6S12829   6.038   0.224   2.896
    3OL     C1712830   6.014   0.036   3.001
    3OL     H7R12831   6.121   0.029   3.025
    3OL     H7S12832   5.979   6.383   2.977
    3OL     C1812833   5.937   0.089   3.122
    3OL     H8R12834   5.835   0.110   3.091
    3OL     H8S12835   5.982   0.183   3.157
    3OL     C1912836   5.935   6.432   3.231
    3OL     H9R12837   5.940   6.330   3.196
    3OL    C11012838   5.934   0.006   3.362
    3OL    H10R12839   5.935   6.369   3.429
    3OL    C11112840   5.923   0.140   3.430
    3OL    H11R12841   5.869   0.212   3.368
    3OL    H11S12842   6.023   0.179   3.448
    3OL    C11212843   5.853   0.124   3.566
    3OL    H12R12844   5.902   0.043   3.620
    3OL    H12S12845   5.749   0.093   3.551
    3OL    C11312846   5.859   0.251   3.652
    3OL    H13R12847   5.960   0.293   3.648
    3OL    H13S12848   5.840   0.223   3.756
    3OL    C11412849   5.756   0.356   3.610
    3OL    H14R12850   5.656   0.313   3.617
    3OL    H14S12851   5.772   0.385   3.506
    3OL    C11512852   5.765   0.480   3.700
    3OL    H15R12853   5.867   0.519   3.696
    3OL    H15S12854   5.745   0.451   3.803
    3OL    C11612855   5.666   0.589   3.657
    3OL    H16R12856   5.564   0.550   3.665
    3OL    H16S12857   5.684   0.615   3.552
    3OL    C11712858   5.679   0.714   3.744
    3OL    H17R12859   5.779   0.756   3.736
    3OL    H17S12860   5.663   0.688   3.849
    3OL    C11812861   5.576   0.820   3.703
    3OL    H18R12862   5.586   0.909   3.766
    3OL    H18S12863   5.475   0.782   3.713
    3OL    H18T12864   5.592   0.850   3.599
    1PA    C11612865   1.355   1.440   4.158
    1PA    H16R12866   1.314   1.370   4.085
    1PA    H16S12867   1.354   1.392   4.255
    1PA    H16T12868   1.459   1.462   4.131
    1PA    C11512869   1.270   1.568   4.161
    1PA    H15R12870   1.166   1.541   4.179
    1PA    H15S12871   1.304   1.628   4.246
    1PA    C11412872   1.283   1.652   4.033
    1PA    H14R12873   1.242   1.751   4.054
    1PA    H14S12874   1.388   1.666   4.009
    1PA    C11312875   1.208   1.593   3.913
    1PA    H13R12876   1.248   1.494   3.889
    1PA    H13S12877   1.102   1.581   3.938
    1PA    C11212878   1.223   1.685   3.792
    1PA    H12R12879   1.186   1.785   3.818
    1PA    H12S12880   1.328   1.695   3.767
    1PA    C11112881   1.146   1.635   3.669
    1PA    H11R12882   1.180   1.535   3.642
    1PA    H11S12883   1.039   1.629   3.692
    1PA    C11012884   1.167   1.731   3.551
    1PA    H10R12885   1.138   1.832   3.580
    1PA    H10S12886   1.274   1.734   3.526
    1PA     C1912887   1.087   1.690   3.427
    1PA     H9R12888   1.115   1.588   3.397
    1PA     H9S12889   0.980   1.689   3.451
    1PA     C1812890   1.114   1.787   3.311
    1PA     H8R12891   1.091   1.889   3.343
    1PA     H8S12892   1.219   1.783   3.284
    1PA     C1712893   1.028   1.754   3.188
    1PA     H7R12894   1.047   1.651   3.156
    1PA     H7S12895   0.922   1.762   3.214
    1PA     C1612896   1.060   1.849   3.072
    1PA     H6R12897   1.046   1.953   3.105
    1PA     H6S12898   1.164   1.837   3.042
    1PA     C1512899   0.968   1.822   2.951
    1PA     H5R12900   0.981   1.719   2.919
    1PA     H5S12901   0.864   1.836   2.981
    1PA     C1412902   1.000   1.916   2.834
    1PA     H4R12903   0.997   2.019   2.868
    1PA     H4S12904   1.102   1.896   2.798
    1PA     C1312905   0.900   1.898   2.719
    1PA     H3R12906   0.905   1.795   2.682
    1PA     H3S12907   0.799   1.915   2.757
    1PA     C1212908   0.930   1.995   2.604
    1PA     H2R12909   0.929   2.097   2.643
    1PA     H2S12910   1.030   1.976   2.564
    2PC     C1112911   0.830   1.988   2.492
    2PC     O1212912   0.861   1.998   2.375
    2PC     O1112913   0.702   1.979   2.534
    2PC      C112914   0.597   1.973   2.437
    2PC      HR12915   0.601   2.059   2.370
    2PC      HS12916   0.607   1.881   2.378
    2PC      C212917   0.463   1.972   2.512
    2PC      HX12918   0.466   1.892   2.587
    2PC      C312919   0.343   1.943   2.420
    2PC      HA12920   0.353   1.843   2.378
    2PC      HB12921   0.251   1.947   2.480
    2PC     O3112922   0.334   2.038   2.313
    2PC     P3112923   0.213   2.022   2.209
    2PC     O3212924   0.087   2.044   2.305
    2PC     C3112925   6.406   2.059   2.243
    2PC     H1A12926   6.404   2.153   2.188
    2PC     H1B12927   6.386   1.977   2.174
    2PC     C3212928   6.299   2.063   2.354
    2PC     H2A12929   6.336   2.124   2.437
    2PC     H2B12930   6.208   2.109   2.315
    2PC     N3112931   6.255   1.932   2.413
    2PC     C3312932   6.158   1.963   2.523
    2PC     H3A12933   6.075   2.019   2.480
    2PC     H3B12934   6.123   1.869   2.565
    2PC     H3C12935   6.210   2.022   2.598
    2PC     C3412936   6.185   1.848   2.310
    2PC     H4A12937   6.257   1.817   2.234
    2PC     H4B12938   6.144   1.760   2.361
    2PC     H4C12939   6.105   1.907   2.266
    2PC     C3512940   6.370   1.855   2.470
    2PC     H5A12941   6.330   1.765   2.517
    2PC     H5B12942   6.421   1.918   2.543
    2PC     H5C12943   6.438   1.828   2.389
    2PC     O3312944   0.221   2.121   2.098
    2PC     O3412945   0.209   1.888   2.145
    2PC     O2112946   0.445   2.100   2.575
    2PC     C2112947   0.475   2.111   2.706
    2PC     O2212948   0.490   2.017   2.781
    3OL     C1212949   0.484   2.255   2.751
    3OL     H2R12950   0.414   2.315   2.693
    3OL     H2S12951   0.584   2.292   2.730
    3OL     C1312952   0.452   2.268   2.901
    3OL     H3R12953   0.521   2.205   2.957
    3OL     H3S12954   0.351   2.231   2.919
    3OL     C1412955   0.465   2.413   2.949
    3OL     H4R12956   0.410   2.479   2.882
    3OL     H4S12957   0.570   2.443   2.945
    3OL     C1512958   0.411   2.434   3.092
    3OL     H5R12959   0.303   2.423   3.091
    3OL     H5S12960   0.432   2.537   3.121
    3OL     C1612961   0.472   2.338   3.195
    3OL     H6R12962   0.581   2.345   3.193
    3OL     H6S12963   0.446   2.236   3.167
    3OL     C1712964   0.420   2.363   3.337
    3OL     H7R12965   0.442   2.274   3.397
    3OL     H7S12966   0.312   2.375   3.336
    3OL     C1812967   0.487   2.484   3.404
    3OL     H8R12968   0.462   2.574   3.346
    3OL     H8S12969   0.595   2.471   3.401
    3OL     C1912970   0.438   2.501   3.545
    3OL     H9R12971   0.338   2.461   3.564
    3OL    C11012972   0.505   2.554   3.646
    3OL    H10R12973   0.458   2.559   3.744
    3OL    C11112974   0.643   2.615   3.639
    3OL    H11R12975   0.637   2.720   3.669
    3OL    H11S12976   0.681   2.615   3.536
    3OL    C11212977   0.743   2.542   3.729
    3OL    H12R12978   0.843   2.583   3.712
    3OL    H12S12979   0.746   2.437   3.698
    3OL    C11312980   0.709   2.548   3.878
    3OL    H13R12981   0.773   2.477   3.931
    3OL    H13S12982   0.606   2.516   3.895
    3OL    C11412983   0.732   2.688   3.938
    3OL    H14R12984   0.670   2.762   3.886
    3OL    H14S12985   0.836   2.716   3.922
    3OL    C11512986   0.702   2.693   4.088
    3OL    H15R12987   0.744   2.785   4.129
    3OL    H15S12988   0.752   2.610   4.139
    3OL    C11612989   0.552   2.689   4.117
    3OL    H16R12990   0.508   2.598   4.077
    3OL    H16S12991   0.503   2.774   4.068
    3OL    C11712992   0.524   2.696   4.268
    3OL    H17R12993   0.563   2.789   4.309
    3OL    H17S12994   0.575   2.614   4.319
    3OL    C11812995   0.373   2.688   4.296
    3OL    H18R12996   0.332   2.593   4.260
    3OL    H18S12997   0.320   2.769   4.247
    3OL    H18T12998   0.354   2.694   4.404
    1PA    C11612999   4.243   6.136   3.785
    1PA    H16R13000   4.190   6.157   3.878
    1PA    H16S13001   4.170   6.100   3.711
    1PA    H16T13002   4.287   6.229   3.748
    1PA    C11513003   4.352   6.030   3.808
    1PA    H15R13004   4.423   6.068   3.882
    1PA    H15S13005   4.306   5.940   3.849
    1PA    C11413006   4.425   5.997   3.677
    1PA    H14R13007   4.353   5.958   3.605
    1PA    H14S13008   4.467   6.088   3.636
    1PA    C11313009   4.535   5.893   3.700
    1PA    H13R13010   4.612   5.933   3.767
    1PA    H13S13011   4.492   5.806   3.749
    1PA    C11213012   4.599   5.847   3.569
    1PA    H12R13013   4.661   5.759   3.588
    1PA    H12S13014   4.520   5.815   3.500
    1PA    C11113015   4.686   5.955   3.503
    1PA    H11R13016   4.628   6.047   3.493
    1PA    H11S13017   4.773   5.977   3.565
    1PA    C11013018   4.730   5.911   3.362
    1PA    H10R13019   4.647   5.861   3.312
    1PA    H10S13020   4.752   6.001   3.303
    1PA     C1913021   4.854   5.821   3.362
    1PA     H9R13022   4.940   5.878   3.397
    1PA     H9S13023   4.839   5.737   3.431
    1PA     C1813024   4.878   5.768   3.220
    1PA     H8R13025   4.795   5.702   3.194
    1PA     H8S13026   4.876   5.851   3.150
    1PA     C1713027   5.010   5.692   3.208
    1PA     H7R13028   5.094   5.756   3.237
    1PA     H7S13029   5.009   5.607   3.278
    1PA     C1613030   5.032   5.638   3.066
    1PA     H6R13031   5.114   5.566   3.069
    1PA     H6S13032   4.943   5.585   3.033
    1PA     C1513033   5.068   5.748   2.965
    1PA     H5R13034   4.990   5.824   2.963
    1PA     H5S13035   5.161   5.796   2.996
    1PA     C1413036   5.085   5.690   2.824
    1PA     H4R13037   5.158   5.608   2.826
    1PA     H4S13038   4.990   5.649   2.789
    1PA     C1313039   5.133   5.799   2.727
    1PA     H3R13040   5.063   5.882   2.727
    1PA     H3S13041   5.229   5.836   2.762
    1PA     C1213042   5.147   5.746   2.583
    1PA     H2R13043   5.213   5.659   2.583
    1PA     H2S13044   5.050   5.715   2.546
    2PC     C1113045   5.204   5.848   2.488
    2PC     O1213046   5.206   5.832   2.367
    2PC     O1113047   5.265   5.951   2.549
    2PC      C113048   5.333   6.052   2.473
    2PC      HR13049   5.389   6.116   2.542
    2PC      HS13050   5.403   6.004   2.405
    2PC      C213051   5.234   6.139   2.394
    2PC      HX13052   5.180   6.079   2.321
    2PC      C313053   5.310   6.251   2.321
    2PC      HA13054   5.339   6.327   2.393
    2PC      HB13055   5.399   6.212   2.271
    2PC     O3113056   5.224   6.310   2.222
    2PC     P3113057   5.213   6.241   2.077
    2PC     O3213058   5.147   6.362   1.997
    2PC     C3113059   5.006   6.387   2.014
    2PC     H1A13060   4.950   6.300   1.981
    2PC     H1B13061   4.985   6.408   2.120
    2PC     C3213062   4.974   0.062   1.927
    2PC     H2A13063   5.025   0.149   1.969
    2PC     H2B13064   5.013   0.044   1.827
    2PC     N3113065   4.831   0.101   1.910
    2PC     C3313066   4.770   0.141   2.041
    2PC     H3A13067   4.825   0.227   2.080
    2PC     H3B13068   4.666   0.168   2.024
    2PC     H3C13069   4.777   0.057   2.110
    2PC     C3413070   4.826   0.219   1.817
    2PC     H4A13071   4.874   0.191   1.723
    2PC     H4B13072   4.722   0.246   1.800
    2PC     H4C13073   4.880   0.301   1.864
    2PC     C3513074   4.751   6.438   1.849
    2PC     H5A13075   4.648   0.024   1.838
    2PC     H5B13076   4.754   6.352   1.917
    2PC     H5C13077   4.795   6.412   1.753
    2PC     O3313078   5.345   6.205   2.021
    2PC     O3413079   5.131   6.118   2.074
    2PC     O2113080   5.146   6.204   2.487
    2PC     C2113081   5.021   6.156   2.503
    2PC     O2213082   4.975   6.063   2.439
    3OL     C1213083   4.945   6.229   2.611
    3OL     H2R13084   4.838   6.224   2.588
    3OL     H2S13085   4.975   6.334   2.611
    3OL     C1313086   4.972   6.164   2.747
    3OL     H3R13087   5.080   6.163   2.766
    3OL     H3S13088   4.938   6.060   2.745
    3OL     C1413089   4.900   6.238   2.860
    3OL     H4R13090   4.794   6.245   2.836
    3OL     H4S13091   4.939   6.340   2.869
    3OL     C1513092   4.915   6.165   2.995
    3OL     H5R13093   4.884   6.061   2.983
    3OL     H5S13094   4.847   6.211   3.067
    3OL     C1613095   5.058   6.172   3.050
    3OL     H6R13096   5.088   6.276   3.063
    3OL     H6S13097   5.127   6.125   2.980
    3OL     C1713098   5.066   6.098   3.184
    3OL     H7R13099   5.040   5.993   3.169
    3OL     H7S13100   4.994   6.140   3.255
    3OL     C1813101   5.207   6.105   3.245
    3OL     H8R13102   5.234   6.209   3.263
    3OL     H8S13103   5.279   6.065   3.173
    3OL     C1913104   5.213   6.022   3.371
    3OL     H9R13105   5.215   5.915   3.355
    3OL    C11013106   5.222   6.070   3.494
    3OL    H10R13107   5.229   6.000   3.577
    3OL    C11113108   5.217   6.215   3.532
    3OL    H11R13109   5.153   6.271   3.463
    3OL    H11S13110   5.317   6.258   3.527
    3OL    C11213111   5.164   6.233   3.675
    3OL    H12R13112   5.226   6.177   3.745
    3OL    H12S13113   5.062   6.193   3.682
    3OL    C11313114   5.163   6.381   3.715
    3OL    H13R13115   5.096   6.436   3.648
    3OL    H13S13116   5.263   6.423   3.702
    3OL    C11413117   5.118   6.400   3.860
    3OL    H14R13118   5.185   6.344   3.926
    3OL    H14S13119   5.017   6.361   3.873
    3OL    C11513120   5.121   0.101   3.899
    3OL    H15R13121   5.052   0.156   3.835
    3OL    H15S13122   5.221   0.141   3.882
    3OL    C11613123   5.082   0.122   4.046
    3OL    H16R13124   5.151   0.066   4.109
    3OL    H16S13125   4.982   0.083   4.063
    3OL    C11713126   5.088   0.270   4.083
    3OL    H17R13127   5.017   0.326   4.021
    3OL    H17S13128   5.188   0.310   4.063
    3OL    C11813129   5.054   0.292   4.231
    3OL    H18R13130   4.953   0.258   4.253
    3OL    H18S13131   5.060   0.399   4.255
    3OL    H18T13132   5.124   0.238   4.295
    1PA    C11613133   4.906   0.362   3.511
    1PA    H16R13134   4.855   0.385   3.604
    1PA    H16S13135   4.852   0.282   3.461
    1PA    H16T13136   4.905   0.450   3.447
    1PA    C11513137   5.051   0.318   3.539
    1PA    H15R13138   5.050   0.227   3.600
    1PA    H15S13139   5.099   0.294   3.444
    1PA    C11413140   5.128   0.429   3.611
    1PA    H14R13141   5.129   0.519   3.548
    1PA    H14S13142   5.074   0.456   3.703
    1PA    C11313143   5.272   0.391   3.648
    1PA    H13R13144   5.315   0.474   3.703
    1PA    H13S13145   5.272   0.305   3.716
    1PA    C11213146   5.360   0.363   3.526
    1PA    H12R13147   5.317   0.410   3.437
    1PA    H12S13148   5.458   0.408   3.542
    1PA    C11113149   5.380   0.213   3.501
    1PA    H11R13150   5.427   0.167   3.587
    1PA    H11S13151   5.283   0.164   3.485
    1PA    C11013152   5.468   0.192   3.377
    1PA    H10R13153   5.421   0.240   3.291
    1PA    H10S13154   5.565   0.239   3.392
    1PA     C1913155   5.487   0.042   3.346
    1PA     H9R13156   5.542   6.442   3.427
    1PA     H9S13157   5.390   6.441   3.339
    1PA     C1813158   5.564   0.025   3.214
    1PA     H8R13159   5.512   0.082   3.136
    1PA     H8S13160   5.664   0.068   3.225
    1PA     C1713161   5.573   6.325   3.175
    1PA     H7R13162   5.625   6.271   3.254
    1PA     H7S13163   5.472   6.284   3.168
    1PA     C1613164   5.647   6.300   3.042
    1PA     H6R13165   5.753   6.322   3.057
    1PA     H6S13166   5.640   6.194   3.017
    1PA     C1513167   5.596   6.384   2.924
    1PA     H5R13168   5.612   0.042   2.944
    1PA     H5S13169   5.657   6.360   2.836
    1PA     C1413170   5.449   6.358   2.891
    1PA     H4R13171   5.436   6.254   2.857
    1PA     H4S13172   5.387   6.372   2.979
    1PA     C1313173   5.402   0.006   2.781
    1PA     H3R13174   5.416   0.109   2.816
    1PA     H3S13175   5.463   6.442   2.692
    1PA     C1213176   5.254   6.433   2.746
    1PA     H2R13177   5.243   6.340   2.689
    1PA     H2S13178   5.194   6.425   2.837
    2PC     C1113179   5.201   0.100   2.663
    2PC     O1213180   5.096   0.155   2.686
    2PC     O1113181   5.285   0.134   2.564
    2PC      C113182   5.256   0.252   2.486
    2PC      HR13183   5.162   0.238   2.432
    2PC      HS13184   5.245   0.338   2.552
    2PC      C213185   5.371   0.274   2.387
    2PC      HX13186   5.355   0.368   2.333
    2PC      C313187   5.381   0.156   2.290
    2PC      HA13188   5.425   0.071   2.343
    2PC      HB13189   5.282   0.127   2.254
    2PC     O3113190   5.465   0.188   2.177
    2PC     P3113191   5.411   0.289   2.065
    2PC     O3213192   5.432   0.205   1.930
    2PC     C3113193   5.561   0.150   1.901
    2PC     H1A13194   5.637   0.228   1.913
    2PC     H1B13195   5.583   0.068   1.969
    2PC     C3213196   5.560   0.103   1.755
    2PC     H2A13197   5.521   0.184   1.693
    2PC     H2B13198   5.662   0.082   1.723
    2PC     N3113199   5.480   6.429   1.720
    2PC     C3313200   5.342   6.432   1.780
    2PC     H3A13201   5.287   6.345   1.744
    2PC     H3B13202   5.351   6.427   1.888
    2PC     H3C13203   5.293   0.076   1.750
    2PC     C3413204   5.467   6.423   1.571
    2PC     H4A13205   5.412   0.064   1.538
    2PC     H4B13206   5.567   6.421   1.528
    2PC     H4C13207   5.412   6.332   1.545
    2PC     C3513208   5.549   6.305   1.768
    2PC     H5A13209   5.554   6.307   1.877
    2PC     H5B13210   5.649   6.302   1.725
    2PC     H5C13211   5.491   6.219   1.735
    2PC     O3313212   5.267   0.321   2.078
    2PC     O3413213   5.478   0.420   2.062
    2PC     O2113214   5.495   0.281   2.460
    2PC     C2113215   5.521   0.385   2.540
    2PC     O2213216   5.450   0.484   2.549
    3OL     C1213217   5.646   0.363   2.621
    3OL     H2R13218   5.725   0.327   2.555
    3OL     H2S13219   5.625   0.284   2.693
    3OL     C1313220   5.693   0.490   2.693
    3OL     H3R13221   5.609   0.540   2.743
    3OL     H3S13222   5.732   0.560   2.619
    3OL     C1413223   5.803   0.459   2.796
    3OL     H4R13224   5.863   0.549   2.814
    3OL     H4S13225   5.871   0.384   2.754
    3OL     C1513226   5.746   0.409   2.929
    3OL     H5R13227   5.824   0.353   2.982
    3OL     H5S13228   5.663   0.341   2.911
    3OL     C1613229   5.702   0.525   3.019
    3OL     H6R13230   5.635   0.591   2.963
    3OL     H6S13231   5.790   0.584   3.048
    3OL     C1713232   5.630   0.475   3.145
    3OL     H7R13233   5.692   0.401   3.196
    3OL     H7S13234   5.538   0.425   3.116
    3OL     C1813235   5.598   0.588   3.244
    3OL     H8R13236   5.691   0.624   3.288
    3OL     H8S13237   5.538   0.547   3.326
    3OL     C1913238   5.527   0.704   3.178
    3OL     H9R13239   5.589   0.762   3.109
    3OL    C11013240   5.402   0.741   3.197
    3OL    H10R13241   5.363   0.825   3.140
    3OL    C11113242   5.302   0.671   3.286
    3OL    H11R13243   5.336   0.675   3.390
    3OL    H11S13244   5.297   0.566   3.258
    3OL    C11213245   5.161   0.730   3.277
    3OL    H12R13246   5.094   0.661   3.330
    3OL    H12S13247   5.128   0.732   3.173
    3OL    C11313248   5.147   0.868   3.342
    3OL    H13R13249   5.219   0.877   3.423
    3OL    H13S13250   5.048   0.875   3.388
    3OL    C11413251   5.164   0.986   3.245
    3OL    H14R13252   5.253   0.973   3.184
    3OL    H14S13253   5.178   1.077   3.304
    3OL    C11513254   5.041   1.006   3.155
    3OL    H15R13255   4.955   1.031   3.216
    3OL    H15S13256   5.018   0.913   3.101
    3OL    C11613257   5.066   1.118   3.053
    3OL    H16R13258   5.150   1.090   2.988
    3OL    H16S13259   5.094   1.210   3.105
    3OL    C11713260   4.942   1.143   2.967
    3OL    H17R13261   4.858   1.171   3.031
    3OL    H17S13262   4.914   1.052   2.915
    3OL    C11813263   4.967   1.255   2.865
    3OL    H18R13264   4.877   1.272   2.805
    3OL    H18S13265   5.048   1.228   2.798
    3OL    H18T13266   4.993   1.348   2.915
    1PA    C11613267   4.441   4.559   3.387
    1PA    H16R13268   4.496   4.599   3.472
    1PA    H16S13269   4.338   4.541   3.419
    1PA    H16T13270   4.440   4.634   3.308
    1PA    C11513271   4.505   4.429   3.339
    1PA    H15R13272   4.608   4.448   3.307
    1PA    H15S13273   4.509   4.357   3.421
    1PA    C11413274   4.425   4.369   3.222
    1PA    H14R13275   4.321   4.355   3.255
    1PA    H14S13276   4.423   4.439   3.138
    1PA    C11313277   4.480   4.233   3.177
    1PA    H13R13278   4.500   4.170   3.264
    1PA    H13S13279   4.403   4.182   3.119
    1PA    C11213280   4.606   4.246   3.090
    1PA    H12R13281   4.583   4.305   3.001
    1PA    H12S13282   4.684   4.297   3.145
    1PA    C11113283   4.656   4.107   3.048
    1PA    H11R13284   4.685   4.050   3.137
    1PA    H11S13285   4.575   4.053   2.999
    1PA    C11013286   4.776   4.117   2.952
    1PA    H10R13287   4.744   4.167   2.860
    1PA    H10S13288   4.852   4.180   2.998
    1PA     C1913289   4.838   3.981   2.919
    1PA     H9R13290   4.923   3.997   2.853
    1PA     H9S13291   4.876   3.935   3.011
    1PA     C1813292   4.741   3.884   2.851
    1PA     H8R13293   4.659   3.861   2.920
    1PA     H8S13294   4.696   3.931   2.763
    1PA     C1713295   4.809   3.752   2.813
    1PA     H7R13296   4.874   3.721   2.895
    1PA     H7S13297   4.733   3.674   2.803
    1PA     C1613298   4.891   3.759   2.683
    1PA     H6R13299   4.960   3.843   2.689
    1PA     H6S13300   4.951   3.669   2.675
    1PA     C1513301   4.807   3.773   2.556
    1PA     H5R13302   4.743   3.861   2.561
    1PA     H5S13303   4.875   3.789   2.472
    1PA     C1413304   4.721   3.649   2.526
    1PA     H4R13305   4.784   3.560   2.524
    1PA     H4S13306   4.647   3.635   2.605
    1PA     C1313307   4.648   3.664   2.392
    1PA     H3R13308   4.587   3.754   2.393
    1PA     H3S13309   4.722   3.675   2.312
    1PA     C1213310   4.560   3.542   2.361
    1PA     H2R13311   4.619   3.451   2.364
    1PA     H2S13312   4.481   3.533   2.437
    2PC     C1113313   4.495   3.553   2.225
    2PC     O1213314   4.511   3.646   2.149
    2PC     O1113315   4.415   3.448   2.197
    2PC      C113316   4.348   3.451   2.070
    2PC      HR13317   4.280   3.536   2.065
    2PC      HS13318   4.423   3.462   1.991
    2PC      C213319   4.271   3.321   2.047
    2PC      HX13320   4.337   3.236   2.068
    2PC      C313321   4.221   3.314   1.902
    2PC      HA13322   4.306   3.301   1.836
    2PC      HB13323   4.152   3.230   1.888
    2PC     O3113324   4.153   3.437   1.871
    2PC     P3113325   4.148   3.490   1.720
    2PC     O3213326   4.302   3.530   1.701
    2PC     C3113327   4.336   3.611   1.587
    2PC     H1A13328   4.317   3.555   1.494
    2PC     H1B13329   4.274   3.700   1.587
    2PC     C3213330   4.483   3.653   1.598
    2PC     H2A13331   4.503   3.729   1.522
    2PC     H2B13332   4.500   3.697   1.696
    2PC     N3113333   4.589   3.548   1.579
    2PC     C3313334   4.723   3.613   1.593
    2PC     H3A13335   4.733   3.689   1.515
    2PC     H3B13336   4.729   3.659   1.691
    2PC     H3C13337   4.801   3.537   1.581
    2PC     C3413338   4.579   3.441   1.683
    2PC     H4A13339   4.661   3.371   1.670
    2PC     H4B13340   4.585   3.489   1.782
    2PC     H4C13341   4.483   3.390   1.672
    2PC     C3513342   4.580   3.486   1.443
    2PC     H5A13343   4.586   3.565   1.368
    2PC     H5B13344   4.485   3.433   1.434
    2PC     H5C13345   4.663   3.416   1.430
    2PC     O3313346   4.100   3.391   1.620
    2PC     O3413347   4.060   3.609   1.707
    2PC     O2113348   4.157   3.318   2.135
    2PC     C2113349   4.106   3.199   2.171
    2PC     O2213350   4.163   3.093   2.155
    3OL     C1213351   3.971   3.212   2.237
    3OL     H2R13352   3.894   3.192   2.163
    3OL     H2S13353   3.958   3.316   2.271
    3OL     C1313354   3.954   3.119   2.358
    3OL     H3R13355   4.035   3.135   2.430
    3OL     H3S13356   3.959   3.015   2.325
    3OL     C1413357   3.819   3.147   2.425
    3OL     H4R13358   3.739   3.135   2.351
    3OL     H4S13359   3.816   3.250   2.460
    3OL     C1513360   3.792   3.051   2.542
    3OL     H5R13361   3.869   3.066   2.619
    3OL     H5S13362   3.798   2.948   2.508
    3OL     C1613363   3.654   3.079   2.602
    3OL     H6R13364   3.579   3.075   2.522
    3OL     H6S13365   3.652   3.179   2.645
    3OL     C1713366   3.617   2.976   2.710
    3OL     H7R13367   3.690   2.981   2.791
    3OL     H7S13368   3.621   2.876   2.668
    3OL     C1813369   3.477   3.001   2.768
    3OL     H8R13370   3.478   3.095   2.823
    3OL     H8S13371   3.456   2.922   2.841
    3OL     C1913372   3.370   2.999   2.662
    3OL     H9R13373   3.364   2.906   2.605
    3OL    C11013374   3.286   3.097   2.633
    3OL    H10R13375   3.214   3.082   2.553
    3OL    C11113376   3.280   3.233   2.697
    3OL    H11R13377   3.261   3.308   2.619
    3OL    H11S13378   3.376   3.260   2.742
    3OL    C11213379   3.169   3.244   2.802
    3OL    H12R13380   3.072   3.224   2.756
    3OL    H12S13381   3.167   3.347   2.840
    3OL    C11313382   3.192   3.147   2.919
    3OL    H13R13383   3.291   3.164   2.960
    3OL    H13S13384   3.188   3.044   2.882
    3OL    C11413385   3.087   3.165   3.030
    3OL    H14R13386   2.987   3.148   2.989
    3OL    H14S13387   3.091   3.267   3.068
    3OL    C11513388   3.115   3.066   3.144
    3OL    H15R13389   3.218   3.078   3.177
    3OL    H15S13390   3.104   2.964   3.106
    3OL    C11613391   3.020   3.088   3.262
    3OL    H16R13392   2.917   3.085   3.226
    3OL    H16S13393   3.037   3.188   3.304
    3OL    C11713394   3.037   2.983   3.372
    3OL    H17R13395   3.010   2.884   3.333
    3OL    H17S13396   2.967   3.006   3.453
    3OL    C11813397   3.179   2.978   3.430
    3OL    H18R13398   3.182   2.910   3.515
    3OL    H18S13399   3.211   3.077   3.463
    3OL    H18T13400   3.250   2.941   3.355
    1PA    C11613401   0.098   5.773   3.576
    1PA    H16R13402   0.194   5.821   3.552
    1PA    H16S13403   0.101   5.670   3.540
    1PA    H16T13404   0.087   5.772   3.684
    1PA    C11513405   6.430   5.849   3.511
    1PA    H15R13406   6.336   5.801   3.538
    1PA    H15S13407   6.427   5.951   3.550
    1PA    C11413408   6.444   5.853   3.358
    1PA    H14R13409   0.090   5.902   3.331
    1PA    H14S13410   6.448   5.751   3.319
    1PA    C11313411   6.326   5.927   3.294
    1PA    H13R13412   6.234   5.873   3.314
    1PA    H13S13413   6.317   6.027   3.337
    1PA    C11213414   6.345   5.940   3.142
    1PA    H12R13415   6.436   5.997   3.121
    1PA    H12S13416   6.357   5.840   3.098
    1PA    C11113417   6.225   6.009   3.076
    1PA    H11R13418   6.135   5.947   3.090
    1PA    H11S13419   6.206   6.105   3.124
    1PA    C11013420   6.250   6.030   2.926
    1PA    H10R13421   6.335   6.098   2.914
    1PA    H10S13422   6.277   5.935   2.880
    1PA     C1913423   6.127   6.088   2.855
    1PA     H9R13424   6.050   6.012   2.847
    1PA     H9S13425   6.087   6.170   2.914
    1PA     C1813426   6.161   6.142   2.715
    1PA     H8R13427   6.071   6.185   2.671
    1PA     H8S13428   6.233   6.224   2.727
    1PA     C1713429   6.217   6.036   2.620
    1PA     H7R13430   6.303   5.984   2.664
    1PA     H7S13431   6.140   5.961   2.601
    1PA     C1613432   6.261   6.098   2.486
    1PA     H6R13433   6.270   6.017   2.412
    1PA     H6S13434   6.183   6.166   2.450
    1PA     C1513435   6.395   6.171   2.498
    1PA     H5R13436   6.387   6.247   2.576
    1PA     H5S13437   0.025   6.101   2.528
    1PA     C1413438   6.436   6.241   2.367
    1PA     H4R13439   6.352   6.301   2.330
    1PA     H4S13440   0.070   6.310   2.389
    1PA     C1313441   0.035   6.142   2.260
    1PA     H3R13442   0.121   6.087   2.296
    1PA     H3S13443   6.404   6.069   2.239
    1PA     C1213444   0.071   6.215   2.130
    1PA     H2R13445   6.431   6.264   2.088
    1PA     H2S13446   0.146   6.292   2.150
    2PC     C1113447   0.127   6.118   2.028
    2PC     O1213448   0.057   6.054   1.952
    2PC     O1113449   0.261   6.114   2.031
    2PC      C113450   0.330   6.015   1.953
    2PC      HR13451   0.289   5.916   1.974
    2PC      HS13452   0.318   6.037   1.847
    2PC      C213453   0.478   6.020   1.995
    2PC      HX13454   0.510   6.124   1.997
    2PC      C313455   0.570   5.942   1.900
    2PC      HA13456   0.566   5.988   1.801
    2PC      HB13457   0.673   5.947   1.936
    2PC     O3113458   0.531   5.804   1.889
    2PC     P3113459   0.607   5.716   1.780
    2PC     O3213460   0.532   5.575   1.786
    2PC     C3113461   0.399   5.570   1.730
    2PC     H1A13462   0.333   5.628   1.795
    2PC     H1B13463   0.398   5.614   1.630
    2PC     C3213464   0.354   5.423   1.724
    2PC     H2A13465   0.388   5.372   1.814
    2PC     H2B13466   0.245   5.420   1.722
    2PC     N3113467   0.400   5.342   1.607
    2PC     C3313468   0.364   5.198   1.631
    2PC     H3A13469   0.395   5.140   1.544
    2PC     H3B13470   0.417   5.164   1.719
    2PC     H3C13471   0.256   5.191   1.645
    2PC     C3413472   0.328   5.387   1.482
    2PC     H4A13473   0.221   5.379   1.499
    2PC     H4B13474   0.356   5.491   1.462
    2PC     H4C13475   0.360   5.324   1.400
    2PC     C3513476   0.548   5.351   1.585
    2PC     H5A13477   0.575   5.455   1.568
    2PC     H5B13478   0.574   5.290   1.499
    2PC     H5C13479   0.598   5.312   1.674
    2PC     O3313480   0.597   5.772   1.643
    2PC     O3413481   0.752   5.701   1.807
    2PC     O2113482   0.484   5.965   2.128
    2PC     C2113483   0.588   5.992   2.208
    2PC     O2213484   0.686   6.057   2.174
    3OL     C1213485   0.569   5.939   2.347
    3OL     H2R13486   0.487   5.866   2.346
    3OL     H2S13487   0.538   6.022   2.411
    3OL     C1313488   0.696   5.875   2.404
    3OL     H3R13489   0.780   5.944   2.391
    3OL     H3S13490   0.720   5.784   2.347
    3OL     C1413491   0.682   5.843   2.553
    3OL     H4R13492   0.641   5.929   2.606
    3OL     H4S13493   0.782   5.825   2.593
    3OL     C1513494   0.595   5.719   2.578
    3OL     H5R13495   0.641   5.632   2.531
    3OL     H5S13496   0.497   5.733   2.531
    3OL     C1613497   0.573   5.690   2.727
    3OL     H6R13498   0.503   5.607   2.735
    3OL     H6S13499   0.525   5.777   2.774
    3OL     C1713500   0.702   5.656   2.802
    3OL     H7R13501   0.770   5.742   2.799
    3OL     H7S13502   0.752   5.573   2.753
    3OL     C1813503   0.677   5.620   2.949
    3OL     H8R13504   0.621   5.701   2.996
    3OL     H8S13505   0.773   5.612   3.000
    3OL     C1913506   0.598   5.492   2.961
    3OL     H9R13507   0.495   5.497   2.926
    3OL    C11013508   0.644   5.377   3.009
    3OL    H10R13509   0.578   5.291   3.013
    3OL    C11113510   0.784   5.354   3.061
    3OL    H11R13511   0.812   5.435   3.128
    3OL    H11S13512   0.854   5.353   2.978
    3OL    C11213513   0.797   5.220   3.136
    3OL    H12R13514   0.901   5.206   3.163
    3OL    H12S13515   0.768   5.138   3.069
    3OL    C11313516   0.710   5.217   3.262
    3OL    H13R13517   0.605   5.231   3.234
    3OL    H13S13518   0.736   5.300   3.328
    3OL    C11413519   0.721   5.084   3.339
    3OL    H14R13520   0.688   5.003   3.274
    3OL    H14S13521   0.651   5.086   3.423
    3OL    C11513522   0.862   5.051   3.391
    3OL    H15R13523   0.927   5.032   3.306
    3OL    H15S13524   0.857   4.959   3.448
    3OL    C11613525   0.925   5.160   3.478
    3OL    H16R13526   0.940   5.251   3.419
    3OL    H16S13527   1.024   5.126   3.509
    3OL    C11713528   0.843   5.192   3.604
    3OL    H17R13529   0.825   5.101   3.660
    3OL    H17S13530   0.746   5.233   3.575
    3OL    C11813531   0.916   5.294   3.693
    3OL    H18R13532   1.013   5.254   3.724
    3OL    H18S13533   0.857   5.315   3.782
    3OL    H18T13534   0.933   5.387   3.639
    1PA    C11613535   2.775   3.361   3.760
    1PA    H16R13536   2.806   3.264   3.720
    1PA    H16S13537   2.675   3.352   3.802
    1PA    H16T13538   2.844   3.389   3.840
    1PA    C11513539   2.778   3.468   3.649
    1PA    H15R13540   2.749   3.564   3.692
    1PA    H15S13541   2.879   3.478   3.610
    1PA    C11413542   2.682   3.431   3.535
    1PA    H14R13543   2.715   3.338   3.488
    1PA    H14S13544   2.582   3.415   3.575
    1PA    C11313545   2.677   3.543   3.430
    1PA    H13R13546   2.652   3.637   3.480
    1PA    H13S13547   2.775   3.556   3.383
    1PA    C11213548   2.571   3.516   3.322
    1PA    H12R13549   2.477   3.485   3.369
    1PA    H12S13550   2.551   3.610   3.270
    1PA    C11113551   2.615   3.411   3.219
    1PA    H11R13552   2.710   3.441   3.175
    1PA    H11S13553   2.630   3.315   3.268
    1PA    C11013554   2.508   3.398   3.109
    1PA    H10R13555   2.413   3.368   3.153
    1PA    H10S13556   2.493   3.496   3.063
    1PA     C1913557   2.549   3.299   2.999
    1PA     H9R13558   2.486   3.318   2.911
    1PA     H9S13559   2.652   3.318   2.970
    1PA     C1813560   2.530   3.153   3.042
    1PA     H8R13561   2.596   3.130   3.126
    1PA     H8S13562   2.427   3.140   3.076
    1PA     C1713563   2.556   3.055   2.927
    1PA     H7R13564   2.524   2.955   2.958
    1PA     H7S13565   2.496   3.083   2.840
    1PA     C1613566   2.704   3.048   2.888
    1PA     H6R13567   2.738   3.146   2.851
    1PA     H6S13568   2.764   3.024   2.976
    1PA     C1513569   2.728   2.943   2.778
    1PA     H5R13570   2.694   2.846   2.813
    1PA     H5S13571   2.670   2.969   2.690
    1PA     C1413572   2.877   2.936   2.741
    1PA     H4R13573   2.909   3.032   2.702
    1PA     H4S13574   2.936   2.915   2.831
    1PA     C1313575   2.903   2.826   2.637
    1PA     H3R13576   2.871   2.729   2.676
    1PA     H3S13577   2.845   2.847   2.547
    1PA     C1213578   3.053   2.821   2.603
    1PA     H2R13579   3.085   2.920   2.569
    1PA     H2S13580   3.111   2.797   2.692
    2PC     C1113581   3.087   2.722   2.494
    2PC     O1213582   3.009   2.642   2.446
    2PC     O1113583   3.215   2.732   2.456
    2PC      C113584   3.257   2.655   2.342
    2PC      HR13585   3.245   2.548   2.362
    2PC      HS13586   3.194   2.682   2.256
    2PC      C213587   3.403   2.687   2.311
    2PC      HX13588   3.418   2.795   2.320
    2PC      C313589   3.439   2.643   2.168
    2PC      HA13590   3.398   2.715   2.098
    2PC      HB13591   3.548   2.640   2.155
    2PC     O3113592   3.382   2.513   2.142
    2PC     P3113593   3.366   2.464   1.991
    2PC     O3213594   3.294   2.323   2.015
    2PC     C3113595   3.181   2.291   1.932
    2PC     H1A13596   3.100   2.361   1.954
    2PC     H1B13597   3.210   2.301   1.827
    2PC     C3213598   3.137   2.147   1.962
    2PC     H2A13599   3.216   2.079   1.933
    2PC     H2B13600   3.119   2.137   2.069
    2PC     N3113601   3.012   2.099   1.893
    2PC     C3313602   2.987   1.957   1.933
    2PC     H3A13603   2.976   1.952   2.042
    2PC     H3B13604   2.896   1.923   1.884
    2PC     H3C13605   3.072   1.896   1.901
    2PC     C3413606   2.893   2.180   1.934
    2PC     H4A13607   2.907   2.283   1.901
    2PC     H4B13608   2.805   2.138   1.885
    2PC     H4C13609   2.882   2.176   2.042
    2PC     C3513610   3.027   2.105   1.744
    2PC     H5A13611   2.934   2.068   1.700
    2PC     H5B13612   3.111   2.041   1.716
    2PC     H5C13613   3.044   2.208   1.714
    2PC     O3313614   3.284   2.561   1.913
    2PC     O3413615   3.496   2.446   1.922
    2PC     O2113616   3.486   2.617   2.406
    2PC     C2113617   3.610   2.663   2.429
    2PC     O2213618   3.657   2.762   2.376
    3OL     C1213619   3.684   2.581   2.532
    3OL     H2R13620   3.776   2.634   2.558
    3OL     H2S13621   3.712   2.486   2.487
    3OL     C1313622   3.600   2.556   2.658
    3OL     H3R13623   3.516   2.491   2.633
    3OL     H3S13624   3.559   2.651   2.693
    3OL     C1413625   3.684   2.492   2.769
    3OL     H4R13626   3.769   2.558   2.790
    3OL     H4S13627   3.726   2.397   2.736
    3OL     C1513628   3.604   2.474   2.898
    3OL     H5R13629   3.542   2.562   2.914
    3OL     H5S13630   3.673   2.469   2.983
    3OL     C1613631   3.515   2.349   2.898
    3OL     H6R13632   3.465   2.337   2.802
    3OL     H6S13633   3.437   2.362   2.974
    3OL     C1713634   3.595   2.222   2.933
    3OL     H7R13635   3.649   2.237   3.027
    3OL     H7S13636   3.669   2.203   2.855
    3OL     C1813637   3.503   2.100   2.947
    3OL     H8R13638   3.449   2.084   2.854
    3OL     H8S13639   3.427   2.120   3.024
    3OL     C1913640   3.582   1.976   2.981
    3OL     H9R13641   3.612   1.917   2.895
    3OL    C11013642   3.614   1.934   3.102
    3OL    H10R13643   3.671   1.842   3.112
    3OL    C11113644   3.582   2.003   3.232
    3OL    H11R13645   3.514   2.087   3.218
    3OL    H11S13646   3.674   2.042   3.275
    3OL    C11213647   3.520   1.903   3.332
    3OL    H12R13648   3.585   1.817   3.344
    3OL    H12S13649   3.426   1.867   3.289
    3OL    C11313650   3.490   1.966   3.469
    3OL    H13R13651   3.423   1.900   3.523
    3OL    H13S13652   3.439   2.062   3.455
    3OL    C11413653   3.617   1.985   3.553
    3OL    H14R13654   3.688   2.049   3.500
    3OL    H14S13655   3.664   1.888   3.568
    3OL    C11513656   3.584   2.048   3.689
    3OL    H15R13657   3.513   1.985   3.743
    3OL    H15S13658   3.536   2.144   3.672
    3OL    C11613659   3.710   2.070   3.774
    3OL    H16R13660   3.687   2.143   3.852
    3OL    H16S13661   3.789   2.112   3.711
    3OL    C11713662   3.759   1.941   3.840
    3OL    H17R13663   3.781   1.865   3.765
    3OL    H17S13664   3.681   1.901   3.905
    3OL    C11813665   3.885   1.967   3.923
    3OL    H18R13666   3.968   1.998   3.859
    3OL    H18S13667   3.915   1.876   3.977
    3OL    H18T13668   3.868   2.046   3.997
    1PA    C11613669   3.579   2.686   3.642
    1PA    H16R13670   3.508   2.688   3.725
    1PA    H16S13671   3.678   2.710   3.681
    1PA    H16T13672   3.581   2.585   3.601
    1PA    C11513673   3.537   2.787   3.534
    1PA    H15R13674   3.438   2.762   3.497
    1PA    H15S13675   3.532   2.886   3.579
    1PA    C11413676   3.637   2.787   3.418
    1PA    H14R13677   3.738   2.809   3.454
    1PA    H14S13678   3.639   2.688   3.373
    1PA    C11313679   3.600   2.888   3.308
    1PA    H13R13680   3.660   2.867   3.220
    1PA    H13S13681   3.495   2.875   3.280
    1PA    C11213682   3.624   3.034   3.352
    1PA    H12R13683   3.561   3.056   3.438
    1PA    H12S13684   3.728   3.046   3.384
    1PA    C11113685   3.590   3.134   3.242
    1PA    H11R13686   3.494   3.107   3.197
    1PA    H11S13687   3.577   3.233   3.286
    1PA    C11013688   3.696   3.144   3.131
    1PA    H10R13689   3.725   3.044   3.098
    1PA    H10S13690   3.651   3.194   3.046
    1PA     C1913691   3.819   3.223   3.177
    1PA     H9R13692   3.790   3.324   3.206
    1PA     H9S13693   3.862   3.175   3.265
    1PA     C1813694   3.928   3.231   3.069
    1PA     H8R13695   4.018   3.273   3.114
    1PA     H8S13696   3.954   3.130   3.035
    1PA     C1713697   3.888   3.317   2.949
    1PA     H7R13698   3.800   3.275   2.900
    1PA     H7S13699   3.861   3.417   2.984
    1PA     C1613700   4.002   3.327   2.847
    1PA     H6R13701   4.090   3.371   2.895
    1PA     H6S13702   4.029   3.227   2.813
    1PA     C1513703   3.961   3.413   2.727
    1PA     H5R13704   3.874   3.369   2.678
    1PA     H5S13705   3.932   3.513   2.761
    1PA     C1413706   4.076   3.426   2.626
    1PA     H4R13707   4.163   3.471   2.674
    1PA     H4S13708   4.105   3.326   2.591
    1PA     C1313709   4.033   3.512   2.506
    1PA     H3R13710   3.949   3.464   2.456
    1PA     H3S13711   4.000   3.609   2.541
    1PA     C1213712   4.149   3.531   2.406
    1PA     H2R13713   4.230   3.587   2.453
    1PA     H2S13714   4.188   3.433   2.377
    2PC     C1113715   4.104   3.603   2.282
    2PC     O1213716   4.159   3.702   2.238
    2PC     O1113717   3.996   3.546   2.225
    2PC      C113718   3.944   3.602   2.104
    2PC      HR13719   3.909   3.704   2.122
    2PC      HS13720   4.022   3.604   2.027
    2PC      C213721   3.827   3.516   2.055
    2PC      HX13722   3.861   3.413   2.039
    2PC      C313723   3.773   3.574   1.924
    2PC      HA13724   3.853   3.582   1.850
    2PC      HB13725   3.694   3.511   1.882
    2PC     O3113726   3.722   3.705   1.953
    2PC     P3113727   3.634   3.780   1.841
    2PC     O3213728   3.574   3.897   1.932
    2PC     C3113729   3.494   3.999   1.870
    2PC     H1A13730   3.482   4.080   1.943
    2PC     H1B13731   3.546   4.037   1.782
    2PC     C3213732   3.357   3.942   1.833
    2PC     H2A13733   3.369   3.860   1.761
    2PC     H2B13734   3.309   3.901   1.923
    2PC     N3113735   3.258   4.036   1.772
    2PC     C3313736   3.230   4.152   1.862
    2PC     H3A13737   3.155   4.216   1.815
    2PC     H3B13738   3.192   4.114   1.957
    2PC     H3C13739   3.322   4.208   1.877
    2PC     C3413740   3.308   4.087   1.640
    2PC     H4A13741   3.399   4.145   1.657
    2PC     H4B13742   3.329   4.002   1.575
    2PC     H4C13743   3.232   4.151   1.596
    2PC     C3513744   3.129   3.962   1.749
    2PC     H5A13745   3.149   3.878   1.682
    2PC     H5B13746   3.057   4.031   1.704
    2PC     H5C13747   3.093   3.926   1.845
    2PC     O3313748   3.716   3.829   1.728
    2PC     O3413749   3.530   3.690   1.785
    2PC     O2113750   3.725   3.520   2.156
    2PC     C2113751   3.612   3.448   2.143
    2PC     O2213752   3.586   3.376   2.049
    3OL     C1213753   3.515   3.467   2.258
    3OL     H2R13754   3.434   3.394   2.248
    3OL     H2S13755   3.471   3.566   2.250
    3OL     C1313756   3.584   3.449   2.394
    3OL     H3R13757   3.681   3.497   2.395
    3OL     H3S13758   3.599   3.342   2.412
    3OL     C1413759   3.498   3.509   2.506
    3OL     H4R13760   3.398   3.466   2.504
    3OL     H4S13761   3.489   3.617   2.492
    3OL     C1513762   3.563   3.480   2.643
    3OL     H5R13763   3.667   3.512   2.642
    3OL     H5S13764   3.562   3.372   2.660
    3OL     C1613765   3.488   3.550   2.756
    3OL     H6R13766   3.382   3.523   2.752
    3OL     H6S13767   3.496   3.658   2.744
    3OL     C1713768   3.547   3.509   2.892
    3OL     H7R13769   3.655   3.526   2.891
    3OL     H7S13770   3.531   3.402   2.908
    3OL     C1813771   3.485   3.587   3.008
    3OL     H8R13772   3.505   3.693   2.993
    3OL     H8S13773   3.535   3.558   3.101
    3OL     C1913774   3.336   3.567   3.016
    3OL     H9R13775   3.278   3.623   2.944
    3OL    C11013776   3.271   3.489   3.102
    3OL    H10R13777   3.163   3.485   3.097
    3OL    C11113778   3.333   3.403   3.209
    3OL    H11R13779   3.438   3.427   3.227
    3OL    H11S13780   3.329   3.299   3.176
    3OL    C11213781   3.255   3.413   3.342
    3OL    H12R13782   3.293   3.336   3.410
    3OL    H12S13783   3.150   3.390   3.323
    3OL    C11313784   3.268   3.551   3.407
    3OL    H13R13785   3.234   3.628   3.339
    3OL    H13S13786   3.373   3.570   3.431
    3OL    C11413787   3.183   3.555   3.536
    3OL    H14R13788   3.214   3.474   3.602
    3OL    H14S13789   3.079   3.539   3.510
    3OL    C11513790   3.199   3.688   3.611
    3OL    H15R13791   3.173   3.771   3.544
    3OL    H15S13792   3.302   3.701   3.642
    3OL    C11613793   3.107   3.690   3.734
    3OL    H16R13794   3.128   3.604   3.797
    3OL    H16S13795   3.003   3.683   3.701
    3OL    C11713796   3.126   3.819   3.816
    3OL    H17R13797   3.110   3.906   3.752
    3OL    H17S13798   3.228   3.823   3.853
    3OL    C11813799   3.028   3.824   3.934
    3OL    H18R13800   3.045   3.913   3.993
    3OL    H18S13801   3.041   3.736   3.998
    3OL    H18T13802   2.925   3.825   3.898
    1PA    C11613803   4.053   5.452   4.162
    1PA    H16R13804   4.073   5.403   4.257
    1PA    H16S13805   4.137   5.433   4.095
    1PA    H16T13806   3.963   5.407   4.119
    1PA    C11513807   4.034   5.603   4.182
    1PA    H15R13808   3.952   5.621   4.251
    1PA    H15S13809   4.124   5.643   4.230
    1PA    C11413810   4.011   5.677   4.050
    1PA    H14R13811   4.026   5.784   4.067
    1PA    H14S13812   4.084   5.646   3.976
    1PA    C11313813   3.868   5.656   3.997
    1PA    H13R13814   3.852   5.550   3.976
    1PA    H13S13815   3.796   5.685   4.074
    1PA    C11213816   3.844   5.738   3.870
    1PA    H12R13817   3.867   5.843   3.891
    1PA    H12S13818   3.911   5.706   3.790
    1PA    C11113819   3.698   5.729   3.824
    1PA    H11R13820   3.634   5.729   3.912
    1PA    H11S13821   3.672   5.818   3.767
    1PA    C11013822   3.668   5.603   3.741
    1PA    H10R13823   3.721   5.518   3.783
    1PA    H10S13824   3.561   5.580   3.749
    1PA     C1913825   3.703   5.617   3.592
    1PA     H9R13826   3.807   5.648   3.580
    1PA     H9S13827   3.693   5.518   3.546
    1PA     C1813828   3.610   5.715   3.519
    1PA     H8R13829   3.506   5.694   3.544
    1PA     H8S13830   3.632   5.816   3.553
    1PA     C1713831   3.628   5.711   3.366
    1PA     H7R13832   3.589   5.804   3.325
    1PA     H7S13833   3.734   5.706   3.341
    1PA     C1613834   3.552   5.594   3.303
    1PA     H6R13835   3.590   5.500   3.343
    1PA     H6S13836   3.446   5.601   3.329
    1PA     C1513837   3.566   5.592   3.150
    1PA     H5R13838   3.526   5.685   3.108
    1PA     H5S13839   3.672   5.586   3.124
    1PA     C1413840   3.491   5.472   3.091
    1PA     H4R13841   3.526   5.381   3.141
    1PA     H4S13842   3.384   5.480   3.111
    1PA     C1313843   3.516   5.456   2.940
    1PA     H3R13844   3.619   5.484   2.917
    1PA     H3S13845   3.505   5.350   2.914
    1PA     C1213846   3.417   5.537   2.855
    1PA     H2R13847   3.316   5.500   2.872
    1PA     H2S13848   3.419   5.642   2.883
    2PC     C1113849   3.449   5.525   2.708
    2PC     O1213850   3.561   5.513   2.664
    2PC     O1113851   3.339   5.526   2.630
    2PC      C113852   3.358   5.512   2.488
    2PC      HR13853   3.419   5.595   2.451
    2PC      HS13854   3.410   5.418   2.469
    2PC      C213855   3.223   5.511   2.416
    2PC      HX13856   3.154   5.446   2.471
    2PC      C313857   3.237   5.462   2.272
    2PC      HA13858   3.274   5.359   2.273
    2PC      HB13859   3.141   5.463   2.220
    2PC     O3113860   3.331   5.546   2.202
    2PC     P3113861   3.401   5.494   2.067
    2PC     O3213862   3.326   5.569   1.947
    2PC     C3113863   3.199   5.523   1.899
    2PC     H1A13864   3.200   5.414   1.887
    2PC     H1B13865   3.121   5.552   1.969
    2PC     C3213866   3.182   5.591   1.763
    2PC     H2A13867   3.213   5.695   1.771
    2PC     H2B13868   3.247   5.542   1.690
    2PC     N3113869   3.045   5.594   1.701
    2PC     C3313870   3.058   5.651   1.563
    2PC     H3A13871   2.959   5.652   1.517
    2PC     H3B13872   3.096   5.753   1.571
    2PC     H3C13873   3.126   5.588   1.506
    2PC     C3413874   2.985   5.457   1.693
    2PC     H4A13875   2.968   5.419   1.793
    2PC     H4B13876   2.891   5.464   1.639
    2PC     H4C13877   3.055   5.392   1.639
    2PC     C3513878   2.955   5.685   1.781
    2PC     H5A13879   2.858   5.687   1.732
    2PC     H5B13880   2.999   5.785   1.782
    2PC     H5C13881   2.946   5.646   1.882
    2PC     O3313882   3.543   5.535   2.063
    2PC     O3413883   3.410   5.347   2.056
    2PC     O2113884   3.171   5.646   2.416
    2PC     C2113885   3.040   5.665   2.393
    2PC     O2213886   2.961   5.574   2.378
    3OL     C1213887   3.002   5.810   2.379
    3OL     H2R13888   2.895   5.821   2.394
    3OL     H2S13889   3.024   5.839   2.276
    3OL     C1313890   3.078   5.906   2.472
    3OL     H3R13891   3.052   6.008   2.444
    3OL     H3S13892   3.186   5.895   2.458
    3OL     C1413893   3.041   5.884   2.620
    3OL     H4R13894   3.076   5.786   2.653
    3OL     H4S13895   2.933   5.886   2.630
    3OL     C1513896   3.103   5.994   2.707
    3OL     H5R13897   3.070   6.091   2.669
    3OL     H5S13898   3.212   5.992   2.699
    3OL     C1613899   3.060   5.982   2.854
    3OL     H6R13900   2.957   5.947   2.860
    3OL     H6S13901   3.062   6.082   2.899
    3OL     C1713902   3.153   5.891   2.936
    3OL     H7R13903   3.254   5.933   2.934
    3OL     H7S13904   3.156   5.792   2.891
    3OL     C1813905   3.103   5.882   3.081
    3OL     H8R13906   3.010   5.825   3.082
    3OL     H8S13907   3.079   5.982   3.117
    3OL     C1913908   3.204   5.813   3.169
    3OL     H9R13909   3.214   5.706   3.153
    3OL    C11013910   3.278   5.870   3.264
    3OL    H10R13911   3.346   5.807   3.321
    3OL    C11113912   3.281   6.016   3.300
    3OL    H11R13913   3.212   6.075   3.240
    3OL    H11S13914   3.381   6.055   3.278
    3OL    C11213915   3.252   6.043   3.448
    3OL    H12R13916   3.153   6.007   3.473
    3OL    H12S13917   3.252   6.151   3.464
    3OL    C11313918   3.357   5.979   3.541
    3OL    H13R13919   3.456   6.006   3.505
    3OL    H13S13920   3.350   5.870   3.537
    3OL    C11413921   3.343   6.027   3.686
    3OL    H14R13922   3.325   6.135   3.686
    3OL    H14S13923   3.437   6.012   3.738
    3OL    C11513924   3.229   5.959   3.763
    3OL    H15R13925   3.142   5.947   3.697
    3OL    H15S13926   3.197   6.025   3.844
    3OL    C11613927   3.267   5.822   3.821
    3OL    H16R13928   3.309   5.760   3.741
    3OL    H16S13929   3.177   5.772   3.856
    3OL    C11713930   3.368   5.829   3.937
    3OL    H17R13931   3.458   5.882   3.907
    3OL    H17S13932   3.398   5.727   3.962
    3OL    C11813933   3.310   5.895   4.063
    3OL    H18R13934   3.220   5.842   4.097
    3OL    H18S13935   3.285   5.999   4.045
    3OL    H18T13936   3.384   5.891   4.144
    1PA    C11613937   3.751   4.039   3.589
    1PA    H16R13938   3.834   4.063   3.656
    1PA    H16S13939   3.702   3.949   3.625
    1PA    H16T13940   3.680   4.122   3.593
    1PA    C11513941   3.803   4.020   3.446
    1PA    H15R13942   3.861   4.108   3.417
    1PA    H15S13943   3.871   3.934   3.442
    1PA    C11413944   3.689   4.001   3.345
    1PA    H14R13945   3.618   4.084   3.355
    1PA    H14S13946   3.730   4.007   3.244
    1PA    C11313947   3.617   3.867   3.362
    1PA    H13R13948   3.690   3.786   3.358
    1PA    H13S13949   3.567   3.862   3.459
    1PA    C11213950   3.514   3.843   3.250
    1PA    H12R13951   3.562   3.855   3.153
    1PA    H12S13952   3.479   3.740   3.257
    1PA    C11113953   3.393   3.937   3.261
    1PA    H11R13954   3.346   3.922   3.359
    1PA    H11S13955   3.424   4.041   3.255
    1PA    C11013956   3.288   3.910   3.153
    1PA    H10R13957   3.266   3.803   3.148
    1PA    H10S13958   3.195   3.960   3.180
    1PA     C1913959   3.333   3.961   3.015
    1PA     H9R13960   3.350   4.069   3.021
    1PA     H9S13961   3.427   3.914   2.986
    1PA     C1813962   3.227   3.932   2.909
    1PA     H8R13963   3.209   3.824   2.905
    1PA     H8S13964   3.133   3.980   2.937
    1PA     C1713965   3.270   3.981   2.770
    1PA     H7R13966   3.290   4.089   2.776
    1PA     H7S13967   3.364   3.933   2.740
    1PA     C1613968   3.162   3.956   2.665
    1PA     H6R13969   3.065   3.989   2.703
    1PA     H6S13970   3.184   4.017   2.576
    1PA     C1513971   3.154   3.809   2.622
    1PA     H5R13972   3.248   3.780   2.575
    1PA     H5S13973   3.141   3.745   2.710
    1PA     C1413974   3.037   3.786   2.526
    1PA     H4R13975   2.945   3.815   2.576
    1PA     H4S13976   3.048   3.849   2.438
    1PA     C1313977   3.025   3.638   2.484
    1PA     H3R13978   3.040   3.574   2.571
    1PA     H3S13979   2.925   3.620   2.446
    1PA     C1213980   3.126   3.604   2.374
    1PA     H2R13981   3.110   3.669   2.288
    1PA     H2S13982   3.228   3.621   2.408
    2PC     C1113983   3.116   3.461   2.327
    2PC     O1213984   3.056   3.373   2.386
    2PC     O1113985   3.180   3.444   2.210
    2PC      C113986   3.181   3.317   2.143
    2PC      HR13987   3.252   3.325   2.060
    2PC      HS13988   3.216   3.239   2.211
    2PC      C213989   3.042   3.281   2.089
    2PC      HX13990   2.978   3.252   2.173
    2PC      C313991   3.051   3.164   1.990
    2PC      HA13992   3.077   3.073   2.045
    2PC      HB13993   2.956   3.147   1.939
    2PC     O3113994   3.154   3.190   1.893
    2PC     P3113995   3.213   3.071   1.804
    2PC     O3213996   3.087   3.037   1.711
    2PC     C3113997   3.035   2.902   1.714
    2PC     H1A13998   3.114   2.831   1.690
    2PC     H1B13999   2.997   2.881   1.814
    2PC     C3214000   2.920   2.893   1.612
    2PC     H2A14001   2.872   2.796   1.624
    2PC     H2B14002   2.847   2.970   1.633
    2PC     N3114003   2.955   2.904   1.466
    2PC     C3314004   2.831   2.878   1.387
    2PC     H3A14005   2.855   2.887   1.281
    2PC     H3B14006   2.796   2.777   1.409
    2PC     H3C14007   2.755   2.951   1.415
    2PC     C3414008   3.004   3.042   1.433
    2PC     H4A14009   2.929   3.114   1.465
    2PC     H4B14010   3.098   3.059   1.485
    2PC     H4C14011   3.019   3.048   1.325
    2PC     C3514012   3.059   2.804   1.426
    2PC     H5A14013   3.152   2.826   1.479
    2PC     H5B14014   3.075   2.812   1.319
    2PC     H5C14015   3.023   2.704   1.451
    2PC     O3314016   3.330   3.108   1.722
    2PC     O3414017   3.255   2.956   1.888
    2PC     O2114018   2.985   3.396   2.024
    2PC     C2114019   2.853   3.396   1.999
    2PC     O2214020   2.777   3.306   2.032
    3OL     C1214021   2.808   3.517   1.922
    3OL     H2R14022   2.759   3.483   1.831
    3OL     H2S14023   2.895   3.575   1.891
    3OL     C1314024   2.711   3.607   2.001
    3OL     H3R14025   2.626   3.547   2.036
    3OL     H3S14026   2.672   3.683   1.933
    3OL     C1414027   2.778   3.676   2.120
    3OL     H4R14028   2.869   3.726   2.086
    3OL     H4S14029   2.807   3.602   2.195
    3OL     C1514030   2.684   3.780   2.183
    3OL     H5R14031   2.593   3.731   2.217
    3OL     H5S14032   2.657   3.853   2.107
    3OL     C1614033   2.751   3.851   2.301
    3OL     H6R14034   2.848   3.892   2.270
    3OL     H6S14035   2.770   3.779   2.381
    3OL     C1714036   2.664   3.965   2.356
    3OL     H7R14037   2.567   3.926   2.387
    3OL     H7S14038   2.646   4.038   2.276
    3OL     C1814039   2.732   4.035   2.474
    3OL     H8R14040   2.832   4.066   2.443
    3OL     H8S14041   2.744   3.965   2.556
    3OL     C1914042   2.656   4.158   2.517
    3OL     H9R14043   2.668   4.243   2.451
    3OL    C11014044   2.582   4.172   2.626
    3OL    H10R14045   2.535   4.268   2.645
    3OL    C11114046   2.551   4.065   2.728
    3OL    H11R14047   2.599   4.090   2.822
    3OL    H11S14048   2.588   3.967   2.697
    3OL    C11214049   2.399   4.057   2.751
    3OL    H12R14050   2.351   4.033   2.655
    3OL    H12S14051   2.360   4.154   2.783
    3OL    C11314052   2.360   3.949   2.852
    3OL    H13R14053   2.413   3.856   2.830
    3OL    H13S14054   2.253   3.928   2.842
    3OL    C11414055   2.387   3.990   2.998
    3OL    H14R14056   2.336   4.085   3.018
    3OL    H14S14057   2.494   4.005   3.013
    3OL    C11514058   2.336   3.883   3.094
    3OL    H15R14059   2.386   3.788   3.073
    3OL    H15S14060   2.229   3.867   3.078
    3OL    C11614061   2.360   3.922   3.241
    3OL    H16R14062   2.312   4.018   3.261
    3OL    H16S14063   2.468   3.935   3.258
    3OL    C11714064   2.305   3.815   3.336
    3OL    H17R14065   2.350   3.718   3.313
    3OL    H17S14066   2.197   3.806   3.323
    3OL    C11814067   2.336   3.850   3.482
    3OL    H18R14068   2.295   3.774   3.549
    3OL    H18S14069   2.291   3.947   3.509
    3OL    H18T14070   2.444   3.856   3.499
    1PA    C11614071   0.533   4.831   3.912
    1PA    H16R14072   0.430   4.853   3.883
    1PA    H16S14073   0.553   4.880   4.007
    1PA    H16T14074   0.541   4.723   3.926
    1PA    C11514075   0.631   4.879   3.804
    1PA    H15R14076   0.607   4.831   3.709
    1PA    H15S14077   0.616   4.986   3.790
    1PA    C11414078   0.778   4.855   3.842
    1PA    H14R14079   0.841   4.903   3.768
    1PA    H14S14080   0.798   4.903   3.937
    1PA    C11314081   0.818   4.707   3.851
    1PA    H13R14082   0.923   4.702   3.881
    1PA    H13S14083   0.760   4.657   3.929
    1PA    C11214084   0.801   4.632   3.718
    1PA    H12R14085   0.695   4.629   3.692
    1PA    H12S14086   0.853   4.687   3.639
    1PA    C11114087   0.856   4.489   3.727
    1PA    H11R14088   0.964   4.493   3.735
    1PA    H11S14089   0.818   4.442   3.818
    1PA    C11014090   0.816   4.402   3.607
    1PA    H10R14091   0.861   4.303   3.619
    1PA    H10S14092   0.707   4.388   3.608
    1PA     C1914093   0.859   4.460   3.472
    1PA     H9R14094   0.815   4.560   3.459
    1PA     H9S14095   0.967   4.471   3.469
    1PA     C1814096   0.812   4.371   3.356
    1PA     H8R14097   0.855   4.271   3.367
    1PA     H8S14098   0.703   4.362   3.359
    1PA     C1714099   0.855   4.432   3.222
    1PA     H7R14100   0.813   4.532   3.212
    1PA     H7S14101   0.964   4.441   3.221
    1PA     C1614102   0.809   4.345   3.104
    1PA     H6R14103   0.853   4.246   3.112
    1PA     H6S14104   0.701   4.333   3.108
    1PA     C1514105   0.846   4.406   2.968
    1PA     H5R14106   0.800   4.346   2.889
    1PA     H5S14107   0.803   4.506   2.960
    1PA     C1414108   0.998   4.413   2.945
    1PA     H4R14109   1.043   4.476   3.022
    1PA     H4S14110   1.042   4.313   2.954
    1PA     C1314111   1.032   4.474   2.808
    1PA     H3R14112   0.967   4.560   2.789
    1PA     H3S14113   1.135   4.511   2.811
    1PA     C1214114   1.020   4.372   2.694
    1PA     H2R14115   1.089   4.290   2.709
    1PA     H2S14116   0.919   4.330   2.691
    2PC     C1114117   1.048   4.438   2.561
    2PC     O1214118   0.972   4.517   2.509
    2PC     O1114119   1.164   4.397   2.506
    2PC      C114120   1.201   4.444   2.375
    2PC      HR14121   1.282   4.380   2.338
    2PC      HS14122   1.116   4.436   2.307
    2PC      C214123   1.253   4.588   2.378
    2PC      HX14124   1.182   4.653   2.430
    2PC      C314125   1.274   4.642   2.235
    2PC      HA14126   1.178   4.674   2.194
    2PC      HB14127   1.341   4.727   2.235
    2PC     O3114128   1.327   4.539   2.150
    2PC     P3114129   1.357   4.575   1.996
    2PC     O3214130   1.353   4.427   1.935
    2PC     C3114131   1.225   4.369   1.905
    2PC     H1A14132   1.155   4.390   1.987
    2PC     H1B14133   1.186   4.413   1.813
    2PC     C3214134   1.242   4.217   1.889
    2PC     H2A14135   1.145   4.173   1.865
    2PC     H2B14136   1.310   4.196   1.806
    2PC     N3114137   1.295   4.140   2.006
    2PC     C3314138   1.442   4.161   2.022
    2PC     H3A14139   1.491   4.129   1.930
    2PC     H3B14140   1.461   4.266   2.042
    2PC     H3C14141   1.477   4.101   2.106
    2PC     C3414142   1.225   4.178   2.134
    2PC     H4A14143   1.246   4.283   2.154
    2PC     H4B14144   1.118   4.161   2.121
    2PC     H4C14145   1.264   4.115   2.214
    2PC     C3514146   1.271   3.994   1.984
    2PC     H5A14147   1.164   3.977   1.974
    2PC     H5B14148   1.311   3.938   2.069
    2PC     H5C14149   1.322   3.964   1.892
    2PC     O3314150   1.261   4.669   1.933
    2PC     O3414151   1.490   4.636   1.972
    2PC     O2114152   1.378   4.589   2.449
    2PC     C2114153   1.435   4.706   2.484
    2PC     O2214154   1.388   4.815   2.458
    3OL     C1214155   1.562   4.687   2.562
    3OL     H2R14156   1.619   4.781   2.560
    3OL     H2S14157   1.623   4.610   2.514
    3OL     C1314158   1.532   4.648   2.707
    3OL     H3R14159   1.480   4.552   2.709
    3OL     H3S14160   1.465   4.722   2.751
    3OL     C1414161   1.659   4.640   2.792
    3OL     H4R14162   1.707   4.738   2.796
    3OL     H4S14163   1.730   4.570   2.746
    3OL     C1514164   1.625   4.593   2.934
    3OL     H5R14165   1.579   4.495   2.929
    3OL     H5S14166   1.553   4.662   2.979
    3OL     C1614167   1.750   4.586   3.025
    3OL     H6R14168   1.793   4.686   3.036
    3OL     H6S14169   1.825   4.522   2.979
    3OL     C1714170   1.709   4.530   3.161
    3OL     H7R14171   1.662   4.433   3.146
    3OL     H7S14172   1.635   4.595   3.207
    3OL     C1814173   1.828   4.514   3.258
    3OL     H8R14174   1.857   4.611   3.297
    3OL     H8S14175   1.913   4.474   3.204
    3OL     C1914176   1.791   4.417   3.368
    3OL     H9R14177   1.796   4.312   3.338
    3OL    C11014178   1.754   4.445   3.492
    3OL    H10R14179   1.730   4.363   3.558
    3OL    C11114180   1.739   4.582   3.553
    3OL    H11R14181   1.634   4.598   3.580
    3OL    H11S14182   1.765   4.661   3.482
    3OL    C11214183   1.824   4.598   3.680
    3OL    H12R14184   1.808   4.698   3.721
    3OL    H12S14185   1.930   4.591   3.653
    3OL    C11314186   1.792   4.493   3.787
    3OL    H13R14187   1.812   4.393   3.748
    3OL    H13S14188   1.685   4.498   3.812
    3OL    C11414189   1.876   4.516   3.913
    3OL    H14R14190   1.852   4.613   3.957
    3OL    H14S14191   1.981   4.519   3.884
    3OL    C11514192   1.858   4.406   4.018
    3OL    H15R14193   1.935   4.418   4.094
    3OL    H15S14194   1.873   4.308   3.971
    3OL    C11614195   1.720   4.410   4.086
    3OL    H16R14196   1.641   4.392   4.013
    3OL    H16S14197   1.704   4.509   4.129
    3OL    C11714198   1.712   4.305   4.198
    3OL    H17R14199   1.788   4.325   4.273
    3OL    H17S14200   1.731   4.205   4.157
    3OL    C11814201   1.574   4.307   4.265
    3OL    H18R14202   1.553   4.405   4.308
    3OL    H18S14203   1.570   4.233   4.345
    3OL    H18T14204   1.495   4.283   4.192
    1PA    C11614205   2.246   4.434   3.148
    1PA    H16R14206   2.164   4.390   3.205
    1PA    H16S14207   2.340   4.413   3.199
    1PA    H16T14208   2.248   4.386   3.050
    1PA    C11514209   2.225   4.585   3.133
    1PA    H15R14210   2.304   4.625   3.069
    1PA    H15S14211   2.129   4.604   3.084
    1PA    C11414212   2.229   4.657   3.269
    1PA    H14R14213   2.157   4.610   3.336
    1PA    H14S14214   2.328   4.645   3.314
    1PA    C11314215   2.195   4.806   3.258
    1PA    H13R14216   2.096   4.817   3.213
    1PA    H13S14217   2.190   4.848   3.358
    1PA    C11214218   2.297   4.885   3.175
    1PA    H12R14219   2.397   4.877   3.218
    1PA    H12S14220   2.302   4.844   3.074
    1PA    C11114221   2.256   5.033   3.163
    1PA    H11R14222   2.301   5.073   3.072
    1PA    H11S14223   2.147   5.039   3.151
    1PA    C11014224   2.301   5.117   3.283
    1PA    H10R14225   2.273   5.067   3.376
    1PA    H10S14226   2.410   5.126   3.282
    1PA     C1914227   2.238   5.257   3.283
    1PA     H9R14228   2.130   5.247   3.291
    1PA     H9S14229   2.272   5.311   3.372
    1PA     C1814230   2.272   5.340   3.159
    1PA     H8R14231   2.380   5.353   3.151
    1PA     H8S14232   2.239   5.287   3.069
    1PA     C1714233   2.203   5.477   3.164
    1PA     H7R14234   2.096   5.463   3.179
    1PA     H7S14235   2.241   5.532   3.250
    1PA     C1614236   2.225   5.562   3.038
    1PA     H6R14237   2.184   5.661   3.056
    1PA     H6S14238   2.332   5.573   3.019
    1PA     C1514239   2.156   5.501   2.915
    1PA     H5R14240   2.203   5.405   2.891
    1PA     H5S14241   2.051   5.482   2.938
    1PA     C1414242   2.166   5.593   2.793
    1PA     H4R14243   2.111   5.686   2.812
    1PA     H4S14244   2.270   5.619   2.774
    1PA     C1314245   2.107   5.523   2.670
    1PA     H3R14246   2.162   5.430   2.654
    1PA     H3S14247   2.002   5.497   2.688
    1PA     C1214248   2.117   5.611   2.544
    1PA     H2R14249   2.054   5.699   2.556
    1PA     H2S14250   2.220   5.645   2.530
    2PC     C1114251   2.074   5.537   2.420
    2PC     O1214252   2.090   5.417   2.404
    2PC     O1114253   2.018   5.619   2.330
    2PC      C114254   1.974   5.566   2.203
    2PC      HR14255   1.948   5.650   2.138
    2PC      HS14256   2.057   5.512   2.157
    2PC      C214257   1.853   5.472   2.215
    2PC      HX14258   1.874   5.391   2.285
    2PC      C314259   1.820   5.410   2.078
    2PC      HA14260   1.896   5.336   2.053
    2PC      HB14261   1.722   5.362   2.081
    2PC     O3114262   1.821   5.515   1.979
    2PC     P3114263   1.806   5.477   1.824
    2PC     O3214264   1.647   5.463   1.811
    2PC     C3114265   1.590   5.493   1.682
    2PC     H1A14266   1.615   5.596   1.656
    2PC     H1B14267   1.632   5.426   1.606
    2PC     C3214268   1.437   5.479   1.689
    2PC     H2A14269   1.400   5.536   1.775
    2PC     H2B14270   1.394   5.523   1.599
    2PC     N3114271   1.378   5.342   1.699
    2PC     C3314272   1.414   5.277   1.830
    2PC     H3A14273   1.381   5.343   1.910
    2PC     H3B14274   1.364   5.181   1.836
    2PC     H3C14275   1.522   5.265   1.834
    2PC     C3414276   1.229   5.354   1.691
    2PC     H4A14277   1.203   5.398   1.595
    2PC     H4B14278   1.185   5.254   1.699
    2PC     H4C14279   1.195   5.418   1.772
    2PC     C3514280   1.423   5.253   1.587
    2PC     H5A14281   1.371   5.158   1.595
    2PC     H5B14282   1.531   5.238   1.595
    2PC     H5C14283   1.399   5.302   1.492
    2PC     O3314284   1.864   5.590   1.747
    2PC     O3414285   1.879   5.353   1.787
    2PC     O2114286   1.738   5.547   2.256
    2PC     C2114287   1.714   5.565   2.387
    2PC     O2214288   1.781   5.516   2.476
    3OL     C1214289   1.593   5.651   2.410
    3OL     H2R14290   1.506   5.598   2.371
    3OL     H2S14291   1.605   5.743   2.352
    3OL     C1314292   1.572   5.684   2.558
    3OL     H3R14293   1.657   5.742   2.596
    3OL     H3S14294   1.567   5.591   2.615
    3OL     C1414295   1.443   5.765   2.578
    3OL     H4R14296   1.357   5.706   2.543
    3OL     H4S14297   1.447   5.855   2.517
    3OL     C1514298   1.421   5.806   2.724
    3OL     H5R14299   1.336   5.874   2.728
    3OL     H5S14300   1.508   5.861   2.760
    3OL     C1614301   1.394   5.686   2.816
    3OL     H6R14302   1.482   5.621   2.817
    3OL     H6S14303   1.310   5.627   2.779
    3OL     C1714304   1.367   5.730   2.961
    3OL     H7R14305   1.439   5.807   2.990
    3OL     H7S14306   1.384   5.644   3.026
    3OL     C1814307   1.224   5.780   2.980
    3OL     H8R14308   1.154   5.704   2.945
    3OL     H8S14309   1.208   5.869   2.919
    3OL     C1914310   1.200   5.816   3.125
    3OL     H9R14311   1.258   5.901   3.160
    3OL    C11014312   1.119   5.755   3.209
    3OL    H10R14313   1.113   5.792   3.311
    3OL    C11114314   1.028   5.638   3.181
    3OL    H11R14315   1.019   5.617   3.075
    3OL    H11S14316   0.928   5.663   3.216
    3OL    C11214317   1.074   5.512   3.256
    3OL    H12R14318   0.997   5.435   3.250
    3OL    H12S14319   1.087   5.536   3.361
    3OL    C11314320   1.207   5.455   3.203
    3OL    H13R14321   1.245   5.384   3.276
    3OL    H13S14322   1.281   5.534   3.193
    3OL    C11414323   1.190   5.381   3.069
    3OL    H14R14324   1.152   5.449   2.993
    3OL    H14S14325   1.117   5.301   3.081
    3OL    C11514326   1.324   5.322   3.023
    3OL    H15R14327   1.365   5.258   3.101
    3OL    H15S14328   1.396   5.404   3.007
    3OL    C11614329   1.307   5.241   2.894
    3OL    H16R14330   1.264   5.303   2.816
    3OL    H16S14331   1.238   5.159   2.913
    3OL    C11714332   1.440   5.182   2.845
    3OL    H17R14333   1.419   5.106   2.769
    3OL    H17S14334   1.492   5.132   2.927
    3OL    C11814335   1.532   5.288   2.782
    3OL    H18R14336   1.622   5.241   2.742
    3OL    H18S14337   1.562   5.362   2.857
    3OL    H18T14338   1.481   5.339   2.701
    1PA    C11614339   3.122   2.204   4.081
    1PA    H16R14340   3.231   2.202   4.086
    1PA    H16S14341   3.083   2.117   4.135
    1PA    H16T14342   3.086   2.294   4.132
    1PA    C11514343   3.074   2.202   3.935
    1PA    H15R14344   2.965   2.205   3.933
    1PA    H15S14345   3.111   2.292   3.884
    1PA    C11414346   3.124   2.077   3.862
    1PA    H14R14347   3.233   2.075   3.863
    1PA    H14S14348   3.088   1.988   3.913
    1PA    C11314349   3.075   2.075   3.716
    1PA    H13R14350   2.966   2.078   3.714
    1PA    H13S14351   3.112   2.164   3.664
    1PA    C11214352   3.124   1.949   3.644
    1PA    H12R14353   3.233   1.945   3.648
    1PA    H12S14354   3.086   1.861   3.698
    1PA    C11114355   3.077   1.943   3.498
    1PA    H11R14356   2.968   1.944   3.495
    1PA    H11S14357   3.112   2.032   3.446
    1PA    C11014358   3.130   1.817   3.430
    1PA    H10R14359   3.239   1.820   3.429
    1PA    H10S14360   3.102   1.730   3.489
    1PA     C1914361   3.081   1.796   3.286
    1PA     H9R14362   3.131   1.707   3.247
    1PA     H9S14363   2.974   1.773   3.286
    1PA     C1814364   3.109   1.913   3.190
    1PA     H8R14365   3.195   1.971   3.226
    1PA     H8S14366   3.137   1.872   3.093
    1PA     C1714367   2.986   2.003   3.173
    1PA     H7R14368   2.903   1.944   3.132
    1PA     H7S14369   2.954   2.040   3.271
    1PA     C1614370   3.013   2.124   3.082
    1PA     H6R14371   2.930   2.194   3.093
    1PA     H6S14372   3.103   2.175   3.116
    1PA     C1514373   3.026   2.086   2.934
    1PA     H5R14374   3.111   2.019   2.920
    1PA     H5S14375   2.936   2.033   2.901
    1PA     C1414376   3.046   2.212   2.849
    1PA     H4R14377   2.959   2.277   2.860
    1PA     H4S14378   3.133   2.266   2.886
    1PA     C1314379   3.068   2.180   2.701
    1PA     H3R14380   3.157   2.117   2.690
    1PA     H3S14381   2.983   2.126   2.660
    1PA     C1214382   3.089   2.311   2.622
    1PA     H2R14383   2.996   2.367   2.618
    1PA     H2S14384   3.163   2.373   2.673
    2PC     C1114385   3.138   2.284   2.482
    2PC     O1214386   3.065   2.279   2.385
    2PC     O1114387   3.272   2.270   2.479
    2PC      C114388   3.338   2.239   2.355
    2PC      HR14389   3.307   2.142   2.317
    2PC      HS14390   3.314   2.316   2.281
    2PC      C214391   3.489   2.239   2.385
    2PC      HX14392   3.512   2.331   2.440
    2PC      C314393   3.575   2.233   2.258
    2PC      HA14394   3.538   2.301   2.181
    2PC      HB14395   3.677   2.263   2.284
    2PC     O3114396   3.577   2.098   2.206
    2PC     P3114397   3.709   2.047   2.131
    2PC     O3214398   3.803   2.015   2.256
    2PC     C3114399   3.871   1.888   2.261
    2PC     H1A14400   3.900   1.868   2.365
    2PC     H1B14401   3.802   1.809   2.230
    2PC     C3214402   3.995   1.888   2.170
    2PC     H2A14403   4.037   1.787   2.171
    2PC     H2B14404   3.966   1.912   2.068
    2PC     N3114405   4.108   1.979   2.206
    2PC     C3314406   4.074   2.122   2.177
    2PC     H3A14407   4.160   2.184   2.200
    2PC     H3B14408   4.047   2.131   2.072
    2PC     H3C14409   3.989   2.150   2.241
    2PC     C3414410   4.148   1.965   2.350
    2PC     H4A14411   4.171   1.860   2.370
    2PC     H4B14412   4.236   2.027   2.368
    2PC     H4C14413   4.065   1.998   2.412
    2PC     C3514414   4.227   1.942   2.122
    2PC     H5A14415   4.310   2.008   2.149
    2PC     H5B14416   4.200   1.956   2.017
    2PC     H5C14417   4.253   1.838   2.142
    2PC     O3314418   3.683   1.929   2.045
    2PC     O3414419   3.767   2.148   2.039
    2PC     O2114420   3.517   2.125   2.467
    2PC     C2114421   3.637   2.115   2.527
    2PC     O2214422   3.717   2.207   2.533
    3OL     C1214423   3.660   1.978   2.585
    3OL     H2R14424   3.661   1.906   2.502
    3OL     H2S14425   3.575   1.953   2.648
    3OL     C1314426   3.790   1.968   2.665
    3OL     H3R14427   3.785   2.034   2.752
    3OL     H3S14428   3.874   2.000   2.603
    3OL     C1414429   3.815   1.823   2.711
    3OL     H4R14430   3.829   1.760   2.624
    3OL     H4S14431   3.727   1.787   2.766
    3OL     C1514432   3.939   1.815   2.801
    3OL     H5R14433   3.926   1.877   2.890
    3OL     H5S14434   4.025   1.854   2.746
    3OL     C1614435   3.971   1.671   2.844
    3OL     H6R14436   4.072   1.669   2.885
    3OL     H6S14437   3.971   1.605   2.756
    3OL     C1714438   3.873   1.617   2.949
    3OL     H7R14439   3.772   1.611   2.908
    3OL     H7S14440   3.870   1.686   3.034
    3OL     C1814441   3.916   1.478   2.997
    3OL     H8R14442   4.021   1.483   3.028
    3OL     H8S14443   3.909   1.407   2.914
    3OL     C1914444   3.833   1.431   3.114
    3OL     H9R14445   3.778   1.510   3.165
    3OL    C11014446   3.826   1.307   3.159
    3OL    H10R14447   3.763   1.286   3.245
    3OL    C11114448   3.894   1.187   3.099
    3OL    H11R14449   3.924   1.207   2.996
    3OL    H11S14450   3.823   1.104   3.095
    3OL    C11214451   4.018   1.143   3.178
    3OL    H12R14452   4.090   1.225   3.180
    3OL    H12S14453   4.065   1.060   3.125
    3OL    C11314454   3.985   1.101   3.322
    3OL    H13R14455   3.909   1.023   3.322
    3OL    H13S14456   3.944   1.186   3.375
    3OL    C11414457   4.110   1.052   3.397
    3OL    H14R14458   4.089   1.055   3.504
    3OL    H14S14459   4.194   1.119   3.377
    3OL    C11514460   4.148   0.908   3.358
    3OL    H15R14461   4.161   0.902   3.250
    3OL    H15S14462   4.066   0.840   3.384
    3OL    C11614463   4.278   0.861   3.424
    3OL    H16R14464   4.358   0.932   3.403
    3OL    H16S14465   4.306   0.765   3.380
    3OL    C11714466   4.264   0.842   3.576
    3OL    H17R14467   4.181   0.773   3.597
    3OL    H17S14468   4.241   0.937   3.623
    3OL    C11814469   4.393   0.787   3.637
    3OL    H18R14470   4.476   0.856   3.620
    3OL    H18S14471   4.419   0.690   3.592
    3OL    H18T14472   4.381   0.772   3.744
    1PA    C11614473   3.750   1.278   3.802
    1PA    H16R14474   3.727   1.175   3.771
    1PA    H16S14475   3.721   1.288   3.907
    1PA    H16T14476   3.857   1.294   3.794
    1PA    C11514477   3.673   1.378   3.715
    1PA    H15R14478   3.566   1.360   3.727
    1PA    H15S14479   3.694   1.479   3.750
    1PA    C11414480   3.712   1.365   3.567
    1PA    H14R14481   3.819   1.384   3.558
    1PA    H14S14482   3.694   1.263   3.533
    1PA    C11314483   3.637   1.464   3.477
    1PA    H13R14484   3.642   1.565   3.520
    1PA    H13S14485   3.688   1.468   3.381
    1PA    C11214486   3.491   1.423   3.455
    1PA    H12R14487   3.486   1.322   3.414
    1PA    H12S14488   3.439   1.421   3.552
    1PA    C11114489   3.415   1.520   3.364
    1PA    H11R14490   3.308   1.499   3.371
    1PA    H11S14491   3.429   1.623   3.398
    1PA    C11014492   3.458   1.508   3.217
    1PA    H10R14493   3.562   1.541   3.206
    1PA    H10S14494   3.453   1.404   3.185
    1PA     C1914495   3.368   1.593   3.126
    1PA     H9R14496   3.265   1.556   3.134
    1PA     H9S14497   3.368   1.696   3.161
    1PA     C1814498   3.413   1.588   2.980
    1PA     H8R14499   3.514   1.627   2.972
    1PA     H8S14500   3.413   1.485   2.945
    1PA     C1714501   3.318   1.672   2.892
    1PA     H7R14502   3.217   1.632   2.898
    1PA     H7S14503   3.315   1.775   2.930
    1PA     C1614504   3.364   1.675   2.746
    1PA     H6R14505   3.463   1.721   2.740
    1PA     H6S14506   3.373   1.572   2.708
    1PA     C1514507   3.266   1.753   2.659
    1PA     H5R14508   3.168   1.704   2.662
    1PA     H5S14509   3.254   1.854   2.700
    1PA     C1414510   3.312   1.763   2.513
    1PA     H4R14511   3.411   1.810   2.509
    1PA     H4S14512   3.321   1.663   2.470
    1PA     C1314513   3.213   1.846   2.431
    1PA     H3R14514   3.116   1.797   2.430
    1PA     H3S14515   3.200   1.943   2.479
    1PA     C1214516   3.261   1.869   2.287
    1PA     H2R14517   3.200   1.948   2.240
    1PA     H2S14518   3.364   1.905   2.287
    2PC     C1114519   3.250   1.747   2.199
    2PC     O1214520   3.153   1.674   2.194
    2PC     O1114521   3.362   1.729   2.127
    2PC      C114522   3.368   1.620   2.033
    2PC      HR14523   3.322   1.531   2.076
    2PC      HS14524   3.316   1.647   1.941
    2PC      C214525   3.516   1.590   2.006
    2PC      HX14526   3.567   1.684   1.980
    2PC      C314527   3.536   1.487   1.895
    2PC      HA14528   3.535   1.538   1.798
    2PC      HB14529   3.631   1.435   1.906
    2PC     O3114530   3.428   1.391   1.897
    2PC     P3114531   3.411   1.287   1.778
    2PC     O3214532   3.370   1.385   1.658
    2PC     C3114533   3.232   1.388   1.617
    2PC     H1A14534   3.198   1.286   1.599
    2PC     H1B14535   3.171   1.431   1.697
    2PC     C3214536   3.218   1.467   1.487
    2PC     H2A14537   3.294   1.433   1.416
    2PC     H2B14538   3.120   1.447   1.444
    2PC     N3114539   3.229   1.616   1.493
    2PC     C3314540   3.124   1.675   1.582
    2PC     H3A14541   3.026   1.644   1.546
    2PC     H3B14542   3.141   1.640   1.684
    2PC     H3C14543   3.133   1.784   1.579
    2PC     C3414544   3.365   1.658   1.541
    2PC     H4A14545   3.372   1.767   1.536
    2PC     H4B14546   3.376   1.624   1.644
    2PC     H4C14547   3.440   1.611   1.477
    2PC     C3514548   3.209   1.672   1.355
    2PC     H5A14549   3.216   1.780   1.360
    2PC     H5B14550   3.110   1.641   1.320
    2PC     H5C14551   3.287   1.632   1.290
    2PC     O3314552   3.532   1.206   1.749
    2PC     O3414553   3.304   1.188   1.804
    2PC     O2114554   3.568   1.541   2.131
    2PC     C2114555   3.698   1.554   2.160
    2PC     O2214556   3.784   1.591   2.083
    3OL     C1214557   3.728   1.521   2.304
    3OL     H2R14558   3.830   1.553   2.328
    3OL     H2S14559   3.723   1.412   2.316
    3OL     C1314560   3.630   1.588   2.401
    3OL     H3R14561   3.527   1.566   2.374
    3OL     H3S14562   3.643   1.696   2.395
    3OL     C1414563   3.655   1.543   2.546
    3OL     H4R14564   3.609   1.615   2.614
    3OL     H4S14565   3.762   1.542   2.566
    3OL     C1514566   3.595   1.404   2.572
    3OL     H5R14567   3.630   1.333   2.497
    3OL     H5S14568   3.486   1.410   2.563
    3OL     C1614569   3.632   1.352   2.711
    3OL     H6R14570   3.597   1.421   2.788
    3OL     H6S14571   3.741   1.346   2.720
    3OL     C1714572   3.572   1.213   2.734
    3OL     H7R14573   3.603   1.146   2.654
    3OL     H7S14574   3.463   1.220   2.731
    3OL     C1814575   3.616   1.154   2.869
    3OL     H8R14576   3.591   1.223   2.949
    3OL     H8S14577   3.725   1.144   2.868
    3OL     C1914578   3.554   1.018   2.891
    3OL     H9R14579   3.600   0.938   2.835
    3OL    C11014580   3.453   0.991   2.972
    3OL    H10R14581   3.418   0.888   2.980
    3OL    C11114582   3.374   1.090   3.054
    3OL    H11R14583   3.268   1.079   3.032
    3OL    H11S14584   3.401   1.193   3.028
    3OL    C11214585   3.397   1.069   3.204
    3OL    H12R14586   3.360   1.156   3.258
    3OL    H12S14587   3.504   1.061   3.224
    3OL    C11314588   3.325   0.943   3.256
    3OL    H13R14589   3.350   0.858   3.192
    3OL    H13S14590   3.217   0.959   3.248
    3OL    C11414591   3.361   0.907   3.400
    3OL    H14R14592   3.469   0.887   3.406
    3OL    H14S14593   3.309   0.815   3.427
    3OL    C11514594   3.325   1.017   3.501
    3OL    H15R14595   3.218   1.040   3.493
    3OL    H15S14596   3.381   1.108   3.478
    3OL    C11614597   3.358   0.972   3.644
    3OL    H16R14598   3.463   0.943   3.648
    3OL    H16S14599   3.299   0.885   3.670
    3OL    C11714600   3.335   1.084   3.747
    3OL    H17R14601   3.386   1.175   3.716
    3OL    H17S14602   3.380   1.053   3.842
    3OL    C11814603   3.186   1.113   3.770
    3OL    H18R14604   3.134   1.023   3.803
    3OL    H18S14605   3.139   1.149   3.679
    3OL    H18T14606   3.174   1.189   3.847
    1PA    C11614607   6.026   1.056   3.055
    1PA    H16R14608   5.993   1.027   2.955
    1PA    H16S14609   6.010   1.163   3.067
    1PA    H16T14610   5.964   1.004   3.128
    1PA    C11514611   6.174   1.022   3.075
    1PA    H15R14612   6.234   1.075   3.001
    1PA    H15S14613   6.205   1.055   3.174
    1PA    C11414614   6.197   0.870   3.062
    1PA    H14R14615   6.134   0.819   3.135
    1PA    H14S14616   6.166   0.836   2.963
    1PA    C11314617   6.343   0.831   3.087
    1PA    H13R14618   6.382   0.886   3.173
    1PA    H13S14619   6.347   0.725   3.114
    1PA    C11214620   6.432   0.854   2.964
    1PA    H12R14621   6.391   0.801   2.879
    1PA    H12S14622   6.433   0.961   2.940
    1PA    C11114623   0.127   0.806   2.991
    1PA    H11R14624   0.164   0.855   3.081
    1PA    H11S14625   0.128   0.699   3.011
    1PA    C11014626   0.224   0.838   2.876
    1PA    H10R14627   0.216   0.943   2.849
    1PA    H10S14628   0.326   0.821   2.912
    1PA     C1914629   0.201   0.750   2.752
    1PA     H9R14630   0.203   0.645   2.780
    1PA     H9S14631   0.102   0.771   2.710
    1PA     C1814632   0.309   0.777   2.646
    1PA     H8R14633   0.308   0.883   2.619
    1PA     H8S14634   0.407   0.754   2.688
    1PA     C1714635   0.286   0.693   2.519
    1PA     H7R14636   0.283   0.588   2.546
    1PA     H7S14637   0.190   0.719   2.475
    1PA     C1614638   0.397   0.717   2.416
    1PA     H6R14639   0.399   0.822   2.386
    1PA     H6S14640   0.494   0.694   2.461
    1PA     C1514641   0.376   0.628   2.293
    1PA     H5R14642   0.371   0.523   2.324
    1PA     H5S14643   0.280   0.654   2.248
    1PA     C1414644   0.487   0.646   2.188
    1PA     H4R14645   0.482   0.746   2.145
    1PA     H4S14646   0.584   0.636   2.237
    1PA     C1314647   0.477   0.541   2.077
    1PA     H3R14648   0.568   0.544   2.016
    1PA     H3S14649   0.472   0.441   2.121
    1PA     C1214650   0.357   0.562   1.984
    1PA     H2R14651   0.264   0.568   2.042
    1PA     H2S14652   0.368   0.656   1.929
    2PC     C1114653   0.343   0.448   1.886
    2PC     O1214654   0.253   0.367   1.893
    2PC     O1114655   0.440   0.448   1.793
    2PC      C114656   0.446   0.341   1.697
    2PC      HR14657   0.345   0.310   1.668
    2PC      HS14658   0.498   0.377   1.608
    2PC      C214659   0.524   0.221   1.754
    2PC      HX14660   0.619   0.258   1.793
    2PC      C314661   0.553   0.116   1.646
    2PC      HA14662   0.639   0.151   1.588
    2PC      HB14663   0.580   0.019   1.690
    2PC     O3114664   0.442   0.097   1.557
    2PC     P3114665   0.471   0.049   1.407
    2PC     O3214666   0.525   0.189   1.351
    2PC     C3114667   0.547   0.203   1.210
    2PC     H1A14668   0.622   0.130   1.178
    2PC     H1B14669   0.454   0.184   1.156
    2PC     C3214670   0.599   0.344   1.179
    2PC     H2A14671   0.692   0.361   1.233
    2PC     H2B14672   0.619   0.351   1.072
    2PC     N3114673   0.511   0.461   1.211
    2PC     C3314674   0.571   0.585   1.151
    2PC     H3A14675   0.581   0.570   1.043
    2PC     H3B14676   0.505   0.669   1.172
    2PC     H3C14677   0.669   0.600   1.196
    2PC     C3414678   0.373   0.444   1.154
    2PC     H4A14679   0.315   0.533   1.179
    2PC     H4B14680   0.382   0.434   1.045
    2PC     H4C14681   0.327   0.356   1.197
    2PC     C3514682   0.498   0.483   1.359
    2PC     H5A14683   0.447   0.397   1.402
    2PC     H5B14684   0.439   0.573   1.376
    2PC     H5C14685   0.598   0.495   1.402
    2PC     O3314686   0.573   6.390   1.397
    2PC     O3414687   0.352   0.000   1.332
    2PC     O2114688   0.446   0.168   1.863
    2PC     C2114689   0.504   0.088   1.954
    2PC     O2214690   0.609   0.030   1.936
    3OL     C1214691   0.424   0.081   2.082
    3OL     H2R14692   0.318   0.075   2.057
    3OL     H2S14693   0.440   0.174   2.136
    3OL     C1314694   0.465   6.410   2.169
    3OL     H3R14695   0.573   6.410   2.184
    3OL     H3S14696   0.439   6.317   2.119
    3OL     C1414697   0.397   6.416   2.307
    3OL     H4R14698   0.288   6.419   2.294
    3OL     H4S14699   0.427   0.059   2.359
    3OL     C1514700   0.436   6.293   2.390
    3OL     H5R14701   0.544   6.287   2.397
    3OL     H5S14702   0.401   6.203   2.339
    3OL     C1614703   0.375   6.297   2.531
    3OL     H6R14704   0.266   6.300   2.524
    3OL     H6S14705   0.408   6.388   2.582
    3OL     C1714706   0.419   6.174   2.610
    3OL     H7R14707   0.528   6.171   2.616
    3OL     H7S14708   0.386   6.084   2.558
    3OL     C1814709   0.360   6.171   2.752
    3OL     H8R14710   0.251   6.171   2.744
    3OL     H8S14711   0.391   6.261   2.806
    3OL     C1914712   0.405   6.046   2.823
    3OL     H9R14713   0.418   5.960   2.758
    3OL    C11014714   0.431   6.033   2.952
    3OL    H10R14715   0.465   5.937   2.989
    3OL    C11114716   0.415   6.140   3.058
    3OL    H11R14717   0.367   6.230   3.018
    3OL    H11S14718   0.514   6.168   3.095
    3OL    C11214719   0.332   6.086   3.175
    3OL    H12R14720   0.371   5.988   3.205
    3OL    H12S14721   0.228   6.072   3.144
    3OL    C11314722   0.339   6.182   3.295
    3OL    H13R14723   0.299   6.279   3.266
    3OL    H13S14724   0.444   6.196   3.324
    3OL    C11414725   0.261   6.127   3.415
    3OL    H14R14726   0.296   6.026   3.438
    3OL    H14S14727   0.155   6.120   3.389
    3OL    C11514728   0.279   6.216   3.538
    3OL    H15R14729   0.243   6.317   3.516
    3OL    H15S14730   0.385   6.224   3.562
    3OL    C11614731   0.202   6.160   3.659
    3OL    H16R14732   0.232   6.057   3.677
    3OL    H16S14733   0.095   6.159   3.635
    3OL    C11714734   0.224   6.244   3.785
    3OL    H17R14735   0.147   6.219   3.858
    3OL    H17S14736   0.213   6.350   3.762
    3OL    C11814737   0.361   6.218   3.849
    3OL    H18R14738   0.371   6.276   3.941
    3OL    H18S14739   0.442   6.247   3.781
    3OL    H18T14740   0.373   6.112   3.874
    1PA    C11614741   2.898   1.377   3.524
    1PA    H16R14742   2.831   1.406   3.442
    1PA    H16S14743   2.875   1.439   3.610
    1PA    H16T14744   2.877   1.273   3.550
    1PA    C11514745   3.044   1.394   3.482
    1PA    H15R14746   3.066   1.500   3.464
    1PA    H15S14747   3.108   1.362   3.564
    1PA    C11414748   3.079   1.312   3.357
    1PA    H14R14749   3.188   1.304   3.350
    1PA    H14S14750   3.040   1.211   3.366
    1PA    C11314751   3.026   1.377   3.228
    1PA    H13R14752   2.917   1.375   3.227
    1PA    H13S14753   3.058   1.482   3.225
    1PA    C11214754   3.080   1.304   3.105
    1PA    H12R14755   3.190   1.302   3.110
    1PA    H12S14756   3.046   1.200   3.106
    1PA    C11114757   3.038   1.371   2.974
    1PA    H11R14758   2.929   1.369   2.964
    1PA    H11S14759   3.069   1.476   2.975
    1PA    C11014760   3.102   1.300   2.854
    1PA    H10R14761   3.210   1.296   2.868
    1PA    H10S14762   3.066   1.196   2.851
    1PA     C1914763   3.070   1.369   2.721
    1PA     H9R14764   2.962   1.374   2.706
    1PA     H9S14765   3.108   1.472   2.724
    1PA     C1814766   3.136   1.294   2.605
    1PA     H8R14767   3.243   1.286   2.623
    1PA     H8S14768   3.095   1.192   2.600
    1PA     C1714769   3.111   1.364   2.470
    1PA     H7R14770   3.004   1.376   2.456
    1PA     H7S14771   3.155   1.464   2.472
    1PA     C1614772   3.168   1.284   2.352
    1PA     H6R14773   3.131   1.182   2.356
    1PA     H6S14774   3.131   1.328   2.259
    1PA     C1514775   3.322   1.284   2.349
    1PA     H5R14776   3.358   1.387   2.342
    1PA     H5S14777   3.361   1.240   2.441
    1PA     C1414778   3.375   1.203   2.230
    1PA     H4R14779   3.338   1.100   2.236
    1PA     H4S14780   3.337   1.246   2.137
    1PA     C1314781   3.528   1.203   2.228
    1PA     H3R14782   3.563   1.306   2.218
    1PA     H3S14783   3.567   1.164   2.322
    1PA     C1214784   3.582   1.120   2.111
    1PA     H2R14785   3.550   1.016   2.121
    1PA     H2S14786   3.542   1.159   2.018
    2PC     C1114787   3.733   1.123   2.102
    2PC     O1214788   3.801   1.024   2.116
    2PC     O1114789   3.781   1.246   2.076
    2PC      C114790   3.920   1.266   2.048
    2PC      HR14791   3.962   1.179   1.995
    2PC      HS14792   3.928   1.352   1.982
    2PC      C214793   3.999   1.295   2.176
    2PC      HX14794   3.940   1.364   2.238
    2PC      C314795   4.132   1.367   2.149
    2PC      HA14796   4.112   1.472   2.126
    2PC      HB14797   4.194   1.361   2.239
    2PC     O3114798   4.205   1.308   2.039
    2PC     P3114799   4.336   1.383   1.986
    2PC     O3214800   4.280   1.453   1.853
    2PC     C3114801   4.233   1.367   1.747
    2PC     H1A14802   4.315   1.305   1.710
    2PC     H1B14803   4.155   1.302   1.787
    2PC     C3214804   4.172   1.453   1.635
    2PC     H2A14805   4.109   1.390   1.574
    2PC     H2B14806   4.110   1.530   1.681
    2PC     N3114807   4.264   1.524   1.540
    2PC     C3314808   4.180   1.599   1.442
    2PC     H3A14809   4.115   1.529   1.390
    2PC     H3B14810   4.120   1.673   1.497
    2PC     H3C14811   4.245   1.650   1.371
    2PC     C3414812   4.353   1.622   1.612
    2PC     H4A14813   4.289   1.696   1.660
    2PC     H4B14814   4.412   1.568   1.686
    2PC     H4C14815   4.418   1.670   1.538
    2PC     C3514816   4.348   1.427   1.463
    2PC     H5A14817   4.282   1.357   1.412
    2PC     H5B14818   4.413   1.373   1.533
    2PC     H5C14819   4.408   1.482   1.391
    2PC     O3314820   4.396   1.480   2.080
    2PC     O3414821   4.445   1.287   1.956
    2PC     O2114822   4.025   1.173   2.249
    2PC     C2114823   3.953   1.148   2.359
    2PC     O2214824   3.872   1.224   2.407
    3OL     C1214825   3.987   1.015   2.424
    3OL     H2R14826   4.086   0.983   2.392
    3OL     H2S14827   3.915   0.941   2.387
    3OL     C1314828   3.981   1.025   2.577
    3OL     H3R14829   3.892   1.081   2.607
    3OL     H3S14830   4.068   1.079   2.614
    3OL     C1414831   3.973   0.887   2.644
    3OL     H4R14832   4.060   0.827   2.617
    3OL     H4S14833   3.884   0.834   2.608
    3OL     C1514834   3.965   0.902   2.797
    3OL     H5R14835   3.888   0.975   2.822
    3OL     H5S14836   4.060   0.940   2.834
    3OL     C1614837   3.932   0.769   2.866
    3OL     H6R14838   4.008   0.694   2.842
    3OL     H6S14839   3.836   0.733   2.829
    3OL     C1714840   3.923   0.787   3.018
    3OL     H7R14841   3.853   0.867   3.041
    3OL     H7S14842   4.021   0.817   3.057
    3OL     C1814843   3.877   0.658   3.088
    3OL     H8R14844   3.948   0.578   3.066
    3OL     H8S14845   3.780   0.629   3.047
    3OL     C1914846   3.862   0.681   3.236
    3OL     H9R14847   3.811   0.773   3.263
    3OL    C11014848   3.908   0.605   3.334
    3OL    H10R14849   3.892   0.637   3.437
    3OL    C11114850   3.979   0.473   3.320
    3OL    H11R14851   4.084   0.485   3.347
    3OL    H11S14852   3.977   0.438   3.217
    3OL    C11214853   3.918   0.363   3.408
    3OL    H12R14854   3.968   0.268   3.387
    3OL    H12S14855   3.813   0.351   3.380
    3OL    C11314856   3.925   0.391   3.559
    3OL    H13R14857   3.867   0.314   3.611
    3OL    H13S14858   3.879   0.487   3.582
    3OL    C11414859   4.069   0.386   3.613
    3OL    H14R14860   4.128   0.467   3.570
    3OL    H14S14861   4.115   0.292   3.582
    3OL    C11514862   4.074   0.395   3.766
    3OL    H15R14863   4.174   0.365   3.798
    3OL    H15S14864   4.004   0.324   3.810
    3OL    C11614865   4.044   0.536   3.818
    3OL    H16R14866   3.944   0.565   3.788
    3OL    H16S14867   4.114   0.608   3.774
    3OL    C11714868   4.052   0.544   3.971
    3OL    H17R14869   3.995   0.463   4.016
    3OL    H17S14870   4.007   0.638   4.004
    3OL    C11814871   4.197   0.540   4.023
    3OL    H18R14872   4.256   0.621   3.979
    3OL    H18S14873   4.245   0.445   3.998
    3OL    H18T14874   4.198   0.552   4.131
    1PA    C11614875   1.242   0.136   3.829
    1PA    H16R14876   1.282   0.226   3.875
    1PA    H16S14877   1.282   0.049   3.881
    1PA    H16T14878   1.133   0.137   3.842
    1PA    C11514879   1.277   0.131   3.680
    1PA    H15R14880   1.233   0.041   3.635
    1PA    H15S14881   1.233   0.217   3.630
    1PA    C11414882   1.429   0.131   3.658
    1PA    H14R14883   1.472   0.218   3.707
    1PA    H14S14884   1.472   0.042   3.705
    1PA    C11314885   1.463   0.133   3.509
    1PA    H13R14886   1.423   0.044   3.460
    1PA    H13S14887   1.416   0.221   3.463
    1PA    C11214888   1.615   0.140   3.487
    1PA    H12R14889   1.654   0.228   3.540
    1PA    H12S14890   1.662   0.052   3.530
    1PA    C11114891   1.649   0.151   3.338
    1PA    H11R14892   1.615   0.061   3.286
    1PA    H11S14893   1.596   0.236   3.295
    1PA    C11014894   1.800   0.170   3.318
    1PA    H10R14895   1.831   0.258   3.375
    1PA    H10S14896   1.855   0.084   3.357
    1PA     C1914897   1.835   0.193   3.170
    1PA     H9R14898   1.930   0.246   3.165
    1PA     H9S14899   1.760   0.258   3.124
    1PA     C1814900   1.848   0.062   3.091
    1PA     H8R14901   1.931   0.003   3.130
    1PA     H8S14902   1.757   0.003   3.101
    1PA     C1714903   1.871   0.093   2.942
    1PA     H7R14904   1.786   0.152   2.905
    1PA     H7S14905   1.960   0.155   2.931
    1PA     C1614906   1.886   6.414   2.858
    1PA     H6R14907   1.980   6.364   2.880
    1PA     H6S14908   1.806   6.344   2.885
    1PA     C1514909   1.875   6.444   2.708
    1PA     H5R14910   1.857   6.351   2.654
    1PA     H5S14911   1.787   0.060   2.691
    1PA     C1414912   2.000   0.063   2.650
    1PA     H4R14913   2.034   0.143   2.717
    1PA     H4S14914   2.081   6.437   2.643
    1PA     C1314915   1.974   0.125   2.512
    1PA     H3R14916   1.894   0.199   2.521
    1PA     H3S14917   2.064   0.179   2.481
    1PA     C1214918   1.937   0.022   2.404
    1PA     H2R14919   2.018   6.399   2.391
    1PA     H2S14920   1.848   6.414   2.435
    2PC     C1114921   1.905   0.085   2.271
    2PC     O1214922   1.866   0.021   2.176
    2PC     O1114923   1.924   0.218   2.268
    2PC      C114924   1.887   0.295   2.152
    2PC      HR14925   1.926   0.396   2.165
    2PC      HS14926   1.933   0.252   2.063
    2PC      C214927   1.735   0.305   2.135
    2PC      HX14928   1.691   0.207   2.114
    2PC      C314929   1.705   0.399   2.018
    2PC      HA14930   1.740   0.500   2.041
    2PC      HB14931   1.753   0.364   1.927
    2PC     O3114932   1.562   0.403   1.997
    2PC     P3114933   1.505   0.505   1.887
    2PC     O3214934   1.348   0.480   1.913
    2PC     C3114935   1.253   0.565   1.848
    2PC     H1A14936   1.156   0.552   1.897
    2PC     H1B14937   1.283   0.670   1.859
    2PC     C3214938   1.242   0.529   1.699
    2PC     H2A14939   1.174   0.600   1.651
    2PC     H2B14940   1.340   0.538   1.651
    2PC     N3114941   1.190   0.393   1.664
    2PC     C3314942   1.288   0.285   1.699
    2PC     H3A14943   1.300   0.283   1.808
    2PC     H3B14944   1.249   0.190   1.664
    2PC     H3C14945   1.383   0.308   1.651
    2PC     C3414946   1.060   0.366   1.733
    2PC     H4A14947   1.021   0.271   1.697
    2PC     H4B14948   1.078   0.361   1.841
    2PC     H4C14949   0.990   0.447   1.710
    2PC     C3514950   1.167   0.388   1.516
    2PC     H5A14951   1.090   0.461   1.490
    2PC     H5B14952   1.135   0.287   1.489
    2PC     H5C14953   1.261   0.412   1.465
    2PC     O3314954   1.543   0.646   1.907
    2PC     O3414955   1.547   0.471   1.750
    2PC     O2114956   1.679   0.364   2.254
    2PC     C2114957   1.641   0.283   2.354
    2PC     O2214958   1.641   0.162   2.348
    3OL     C1214959   1.599   0.361   2.477
    3OL     H2R14960   1.514   0.424   2.450
    3OL     H2S14961   1.681   0.426   2.507
    3OL     C1314962   1.560   0.266   2.591
    3OL     H3R14963   1.648   0.207   2.619
    3OL     H3S14964   1.483   0.198   2.557
    3OL     C1414965   1.508   0.341   2.715
    3OL     H4R14966   1.419   0.397   2.689
    3OL     H4S14967   1.583   0.412   2.751
    3OL     C1514968   1.476   0.240   2.826
    3OL     H5R14969   1.567   0.190   2.859
    3OL     H5S14970   1.409   0.163   2.787
    3OL     C1614971   1.409   0.308   2.946
    3OL     H6R14972   1.320   0.363   2.912
    3OL     H6S14973   1.477   0.381   2.990
    3OL     C1714974   1.368   0.205   3.052
    3OL     H7R14975   1.457   0.150   3.084
    3OL     H7S14976   1.298   0.133   3.008
    3OL     C1814977   1.303   0.270   3.175
    3OL     H8R14978   1.371   0.345   3.215
    3OL     H8S14979   1.289   0.193   3.252
    3OL     C1914980   1.171   0.335   3.142
    3OL     H9R14981   1.161   0.375   3.041
    3OL    C11014982   1.067   0.342   3.224
    3OL    H10R14983   0.975   0.389   3.191
    3OL    C11114984   1.068   0.295   3.367
    3OL    H11R14985   1.157   0.333   3.419
    3OL    H11S14986   1.072   0.185   3.370
    3OL    C11214987   0.942   0.341   3.442
    3OL    H12R14988   0.854   0.298   3.395
    3OL    H12S14989   0.934   0.450   3.435
    3OL    C11314990   0.949   0.300   3.590
    3OL    H13R14991   1.036   0.346   3.636
    3OL    H13S14992   0.961   0.192   3.597
    3OL    C11414993   0.822   0.342   3.665
    3OL    H14R14994   0.736   0.290   3.623
    3OL    H14S14995   0.805   0.449   3.652
    3OL    C11514996   0.835   0.310   3.815
    3OL    H15R14997   0.917   0.369   3.855
    3OL    H15S14998   0.861   0.205   3.829
    3OL    C11614999   0.707   0.343   3.893
    3OL    H16R15000   0.668   0.440   3.862
    3OL    H16S15001   0.732   0.349   3.999
    3OL    C11715002   0.600   0.234   3.874
    3OL    H17R15003   0.640   0.137   3.906
    3OL    H17S15004   0.573   0.226   3.768
    3OL    C11815005   0.474   0.266   3.955
    3OL    H18R15006   0.400   0.186   3.943
    3OL    H18S15007   0.429   0.360   3.922
    3OL    H18T15008   0.498   0.274   4.062
    1PA    C11615009   0.628   5.538   3.831
    1PA    H16R15010   0.618   5.444   3.775
    1PA    H16S15011   0.533   5.592   3.825
    1PA    H16T15012   0.647   5.513   3.935
    1PA    C11515013   0.743   5.622   3.774
    1PA    H15R15014   0.752   5.715   3.831
    1PA    H15S15015   0.836   5.567   3.786
    1PA    C11415016   0.724   5.655   3.625
    1PA    H14R15017   0.820   5.689   3.586
    1PA    H14S15018   0.697   5.564   3.571
    1PA    C11315019   0.618   5.763   3.602
    1PA    H13R15020   0.522   5.729   3.642
    1PA    H13S15021   0.645   5.854   3.657
    1PA    C11215022   0.599   5.796   3.454
    1PA    H12R15023   0.586   5.704   3.397
    1PA    H12S15024   0.508   5.855   3.442
    1PA    C11115025   0.717   5.876   3.396
    1PA    H11R15026   0.728   5.970   3.450
    1PA    H11S15027   0.810   5.820   3.407
    1PA    C11015028   0.693   5.905   3.247
    1PA    H10R15029   0.678   5.810   3.194
    1PA    H10S15030   0.603   5.964   3.235
    1PA     C1915031   0.812   5.979   3.184
    1PA     H9R15032   0.824   6.077   3.230
    1PA     H9S15033   0.904   5.922   3.201
    1PA     C1815034   0.790   5.995   3.033
    1PA     H8R15035   0.773   5.897   2.988
    1PA     H8S15036   0.702   6.057   3.015
    1PA     C1715037   0.912   6.061   2.965
    1PA     H7R15038   0.926   6.161   3.005
    1PA     H7S15039   1.001   6.002   2.987
    1PA     C1615040   0.891   6.068   2.813
    1PA     H6R15041   0.868   5.968   2.775
    1PA     H6S15042   0.806   6.133   2.791
    1PA     C1515043   1.017   6.120   2.742
    1PA     H5R15044   1.043   6.220   2.779
    1PA     H5S15045   1.101   6.054   2.767
    1PA     C1415046   1.000   6.123   2.590
    1PA     H4R15047   1.099   6.122   2.544
    1PA     H4S15048   0.949   6.032   2.556
    1PA     C1315049   0.924   6.248   2.543
    1PA     H3R15050   0.825   6.251   2.588
    1PA     H3S15051   0.979   6.337   2.574
    1PA     C1215052   0.910   6.249   2.390
    1PA     H2R15053   1.008   6.234   2.343
    1PA     H2S15054   0.845   6.167   2.357
    2PC     C1115055   0.852   6.379   2.340
    2PC     O1215056   0.766   6.441   2.398
    2PC     O1115057   0.914   6.421   2.228
    2PC      C115058   0.878   0.103   2.176
    2PC      HR15059   0.773   0.102   2.144
    2PC      HS15060   0.888   0.177   2.256
    2PC      C215061   0.969   0.138   2.058
    2PC      HX15062   0.948   0.240   2.024
    2PC      C315063   0.948   0.040   1.943
    2PC      HA15064   0.969   6.386   1.977
    2PC      HB15065   0.844   0.046   1.909
    2PC     O3115066   1.033   0.075   1.833
    2PC     P3115067   1.032   6.434   1.699
    2PC     O3215068   1.155   6.336   1.730
    2PC     C3115069   1.129   6.209   1.792
    2PC     H1A15070   1.057   6.220   1.873
    2PC     H1B15071   1.089   6.140   1.718
    2PC     C3215072   1.262   6.155   1.848
    2PC     H2A15073   1.251   6.049   1.871
    2PC     H2B15074   1.339   6.165   1.771
    2PC     N3115075   1.317   6.219   1.971
    2PC     C3315076   1.338   6.367   1.955
    2PC     H3A15077   1.400   6.383   1.867
    2PC     H3B15078   1.240   6.414   1.941
    2PC     H3C15079   1.387   6.405   2.044
    2PC     C3415080   1.226   6.195   2.088
    2PC     H4A15081   1.209   6.088   2.096
    2PC     H4B15082   1.274   6.234   2.178
    2PC     H4C15083   1.131   6.247   2.070
    2PC     C3515084   1.450   6.157   2.001
    2PC     H5A15085   1.518   6.180   1.919
    2PC     H5B15086   1.438   6.049   2.010
    2PC     H5C15087   1.489   6.199   2.094
    2PC     O3315088   0.906   6.365   1.667
    2PC     O3415089   1.063   0.073   1.583
    2PC     O2115090   1.107   0.127   2.101
    2PC     C2115091   1.154   0.215   2.191
    2PC     O2215092   1.097   0.317   2.223
    3OL     C1215093   1.281   0.165   2.255
    3OL     H2R15094   1.327   0.245   2.313
    3OL     H2S15095   1.350   0.136   2.176
    3OL     C1315096   1.247   0.046   2.345
    3OL     H3R15097   1.174   6.430   2.295
    3OL     H3S15098   1.202   0.081   2.437
    3OL     C1415099   1.371   6.408   2.376
    3OL     H4R15100   1.444   0.019   2.431
    3OL     H4S15101   1.417   6.375   2.283
    3OL     C1515102   1.330   6.285   2.459
    3OL     H5R15103   1.249   6.233   2.407
    3OL     H5S15104   1.291   6.317   2.556
    3OL     C1615105   1.445   6.186   2.478
    3OL     H6R15106   1.479   6.152   2.379
    3OL     H6S15107   1.408   6.097   2.530
    3OL     C1715108   1.565   6.243   2.554
    3OL     H7R15109   1.606   6.330   2.501
    3OL     H7S15110   1.644   6.168   2.554
    3OL     C1815111   1.534   6.282   2.699
    3OL     H8R15112   1.464   6.366   2.701
    3OL     H8S15113   1.627   6.317   2.745
    3OL     C1915114   1.482   6.166   2.780
    3OL     H9R15115   1.525   6.069   2.755
    3OL    C11015116   1.387   6.173   2.872
    3OL    H10R15117   1.355   6.082   2.923
    3OL    C11115118   1.323   6.301   2.919
    3OL    H11R15119   1.268   6.346   2.837
    3OL    H11S15120   1.400   6.372   2.950
    3OL    C11215121   1.225   6.280   3.036
    3OL    H12R15122   1.145   6.213   3.004
    3OL    H12S15123   1.180   6.375   3.062
    3OL    C11315124   1.293   6.221   3.161
    3OL    H13R15125   1.376   6.285   3.191
    3OL    H13S15126   1.334   6.122   3.138
    3OL    C11415127   1.193   6.208   3.276
    3OL    H14R15128   1.110   6.144   3.245
    3OL    H14S15129   1.151   6.306   3.299
    3OL    C11515130   1.260   6.150   3.402
    3OL    H15R15131   1.344   6.215   3.429
    3OL    H15S15132   1.301   6.051   3.380
    3OL    C11615133   1.163   6.143   3.521
    3OL    H16R15134   1.107   6.237   3.527
    3OL    H16S15135   1.221   6.136   3.613
    3OL    C11715136   1.065   6.026   3.513
    3OL    H17R15137   1.024   6.016   3.412
    3OL    H17S15138   0.981   6.047   3.580
    3OL    C11815139   1.129   5.894   3.557
    3OL    H18R15140   1.213   5.868   3.492
    3OL    H18S15141   1.056   5.813   3.552
    3OL    H18T15142   1.166   5.901   3.660
    1PA    C11615143   4.432   3.631   2.878
    1PA    H16R15144   4.496   3.703   2.826
    1PA    H16S15145   4.447   3.533   2.832
    1PA    H16T15146   4.463   3.626   2.983
    1PA    C11515147   4.285   3.674   2.866
    1PA    H15R15148   4.259   3.676   2.760
    1PA    H15S15149   4.221   3.599   2.914
    1PA    C11415150   4.259   3.812   2.926
    1PA    H14R15151   4.334   3.883   2.890
    1PA    H14S15152   4.162   3.847   2.890
    1PA    C11315153   4.259   3.811   3.080
    1PA    H13R15154   4.194   3.731   3.118
    1PA    H13S15155   4.360   3.788   3.114
    1PA    C11215156   4.218   3.946   3.139
    1PA    H12R15157   4.278   3.963   3.228
    1PA    H12S15158   4.243   4.027   3.069
    1PA    C11115159   4.070   3.956   3.180
    1PA    H11R15160   4.046   3.877   3.251
    1PA    H11S15161   4.058   4.050   3.234
    1PA    C11015162   3.971   3.957   3.063
    1PA    H10R15163   3.889   4.024   3.087
    1PA    H10S15164   4.020   3.998   2.974
    1PA     C1915165   3.913   3.817   3.036
    1PA     H9R15166   3.994   3.746   3.017
    1PA     H9S15167   3.861   3.783   3.126
    1PA     C1815168   3.815   3.813   2.918
    1PA     H8R15169   3.774   3.713   2.912
    1PA     H8S15170   3.732   3.882   2.936
    1PA     C1715171   3.883   3.847   2.785
    1PA     H7R15172   3.910   3.953   2.783
    1PA     H7S15173   3.975   3.789   2.775
    1PA     C1615174   3.793   3.816   2.665
    1PA     H6R15175   3.775   3.709   2.660
    1PA     H6S15176   3.696   3.865   2.678
    1PA     C1515177   3.859   3.864   2.535
    1PA     H5R15178   3.866   3.973   2.536
    1PA     H5S15179   3.961   3.826   2.530
    1PA     C1415180   3.784   3.819   2.408
    1PA     H4R15181   3.846   3.842   2.322
    1PA     H4S15182   3.769   3.711   2.410
    1PA     C1315183   3.649   3.891   2.393
    1PA     H3R15184   3.582   3.862   2.474
    1PA     H3S15185   3.665   3.999   2.400
    1PA     C1215186   3.583   3.858   2.258
    1PA     H2R15187   3.648   3.890   2.176
    1PA     H2S15188   3.568   3.750   2.249
    2PC     C1115189   3.451   3.929   2.247
    2PC     O1215190   3.343   3.873   2.246
    2PC     O1115191   3.466   4.062   2.247
    2PC      C115192   3.352   4.145   2.278
    2PC      HR15193   3.277   4.137   2.200
    2PC      HS15194   3.308   4.112   2.372
    2PC      C215195   3.402   4.290   2.293
    2PC      HX15196   3.325   4.351   2.341
    2PC      C315197   3.434   4.349   2.155
    2PC      HA15198   3.518   4.295   2.110
    2PC      HB15199   3.347   4.341   2.089
    2PC     O3115200   3.468   4.488   2.170
    2PC     P3115201   3.498   4.572   2.037
    2PC     O3215202   3.527   4.717   2.099
    2PC     C3115203   3.493   4.831   2.019
    2PC     H1A15204   3.532   4.817   1.917
    2PC     H1B15205   3.385   4.842   2.014
    2PC     C3215206   3.556   4.957   2.081
    2PC     H2A15207   3.535   5.042   2.016
    2PC     H2B15208   3.511   4.975   2.178
    2PC     N3115209   3.704   4.957   2.103
    2PC     C3315210   3.741   4.867   2.217
    2PC     H3A15211   3.719   4.764   2.189
    2PC     H3B15212   3.848   4.878   2.235
    2PC     H3C15213   3.684   4.897   2.305
    2PC     C3415214   3.778   4.913   1.979
    2PC     H4A15215   3.750   4.979   1.897
    2PC     H4B15216   3.885   4.917   1.999
    2PC     H4C15217   3.748   4.810   1.957
    2PC     C3515218   3.749   5.095   2.138
    2PC     H5A15219   3.702   5.123   2.232
    2PC     H5B15220   3.719   5.163   2.058
    2PC     H5C15221   3.858   5.094   2.149
    2PC     O3315222   3.615   4.521   1.962
    2PC     O3415223   3.383   4.576   1.944
    2PC     O2115224   3.522   4.292   2.371
    2PC     C2115225   3.519   4.255   2.501
    2PC     O2215226   3.417   4.225   2.560
    3OL     C1215227   3.657   4.253   2.560
    3OL     H2R15228   3.693   4.355   2.570
    3OL     H2S15229   3.724   4.204   2.488
    3OL     C1315230   3.667   4.179   2.694
    3OL     H3R15231   3.773   4.157   2.713
    3OL     H3S15232   3.615   4.084   2.688
    3OL     C1415233   3.613   4.262   2.811
    3OL     H4R15234   3.506   4.281   2.797
    3OL     H4S15235   3.663   4.359   2.813
    3OL     C1515236   3.635   4.189   2.944
    3OL     H5R15237   3.742   4.170   2.959
    3OL     H5S15238   3.586   4.092   2.939
    3OL     C1615239   3.580   4.266   3.065
    3OL     H6R15240   3.579   4.200   3.151
    3OL     H6S15241   3.476   4.295   3.046
    3OL     C1715242   3.664   4.390   3.098
    3OL     H7R15243   3.662   4.459   3.013
    3OL     H7S15244   3.768   4.361   3.113
    3OL     C1815245   3.613   4.464   3.222
    3OL     H8R15246   3.507   4.490   3.209
    3OL     H8S15247   3.667   4.559   3.229
    3OL     C1915248   3.637   4.388   3.350
    3OL     H9R15249   3.742   4.374   3.375
    3OL    C11015250   3.545   4.346   3.435
    3OL    H10R15251   3.577   4.297   3.527
    3OL    C11115252   3.396   4.351   3.414
    3OL    H11R15253   3.372   4.351   3.307
    3OL    H11S15254   3.356   4.443   3.457
    3OL    C11215255   3.328   4.231   3.481
    3OL    H12R15256   3.340   4.240   3.590
    3OL    H12S15257   3.378   4.139   3.451
    3OL    C11315258   3.179   4.224   3.445
    3OL    H13R15259   3.169   4.218   3.336
    3OL    H13S15260   3.129   4.315   3.478
    3OL    C11415261   3.112   4.102   3.510
    3OL    H14R15262   3.126   4.106   3.618
    3OL    H14S15263   3.160   4.010   3.474
    3OL    C11515264   2.963   4.098   3.477
    3OL    H15R15265   2.949   4.091   3.368
    3OL    H15S15266   2.916   4.190   3.510
    3OL    C11615267   2.895   3.977   3.544
    3OL    H16R15268   2.907   3.983   3.652
    3OL    H16S15269   2.944   3.886   3.510
    3OL    C11715270   2.745   3.968   3.510
    3OL    H17R15271   2.708   3.871   3.543
    3OL    H17S15272   2.731   3.974   3.402
    3OL    C11815273   2.663   4.078   3.579
    3OL    H18R15274   2.692   4.177   3.543
    3OL    H18S15275   2.678   4.074   3.688
    3OL    H18T15276   2.557   4.064   3.559
    1PA    C11615277   2.515   0.610   3.794
    1PA    H16R15278   2.471   0.522   3.842
    1PA    H16S15279   2.438   0.687   3.787
    1PA    H16T15280   2.595   0.648   3.859
    1PA    C11515281   2.571   0.575   3.656
    1PA    H15R15282   2.620   0.662   3.613
    1PA    H15S15283   2.646   0.496   3.667
    1PA    C11415284   2.459   0.527   3.562
    1PA    H14R15285   2.406   0.443   3.607
    1PA    H14S15286   2.386   0.608   3.550
    1PA    C11315287   2.511   0.488   3.423
    1PA    H13R15288   2.425   0.476   3.357
    1PA    H13S15289   2.574   0.567   3.383
    1PA    C11215290   2.588   0.355   3.428
    1PA    H12R15291   2.682   0.369   3.482
    1PA    H12S15292   2.529   0.282   3.484
    1PA    C11115293   2.617   0.296   3.289
    1PA    H11R15294   2.662   0.198   3.303
    1PA    H11S15295   2.523   0.281   3.235
    1PA    C11015296   2.711   0.382   3.204
    1PA    H10R15297   2.663   0.477   3.179
    1PA    H10S15298   2.802   0.405   3.261
    1PA     C1915299   2.749   0.307   3.076
    1PA     H9R15300   2.799   0.213   3.103
    1PA     H9S15301   2.658   0.280   3.021
    1PA     C1815302   2.841   0.389   2.985
    1PA     H8R15303   2.787   0.477   2.948
    1PA     H8S15304   2.927   0.424   3.042
    1PA     C1715305   2.889   0.304   2.867
    1PA     H7R15306   2.941   0.216   2.905
    1PA     H7S15307   2.803   0.269   2.809
    1PA     C1615308   2.984   0.382   2.775
    1PA     H6R15309   2.932   0.468   2.733
    1PA     H6S15310   3.068   0.419   2.834
    1PA     C1515311   3.036   0.293   2.661
    1PA     H5R15312   3.083   0.204   2.703
    1PA     H5S15313   2.952   0.260   2.599
    1PA     C1415314   3.137   0.369   2.575
    1PA     H4R15315   3.090   0.459   2.536
    1PA     H4S15316   3.221   0.401   2.638
    1PA     C1315317   3.190   0.285   2.458
    1PA     H3R15318   3.237   0.194   2.497
    1PA     H3S15319   3.107   0.255   2.393
    1PA     C1215320   3.293   0.366   2.379
    1PA     H2R15321   3.247   0.458   2.342
    1PA     H2S15322   3.375   0.394   2.444
    2PC     C1115323   3.350   0.292   2.260
    2PC     O1215324   3.285   0.222   2.184
    2PC     O1115325   3.482   0.313   2.248
    2PC      C115326   3.546   0.284   2.123
    2PC      HR15327   3.525   0.181   2.093
    2PC      HS15328   3.506   0.350   2.046
    2PC      C215329   3.697   0.305   2.137
    2PC      HX15330   3.742   0.312   2.037
    2PC      C315331   3.764   0.190   2.213
    2PC      HA15332   3.818   0.230   2.299
    2PC      HB15333   3.690   0.118   2.249
    2PC     O3115334   3.860   0.122   2.129
    2PC     P3115335   3.809   0.012   2.025
    2PC     O3215336   3.772   6.340   2.125
    2PC     C3115337   3.641   6.282   2.119
    2PC     H1A15338   3.624   6.223   2.210
    2PC     H1B15339   3.567   6.362   2.116
    2PC     C3215340   3.627   6.192   1.996
    2PC     H2A15341   3.522   6.165   1.984
    2PC     H2B15342   3.657   6.248   1.907
    2PC     N3115343   3.703   6.063   1.994
    2PC     C3315344   3.676   5.993   1.864
    2PC     H3A15345   3.735   5.901   1.861
    2PC     H3B15346   3.570   5.969   1.859
    2PC     H3C15347   3.704   6.059   1.782
    2PC     C3415348   3.851   6.084   2.005
    2PC     H4A15349   3.873   6.131   2.101
    2PC     H4B15350   3.900   5.987   1.999
    2PC     H4C15351   3.884   6.148   1.923
    2PC     C3515352   3.656   5.974   2.104
    2PC     H5A15353   3.548   5.963   2.097
    2PC     H5B15354   3.684   6.018   2.200
    2PC     H5C15355   3.704   5.876   2.092
    2PC     O3315356   3.691   0.060   1.949
    2PC     O3415357   3.903   6.421   1.917
    2PC     O2115358   3.725   0.426   2.209
    2PC     C2115359   3.690   0.545   2.156
    2PC     O2215360   3.645   0.558   2.044
    3OL     C1215361   3.716   0.659   2.250
    3OL     H2R15362   3.773   0.736   2.197
    3OL     H2S15363   3.778   0.624   2.333
    3OL     C1315364   3.585   0.718   2.304
    3OL     H3R15365   3.529   0.640   2.357
    3OL     H3S15366   3.523   0.751   2.220
    3OL     C1415367   3.612   0.836   2.398
    3OL     H4R15368   3.670   0.910   2.344
    3OL     H4S15369   3.672   0.803   2.483
    3OL     C1515370   3.483   0.902   2.448
    3OL     H5R15371   3.414   0.916   2.365
    3OL     H5S15372   3.508   1.002   2.486
    3OL     C1615373   3.415   0.824   2.562
    3OL     H6R15374   3.486   0.811   2.644
    3OL     H6S15375   3.385   0.726   2.526
    3OL     C1715376   3.292   0.900   2.613
    3OL     H7R15377   3.220   0.913   2.531
    3OL     H7S15378   3.322   1.000   2.646
    3OL     C1815379   3.224   0.827   2.729
    3OL     H8R15380   3.296   0.815   2.811
    3OL     H8S15381   3.194   0.727   2.696
    3OL     C1915382   3.103   0.903   2.777
    3OL     H9R15383   3.083   0.996   2.725
    3OL    C11015384   3.021   0.863   2.874
    3OL    H10R15385   2.936   0.925   2.899
    3OL    C11115386   3.038   0.739   2.957
    3OL    H11R15387   3.141   0.704   2.954
    3OL    H11S15388   2.976   0.659   2.916
    3OL    C11215389   2.997   0.762   3.103
    3OL    H12R15390   3.047   0.852   3.140
    3OL    H12S15391   3.031   0.678   3.163
    3OL    C11315392   2.845   0.777   3.119
    3OL    H13R15393   2.797   0.685   3.083
    3OL    H13S15394   2.807   0.859   3.057
    3OL    C11415395   2.804   0.799   3.265
    3OL    H14R15396   2.857   0.728   3.329
    3OL    H14S15397   2.697   0.778   3.275
    3OL    C11515398   2.830   0.944   3.310
    3OL    H15R15399   2.772   1.011   3.247
    3OL    H15S15400   2.935   0.969   3.296
    3OL    C11615401   2.790   0.967   3.456
    3OL    H16R15402   2.690   0.928   3.474
    3OL    H16S15403   2.787   1.074   3.475
    3OL    C11715404   2.890   0.903   3.553
    3OL    H17R15405   2.991   0.940   3.533
    3OL    H17S15406   2.891   0.794   3.540
    3OL    C11815407   2.853   0.934   3.699
    3OL    H18R15408   2.923   0.886   3.767
    3OL    H18S15409   2.752   0.898   3.722
    3OL    H18T15410   2.857   1.042   3.716
    1PA    C11615411   5.568   1.944   4.190
    1PA    H16R15412   5.641   1.943   4.109
    1PA    H16S15413   5.620   1.918   4.283
    1PA    H16T15414   5.527   2.044   4.200
    1PA    C11515415   5.456   1.842   4.163
    1PA    H15R15416   5.499   1.742   4.156
    1PA    H15S15417   5.386   1.842   4.247
    1PA    C11415418   5.380   1.875   4.034
    1PA    H14R15419   5.338   1.975   4.040
    1PA    H14S15420   5.449   1.873   3.949
    1PA    C11315421   5.267   1.773   4.011
    1PA    H13R15422   5.308   1.672   4.004
    1PA    H13S15423   5.201   1.776   4.097
    1PA    C11215424   5.184   1.804   3.885
    1PA    H12R15425   5.086   1.757   3.897
    1PA    H12S15426   5.168   1.911   3.875
    1PA    C11115427   5.248   1.746   3.758
    1PA    H11R15428   5.345   1.794   3.741
    1PA    H11S15429   5.265   1.639   3.770
    1PA    C11015430   5.156   1.770   3.637
    1PA    H10R15431   5.058   1.728   3.659
    1PA    H10S15432   5.143   1.877   3.621
    1PA     C1915433   5.208   1.704   3.508
    1PA     H9R15434   5.226   1.598   3.526
    1PA     H9S15435   5.130   1.712   3.432
    1PA     C1815436   5.336   1.771   3.456
    1PA     H8R15437   5.321   1.879   3.456
    1PA     H8S15438   5.419   1.750   3.523
    1PA     C1715439   5.372   1.726   3.314
    1PA     H7R15440   5.285   1.738   3.248
    1PA     H7S15441   5.450   1.793   3.276
    1PA     C1615442   5.423   1.582   3.307
    1PA     H6R15443   5.507   1.572   3.377
    1PA     H6S15444   5.346   1.512   3.339
    1PA     C1515445   5.473   1.546   3.167
    1PA     H5R15446   5.526   1.631   3.123
    1PA     H5S15447   5.545   1.465   3.176
    1PA     C1415448   5.361   1.500   3.073
    1PA     H4R15449   5.315   1.410   3.115
    1PA     H4S15450   5.283   1.577   3.066
    1PA     C1315451   5.415   1.470   2.933
    1PA     H3R15452   5.442   1.563   2.883
    1PA     H3S15453   5.506   1.410   2.941
    1PA     C1215454   5.311   1.395   2.848
    1PA     H2R15455   5.279   1.305   2.899
    1PA     H2S15456   5.223   1.458   2.835
    2PC     C1115457   5.361   1.355   2.711
    2PC     O1215458   5.476   1.364   2.674
    2PC     O1115459   5.261   1.310   2.635
    2PC      C115460   5.285   1.265   2.500
    2PC      HR15461   5.189   1.249   2.451
    2PC      HS15462   5.339   1.343   2.446
    2PC      C215463   5.366   1.135   2.496
    2PC      HX15464   5.456   1.144   2.557
    2PC      C315465   5.412   1.102   2.353
    2PC      HA15466   5.497   1.166   2.327
    2PC      HB15467   5.443   0.998   2.347
    2PC     O3115468   5.305   1.127   2.259
    2PC     P3115469   5.337   1.115   2.102
    2PC     O3215470   5.324   0.957   2.078
    2PC     C3115471   5.444   0.883   2.050
    2PC     H1A15472   5.500   0.932   1.970
    2PC     H1B15473   5.506   0.879   2.140
    2PC     C3215474   5.405   0.741   2.007
    2PC     H2A15475   5.495   0.681   1.999
    2PC     H2B15476   5.342   0.696   2.084
    2PC     N3115477   5.333   0.724   1.877
    2PC     C3315478   5.414   0.779   1.764
    2PC     H3A15479   5.512   0.732   1.765
    2PC     H3B15480   5.363   0.757   1.670
    2PC     H3C15481   5.424   0.887   1.777
    2PC     C3415482   5.311   0.578   1.852
    2PC     H4A15483   5.408   0.528   1.855
    2PC     H4B15484   5.247   0.539   1.932
    2PC     H4C15485   5.263   0.565   1.755
    2PC     C3515486   5.197   0.788   1.879
    2PC     H5A15487   5.140   0.743   1.961
    2PC     H5B15488   5.148   0.769   1.783
    2PC     H5C15489   5.209   0.896   1.895
    2PC     O3315490   5.237   1.185   2.018
    2PC     O3415491   5.469   1.170   2.064
    2PC     O2115492   5.287   1.024   2.543
    2PC     C2115493   5.288   0.994   2.674
    2PC     O2215494   5.350   1.056   2.758
    3OL     C1215495   5.206   0.872   2.707
    3OL     H2R15496   5.169   0.828   2.614
    3OL     H2S15497   5.118   0.904   2.765
    3OL     C1315498   5.287   0.769   2.786
    3OL     H3R15499   5.323   0.813   2.878
    3OL     H3S15500   5.374   0.738   2.727
    3OL     C1415501   5.200   0.646   2.818
    3OL     H4R15502   5.165   0.601   2.725
    3OL     H4S15503   5.113   0.679   2.875
    3OL     C1515504   5.276   0.540   2.899
    3OL     H5R15505   5.316   0.585   2.991
    3OL     H5S15506   5.361   0.502   2.842
    3OL     C1615507   5.181   0.426   2.936
    3OL     H6R15508   5.145   0.379   2.844
    3OL     H6S15509   5.095   0.467   2.988
    3OL     C1715510   5.245   0.318   3.025
    3OL     H7R15511   5.280   0.364   3.118
    3OL     H7S15512   5.331   0.273   2.975
    3OL     C1815513   5.140   0.211   3.057
    3OL     H8R15514   5.112   0.161   2.964
    3OL     H8S15515   5.051   0.260   3.096
    3OL     C1915516   5.190   0.108   3.156
    3OL     H9R15517   5.297   0.093   3.157
    3OL    C11015518   5.113   0.041   3.239
    3OL    H10R15519   5.158   6.417   3.308
    3OL    C11115520   4.962   0.051   3.245
    3OL    H11R15521   4.919   0.002   3.157
    3OL    H11S15522   4.932   0.156   3.244
    3OL    C11215523   4.905   6.432   3.372
    3OL    H12R15524   4.951   0.031   3.459
    3OL    H12S15525   4.931   6.326   3.374
    3OL    C11315526   4.753   0.002   3.381
    3OL    H13R15527   4.727   0.105   3.356
    3OL    H13S15528   4.723   6.433   3.485
    3OL    C11415529   4.676   6.352   3.292
    3OL    H14R15530   4.692   6.250   3.328
    3OL    H14S15531   4.715   6.357   3.190
    3OL    C11515532   4.526   6.385   3.292
    3OL    H15R15533   4.515   0.040   3.255
    3OL    H15S15534   4.487   6.383   3.393
    3OL    C11615535   4.445   6.293   3.199
    3OL    H16R15536   4.501   6.277   3.107
    3OL    H16S15537   4.352   6.343   3.172
    3OL    C11715538   4.411   6.157   3.263
    3OL    H17R15539   4.501   6.112   3.305
    3OL    H17S15540   4.375   6.091   3.184
    3OL    C11815541   4.303   6.169   3.370
    3OL    H18R15542   4.337   6.228   3.455
    3OL    H18S15543   4.276   6.069   3.407
    3OL    H18T15544   4.213   6.215   3.329
    1PA    C11615545   4.303   4.773   3.703
    1PA    H16R15546   4.301   4.777   3.812
    1PA    H16S15547   4.402   4.740   3.672
    1PA    H16T15548   4.230   4.698   3.671
    1PA    C11515549   4.270   4.911   3.644
    1PA    H15R15550   4.170   4.941   3.675
    1PA    H15S15551   4.341   4.984   3.685
    1PA    C11415552   4.280   4.914   3.491
    1PA    H14R15553   4.268   5.018   3.458
    1PA    H14S15554   4.379   4.881   3.460
    1PA    C11315555   4.173   4.828   3.424
    1PA    H13R15556   4.188   4.723   3.450
    1PA    H13S15557   4.074   4.857   3.460
    1PA    C11215558   4.176   4.842   3.271
    1PA    H12R15559   4.154   4.945   3.244
    1PA    H12S15560   4.276   4.819   3.234
    1PA    C11115561   4.074   4.748   3.205
    1PA    H11R15562   4.101   4.644   3.227
    1PA    H11S15563   3.976   4.766   3.248
    1PA    C11015564   4.068   4.769   3.053
    1PA    H10R15565   4.040   4.873   3.034
    1PA    H10S15566   4.167   4.755   3.009
    1PA     C1915567   3.965   4.678   2.985
    1PA     H9R15568   3.887   4.650   3.056
    1PA     H9S15569   3.917   4.735   2.906
    1PA     C1815570   4.026   4.553   2.920
    1PA     H8R15571   3.947   4.503   2.863
    1PA     H8S15572   4.102   4.584   2.849
    1PA     C1715573   4.084   4.453   3.021
    1PA     H7R15574   4.168   4.499   3.075
    1PA     H7S15575   4.008   4.428   3.095
    1PA     C1615576   4.133   4.324   2.954
    1PA     H6R15577   4.156   4.251   3.032
    1PA     H6S15578   4.052   4.282   2.893
    1PA     C1515579   4.257   4.346   2.868
    1PA     H5R15580   4.235   4.418   2.789
    1PA     H5S15581   4.337   4.389   2.929
    1PA     C1415582   4.306   4.216   2.803
    1PA     H4R15583   4.332   4.143   2.880
    1PA     H4S15584   4.226   4.173   2.742
    1PA     C1315585   4.429   4.244   2.715
    1PA     H3R15586   4.405   4.323   2.644
    1PA     H3S15587   4.511   4.279   2.778
    1PA     C1215588   4.474   4.119   2.639
    1PA     H2R15589   4.508   4.042   2.709
    1PA     H2S15590   4.390   4.077   2.582
    2PC     C1115591   4.585   4.152   2.542
    2PC     O1215592   4.567   4.170   2.424
    2PC     O1115593   4.705   4.163   2.601
    2PC      C115594   4.820   4.196   2.521
    2PC      HR15595   4.911   4.177   2.580
    2PC      HS15596   4.822   4.129   2.435
    2PC      C215597   4.818   4.342   2.476
    2PC      HX15598   4.718   4.375   2.449
    2PC      C315599   4.911   4.362   2.355
    2PC      HA15600   5.016   4.358   2.386
    2PC      HB15601   4.891   4.282   2.283
    2PC     O3115602   4.883   4.487   2.291
    2PC     P3115603   4.947   4.511   2.145
    2PC     O3215604   4.838   4.435   2.054
    2PC     C3115605   4.717   4.505   2.020
    2PC     H1A15606   4.678   4.553   2.110
    2PC     H1B15607   4.738   4.581   1.945
    2PC     C3215608   4.612   4.404   1.970
    2PC     H2A15609   4.594   4.331   2.049
    2PC     H2B15610   4.519   4.458   1.952
    2PC     N3115611   4.640   4.326   1.846
    2PC     C3315612   4.755   4.232   1.863
    2PC     H3A15613   4.735   4.169   1.950
    2PC     H3B15614   4.766   4.172   1.773
    2PC     H3C15615   4.846   4.292   1.880
    2PC     C3415616   4.518   4.243   1.815
    2PC     H4A15617   4.433   4.310   1.803
    2PC     H4B15618   4.537   4.186   1.724
    2PC     H4C15619   4.501   4.176   1.900
    2PC     C3515620   4.666   4.416   1.729
    2PC     H5A15621   4.581   4.484   1.717
    2PC     H5B15622   4.679   4.355   1.640
    2PC     H5C15623   4.757   4.473   1.749
    2PC     O3315624   4.968   4.652   2.107
    2PC     O3415625   5.080   4.447   2.132
    2PC     O2115626   4.870   4.422   2.584
    2PC     C2115627   4.788   4.463   2.682
    2PC     O2215628   4.667   4.455   2.677
    3OL     C1215629   4.865   4.522   2.797
    3OL     H2R15630   4.936   4.595   2.758
    3OL     H2S15631   4.922   4.442   2.844
    3OL     C1315632   4.775   4.590   2.902
    3OL     H3R15633   4.703   4.518   2.940
    3OL     H3S15634   4.720   4.672   2.856
    3OL     C1415635   4.861   4.642   3.018
    3OL     H4R15636   4.934   4.715   2.981
    3OL     H4S15637   4.918   4.559   3.060
    3OL     C1515638   4.779   4.706   3.131
    3OL     H5R15639   4.843   4.715   3.218
    3OL     H5S15640   4.696   4.640   3.159
    3OL     C1615641   4.725   4.845   3.094
    3OL     H6R15642   4.650   4.836   3.015
    3OL     H6S15643   4.806   4.907   3.057
    3OL     C1715644   4.663   4.912   3.218
    3OL     H7R15645   4.739   4.918   3.296
    3OL     H7S15646   4.581   4.850   3.257
    3OL     C1815647   4.610   5.053   3.190
    3OL     H8R15648   4.688   5.110   3.138
    3OL     H8S15649   4.593   5.102   3.286
    3OL     C1915650   4.485   5.052   3.107
    3OL     H9R15651   4.489   4.989   3.018
    3OL    C11015652   4.372   5.117   3.133
    3OL    H10R15653   4.288   5.103   3.065
    3OL    C11115654   4.343   5.208   3.249
    3OL    H11R15655   4.423   5.208   3.324
    3OL    H11S15656   4.253   5.172   3.298
    3OL    C11215657   4.317   5.352   3.202
    3OL    H12R15658   4.248   5.350   3.117
    3OL    H12S15659   4.410   5.397   3.168
    3OL    C11315660   4.256   5.436   3.315
    3OL    H13R15661   4.330   5.448   3.395
    3OL    H13S15662   4.171   5.383   3.357
    3OL    C11415663   4.210   5.573   3.264
    3OL    H14R15664   4.148   5.559   3.175
    3OL    H14S15665   4.296   5.634   3.234
    3OL    C11515666   4.127   5.648   3.369
    3OL    H15R15667   4.054   5.579   3.412
    3OL    H15S15668   4.070   5.727   3.319
    3OL    C11615669   4.213   5.710   3.480
    3OL    H16R15670   4.272   5.792   3.439
    3OL    H16S15671   4.282   5.635   3.518
    3OL    C11715672   4.127   5.761   3.597
    3OL    H17R15673   4.193   5.792   3.678
    3OL    H17S15674   4.066   5.679   3.635
    3OL    C11815675   4.036   5.879   3.558
    3OL    H18R15676   4.095   5.961   3.518
    3OL    H18S15677   3.983   5.915   3.646
    3OL    H18T15678   3.963   5.849   3.483
    1PA    C11615679   6.377   0.278   3.567
    1PA    H16R15680   6.314   0.359   3.604
    1PA    H16S15681   6.367   0.193   3.634
    1PA    H16T15682   6.341   0.249   3.468
    1PA    C11515683   0.076   0.323   3.560
    1PA    H15R15684   0.084   0.410   3.495
    1PA    H15S15685   0.109   0.353   3.660
    1PA    C11415686   0.167   0.211   3.507
    1PA    H14R15687   0.159   0.123   3.571
    1PA    H14S15688   0.133   0.182   3.407
    1PA    C11315689   0.312   0.259   3.502
    1PA    H13R15690   0.320   0.348   3.440
    1PA    H13S15691   0.343   0.287   3.602
    1PA    C11215692   0.409   0.151   3.451
    1PA    H12R15693   0.511   0.188   3.463
    1PA    H12S15694   0.400   0.062   3.514
    1PA    C11115695   0.389   0.110   3.304
    1PA    H11R15696   0.465   0.036   3.278
    1PA    H11S15697   0.292   0.063   3.292
    1PA    C11015698   0.400   0.229   3.207
    1PA    H10R15699   0.314   0.294   3.218
    1PA    H10S15700   0.490   0.287   3.230
    1PA     C1915701   0.409   0.181   3.061
    1PA     H9R15702   0.503   0.126   3.047
    1PA     H9S15703   0.327   0.112   3.040
    1PA     C1815704   0.403   0.299   2.964
    1PA     H8R15705   0.302   0.342   2.966
    1PA     H8S15706   0.472   0.377   2.996
    1PA     C1715707   0.438   0.257   2.821
    1PA     H7R15708   0.543   0.228   2.816
    1PA     H7S15709   0.379   0.169   2.792
    1PA     C1615710   0.410   0.371   2.722
    1PA     H6R15711   0.302   0.390   2.721
    1PA     H6S15712   0.458   0.463   2.755
    1PA     C1515713   0.456   0.336   2.579
    1PA     H5R15714   0.447   0.229   2.561
    1PA     H5S15715   0.389   0.386   2.509
    1PA     C1415716   0.599   0.384   2.553
    1PA     H4R15717   0.605   0.490   2.578
    1PA     H4S15718   0.669   0.331   2.618
    1PA     C1315719   0.639   0.364   2.406
    1PA     H3R15720   0.644   0.258   2.383
    1PA     H3S15721   0.563   0.408   2.343
    1PA     C1215722   0.774   0.431   2.377
    1PA     H2R15723   0.778   0.529   2.424
    1PA     H2S15724   0.856   0.371   2.417
    2PC     C1115725   0.796   0.451   2.229
    2PC     O1215726   0.759   0.373   2.143
    2PC     O1115727   0.855   0.569   2.202
    2PC      C115728   0.878   0.602   2.064
    2PC      HR15729   0.941   0.526   2.017
    2PC      HS15730   0.783   0.607   2.011
    2PC      C215731   0.948   0.739   2.057
    2PC      HX15732   0.902   0.805   2.131
    2PC      C315733   0.934   0.802   1.918
    2PC      HA15734   0.832   0.837   1.905
    2PC      HB15735   1.003   0.886   1.907
    2PC     O3115736   0.963   0.703   1.817
    2PC     P3115737   0.940   0.742   1.663
    2PC     O3215738   1.071   0.828   1.632
    2PC     C3115739   1.057   0.950   1.558
    2PC     H1A15740   0.996   0.933   1.469
    2PC     H1B15741   1.008   1.025   1.621
    2PC     C3215742   1.197   1.000   1.519
    2PC     H2A15743   1.190   1.102   1.482
    2PC     H2B15744   1.261   1.000   1.608
    2PC     N3115745   1.271   0.924   1.413
    2PC     C3315746   1.201   0.934   1.281
    2PC     H3A15747   1.190   1.039   1.254
    2PC     H3B15748   1.262   0.883   1.206
    2PC     H3C15749   1.103   0.885   1.289
    2PC     C3415750   1.408   0.983   1.398
    2PC     H4A15751   1.398   1.088   1.369
    2PC     H4B15752   1.460   0.975   1.494
    2PC     H4C15753   1.462   0.928   1.321
    2PC     C3515754   1.287   0.780   1.449
    2PC     H5A15755   1.353   0.733   1.375
    2PC     H5B15756   1.189   0.732   1.447
    2PC     H5C15757   1.331   0.774   1.549
    2PC     O3315758   0.933   0.624   1.573
    2PC     O3415759   0.811   0.813   1.643
    2PC     O2115760   1.087   0.720   2.088
    2PC     C2115761   1.159   0.822   2.136
    2PC     O2215762   1.114   0.933   2.156
    3OL     C1215763   1.304   0.788   2.159
    3OL     H2R15764   1.350   0.864   2.222
    3OL     H2S15765   1.354   0.791   2.062
    3OL     C1315766   1.327   0.649   2.220
    3OL     H3R15767   1.434   0.627   2.212
    3OL     H3S15768   1.276   0.572   2.162
    3OL     C1415769   1.288   0.638   2.368
    3OL     H4R15770   1.326   0.724   2.423
    3OL     H4S15771   1.338   0.550   2.408
    3OL     C1515772   1.137   0.623   2.390
    3OL     H5R15773   1.095   0.550   2.320
    3OL     H5S15774   1.088   0.719   2.371
    3OL     C1615775   1.103   0.580   2.534
    3OL     H6R15776   0.997   0.598   2.551
    3OL     H6S15777   1.159   0.641   2.605
    3OL     C1715778   1.131   0.431   2.557
    3OL     H7R15779   1.236   0.409   2.540
    3OL     H7S15780   1.073   0.371   2.486
    3OL     C1815781   1.094   0.389   2.700
    3OL     H8R15782   0.989   0.413   2.720
    3OL     H8S15783   1.153   0.448   2.770
    3OL     C1915784   1.123   0.243   2.722
    3OL     H9R15785   1.228   0.216   2.710
    3OL    C11015786   1.036   0.148   2.755
    3OL    H10R15787   1.072   0.047   2.770
    3OL    C11115788   0.888   0.167   2.771
    3OL    H11R15789   0.836   0.081   2.727
    3OL    H11S15790   0.854   0.254   2.714
    3OL    C11215791   0.846   0.182   2.917
    3OL    H12R15792   0.741   0.214   2.921
    3OL    H12S15793   0.905   0.261   2.964
    3OL    C11315794   0.861   0.052   2.997
    3OL    H13R15795   0.966   0.020   2.996
    3OL    H13S15796   0.802   6.421   2.950
    3OL    C11415797   0.815   0.072   3.142
    3OL    H14R15798   0.713   0.111   3.142
    3OL    H14S15799   0.878   0.147   3.190
    3OL    C11515800   0.819   6.389   3.222
    3OL    H15R15801   0.921   6.349   3.221
    3OL    H15S15802   0.754   6.315   3.175
    3OL    C11615803   0.775   6.413   3.367
    3OL    H16R15804   0.675   0.011   3.367
    3OL    H16S15805   0.843   0.035   3.415
    3OL    C11715806   0.771   6.282   3.447
    3OL    H17R15807   0.870   6.236   3.447
    3OL    H17S15808   0.702   6.212   3.399
    3OL    C11815809   0.725   6.307   3.591
    3OL    H18R15810   0.794   6.376   3.642
    3OL    H18S15811   0.723   6.213   3.647
    3OL    H18T15812   0.625   6.350   3.593
    1PA    C11615813   3.278   5.483   3.561
    1PA    H16R15814   3.177   5.454   3.589
    1PA    H16S15815   3.271   5.553   3.477
    1PA    H16T15816   3.324   5.535   3.645
    1PA    C11515817   3.361   5.360   3.522
    1PA    H15R15818   3.463   5.391   3.498
    1PA    H15S15819   3.367   5.293   3.608
    1PA    C11415820   3.298   5.286   3.403
    1PA    H14R15821   3.197   5.255   3.429
    1PA    H14S15822   3.291   5.354   3.318
    1PA    C11315823   3.382   5.163   3.365
    1PA    H13R15824   3.480   5.194   3.329
    1PA    H13S15825   3.397   5.103   3.454
    1PA    C11215826   3.312   5.077   3.259
    1PA    H12R15827   3.364   4.981   3.253
    1PA    H12S15828   3.210   5.055   3.291
    1PA    C11115829   3.311   5.142   3.120
    1PA    H11R15830   3.257   5.237   3.124
    1PA    H11S15831   3.413   5.163   3.087
    1PA    C11015832   3.243   5.048   3.019
    1PA    H10R15833   3.302   4.957   3.009
    1PA    H10S15834   3.144   5.020   3.056
    1PA     C1915835   3.228   5.114   2.881
    1PA     H9R15836   3.174   5.208   2.892
    1PA     H9S15837   3.327   5.138   2.840
    1PA     C1815838   3.152   5.022   2.785
    1PA     H8R15839   3.209   4.929   2.774
    1PA     H8S15840   3.056   4.995   2.828
    1PA     C1715841   3.133   5.082   2.645
    1PA     H7R15842   3.231   5.107   2.604
    1PA     H7S15843   3.090   5.007   2.580
    1PA     C1615844   3.045   5.208   2.642
    1PA     H6R15845   3.094   5.288   2.699
    1PA     H6S15846   3.039   5.243   2.539
    1PA     C1515847   2.903   5.189   2.695
    1PA     H5R15848   2.905   5.155   2.799
    1PA     H5S15849   2.853   5.286   2.695
    1PA     C1415850   2.820   5.091   2.610
    1PA     H4R15851   2.824   5.124   2.506
    1PA     H4S15852   2.863   4.991   2.616
    1PA     C1315853   2.674   5.086   2.658
    1PA     H3R15854   2.671   5.053   2.762
    1PA     H3S15855   2.631   5.186   2.654
    1PA     C1215856   2.589   4.990   2.573
    1PA     H2R15857   2.630   4.889   2.579
    1PA     H2S15858   2.487   4.988   2.612
    2PC     C1115859   2.585   5.034   2.429
    2PC     O1215860   2.650   4.980   2.341
    2PC     O1115861   2.508   5.142   2.409
    2PC      C115862   2.502   5.199   2.277
    2PC      HR15863   2.603   5.225   2.245
    2PC      HS15864   2.460   5.125   2.209
    2PC      C215865   2.416   5.326   2.277
    2PC      HX15866   2.316   5.306   2.317
    2PC      C315867   2.403   5.379   2.133
    2PC      HA15868   2.500   5.418   2.101
    2PC      HB15869   2.372   5.299   2.065
    2PC     O3115870   2.304   5.483   2.131
    2PC     P3115871   2.308   5.588   2.010
    2PC     O3215872   2.303   5.491   1.883
    2PC     C3115873   2.178   5.428   1.852
    2PC     H1A15874   2.148   5.365   1.935
    2PC     H1B15875   2.101   5.505   1.835
    2PC     C3215876   2.197   5.342   1.726
    2PC     H2A15877   2.285   5.280   1.739
    2PC     H2B15878   2.110   5.278   1.714
    2PC     N3115879   2.212   5.413   1.594
    2PC     C3315880   2.086   5.485   1.558
    2PC     H3A15881   2.069   5.564   1.631
    2PC     H3B15882   2.097   5.527   1.458
    2PC     H3C15883   2.003   5.414   1.562
    2PC     C3415884   2.326   5.510   1.596
    2PC     H4A15885   2.335   5.554   1.497
    2PC     H4B15886   2.304   5.588   1.670
    2PC     H4C15887   2.417   5.456   1.623
    2PC     C3515888   2.240   5.309   1.489
    2PC     H5A15889   2.333   5.258   1.516
    2PC     H5B15890   2.250   5.359   1.393
    2PC     H5C15891   2.157   5.238   1.488
    2PC     O3315892   2.193   5.682   2.008
    2PC     O3415893   2.430   5.672   2.013
    2PC     O2115894   2.482   5.430   2.351
    2PC     C2115895   2.471   5.438   2.485
    2PC     O2215896   2.403   5.364   2.553
    3OL     C1215897   2.553   5.552   2.538
    3OL     H2R15898   2.502   5.645   2.511
    3OL     H2S15899   2.650   5.553   2.487
    3OL     C1315900   2.575   5.547   2.690
    3OL     H3R15901   2.638   5.462   2.714
    3OL     H3S15902   2.480   5.534   2.740
    3OL     C1415903   2.640   5.678   2.738
    3OL     H4R15904   2.574   5.760   2.713
    3OL     H4S15905   2.734   5.695   2.686
    3OL     C1515906   2.663   5.679   2.890
    3OL     H5R15907   2.596   5.608   2.940
    3OL     H5S15908   2.637   5.778   2.927
    3OL     C1615909   2.809   5.652   2.931
    3OL     H6R15910   2.816   5.666   3.039
    3OL     H6S15911   2.874   5.725   2.884
    3OL     C1715912   2.857   5.510   2.896
    3OL     H7R15913   2.855   5.498   2.787
    3OL     H7S15914   2.789   5.436   2.939
    3OL     C1815915   2.999   5.483   2.946
    3OL     H8R15916   3.067   5.555   2.900
    3OL     H8S15917   3.031   5.385   2.911
    3OL     C1915918   3.010   5.493   3.096
    3OL     H9R15919   3.035   5.592   3.133
    3OL    C11015920   2.995   5.394   3.182
    3OL    H10R15921   3.006   5.415   3.289
    3OL    C11115922   2.960   5.251   3.149
    3OL    H11R15923   3.034   5.186   3.195
    3OL    H11S15924   2.964   5.234   3.041
    3OL    C11215925   2.821   5.213   3.201
    3OL    H12R15926   2.749   5.288   3.168
    3OL    H12S15927   2.820   5.213   3.311
    3OL    C11315928   2.776   5.076   3.148
    3OL    H13R15929   2.785   5.076   3.039
    3OL    H13S15930   2.671   5.062   3.172
    3OL    C11415931   2.856   4.960   3.209
    3OL    H14R15932   2.839   4.958   3.317
    3OL    H14S15933   2.963   4.975   3.194
    3OL    C11515934   2.815   4.824   3.150
    3OL    H15R15935   2.706   4.815   3.153
    3OL    H15S15936   2.856   4.745   3.213
    3OL    C11615937   2.868   4.805   3.007
    3OL    H16R15938   2.976   4.816   3.008
    3OL    H16S15939   2.828   4.883   2.941
    3OL    C11715940   2.832   4.668   2.950
    3OL    H17R15941   2.859   4.590   3.022
    3OL    H17S15942   2.892   4.650   2.860
    3OL    C11815943   2.684   4.656   2.912
    3OL    H18R15944   2.664   4.559   2.866
    3OL    H18S15945   2.656   4.734   2.841
    3OL    H18T15946   2.620   4.666   3.000
    1PA    C11615947   3.048   0.573   3.689
    1PA    H16R15948   3.000   0.638   3.763
    1PA    H16S15949   3.106   0.636   3.621
    1PA    H16T15950   3.117   0.506   3.742
    1PA    C11515951   2.942   0.493   3.613
    1PA    H15R15952   2.882   0.438   3.685
    1PA    H15S15953   2.875   0.560   3.560
    1PA    C11415954   3.004   0.392   3.514
    1PA    H14R15955   3.077   0.331   3.567
    1PA    H14S15956   2.925   0.326   3.479
    1PA    C11315957   3.069   0.461   3.394
    1PA    H13R15958   2.995   0.521   3.341
    1PA    H13S15959   3.149   0.527   3.427
    1PA    C11215960   3.128   0.355   3.298
    1PA    H12R15961   3.198   0.293   3.354
    1PA    H12S15962   3.048   0.291   3.261
    1PA    C11115963   3.201   0.420   3.180
    1PA    H11R15964   3.130   0.478   3.120
    1PA    H11S15965   3.277   0.489   3.217
    1PA    C11015966   3.267   0.312   3.092
    1PA    H10R15967   3.332   0.250   3.155
    1PA    H10S15968   3.190   0.248   3.050
    1PA     C1915969   3.350   0.375   2.979
    1PA     H9R15970   3.285   0.433   2.913
    1PA     H9S15971   3.423   0.443   3.023
    1PA     C1815972   3.421   0.265   2.899
    1PA     H8R15973   3.487   0.208   2.965
    1PA     H8S15974   3.347   0.196   2.860
    1PA     C1715975   3.504   0.320   2.782
    1PA     H7R15976   3.545   0.235   2.726
    1PA     H7S15977   3.438   0.374   2.713
    1PA     C1615978   3.618   0.412   2.827
    1PA     H6R15979   3.576   0.502   2.872
    1PA     H6S15980   3.679   0.363   2.903
    1PA     C1515981   3.706   0.454   2.708
    1PA     H5R15982   3.643   0.475   2.621
    1PA     H5S15983   3.756   0.548   2.734
    1PA     C1415984   3.811   0.348   2.675
    1PA     H4R15985   3.881   0.338   2.758
    1PA     H4S15986   3.762   0.252   2.662
    1PA     C1315987   3.888   0.380   2.546
    1PA     H3R15988   3.948   0.293   2.519
    1PA     H3S15989   3.816   0.396   2.465
    1PA     C1215990   3.980   0.502   2.558
    1PA     H2R15991   3.922   0.591   2.583
    1PA     H2S15992   4.052   0.486   2.639
    2PC     C1115993   4.054   0.529   2.430
    2PC     O1215994   4.033   0.470   2.326
    2PC     O1115995   4.146   0.626   2.443
    2PC      C115996   4.218   0.661   2.323
    2PC      HR15997   4.269   0.573   2.285
    2PC      HS15998   4.145   0.695   2.249
    2PC      C215999   4.321   0.772   2.347
    2PC      HX16000   4.276   0.851   2.409
    2PC      C316001   4.363   0.831   2.212
    2PC      HA16002   4.281   0.891   2.173
    2PC      HB16003   4.451   0.895   2.221
    2PC     O3116004   4.391   0.724   2.120
    2PC     P3116005   4.399   0.755   1.963
    2PC     O3216006   4.260   0.696   1.908
    2PC     C3116007   4.215   0.568   1.957
    2PC     H1A16008   4.293   0.493   1.942
    2PC     H1B16009   4.194   0.577   2.064
    2PC     C3216010   4.085   0.531   1.884
    2PC     H2A16011   4.028   0.461   1.947
    2PC     H2B16012   4.024   0.621   1.870
    2PC     N3116013   4.097   0.464   1.751
    2PC     C3316014   4.171   0.551   1.653
    2PC     H3A16015   4.176   0.499   1.558
    2PC     H3B16016   4.118   0.645   1.643
    2PC     H3C16017   4.272   0.568   1.692
    2PC     C3416018   4.166   0.332   1.764
    2PC     H4A16019   4.159   0.280   1.668
    2PC     H4B16020   4.270   0.348   1.791
    2PC     H4C16021   4.115   0.274   1.841
    2PC     C3516022   3.960   0.439   1.696
    2PC     H5A16023   3.907   0.372   1.765
    2PC     H5B16024   3.969   0.392   1.598
    2PC     H5C16025   3.907   0.534   1.688
    2PC     O3316026   4.406   0.901   1.936
    2PC     O3416027   4.515   0.692   1.896
    2PC     O2116028   4.434   0.716   2.416
    2PC     C2116029   4.530   0.796   2.464
    2PC     O2216030   4.530   0.917   2.453
    3OL     C1216031   4.639   0.722   2.537
    3OL     H2R16032   4.734   0.738   2.485
    3OL     H2S16033   4.618   0.615   2.534
    3OL     C1316034   4.650   0.770   2.682
    3OL     H3R16035   4.555   0.757   2.734
    3OL     H3S16036   4.672   0.877   2.682
    3OL     C1416037   4.761   0.697   2.759
    3OL     H4R16038   4.778   0.750   2.854
    3OL     H4S16039   4.854   0.702   2.703
    3OL     C1516040   4.724   0.551   2.789
    3OL     H5R16041   4.711   0.496   2.696
    3OL     H5S16042   4.630   0.548   2.844
    3OL     C1616043   4.834   0.484   2.872
    3OL     H6R16044   4.843   0.533   2.969
    3OL     H6S16045   4.930   0.497   2.820
    3OL     C1716046   4.810   0.334   2.892
    3OL     H7R16047   4.894   0.292   2.948
    3OL     H7S16048   4.808   0.283   2.795
    3OL     C1816049   4.680   0.302   2.968
    3OL     H8R16050   4.594   0.320   2.903
    3OL     H8S16051   4.671   0.369   3.053
    3OL     C1916052   4.682   0.159   3.017
    3OL     H9R16053   4.708   0.148   3.122
    3OL    C11016054   4.657   0.051   2.944
    3OL    H10R16055   4.663   6.402   2.992
    3OL    C11116056   4.620   0.047   2.798
    3OL    H11R16057   4.699   6.444   2.743
    3OL    H11S16058   4.610   0.147   2.755
    3OL    C11216059   4.489   6.416   2.779
    3OL    H12R16060   4.496   6.321   2.833
    3OL    H12S16061   4.476   6.393   2.673
    3OL    C11316062   4.368   0.049   2.829
    3OL    H13R16063   4.352   0.133   2.761
    3OL    H13S16064   4.389   0.090   2.928
    3OL    C11416065   4.241   6.411   2.836
    3OL    H14R16066   4.258   6.328   2.906
    3OL    H14S16067   4.219   6.369   2.738
    3OL    C11516068   4.123   0.049   2.885
    3OL    H15R16069   4.101   0.125   2.810
    3OL    H15S16070   4.151   0.099   2.977
    3OL    C11616071   3.999   6.410   2.909
    3OL    H16R16072   4.020   6.337   2.988
    3OL    H16S16073   3.976   6.354   2.818
    3OL    C11716074   3.876   0.046   2.948
    3OL    H17R16075   3.789   6.427   2.953
    3OL    H17S16076   3.856   0.120   2.871
    3OL    C11816077   3.891   0.116   3.084
    3OL    H18R16078   3.971   0.191   3.080
    3OL    H18S16079   3.916   0.043   3.162
    3OL    H18T16080   3.798   0.166   3.111
    1PA    C11616081   1.049   2.334   3.707
    1PA    H16R16082   1.056   2.442   3.690
    1PA    H16S16083   1.128   2.306   3.776
    1PA    H16T16084   0.953   2.312   3.753
    1PA    C11516085   1.064   2.259   3.574
    1PA    H15R16086   1.164   2.277   3.533
    1PA    H15S16087   1.056   2.151   3.593
    1PA    C11416088   0.958   2.303   3.473
    1PA    H14R16089   0.858   2.289   3.516
    1PA    H14S16090   0.969   2.409   3.452
    1PA    C11316091   0.968   2.222   3.343
    1PA    H13R16092   1.067   2.236   3.298
    1PA    H13S16093   0.958   2.116   3.367
    1PA    C11216094   0.858   2.260   3.242
    1PA    H12R16095   0.849   2.180   3.168
    1PA    H12S16096   0.763   2.263   3.296
    1PA    C11116097   0.880   2.394   3.171
    1PA    H11R16098   0.789   2.420   3.117
    1PA    H11S16099   0.895   2.472   3.246
    1PA    C11016100   0.998   2.395   3.073
    1PA    H10R16101   1.012   2.498   3.039
    1PA    H10S16102   1.090   2.365   3.124
    1PA     C1916103   0.975   2.306   2.950
    1PA     H9R16104   0.960   2.203   2.985
    1PA     H9S16105   0.884   2.336   2.898
    1PA     C1816106   1.095   2.307   2.855
    1PA     H8R16107   1.187   2.303   2.913
    1PA     H8S16108   1.091   2.218   2.792
    1PA     C1716109   1.095   2.431   2.763
    1PA     H7R16110   1.007   2.431   2.699
    1PA     H7S16111   1.089   2.520   2.825
    1PA     C1616112   1.223   2.439   2.679
    1PA     H6R16113   1.236   2.542   2.646
    1PA     H6S16114   1.309   2.416   2.743
    1PA     C1516115   1.227   2.347   2.556
    1PA     H5R16116   1.330   2.347   2.518
    1PA     H5S16117   1.203   2.245   2.583
    1PA     C1416118   1.134   2.397   2.445
    1PA     H4R16119   1.030   2.374   2.470
    1PA     H4S16120   1.142   2.506   2.438
    1PA     C1316121   1.168   2.340   2.307
    1PA     H3R16122   1.108   2.394   2.233
    1PA     H3S16123   1.273   2.361   2.283
    1PA     C1216124   1.142   2.190   2.292
    1PA     H2R16125   1.211   2.133   2.355
    1PA     H2S16126   1.041   2.166   2.325
    2PC     C1116127   1.157   2.144   2.150
    2PC     O1216128   1.153   2.218   2.054
    2PC     O1116129   1.178   2.012   2.138
    2PC      C116130   1.201   1.955   2.008
    2PC      HR16131   1.199   1.846   2.016
    2PC      HS16132   1.122   1.987   1.940
    2PC      C216133   1.338   1.998   1.954
    2PC      HX16134   1.354   2.105   1.972
    2PC      C316135   1.353   1.977   1.803
    2PC      HA16136   1.364   1.871   1.779
    2PC      HB16137   1.266   2.018   1.751
    2PC     O3116138   1.471   2.049   1.763
    2PC     P3116139   1.502   2.071   1.608
    2PC     O3216140   1.597   1.945   1.581
    2PC     C3116141   1.591   1.884   1.450
    2PC     H1A16142   1.489   1.849   1.432
    2PC     H1B16143   1.619   1.959   1.376
    2PC     C3216144   1.690   1.767   1.445
    2PC     H2A16145   1.791   1.805   1.458
    2PC     H2B16146   1.669   1.698   1.527
    2PC     N3116147   1.691   1.684   1.320
    2PC     C3316148   1.723   1.768   1.201
    2PC     H3A16149   1.732   1.703   1.114
    2PC     H3B16150   1.642   1.840   1.185
    2PC     H3C16151   1.817   1.820   1.219
    2PC     C3416152   1.796   1.577   1.333
    2PC     H4A16153   1.893   1.625   1.349
    2PC     H4B16154   1.770   1.513   1.417
    2PC     H4C16155   1.797   1.519   1.240
    2PC     C3516156   1.559   1.616   1.299
    2PC     H5A16157   1.482   1.691   1.284
    2PC     H5B16158   1.537   1.555   1.387
    2PC     H5C16159   1.567   1.552   1.211
    2PC     O3316160   1.377   2.075   1.528
    2PC     O3416161   1.571   2.200   1.588
    2PC     O2116162   1.440   1.920   2.019
    2PC     C2116163   1.503   1.971   2.126
    2PC     O2216164   1.486   2.083   2.169
    3OL     C1216165   1.607   1.876   2.180
    3OL     H2R16166   1.692   1.934   2.216
    3OL     H2S16167   1.642   1.812   2.099
    3OL     C1316168   1.548   1.790   2.293
    3OL     H3R16169   1.455   1.744   2.258
    3OL     H3S16170   1.523   1.853   2.379
    3OL     C1416171   1.643   1.677   2.335
    3OL     H4R16172   1.665   1.616   2.248
    3OL     H4S16173   1.593   1.612   2.408
    3OL     C1516174   1.776   1.727   2.394
    3OL     H5R16175   1.818   1.805   2.330
    3OL     H5S16176   1.847   1.645   2.395
    3OL     C1616177   1.762   1.780   2.538
    3OL     H6R16178   1.730   1.698   2.603
    3OL     H6S16179   1.686   1.858   2.542
    3OL     C1716180   1.897   1.836   2.584
    3OL     H7R16181   1.923   1.922   2.522
    3OL     H7S16182   1.974   1.760   2.570
    3OL     C1816183   1.895   1.880   2.731
    3OL     H8R16184   1.815   1.953   2.746
    3OL     H8S16185   1.989   1.929   2.753
    3OL     C1916186   1.879   1.762   2.824
    3OL     H9R16187   1.904   1.665   2.781
    3OL    C11016188   1.840   1.768   2.951
    3OL    H10R16189   1.833   1.676   3.008
    3OL    C11116190   1.803   1.893   3.025
    3OL    H11R16191   1.710   1.876   3.080
    3OL    H11S16192   1.784   1.976   2.957
    3OL    C11216193   1.911   1.935   3.125
    3OL    H12R16194   1.928   1.855   3.197
    3OL    H12S16195   1.876   2.023   3.181
    3OL    C11316196   2.044   1.970   3.057
    3OL    H13R16197   2.027   2.044   2.979
    3OL    H13S16198   2.085   1.880   3.009
    3OL    C11416199   2.146   2.024   3.158
    3OL    H14R16200   2.161   1.951   3.238
    3OL    H14S16201   2.106   2.115   3.203
    3OL    C11516202   2.280   2.054   3.090
    3OL    H15R16203   2.264   2.122   3.006
    3OL    H15S16204   2.322   1.961   3.051
    3OL    C11616205   2.378   2.118   3.189
    3OL    H16R16206   2.394   2.053   3.276
    3OL    H16S16207   2.334   2.211   3.226
    3OL    C11716208   2.513   2.151   3.124
    3OL    H17R16209   2.566   2.224   3.184
    3OL    H17S16210   2.496   2.195   3.025
    3OL    C11816211   2.602   2.026   3.110
    3OL    H18R16212   2.553   1.950   3.048
    3OL    H18S16213   2.623   1.983   3.208
    3OL    H18T16214   2.697   2.053   3.062
    1PA    C11616215   2.257   6.425   3.428
    1PA    H16R16216   2.185   0.059   3.439
    1PA    H16S16217   2.317   6.420   3.519
    1PA    H16T16218   2.202   6.331   3.418
    1PA    C11516219   2.348   6.448   3.306
    1PA    H15R16220   2.402   0.094   3.320
    1PA    H15S16221   2.421   6.367   3.300
    1PA    C11416222   2.266   0.005   3.177
    1PA    H14R16223   2.214   6.358   3.163
    1PA    H14S16224   2.190   0.083   3.185
    1PA    C11316225   2.355   0.033   3.055
    1PA    H13R16226   2.408   0.127   3.070
    1PA    H13S16227   2.430   6.401   3.046
    1PA    C11216228   2.271   0.039   2.927
    1PA    H12R16229   2.219   6.392   2.914
    1PA    H12S16230   2.195   0.117   2.937
    1PA    C11116231   2.354   0.066   2.801
    1PA    H11R16232   2.435   6.442   2.793
    1PA    H11S16233   2.289   0.053   2.714
    1PA    C11016234   2.410   0.209   2.798
    1PA    H10R16235   2.330   0.279   2.822
    1PA    H10S16236   2.488   0.220   2.874
    1PA     C1916237   2.467   0.246   2.660
    1PA     H9R16238   2.548   0.177   2.633
    1PA     H9S16239   2.389   0.237   2.585
    1PA     C1816240   2.520   0.390   2.662
    1PA     H8R16241   2.444   0.453   2.709
    1PA     H8S16242   2.610   0.396   2.724
    1PA     C1716243   2.548   0.447   2.522
    1PA     H7R16244   2.460   0.430   2.459
    1PA     H7S16245   2.560   0.555   2.532
    1PA     C1616246   2.672   0.389   2.455
    1PA     H6R16247   2.759   0.399   2.521
    1PA     H6S16248   2.658   0.282   2.434
    1PA     C1516249   2.698   0.465   2.324
    1PA     H5R16250   2.612   0.456   2.257
    1PA     H5S16251   2.708   0.571   2.348
    1PA     C1416252   2.825   0.422   2.250
    1PA     H4R16253   2.853   0.502   2.181
    1PA     H4S16254   2.908   0.409   2.321
    1PA     C1316255   2.806   0.293   2.169
    1PA     H3R16256   2.792   0.208   2.236
    1PA     H3S16257   2.717   0.301   2.106
    1PA     C1216258   2.929   0.269   2.079
    1PA     H2R16259   2.940   0.353   2.010
    1PA     H2S16260   3.020   0.266   2.140
    2PC     C1116261   2.919   0.142   2.000
    2PC     O1216262   2.856   0.045   2.037
    2PC     O1116263   2.981   0.150   1.881
    2PC      C116264   2.998   0.030   1.803
    2PC      HR16265   2.911   6.413   1.811
    2PC      HS16266   3.009   0.059   1.698
    2PC      C216267   3.126   6.406   1.848
    2PC      HX16268   3.210   0.026   1.831
    2PC      C316269   3.148   6.278   1.766
    2PC      HA16270   3.168   6.305   1.662
    2PC      HB16271   3.235   6.222   1.804
    2PC     O3116272   3.031   6.194   1.771
    2PC     P3116273   3.016   6.078   1.662
    2PC     O3216274   2.978   6.169   1.536
    2PC     C3116275   2.839   6.200   1.518
    2PC     H1A16276   2.788   6.111   1.481
    2PC     H1B16277   2.795   6.227   1.615
    2PC     C3216278   2.820   6.317   1.420
    2PC     H2A16279   2.713   6.327   1.401
    2PC     H2B16280   2.855   6.409   1.467
    2PC     N3116281   2.886   6.309   1.286
    2PC     C3316282   2.879   6.172   1.227
    2PC     H3A16283   2.935   6.104   1.291
    2PC     H3B16284   2.774   6.142   1.220
    2PC     H3C16285   2.924   6.175   1.127
    2PC     C3416286   2.816   6.404   1.194
    2PC     H4A16287   2.866   6.402   1.097
    2PC     H4B16288   2.712   6.372   1.183
    2PC     H4C16289   2.820   0.056   1.237
    2PC     C3516290   3.029   6.351   1.296
    2PC     H5A16291   3.074   6.348   1.197
    2PC     H5B16292   3.081   6.282   1.363
    2PC     H5C16293   3.034   0.004   1.337
    2PC     O3316294   3.139   5.998   1.645
    2PC     O3416295   2.908   5.980   1.691
    2PC     O2116296   3.118   6.375   1.988
    2PC     C2116297   3.231   6.353   2.057
    2PC     O2216298   3.341   6.350   2.006
    3OL     C1216299   3.210   6.326   2.204
    3OL     H2R16300   3.295   6.365   2.259
    3OL     H2S16301   3.207   6.218   2.218
    3OL     C1316302   3.080   6.387   2.260
    3OL     H3R16303   2.995   6.346   2.206
    3OL     H3S16304   3.081   0.047   2.244
    3OL     C1416305   3.065   6.356   2.409
    3OL     H4R16306   3.147   6.402   2.464
    3OL     H4S16307   3.071   6.248   2.424
    3OL     C1516308   2.932   6.409   2.464
    3OL     H5R16309   2.849   6.370   2.404
    3OL     H5S16310   2.929   0.070   2.457
    3OL     C1616311   2.913   6.365   2.610
    3OL     H6R16312   2.997   6.401   2.669
    3OL     H6S16313   2.913   6.256   2.615
    3OL     C1716314   2.781   6.419   2.668
    3OL     H7R16315   2.699   6.391   2.602
    3OL     H7S16316   2.784   0.080   2.671
    3OL     C1816317   2.752   6.363   2.808
    3OL     H8R16318   2.739   6.255   2.801
    3OL     H8S16319   2.657   6.406   2.842
    3OL     C1916320   2.860   6.395   2.908
    3OL     H9R16321   2.944   0.004   2.870
    3OL    C11016322   2.859   6.356   3.035
    3OL    H10R16323   2.943   6.384   3.099
    3OL    C11116324   2.751   6.277   3.103
    3OL    H11R16325   2.661   6.272   3.040
    3OL    H11S16326   2.722   6.327   3.196
    3OL    C11216327   2.798   6.135   3.135
    3OL    H12R16328   2.888   6.140   3.197
    3OL    H12S16329   2.825   6.084   3.042
    3OL    C11316330   2.689   6.055   3.208
    3OL    H13R16331   2.598   6.058   3.148
    3OL    H13S16332   2.666   6.102   3.304
    3OL    C11416333   2.729   5.908   3.229
    3OL    H14R16334   2.768   5.868   3.135
    3OL    H14S16335   2.639   5.851   3.254
    3OL    C11516336   2.832   5.889   3.341
    3OL    H15R16337   2.790   5.925   3.435
    3OL    H15S16338   2.922   5.948   3.320
    3OL    C11616339   2.871   5.741   3.354
    3OL    H16R16340   2.909   5.707   3.258
    3OL    H16S16341   2.782   5.681   3.377
    3OL    C11716342   2.978   5.717   3.461
    3OL    H17R16343   3.058   5.792   3.452
    3OL    H17S16344   3.024   5.620   3.443
    3OL    C11816345   2.921   5.718   3.603
    3OL    H18R16346   2.844   5.641   3.614
    3OL    H18S16347   2.877   5.815   3.627
    3OL    H18T16348   3.000   5.698   3.676
    1PA    C11616349   1.062   0.655   3.752
    1PA    H16R16350   1.053   0.728   3.672
    1PA    H16S16351   0.970   0.657   3.811
    1PA    H16T16352   1.072   0.556   3.708
    1PA    C11516353   1.182   0.689   3.842
    1PA    H15R16354   1.167   0.789   3.882
    1PA    H15S16355   1.186   0.620   3.926
    1PA    C11416356   1.315   0.685   3.764
    1PA    H14R16357   1.303   0.737   3.669
    1PA    H14S16358   1.390   0.740   3.822
    1PA    C11316359   1.365   0.542   3.743
    1PA    H13R16360   1.378   0.494   3.840
    1PA    H13S16361   1.291   0.483   3.687
    1PA    C11216362   1.499   0.538   3.669
    1PA    H12R16363   1.566   0.615   3.709
    1PA    H12S16364   1.547   0.442   3.687
    1PA    C11116365   1.483   0.557   3.517
    1PA    H11R16366   1.420   0.477   3.478
    1PA    H11S16367   1.434   0.652   3.496
    1PA    C11016368   1.620   0.553   3.448
    1PA    H10R16369   1.681   0.636   3.485
    1PA    H10S16370   1.671   0.460   3.472
    1PA     C1916371   1.605   0.565   3.295
    1PA     H9R16372   1.544   0.482   3.258
    1PA     H9S16373   1.554   0.658   3.270
    1PA     C1816374   1.743   0.561   3.227
    1PA     H8R16375   1.803   0.646   3.260
    1PA     H8S16376   1.795   0.470   3.257
    1PA     C1716377   1.729   0.564   3.074
    1PA     H7R16378   1.665   0.482   3.042
    1PA     H7S16379   1.681   0.657   3.043
    1PA     C1616380   1.866   0.550   3.007
    1PA     H6R16381   1.930   0.633   3.039
    1PA     H6S16382   1.913   0.458   3.040
    1PA     C1516383   1.854   0.550   2.854
    1PA     H5R16384   1.791   0.466   2.823
    1PA     H5S16385   1.807   0.642   2.820
    1PA     C1416386   1.993   0.535   2.790
    1PA     H4R16387   2.057   0.617   2.822
    1PA     H4S16388   2.039   0.442   2.823
    1PA     C1316389   1.985   0.535   2.636
    1PA     H3R16390   1.919   0.454   2.603
    1PA     H3S16391   1.942   0.629   2.602
    1PA     C1216392   2.124   0.516   2.576
    1PA     H2R16393   2.191   0.597   2.607
    1PA     H2S16394   2.167   0.422   2.612
    2PC     C1116395   2.122   0.512   2.425
    2PC     O1216396   2.038   0.567   2.356
    2PC     O1116397   2.222   0.436   2.378
    2PC      C116398   2.229   0.412   2.236
    2PC      HR16399   2.131   0.381   2.199
    2PC      HS16400   2.258   0.504   2.185
    2PC      C216401   2.330   0.300   2.208
    2PC      HX16402   2.426   0.329   2.251
    2PC      C316403   2.346   0.278   2.057
    2PC      HA16404   2.405   0.360   2.016
    2PC      HB16405   2.398   0.184   2.037
    2PC     O3116406   2.217   0.275   1.992
    2PC     P3116407   2.211   0.289   1.833
    2PC     O3216408   2.129   0.158   1.790
    2PC     C3116409   2.198   0.031   1.784
    2PC     H1A16410   2.285   0.039   1.719
    2PC     H1B16411   2.230   0.004   1.884
    2PC     C3216412   2.101   6.373   1.731
    2PC     H2A16413   2.148   6.275   1.740
    2PC     H2B16414   2.011   6.372   1.792
    2PC     N3116415   2.055   6.382   1.588
    2PC     C3316416   1.974   6.260   1.556
    2PC     H3A16417   1.943   6.266   1.452
    2PC     H3B16418   2.035   6.172   1.573
    2PC     H3C16419   1.886   6.259   1.621
    2PC     C3416420   1.970   0.055   1.567
    2PC     H4A16421   1.936   0.056   1.463
    2PC     H4B16422   1.885   0.051   1.635
    2PC     H4C16423   2.030   0.144   1.587
    2PC     C3516424   2.172   6.385   1.494
    2PC     H5A16425   2.133   6.385   1.392
    2PC     H5B16426   2.233   6.297   1.511
    2PC     H5C16427   2.229   0.028   1.512
    2PC     O3316428   2.141   0.412   1.791
    2PC     O3416429   2.345   0.294   1.770
    2PC     O2116430   2.284   0.181   2.274
    2PC     C2116431   2.371   0.081   2.299
    2PC     O2216432   2.485   0.080   2.259
    3OL     C1216433   2.310   6.423   2.386
    3OL     H2R16434   2.250   6.356   2.324
    3OL     H2S16435   2.242   0.023   2.457
    3OL     C1316436   2.414   6.342   2.465
    3OL     H3R16437   2.475   6.410   2.525
    3OL     H3S16438   2.481   6.291   2.395
    3OL     C1416439   2.347   6.239   2.556
    3OL     H4R16440   2.289   6.169   2.495
    3OL     H4S16441   2.277   6.290   2.623
    3OL     C1516442   2.450   6.161   2.639
    3OL     H5R16443   2.506   6.229   2.702
    3OL     H5S16444   2.521   6.114   2.570
    3OL     C1616445   2.386   6.051   2.725
    3OL     H6R16446   2.466   5.986   2.761
    3OL     H6S16447   2.320   5.990   2.663
    3OL     C1716448   2.309   6.107   2.845
    3OL     H7R16449   2.231   6.176   2.810
    3OL     H7S16450   2.377   6.165   2.909
    3OL     C1816451   2.242   5.997   2.928
    3OL     H8R16452   2.177   5.939   2.862
    3OL     H8S16453   2.177   6.044   3.003
    3OL     C1916454   2.341   5.903   2.992
    3OL     H9R16455   2.398   5.843   2.922
    3OL    C11016456   2.359   5.884   3.122
    3OL    H10R16457   2.432   5.810   3.154
    3OL    C11116458   2.293   5.959   3.235
    3OL    H11R16459   2.253   6.055   3.201
    3OL    H11S16460   2.369   5.981   3.310
    3OL    C11216461   2.181   5.876   3.299
    3OL    H12R16462   2.219   5.775   3.317
    3OL    H12S16463   2.097   5.867   3.231
    3OL    C11316464   2.135   5.933   3.434
    3OL    H13R16465   2.223   5.951   3.496
    3OL    H13S16466   2.074   5.859   3.486
    3OL    C11416467   2.056   6.064   3.422
    3OL    H14R16468   2.104   6.131   3.349
    3OL    H14S16469   2.058   6.115   3.518
    3OL    C11516470   1.909   6.041   3.382
    3OL    H15R16471   1.861   5.978   3.457
    3OL    H15S16472   1.905   5.989   3.287
    3OL    C11616473   1.834   6.175   3.372
    3OL    H16R16474   1.882   6.238   3.297
    3OL    H16S16475   1.842   6.227   3.467
    3OL    C11716476   1.686   6.157   3.338
    3OL    H17R16477   1.636   6.253   3.349
    3OL    H17S16478   1.639   6.088   3.409
    3OL    C11816479   1.664   6.107   3.195
    3OL    H18R16480   1.703   6.006   3.182
    3OL    H18S16481   1.713   6.173   3.123
    3OL    H18T16482   1.557   6.104   3.171
    1PA    C11616483   2.020   0.344   3.638
    1PA    H16R16484   2.116   0.310   3.678
    1PA    H16S16485   1.963   0.258   3.605
    1PA    H16T16486   1.965   0.394   3.718
    1PA    C11516487   2.043   0.441   3.521
    1PA    H15R16488   1.947   0.477   3.485
    1PA    H15S16489   2.099   0.528   3.556
    1PA    C11416490   2.119   0.373   3.407
    1PA    H14R16491   2.216   0.338   3.444
    1PA    H14S16492   2.064   0.285   3.373
    1PA    C11316493   2.141   0.469   3.289
    1PA    H13R16494   2.045   0.507   3.255
    1PA    H13S16495   2.200   0.554   3.323
    1PA    C11216496   2.213   0.397   3.174
    1PA    H12R16497   2.306   0.353   3.209
    1PA    H12S16498   2.150   0.314   3.140
    1PA    C11116499   2.240   0.490   3.055
    1PA    H11R16500   2.273   0.429   2.970
    1PA    H11S16501   2.148   0.540   3.025
    1PA    C11016502   2.348   0.595   3.084
    1PA    H10R16503   2.312   0.664   3.161
    1PA    H10S16504   2.437   0.546   3.123
    1PA     C1916505   2.384   0.672   2.957
    1PA     H9R16506   2.426   0.602   2.885
    1PA     H9S16507   2.294   0.715   2.912
    1PA     C1816508   2.485   0.784   2.987
    1PA     H8R16509   2.435   0.861   3.047
    1PA     H8S16510   2.567   0.745   3.047
    1PA     C1716511   2.540   0.848   2.860
    1PA     H7R16512   2.459   0.870   2.790
    1PA     H7S16513   2.587   0.944   2.886
    1PA     C1616514   2.645   0.758   2.793
    1PA     H6R16515   2.724   0.735   2.865
    1PA     H6S16516   2.600   0.664   2.763
    1PA     C1516517   2.708   0.825   2.669
    1PA     H5R16518   2.630   0.844   2.595
    1PA     H5S16519   2.752   0.921   2.697
    1PA     C1416520   2.816   0.734   2.610
    1PA     H4R16521   2.895   0.717   2.683
    1PA     H4S16522   2.772   0.636   2.586
    1PA     C1316523   2.876   0.794   2.482
    1PA     H3R16524   2.797   0.807   2.408
    1PA     H3S16525   2.918   0.893   2.504
    1PA     C1216526   2.985   0.702   2.426
    1PA     H2R16527   3.074   0.707   2.489
    1PA     H2S16528   2.950   0.599   2.426
    2PC     C1116529   3.025   0.738   2.284
    2PC     O1216530   3.075   0.657   2.209
    2PC     O1116531   3.009   0.868   2.255
    2PC      C116532   3.039   0.915   2.123
    2PC      HR16533   3.044   1.024   2.124
    2PC      HS16534   3.136   0.875   2.092
    2PC      C216535   2.929   0.871   2.025
    2PC      HX16536   2.921   0.762   2.022
    2PC      C316537   2.961   0.920   1.883
    2PC      HA16538   2.947   1.028   1.876
    2PC      HB16539   3.064   0.895   1.857
    2PC     O3116540   2.872   0.853   1.791
    2PC     P3116541   2.904   0.860   1.634
    2PC     O3216542   2.952   0.710   1.607
    2PC     C3116543   3.041   0.684   1.497
    2PC     H1A16544   3.003   0.735   1.408
    2PC     H1B16545   3.140   0.723   1.520
    2PC     C3216546   3.045   0.533   1.471
    2PC     H2A16547   2.943   0.498   1.449
    2PC     H2B16548   3.106   0.514   1.382
    2PC     N3116549   3.098   0.443   1.578
    2PC     C3316550   3.238   0.482   1.616
    2PC     H3A16551   3.300   0.481   1.526
    2PC     H3B16552   3.236   0.582   1.660
    2PC     H3C16553   3.275   0.410   1.689
    2PC     C3416554   3.012   0.442   1.700
    2PC     H4A16555   3.052   0.369   1.770
    2PC     H4B16556   3.013   0.542   1.745
    2PC     H4C16557   2.911   0.414   1.671
    2PC     C3516558   3.101   0.303   1.524
    2PC     H5A16559   3.166   0.300   1.437
    2PC     H5B16560   2.999   0.274   1.498
    2PC     H5C16561   3.140   0.237   1.602
    2PC     O3316562   2.785   0.898   1.555
    2PC     O3416563   3.003   0.965   1.600
    2PC     O2116564   2.806   0.932   2.067
    2PC     C2116565   2.718   0.859   2.137
    2PC     O2216566   2.716   0.738   2.139
    3OL     C1216567   2.621   0.946   2.213
    3OL     H2R16568   2.567   1.010   2.142
    3OL     H2S16569   2.678   1.012   2.278
    3OL     C1316570   2.521   0.865   2.296
    3OL     H3R16571   2.574   0.791   2.356
    3OL     H3S16572   2.454   0.810   2.229
    3OL     C1416573   2.439   0.956   2.388
    3OL     H4R16574   2.384   1.028   2.328
    3OL     H4S16575   2.506   1.011   2.454
    3OL     C1516576   2.340   0.874   2.472
    3OL     H5R16577   2.394   0.803   2.535
    3OL     H5S16578   2.273   0.817   2.407
    3OL     C1616579   2.256   0.967   2.562
    3OL     H6R16580   2.204   1.040   2.499
    3OL     H6S16581   2.322   1.022   2.629
    3OL     C1716582   2.154   0.887   2.644
    3OL     H7R16583   2.206   0.814   2.706
    3OL     H7S16584   2.088   0.833   2.576
    3OL     C1816585   2.070   0.980   2.733
    3OL     H8R16586   2.022   1.054   2.669
    3OL     H8S16587   2.137   1.034   2.801
    3OL     C1916588   1.964   0.902   2.806
    3OL     H9R16589   1.904   0.838   2.742
    3OL    C11016590   1.942   0.901   2.936
    3OL    H10R16591   1.862   0.838   2.975
    3OL    C11116592   2.013   0.983   3.041
    3OL    H11R16593   1.938   1.034   3.102
    3OL    H11S16594   2.076   1.061   2.997
    3OL    C11216595   2.098   0.894   3.133
    3OL    H12R16596   2.180   0.850   3.075
    3OL    H12S16597   2.036   0.813   3.172
    3OL    C11316598   2.154   0.977   3.249
    3OL    H13R16599   2.071   1.024   3.301
    3OL    H13S16600   2.218   1.057   3.210
    3OL    C11416601   2.233   0.891   3.349
    3OL    H14R16602   2.322   0.849   3.300
    3OL    H14S16603   2.171   0.808   3.383
    3OL    C11516604   2.276   0.977   3.469
    3OL    H15R16605   2.188   1.023   3.513
    3OL    H15S16606   2.342   1.057   3.435
    3OL    C11616607   2.349   0.892   3.574
    3OL    H16R16608   2.438   0.847   3.529
    3OL    H16S16609   2.284   0.810   3.608
    3OL    C11716610   2.393   0.976   3.695
    3OL    H17R16611   2.447   1.064   3.661
    3OL    H17S16612   2.462   0.916   3.756
    3OL    C11816613   2.274   1.018   3.783
    3OL    H18R16614   2.205   1.083   3.728
    3OL    H18S16615   2.310   1.073   3.870
    3OL    H18T16616   2.219   0.931   3.818
    1PA    C11616617   1.848   0.580   3.947
    1PA    H16R16618   1.816   0.493   3.890
    1PA    H16S16619   1.759   0.634   3.980
    1PA    H16T16620   1.902   0.546   4.036
    1PA    C11516621   1.939   0.670   3.862
    1PA    H15R16622   1.971   0.756   3.922
    1PA    H15S16623   2.028   0.615   3.832
    1PA    C11416624   1.865   0.720   3.737
    1PA    H14R16625   1.834   0.635   3.676
    1PA    H14S16626   1.774   0.773   3.768
    1PA    C11316627   1.954   0.814   3.654
    1PA    H13R16628   1.986   0.898   3.716
    1PA    H13S16629   2.044   0.760   3.625
    1PA    C11216630   1.885   0.867   3.528
    1PA    H12R16631   1.958   0.923   3.470
    1PA    H12S16632   1.851   0.784   3.466
    1PA    C11116633   1.767   0.960   3.561
    1PA    H11R16634   1.687   0.905   3.611
    1PA    H11S16635   1.802   1.037   3.632
    1PA    C11016636   1.711   1.031   3.437
    1PA    H10R16637   1.654   1.117   3.471
    1PA    H10S16638   1.793   1.069   3.376
    1PA     C1916639   1.620   0.940   3.354
    1PA     H9R16640   1.678   0.859   3.309
    1PA     H9S16641   1.546   0.894   3.421
    1PA     C1816642   1.544   1.018   3.246
    1PA     H8R16643   1.461   0.957   3.211
    1PA     H8S16644   1.501   1.109   3.289
    1PA     C1716645   1.632   1.054   3.126
    1PA     H7R16646   1.720   1.109   3.160
    1PA     H7S16647   1.667   0.963   3.077
    1PA     C1616648   1.554   1.140   3.025
    1PA     H6R16649   1.459   1.091   3.003
    1PA     H6S16650   1.530   1.237   3.070
    1PA     C1516651   1.629   1.160   2.893
    1PA     H5R16652   1.656   1.062   2.852
    1PA     H5S16653   1.562   1.208   2.821
    1PA     C1416654   1.756   1.246   2.909
    1PA     H4R16655   1.730   1.345   2.947
    1PA     H4S16656   1.822   1.200   2.982
    1PA     C1316657   1.832   1.257   2.776
    1PA     H3R16658   1.937   1.278   2.797
    1PA     H3S16659   1.828   1.162   2.723
    1PA     C1216660   1.777   1.369   2.686
    1PA     H2R16661   1.670   1.354   2.670
    1PA     H2S16662   1.790   1.466   2.733
    2PC     C1116663   1.846   1.369   2.552
    2PC     O1216664   1.966   1.363   2.537
    2PC     O1116665   1.757   1.374   2.451
    2PC      C116666   1.800   1.365   2.314
    2PC      HR16667   1.713   1.384   2.251
    2PC      HS16668   1.875   1.442   2.294
    2PC      C216669   1.857   1.226   2.282
    2PC      HX16670   1.950   1.212   2.338
    2PC      C316671   1.888   1.213   2.132
    2PC      HA16672   1.976   1.273   2.108
    2PC      HB16673   1.908   1.109   2.106
    2PC     O3116674   1.776   1.262   2.055
    2PC     P3116675   1.790   1.270   1.896
    2PC     O3216676   1.787   1.114   1.860
    2PC     C3116677   1.771   1.076   1.722
    2PC     H1A16678   1.678   1.120   1.684
    2PC     H1B16679   1.855   1.113   1.663
    2PC     C3216680   1.760   0.923   1.717
    2PC     H2A16681   1.690   0.890   1.793
    2PC     H2B16682   1.722   0.893   1.619
    2PC     N3116683   1.885   0.842   1.739
    2PC     C3316684   1.982   0.865   1.627
    2PC     H3A16685   2.069   0.801   1.644
    2PC     H3B16686   1.934   0.838   1.533
    2PC     H3C16687   2.011   0.970   1.627
    2PC     C3416688   1.950   0.874   1.870
    2PC     H4A16689   2.035   0.807   1.884
    2PC     H4B16690   1.983   0.978   1.868
    2PC     H4C16691   1.876   0.860   1.949
    2PC     C3516692   1.847   0.697   1.739
    2PC     H5A16693   1.937   0.638   1.757
    2PC     H5B16694   1.805   0.673   1.641
    2PC     H5C16695   1.773   0.680   1.818
    2PC     O3316696   1.680   1.347   1.834
    2PC     O3416697   1.917   1.335   1.853
    2PC     O2116698   1.761   1.127   2.322
    2PC     C2116699   1.802   1.001   2.341
    2PC     O2216700   1.916   0.963   2.323
    3OL     C1216701   1.692   0.916   2.400
    3OL     H2R16702   1.631   0.875   2.318
    3OL     H2S16703   1.627   0.981   2.458
    3OL     C1316704   1.746   0.803   2.488
    3OL     H3R16705   1.819   0.844   2.559
    3OL     H3S16706   1.799   0.731   2.425
    3OL     C1416707   1.635   0.730   2.565
    3OL     H4R16708   1.675   0.636   2.604
    3OL     H4S16709   1.554   0.705   2.497
    3OL     C1516710   1.582   0.813   2.683
    3OL     H5R16711   1.549   0.911   2.647
    3OL     H5S16712   1.663   0.830   2.755
    3OL     C1616713   1.465   0.744   2.754
    3OL     H6R16714   1.499   0.651   2.799
    3OL     H6S16715   1.388   0.719   2.680
    3OL     C1716716   1.405   0.836   2.860
    3OL     H7R16717   1.377   0.931   2.814
    3OL     H7S16718   1.480   0.858   2.937
    3OL     C1816719   1.280   0.776   2.927
    3OL     H8R16720   1.212   0.742   2.849
    3OL     H8S16721   1.228   0.856   2.980
    3OL     C1916722   1.315   0.661   3.018
    3OL     H9R16723   1.361   0.576   2.968
    3OL    C11016724   1.293   0.654   3.149
    3OL    H10R16725   1.321   0.564   3.201
    3OL    C11116726   1.231   0.760   3.237
    3OL    H11R16727   1.217   0.854   3.184
    3OL    H11S16728   1.298   0.780   3.321
    3OL    C11216729   1.096   0.712   3.292
    3OL    H12R16730   1.112   0.626   3.358
    3OL    H12S16731   1.032   0.679   3.209
    3OL    C11316732   1.025   0.825   3.369
    3OL    H13R16733   1.008   0.909   3.302
    3OL    H13S16734   1.088   0.859   3.451
    3OL    C11416735   0.890   0.777   3.425
    3OL    H14R16736   0.907   0.695   3.495
    3OL    H14S16737   0.828   0.738   3.343
    3OL    C11516738   0.816   0.892   3.494
    3OL    H15R16739   0.797   0.970   3.420
    3OL    H15S16740   0.879   0.936   3.572
    3OL    C11616741   0.682   0.847   3.553
    3OL    H16R16742   0.632   0.781   3.482
    3OL    H16S16743   0.617   0.934   3.566
    3OL    C11716744   0.695   0.776   3.689
    3OL    H17R16745   0.771   0.698   3.684
    3OL    H17S16746   0.600   0.727   3.712
    3OL    C11816747   0.727   0.874   3.802
    3OL    H18R16748   0.825   0.921   3.787
    3OL    H18S16749   0.730   0.822   3.898
    3OL    H18T16750   0.652   0.953   3.808
    1PA    C11616751   0.430   1.892   3.146
    1PA    H16R16752   0.338   1.943   3.174
    1PA    H16S16753   0.436   1.891   3.037
    1PA    H16T16754   0.515   1.948   3.185
    1PA    C11516755   0.430   1.749   3.201
    1PA    H15R16756   0.415   1.754   3.310
    1PA    H15S16757   0.345   1.693   3.160
    1PA    C11416758   0.560   1.673   3.174
    1PA    H14R16759   0.645   1.731   3.211
    1PA    H14S16760   0.559   1.579   3.229
    1PA    C11316761   0.579   1.642   3.025
    1PA    H13R16762   0.493   1.587   2.987
    1PA    H13S16763   0.586   1.735   2.968
    1PA    C11216764   0.707   1.560   3.000
    1PA    H12R16765   0.793   1.613   3.041
    1PA    H12S16766   0.699   1.464   3.051
    1PA    C11116767   0.726   1.537   2.849
    1PA    H11R16768   0.640   1.483   2.810
    1PA    H11S16769   0.729   1.634   2.798
    1PA    C11016770   0.854   1.459   2.817
    1PA    H10R16771   0.942   1.514   2.851
    1PA    H10S16772   0.853   1.363   2.871
    1PA     C1916773   0.862   1.435   2.666
    1PA     H9R16774   0.774   1.380   2.632
    1PA     H9S16775   0.861   1.531   2.615
    1PA     C1816776   0.989   1.359   2.623
    1PA     H8R16777   0.993   1.358   2.514
    1PA     H8S16778   1.077   1.412   2.658
    1PA     C1716779   0.991   1.214   2.675
    1PA     H7R16780   1.008   1.213   2.783
    1PA     H7S16781   0.893   1.169   2.657
    1PA     C1616782   1.098   1.130   2.604
    1PA     H6R16783   1.086   1.025   2.635
    1PA     H6S16784   1.080   1.134   2.496
    1PA     C1516785   1.241   1.175   2.636
    1PA     H5R16786   1.254   1.281   2.613
    1PA     H5S16787   1.258   1.164   2.743
    1PA     C1416788   1.346   1.092   2.561
    1PA     H4R16789   1.444   1.111   2.606
    1PA     H4S16790   1.325   0.986   2.575
    1PA     C1316791   1.354   1.123   2.411
    1PA     H3R16792   1.413   1.045   2.363
    1PA     H3S16793   1.254   1.119   2.366
    1PA     C1216794   1.419   1.258   2.382
    1PA     H2R16795   1.365   1.338   2.433
    1PA     H2S16796   1.522   1.259   2.419
    2PC     C1116797   1.422   1.291   2.235
    2PC     O1216798   1.400   1.210   2.147
    2PC     O1116799   1.447   1.421   2.214
    2PC      C116800   1.442   1.477   2.081
    2PC      HR16801   1.491   1.574   2.083
    2PC      HS16802   1.497   1.412   2.013
    2PC      C216803   1.297   1.495   2.035
    2PC      HX16804   1.247   1.398   2.032
    2PC      C316805   1.293   1.560   1.896
    2PC      HA16806   1.347   1.655   1.898
    2PC      HB16807   1.340   1.494   1.823
    2PC     O3116808   1.157   1.583   1.857
    2PC     P3116809   1.123   1.652   1.716
    2PC     O3216810   1.029   1.772   1.766
    2PC     C3116811   0.896   1.737   1.810
    2PC     H1A16812   0.843   1.685   1.731
    2PC     H1B16813   0.904   1.671   1.897
    2PC     C3216814   0.820   1.864   1.850
    2PC     H2A16815   0.726   1.834   1.895
    2PC     H2B16816   0.878   1.919   1.925
    2PC     N3116817   0.784   1.962   1.743
    2PC     C3316818   0.698   2.068   1.804
    2PC     H3A16819   0.671   2.141   1.727
    2PC     H3B16820   0.608   2.021   1.845
    2PC     H3C16821   0.755   2.117   1.884
    2PC     C3416822   0.906   2.028   1.685
    2PC     H4A16823   0.959   2.080   1.765
    2PC     H4B16824   0.970   1.951   1.641
    2PC     H4C16825   0.874   2.099   1.609
    2PC     C3516826   0.706   1.896   1.634
    2PC     H5A16827   0.670   1.974   1.565
    2PC     H5B16828   0.621   1.844   1.678
    2PC     H5C16829   0.771   1.826   1.581
    2PC     O3316830   1.238   1.707   1.640
    2PC     O3416831   1.057   1.561   1.619
    2PC     O2116832   1.234   1.585   2.128
    2PC     C2116833   1.105   1.567   2.162
    2PC     O2216834   1.038   1.472   2.126
    3OL     C1216835   1.048   1.681   2.243
    3OL     H2R16836   0.958   1.647   2.294
    3OL     H2S16837   1.020   1.760   2.174
    3OL     C1316838   1.146   1.740   2.346
    3OL     H3R16839   1.102   1.830   2.388
    3OL     H3S16840   1.239   1.769   2.297
    3OL     C1416841   1.175   1.642   2.461
    3OL     H4R16842   1.216   1.549   2.420
    3OL     H4S16843   1.082   1.618   2.513
    3OL     C1516844   1.276   1.702   2.560
    3OL     H5R16845   1.238   1.796   2.599
    3OL     H5S16846   1.370   1.722   2.509
    3OL     C1616847   1.303   1.606   2.677
    3OL     H6R16848   1.335   1.509   2.638
    3OL     H6S16849   1.210   1.591   2.733
    3OL     C1716850   1.412   1.661   2.770
    3OL     H7R16851   1.381   1.759   2.809
    3OL     H7S16852   1.503   1.677   2.712
    3OL     C1816853   1.444   1.567   2.887
    3OL     H8R16854   1.537   1.600   2.933
    3OL     H8S16855   1.460   1.467   2.848
    3OL     C1916856   1.333   1.565   2.990
    3OL     H9R16857   1.233   1.577   2.950
    3OL    C11016858   1.349   1.556   3.121
    3OL    H10R16859   1.261   1.559   3.185
    3OL    C11116860   1.479   1.533   3.193
    3OL    H11R16861   1.556   1.497   3.124
    3OL    H11S16862   1.465   1.454   3.267
    3OL    C11216863   1.528   1.660   3.264
    3OL    H12R16864   1.454   1.692   3.337
    3OL    H12S16865   1.539   1.740   3.190
    3OL    C11316866   1.663   1.635   3.333
    3OL    H13R16867   1.735   1.600   3.259
    3OL    H13S16868   1.652   1.557   3.408
    3OL    C11416869   1.716   1.763   3.400
    3OL    H14R16870   1.647   1.795   3.478
    3OL    H14S16871   1.723   1.843   3.326
    3OL    C11516872   1.855   1.737   3.462
    3OL    H15R16873   1.920   1.694   3.386
    3OL    H15S16874   1.845   1.664   3.543
    3OL    C11616875   1.919   1.865   3.516
    3OL    H16R16876   1.857   1.907   3.595
    3OL    H16S16877   1.927   1.939   3.436
    3OL    C11716878   2.059   1.835   3.572
    3OL    H17R16879   2.120   1.787   3.495
    3OL    H17S16880   2.051   1.766   3.656
    3OL    C11816881   2.129   1.963   3.619
    3OL    H18R16882   2.229   1.940   3.658
    3OL    H18S16883   2.072   2.012   3.697
    3OL    H18T16884   2.141   2.033   3.536
    1PA    C11616885   3.210   6.411   3.309
    1PA    H16R16886   3.157   0.057   3.292
    1PA    H16S16887   3.267   6.421   3.402
    1PA    H16T16888   3.136   6.332   3.323
    1PA    C11516889   3.303   6.379   3.192
    1PA    H15R16890   3.379   0.009   3.184
    1PA    H15S16891   3.355   6.285   3.212
    1PA    C11416892   3.225   6.369   3.061
    1PA    H14R16893   3.148   6.292   3.070
    1PA    H14S16894   3.176   0.016   3.040
    1PA    C11316895   3.318   6.333   2.944
    1PA    H13R16896   3.402   6.403   2.941
    1PA    H13S16897   3.359   6.233   2.960
    1PA    C11216898   3.242   6.337   2.810
    1PA    H12R16899   3.154   6.274   2.818
    1PA    H12S16900   3.208   6.439   2.791
    1PA    C11116901   3.328   6.288   2.693
    1PA    H11R16902   3.367   6.189   2.716
    1PA    H11S16903   3.265   6.278   2.605
    1PA    C11016904   3.444   6.384   2.661
    1PA    H10R16905   3.404   0.036   2.642
    1PA    H10S16906   3.510   6.391   2.747
    1PA     C1916907   3.523   6.337   2.539
    1PA     H9R16908   3.554   6.233   2.551
    1PA     H9S16909   3.459   6.342   2.451
    1PA     C1816910   3.646   6.426   2.515
    1PA     H8R16911   3.679   6.415   2.411
    1PA     H8S16912   3.619   0.083   2.529
    1PA     C1716913   3.762   6.390   2.609
    1PA     H7R16914   3.812   0.033   2.643
    1PA     H7S16915   3.723   6.340   2.699
    1PA     C1616916   3.865   6.298   2.542
    1PA     H6R16917   3.917   6.241   2.620
    1PA     H6S16918   3.816   6.226   2.476
    1PA     C1516919   3.969   6.380   2.465
    1PA     H5R16920   3.919   6.439   2.387
    1PA     H5S16921   4.017   0.002   2.533
    1PA     C1416922   4.075   6.290   2.400
    1PA     H4R16923   4.121   6.225   2.475
    1PA     H4S16924   4.026   6.225   2.327
    1PA     C1316925   4.183   6.372   2.328
    1PA     H3R16926   4.237   6.306   2.260
    1PA     H3S16927   4.137   0.002   2.268
    1PA     C1216928   4.284   6.433   2.427
    1PA     H2R16929   4.232   0.051   2.497
    1PA     H2S16930   4.332   6.355   2.485
    2PC     C1116931   4.390   0.066   2.357
    2PC     O1216932   4.399   0.077   2.236
    2PC     O1116933   4.474   0.126   2.443
    2PC      C116934   4.564   0.227   2.394
    2PC      HR16935   4.637   0.252   2.471
    2PC      HS16936   4.618   0.188   2.307
    2PC      C216937   4.487   0.354   2.355
    2PC      HX16938   4.392   0.330   2.308
    2PC      C316939   4.569   0.440   2.257
    2PC      HA16940   4.569   0.392   2.159
    2PC      HB16941   4.525   0.539   2.248
    2PC     O3116942   4.704   0.451   2.304
    2PC     P3116943   4.816   0.520   2.212
    2PC     O3216944   4.796   0.676   2.243
    2PC     C3116945   4.759   0.762   2.134
    2PC     H1A16946   4.827   0.747   2.050
    2PC     H1B16947   4.658   0.737   2.102
    2PC     C3216948   4.763   0.909   2.179
    2PC     H2A16949   4.733   0.972   2.095
    2PC     H2B16950   4.691   0.925   2.260
    2PC     N3116951   4.894   0.964   2.228
    2PC     C3316952   5.008   0.926   2.138
    2PC     H3A16953   5.098   0.975   2.175
    2PC     H3B16954   5.020   0.817   2.143
    2PC     H3C16955   4.985   0.958   2.037
    2PC     C3416956   4.884   1.114   2.228
    2PC     H4A16957   4.978   1.155   2.264
    2PC     H4B16958   4.864   1.148   2.127
    2PC     H4C16959   4.803   1.143   2.295
    2PC     C3516960   4.924   0.919   2.367
    2PC     H5A16961   5.018   0.964   2.398
    2PC     H5B16962   4.933   0.810   2.367
    2PC     H5C16963   4.842   0.951   2.433
    2PC     O3316964   4.952   0.475   2.246
    2PC     O3416965   4.803   0.486   2.068
    2PC     O2116966   4.464   0.433   2.474
    2PC     C2116967   4.359   0.405   2.554
    2PC     O2216968   4.275   0.322   2.531
    3OL     C1216969   4.359   0.494   2.676
    3OL     H2R16970   4.303   0.584   2.653
    3OL     H2S16971   4.462   0.524   2.697
    3OL     C1316972   4.300   0.425   2.800
    3OL     H3R16973   4.364   0.340   2.828
    3OL     H3S16974   4.201   0.386   2.777
    3OL     C1416975   4.291   0.522   2.918
    3OL     H4R16976   4.237   0.611   2.885
    3OL     H4S16977   4.391   0.555   2.948
    3OL     C1516978   4.216   0.462   3.038
    3OL     H5R16979   4.127   0.411   3.001
    3OL     H5S16980   4.182   0.543   3.103
    3OL     C1616981   4.299   0.364   3.121
    3OL     H6R16982   4.354   0.296   3.056
    3OL     H6S16983   4.231   0.303   3.181
    3OL     C1716984   4.396   0.436   3.217
    3OL     H7R16985   4.340   0.507   3.278
    3OL     H7S16986   4.468   0.493   3.159
    3OL     C1816987   4.469   0.337   3.308
    3OL     H8R16988   4.521   0.264   3.245
    3OL     H8S16989   4.397   0.282   3.368
    3OL     C1916990   4.570   0.409   3.394
    3OL     H9R16991   4.650   0.457   3.339
    3OL    C11016992   4.569   0.417   3.526
    3OL    H10R16993   4.649   0.473   3.575
    3OL    C11116994   4.468   0.354   3.618
    3OL    H11R16995   4.484   0.246   3.620
    3OL    H11S16996   4.367   0.371   3.580
    3OL    C11216997   4.476   0.407   3.762
    3OL    H12R16998   4.406   0.351   3.824
    3OL    H12S16999   4.442   0.511   3.763
    3OL    C11317000   4.615   0.401   3.827
    3OL    H13R17001   4.608   0.435   3.930
    3OL    H13S17002   4.681   0.472   3.776
    3OL    C11417003   4.681   0.262   3.824
    3OL    H14R17004   4.785   0.273   3.858
    3OL    H14S17005   4.685   0.225   3.721
    3OL    C11517006   4.610   0.162   3.915
    3OL    H15R17007   4.505   0.153   3.889
    3OL    H15S17008   4.615   0.198   4.018
    3OL    C11617009   4.677   0.023   3.909
    3OL    H16R17010   4.647   6.414   3.997
    3OL    H16S17011   4.785   0.034   3.912
    3OL    C11717012   4.635   6.394   3.783
    3OL    H17R17013   4.657   0.005   3.694
    3OL    H17S17014   4.527   6.377   3.785
    3OL    C11817015   4.707   6.259   3.773
    3OL    H18R17016   4.815   6.273   3.771
    3OL    H18S17017   4.677   6.207   3.682
    3OL    H18T17018   4.682   6.195   3.858
    1PA    C11617019   2.153   1.949   4.075
    1PA    H16R17020   2.247   2.005   4.072
    1PA    H16S17021   2.096   1.980   4.162
    1PA    H16T17022   2.096   1.973   3.985
    1PA    C11517023   2.181   1.798   4.081
    1PA    H15R17024   2.237   1.776   4.172
    1PA    H15S17025   2.087   1.744   4.085
    1PA    C11417026   2.262   1.752   3.959
    1PA    H14R17027   2.209   1.778   3.868
    1PA    H14S17028   2.359   1.803   3.958
    1PA    C11317029   2.285   1.600   3.963
    1PA    H13R17030   2.333   1.572   4.057
    1PA    H13S17031   2.189   1.549   3.959
    1PA    C11217032   2.372   1.555   3.845
    1PA    H12R17033   2.323   1.583   3.751
    1PA    H12S17034   2.468   1.607   3.849
    1PA    C11117035   2.397   1.404   3.849
    1PA    H11R17036   2.441   1.378   3.945
    1PA    H11S17037   2.302   1.350   3.842
    1PA    C11017038   2.491   1.357   3.737
    1PA    H10R17039   2.581   1.420   3.737
    1PA    H10S17040   2.523   1.255   3.758
    1PA     C1917041   2.424   1.361   3.599
    1PA     H9R17042   2.335   1.298   3.599
    1PA     H9S17043   2.393   1.463   3.576
    1PA     C1817044   2.521   1.313   3.490
    1PA     H8R17045   2.613   1.372   3.495
    1PA     H8S17046   2.548   1.209   3.507
    1PA     C1717047   2.458   1.329   3.351
    1PA     H7R17048   2.367   1.269   3.345
    1PA     H7S17049   2.429   1.433   3.336
    1PA     C1617050   2.555   1.287   3.240
    1PA     H6R17051   2.646   1.347   3.246
    1PA     H6S17052   2.583   1.182   3.252
    1PA     C1517053   2.490   1.307   3.102
    1PA     H5R17054   2.400   1.245   3.096
    1PA     H5S17055   2.459   1.411   3.092
    1PA     C1417056   2.584   1.271   2.987
    1PA     H4R17057   2.674   1.333   2.992
    1PA     H4S17058   2.615   1.167   2.995
    1PA     C1317059   2.514   1.294   2.852
    1PA     H3R17060   2.425   1.231   2.846
    1PA     H3S17061   2.481   1.398   2.846
    1PA     C1217062   2.606   1.263   2.733
    1PA     H2R17063   2.694   1.327   2.737
    1PA     H2S17064   2.640   1.160   2.738
    2PC     C1117065   2.537   1.285   2.601
    2PC     O1217066   2.417   1.302   2.588
    2PC     O1117067   2.624   1.284   2.498
    2PC      C117068   2.576   1.304   2.364
    2PC      HR17069   2.657   1.279   2.294
    2PC      HS17070   2.492   1.238   2.345
    2PC      C217071   2.534   1.450   2.340
    2PC      HX17072   2.473   1.485   2.424
    2PC      C317073   2.452   1.461   2.211
    2PC      HA17074   2.353   1.416   2.229
    2PC      HB17075   2.437   1.566   2.183
    2PC     O3117076   2.517   1.391   2.104
    2PC     P3117077   2.431   1.352   1.974
    2PC     O3217078   2.496   1.209   1.942
    2PC     C3117079   2.580   1.194   1.826
    2PC     H1A17080   2.527   1.229   1.737
    2PC     H1B17081   2.671   1.254   1.840
    2PC     C3217082   2.617   1.046   1.814
    2PC     H2A17083   2.693   1.034   1.736
    2PC     H2B17084   2.660   1.012   1.908
    2PC     N3117085   2.508   0.949   1.779
    2PC     C3317086   2.456   0.977   1.641
    2PC     H3A17087   2.378   0.903   1.618
    2PC     H3B17088   2.414   1.078   1.638
    2PC     H3C17089   2.539   0.967   1.571
    2PC     C3417090   2.564   0.810   1.779
    2PC     H4A17091   2.639   0.803   1.701
    2PC     H4B17092   2.608   0.790   1.877
    2PC     H4C17093   2.482   0.740   1.759
    2PC     C3517094   2.393   0.953   1.876
    2PC     H5A17095   2.347   1.052   1.871
    2PC     H5B17096   2.431   0.934   1.976
    2PC     H5C17097   2.321   0.877   1.847
    2PC     O3317098   2.286   1.333   2.000
    2PC     O3417099   2.437   1.453   1.866
    2PC     O2117100   2.653   1.530   2.331
    2PC     C2117101   2.644   1.664   2.335
    2PC     O2217102   2.539   1.724   2.343
    3OL     C1217103   2.779   1.731   2.326
    3OL     H2R17104   2.779   1.796   2.239
    3OL     H2S17105   2.856   1.656   2.311
    3OL     C1317106   2.812   1.814   2.451
    3OL     H3R17107   2.735   1.891   2.465
    3OL     H3S17108   2.906   1.867   2.434
    3OL     C1417109   2.823   1.728   2.578
    3OL     H4R17110   2.889   1.643   2.559
    3OL     H4S17111   2.725   1.689   2.604
    3OL     C1517112   2.880   1.810   2.695
    3OL     H5R17113   2.823   1.902   2.709
    3OL     H5S17114   2.982   1.840   2.670
    3OL     C1617115   2.882   1.730   2.826
    3OL     H6R17116   2.957   1.774   2.893
    3OL     H6S17117   2.912   1.627   2.807
    3OL     C1717118   2.745   1.734   2.896
    3OL     H7R17119   2.669   1.692   2.831
    3OL     H7S17120   2.718   1.839   2.915
    3OL     C1817121   2.747   1.658   3.030
    3OL     H8R17122   2.828   1.697   3.092
    3OL     H8S17123   2.768   1.553   3.009
    3OL     C1917124   2.614   1.671   3.100
    3OL     H9R17125   2.529   1.685   3.034
    3OL    C11017126   2.595   1.673   3.231
    3OL    H10R17127   2.494   1.687   3.269
    3OL    C11117128   2.700   1.649   3.336
    3OL    H11R17129   2.792   1.610   3.292
    3OL    H11S17130   2.664   1.573   3.405
    3OL    C11217131   2.733   1.775   3.417
    3OL    H12R17132   2.766   1.854   3.349
    3OL    H12S17133   2.817   1.752   3.483
    3OL    C11317134   2.616   1.826   3.502
    3OL    H13R17135   2.582   1.746   3.569
    3OL    H13S17136   2.532   1.852   3.437
    3OL    C11417137   2.658   1.948   3.584
    3OL    H14R17138   2.690   2.028   3.517
    3OL    H14S17139   2.743   1.922   3.647
    3OL    C11517140   2.543   1.998   3.673
    3OL    H15R17141   2.512   1.918   3.741
    3OL    H15S17142   2.458   2.025   3.611
    3OL    C11617143   2.587   2.120   3.756
    3OL    H16R17144   2.617   2.200   3.688
    3OL    H16S17145   2.674   2.094   3.816
    3OL    C11717146   2.474   2.169   3.847
    3OL    H17R17147   2.445   2.089   3.916
    3OL    H17S17148   2.387   2.195   3.787
    3OL    C11817149   2.518   2.292   3.928
    3OL    H18R17150   2.544   2.374   3.861
    3OL    H18S17151   2.605   2.268   3.990
    3OL    H18T17152   2.437   2.325   3.993
    4SOL     OW17153   0.902   5.118   7.339
    4SOL    HW117154   0.900   5.025   7.317
    4SOL    HW217155   0.922   5.121   7.432
    5SOL     OW17156   5.275   1.261   6.335
    5SOL    HW117157   5.345   1.269   6.270
    5SOL    HW217158   5.311   1.302   6.414
    6SOL     OW17159   0.066   1.027   0.932
    6SOL    HW117160   0.157   1.040   0.906
    6SOL    HW217161   0.070   1.010   1.026
    7SOL     OW17162   6.375   5.679   2.112
    7SOL    HW117163   6.338   5.602   2.068
    7SOL    HW217164   6.330   5.683   2.196
    8SOL     OW17165   5.800   1.955   0.289
    8SOL    HW117166   5.875   1.950   0.230
    8SOL    HW217167   5.814   2.034   0.340
    9SOL     OW17168   0.649   3.740   0.757
    9SOL    HW117169   0.608   3.712   0.839
    9SOL    HW217170   0.724   3.793   0.785
   10SOL     OW17171   1.850   0.879   7.099
   10SOL    HW117172   1.912   0.855   7.167
   10SOL    HW217173   1.905   0.913   7.028
   11SOL     OW17174   0.313   1.258   6.475
   11SOL    HW117175   0.355   1.186   6.521
   11SOL    HW217176   0.314   1.232   6.383
   12SOL     OW17177   5.300   3.516   7.503
   12SOL    HW117178   5.347   3.544   7.582
   12SOL    HW217179   5.261   3.432   7.528
   13SOL     OW17180   1.655   4.590   0.987
   13SOL    HW117181   1.623   4.602   1.077
   13SOL    HW217182   1.743   4.555   0.998
   14SOL     OW17183   6.338   2.522   7.177
   14SOL    HW117184   6.405   2.514   7.109
   14SOL    HW217185   6.345   2.613   7.208
   15SOL     OW17186   0.462   0.260   0.022
   15SOL    HW117187   0.528   0.282   0.088
   15SOL    HW217188   0.380   0.295   0.057
   16SOL     OW17189   0.204   0.325   0.122
   16SOL    HW117190   0.197   0.401   0.180
   16SOL    HW217191   0.135   0.266   0.151
   17SOL     OW17192   2.367   1.719   1.103
   17SOL    HW117193   2.274   1.738   1.106
   17SOL    HW217194   2.375   1.654   1.032
   18SOL     OW17195   4.571   2.284   5.638
   18SOL    HW117196   4.665   2.299   5.628
   18SOL    HW217197   4.530   2.362   5.600
   19SOL     OW17198   4.296   4.844   6.775
   19SOL    HW117199   4.389   4.865   6.785
   19SOL    HW217200   4.295   4.762   6.726
   20SOL     OW17201   1.230   4.984   0.368
   20SOL    HW117202   1.316   5.022   0.347
   20SOL    HW217203   1.201   4.944   0.286
   21SOL     OW17204   2.729   4.876   1.192
   21SOL    HW117205   2.735   4.789   1.232
   21SOL    HW217206   2.664   4.866   1.121
   22SOL     OW17207   2.290   3.348   6.177
   22SOL    HW117208   2.308   3.418   6.241
   22SOL    HW217209   2.214   3.302   6.213
   23SOL     OW17210   2.528   1.009   5.369
   23SOL    HW117211   2.520   1.075   5.300
   23SOL    HW217212   2.452   0.951   5.356
   24SOL     OW17213   0.256   2.839   0.065
   24SOL    HW117214   0.204   2.880   0.133
   24SOL    HW217215   0.192   2.805   0.002
   25SOL     OW17216   5.550   0.501   7.346
   25SOL    HW117217   5.549   0.473   7.254
   25SOL    HW217218   5.531   0.595   7.342
   26SOL     OW17219   0.851   2.368   0.212
   26SOL    HW117220   0.874   2.279   0.186
   26SOL    HW217221   0.796   2.401   0.140
   27SOL     OW17222   1.572   2.875   7.492
   27SOL    HW117223   1.510   2.808   7.461
   27SOL    HW217224   1.552   2.885   7.585
   28SOL     OW17225   3.465   0.876   0.102
   28SOL    HW117226   3.377   0.856   0.070
   28SOL    HW217227   3.450   0.921   0.186
   29SOL     OW17228   5.764   5.593   6.643
   29SOL    HW117229   5.681   5.558   6.673
   29SOL    HW217230   5.743   5.681   6.611
   30SOL     OW17231   0.898   6.033   7.227
   30SOL    HW117232   0.888   6.122   7.195
   30SOL    HW217233   0.960   6.041   7.300
   31SOL     OW17234   0.501   4.799   6.515
   31SOL    HW117235   0.561   4.867   6.484
   31SOL    HW217236   0.489   4.818   6.608
   32SOL     OW17237   6.229   6.300   7.110
   32SOL    HW117238   6.238   6.309   7.015
   32SOL    HW217239   6.283   6.224   7.132
   33SOL     OW17240   1.480   1.322   6.701
   33SOL    HW117241   1.471   1.383   6.774
   33SOL    HW217242   1.570   1.289   6.708
   34SOL     OW17243   3.506   1.738   7.344
   34SOL    HW117244   3.451   1.777   7.275
   34SOL    HW217245   3.450   1.739   7.422
   35SOL     OW17246   5.681   2.165   6.802
   35SOL    HW117247   5.699   2.180   6.895
   35SOL    HW217248   5.700   2.248   6.759
   36SOL     OW17249   4.475   4.812   0.644
   36SOL    HW117250   4.547   4.773   0.594
   36SOL    HW217251   4.473   4.761   0.725
   37SOL     OW17252   2.603   5.996   7.137
   37SOL    HW117253   2.667   6.058   7.171
   37SOL    HW217254   2.541   6.050   7.088
   38SOL     OW17255   2.774   1.328   7.759
   38SOL    HW117256   2.782   1.235   7.782
   38SOL    HW217257   2.691   1.356   7.798
   39SOL     OW17258   3.283   1.753   7.524
   39SOL    HW117259   3.261   1.822   7.587
   39SOL    HW217260   3.268   1.671   7.571
   40SOL     OW17261   0.687   0.409   6.600
   40SOL    HW117262   0.717   0.487   6.554
   40SOL    HW217263   0.716   0.422   6.690
   41SOL     OW17264   1.039   2.860   6.248
   41SOL    HW117265   1.002   2.781   6.208
   41SOL    HW217266   1.016   2.931   6.187
   42SOL     OW17267   0.482   0.560   0.502
   42SOL    HW117268   0.468   0.565   0.408
   42SOL    HW217269   0.507   0.648   0.528
   43SOL     OW17270   4.977   2.531   0.179
   43SOL    HW117271   5.001   2.611   0.225
   43SOL    HW217272   5.061   2.487   0.163
   44SOL     OW17273   4.414   0.980   7.681
   44SOL    HW117274   4.499   1.004   7.644
   44SOL    HW217275   4.409   0.885   7.667
   45SOL     OW17276   5.911   1.663   6.533
   45SOL    HW117277   5.920   1.619   6.448
   45SOL    HW217278   5.874   1.749   6.512
   46SOL     OW17279   6.125   5.917   7.768
   46SOL    HW117280   6.207   5.868   7.760
   46SOL    HW217281   6.094   5.928   7.678
   47SOL     OW17282   0.576   3.695   1.558
   47SOL    HW117283   0.492   3.693   1.605
   47SOL    HW217284   0.578   3.612   1.510
   48SOL     OW17285   3.757   0.320   7.588
   48SOL    HW117286   3.835   0.306   7.534
   48SOL    HW217287   3.685   0.286   7.535
   49SOL     OW17288   3.307   0.157   5.938
   49SOL    HW117289   3.325   0.101   5.862
   49SOL    HW217290   3.329   0.102   6.013
   50SOL     OW17291   3.591   0.347   7.292
   50SOL    HW117292   3.659   0.411   7.314
   50SOL    HW217293   3.566   0.368   7.202
   51SOL     OW17294   2.269   1.722   7.130
   51SOL    HW117295   2.273   1.768   7.215
   51SOL    HW217296   2.297   1.633   7.150
   52SOL     OW17297   0.120   4.019   5.840
   52SOL    HW117298   0.211   4.043   5.821
   52SOL    HW217299   0.079   4.009   5.754
   53SOL     OW17300   2.642   1.761   1.917
   53SOL    HW117301   2.577   1.822   1.953
   53SOL    HW217302   2.634   1.771   1.822
   54SOL     OW17303   1.378   2.582   7.672
   54SOL    HW117304   1.360   2.641   7.744
   54SOL    HW217305   1.308   2.517   7.675
   55SOL     OW17306   4.752   4.150   7.391
   55SOL    HW117307   4.751   4.093   7.468
   55SOL    HW217308   4.787   4.233   7.424
   56SOL     OW17309   1.673   2.477   6.093
   56SOL    HW117310   1.668   2.537   6.019
   56SOL    HW217311   1.640   2.394   6.059
   57SOL     OW17312   4.436   4.564   5.826
   57SOL    HW117313   4.494   4.635   5.852
   57SOL    HW217314   4.461   4.544   5.736
   58SOL     OW17315   4.007   1.344   0.943
   58SOL    HW117316   4.034   1.314   1.030
   58SOL    HW217317   3.964   1.268   0.903
   59SOL     OW17318   3.747   5.291   0.844
   59SOL    HW117319   3.692   5.278   0.767
   59SOL    HW217320   3.684   5.310   0.914
   60SOL     OW17321   4.467   1.469   0.971
   60SOL    HW117322   4.539   1.505   0.920
   60SOL    HW217323   4.419   1.413   0.909
   61SOL     OW17324   4.957   5.833   7.145
   61SOL    HW117325   5.006   5.796   7.218
   61SOL    HW217326   4.978   5.926   7.147
   62SOL     OW17327   5.215   6.320   7.155
   62SOL    HW117328   5.179   6.370   7.227
   62SOL    HW217329   5.310   6.334   7.162
   63SOL     OW17330   3.443   5.410   0.620
   63SOL    HW117331   3.521   5.356   0.606
   63SOL    HW217332   3.436   5.463   0.540
   64SOL     OW17333   1.522   2.457   0.388
   64SOL    HW117334   1.501   2.541   0.430
   64SOL    HW217335   1.465   2.454   0.311
   65SOL     OW17336   3.557   4.733   0.986
   65SOL    HW117337   3.653   4.737   0.996
   65SOL    HW217338   3.527   4.818   1.019
   66SOL     OW17339   3.241   1.210   5.582
   66SOL    HW117340   3.178   1.182   5.648
   66SOL    HW217341   3.305   1.139   5.579
   67SOL     OW17342   0.164   3.254   7.051
   67SOL    HW117343   0.162   3.224   6.960
   67SOL    HW217344   0.073   3.279   7.069
   68SOL     OW17345   0.329   0.443   0.691
   68SOL    HW117346   0.255   0.409   0.639
   68SOL    HW217347   0.384   0.488   0.627
   69SOL     OW17348   3.949   4.510   0.474
   69SOL    HW117349   4.031   4.484   0.517
   69SOL    HW217350   3.889   4.437   0.491
   70SOL     OW17351   3.543   5.555   6.974
   70SOL    HW117352   3.599   5.517   6.906
   70SOL    HW217353   3.603   5.578   7.045
   71SOL     OW17354   0.280   1.285   1.102
   71SOL    HW117355   0.255   1.213   1.045
   71SOL    HW217356   0.199   1.311   1.146
   72SOL     OW17357   3.057   6.158   6.762
   72SOL    HW117358   2.963   6.147   6.751
   72SOL    HW217359   3.066   6.245   6.802
   73SOL     OW17360   1.250   6.427   5.952
   73SOL    HW117361   1.247   6.387   5.865
   73SOL    HW217362   1.158   6.439   5.975
   74SOL     OW17363   1.288   3.111   7.661
   74SOL    HW117364   1.360   3.055   7.691
   74SOL    HW217365   1.327   3.165   7.592
   75SOL     OW17366   1.014   2.868   1.071
   75SOL    HW117367   0.962   2.874   0.991
   75SOL    HW217368   1.087   2.812   1.048
   76SOL     OW17369   0.751   4.920   6.231
   76SOL    HW117370   0.741   4.938   6.325
   76SOL    HW217371   0.668   4.948   6.192
   77SOL     OW17372   3.349   1.434   5.999
   77SOL    HW117373   3.348   1.491   5.922
   77SOL    HW217374   3.355   1.495   6.073
   78SOL     OW17375   5.354   6.351   7.503
   78SOL    HW117376   5.278   6.380   7.451
   78SOL    HW217377   5.378   6.429   7.554
   79SOL     OW17378   5.512   4.692   7.358
   79SOL    HW117379   5.500   4.772   7.409
   79SOL    HW217380   5.487   4.716   7.269
   80SOL     OW17381   1.739   1.011   0.466
   80SOL    HW117382   1.738   0.916   0.461
   80SOL    HW217383   1.722   1.041   0.377
   81SOL     OW17384   3.301   4.171   6.045
   81SOL    HW117385   3.353   4.175   5.965
   81SOL    HW217386   3.357   4.209   6.113
   82SOL     OW17387   4.597   3.206   6.728
   82SOL    HW117388   4.660   3.137   6.708
   82SOL    HW217389   4.606   3.269   6.656
   83SOL     OW17390   2.772   3.186   0.937
   83SOL    HW117391   2.714   3.167   0.864
   83SOL    HW217392   2.857   3.151   0.910
   84SOL     OW17393   0.042   5.759   5.640
   84SOL    HW117394   6.432   5.835   5.631
   84SOL    HW217395   0.013   5.718   5.722
   85SOL     OW17396   5.159   2.706   1.774
   85SOL    HW117397   5.247   2.713   1.811
   85SOL    HW217398   5.147   2.786   1.724
   86SOL     OW17399   1.960   3.880   7.188
   86SOL    HW117400   2.053   3.872   7.167
   86SOL    HW217401   1.957   3.938   7.264
   87SOL     OW17402   1.948   3.388   2.287
   87SOL    HW117403   1.900   3.306   2.277
   87SOL    HW217404   1.919   3.423   2.371
   88SOL     OW17405   4.118   5.916   2.114
   88SOL    HW117406   4.034   5.870   2.124
   88SOL    HW217407   4.184   5.847   2.114
   89SOL     OW17408   4.386   2.343   6.865
   89SOL    HW117409   4.424   2.431   6.870
   89SOL    HW217410   4.366   2.321   6.956
   90SOL     OW17411   0.175   4.547   1.310
   90SOL    HW117412   0.265   4.517   1.326
   90SOL    HW217413   0.149   4.501   1.230
   91SOL     OW17414   4.660   1.064   7.590
   91SOL    HW117415   4.732   1.072   7.652
   91SOL    HW217416   4.702   1.042   7.507
   92SOL     OW17417   2.908   2.590   6.034
   92SOL    HW117418   2.874   2.678   6.018
   92SOL    HW217419   2.840   2.531   6.000
   93SOL     OW17420   3.025   4.208   1.269
   93SOL    HW117421   3.089   4.144   1.237
   93SOL    HW217422   3.059   4.293   1.240
   94SOL     OW17423   0.949   4.401   0.967
   94SOL    HW117424   0.862   4.439   0.973
   94SOL    HW217425   0.944   4.321   1.020
   95SOL     OW17426   4.952   1.250   7.508
   95SOL    HW117427   4.937   1.196   7.585
   95SOL    HW217428   4.874   1.305   7.502
   96SOL     OW17429   2.198   4.933   2.489
   96SOL    HW117430   2.202   5.028   2.502
   96SOL    HW217431   2.123   4.905   2.541
   97SOL     OW17432   2.232   0.712   2.022
   97SOL    HW117433   2.322   0.688   2.048
   97SOL    HW217434   2.207   0.780   2.084
   98SOL     OW17435   3.269   5.326   7.702
   98SOL    HW117436   3.189   5.286   7.735
   98SOL    HW217437   3.302   5.264   7.637
   99SOL     OW17438   0.672   1.861   6.632
   99SOL    HW117439   0.638   1.776   6.661
   99SOL    HW217440   0.609   1.892   6.567
  100SOL     OW17441   5.323   1.634   6.640
  100SOL    HW117442   5.274   1.709   6.606
  100SOL    HW217443   5.276   1.611   6.721
  101SOL     OW17444   1.062   5.130   6.561
  101SOL    HW117445   1.039   5.044   6.526
  101SOL    HW217446   1.150   5.118   6.597
  102SOL     OW17447   5.121   0.338   6.629
  102SOL    HW117448   5.140   0.421   6.586
  102SOL    HW217449   5.200   0.319   6.680
  103SOL     OW17450   2.705   1.182   0.936
  103SOL    HW117451   2.760   1.213   0.864
  103SOL    HW217452   2.766   1.139   0.996
  104SOL     OW17453   3.617   0.364   5.789
  104SOL    HW117454   3.679   0.409   5.731
  104SOL    HW217455   3.549   0.332   5.730
  105SOL     OW17456   3.609   3.117   6.356
  105SOL    HW117457   3.559   3.126   6.437
  105SOL    HW217458   3.665   3.194   6.354
  106SOL     OW17459   5.022   3.988   6.507
  106SOL    HW117460   4.950   3.943   6.550
  106SOL    HW217461   5.048   3.930   6.435
  107SOL     OW17462   3.418   2.542   7.262
  107SOL    HW117463   3.385   2.531   7.173
  107SOL    HW217464   3.509   2.571   7.252
  108SOL     OW17465   5.824   5.361   0.046
  108SOL    HW117466   5.731   5.343   0.032
  108SOL    HW217467   5.844   5.317   0.129
  109SOL     OW17468   2.208   1.173   2.192
  109SOL    HW117469   2.208   1.227   2.271
  109SOL    HW217470   2.235   1.234   2.123
  110SOL     OW17471   3.063   0.283   0.558
  110SOL    HW117472   3.107   0.206   0.595
  110SOL    HW217473   3.132   0.348   0.547
  111SOL     OW17474   0.909   4.392   0.199
  111SOL    HW117475   0.971   4.352   0.260
  111SOL    HW217476   0.952   4.473   0.171
  112SOL     OW17477   0.447   3.433   7.538
  112SOL    HW117478   0.460   3.353   7.489
  112SOL    HW217479   0.501   3.423   7.616
  113SOL     OW17480   2.798   1.649   6.570
  113SOL    HW117481   2.857   1.720   6.545
  113SOL    HW217482   2.835   1.571   6.527
  114SOL     OW17483   2.495   6.109   6.147
  114SOL    HW117484   2.423   6.151   6.194
  114SOL    HW217485   2.574   6.146   6.187
  115SOL     OW17486   4.863   2.441   7.503
  115SOL    HW117487   4.931   2.393   7.456
  115SOL    HW217488   4.794   2.455   7.438
  116SOL     OW17489   2.314   1.435   1.630
  116SOL    HW117490   2.348   1.443   1.719
  116SOL    HW217491   2.380   1.384   1.584
  117SOL     OW17492   2.377   5.569   5.660
  117SOL    HW117493   2.301   5.511   5.665
  117SOL    HW217494   2.404   5.565   5.568
  118SOL     OW17495   0.533   3.170   1.467
  118SOL    HW117496   0.441   3.142   1.464
  118SOL    HW217497   0.580   3.094   1.503
  119SOL     OW17498   2.151   2.295   2.172
  119SOL    HW117499   2.155   2.374   2.225
  119SOL    HW217500   2.080   2.312   2.110
  120SOL     OW17501   0.671   0.789   0.290
  120SOL    HW117502   0.590   0.819   0.247
  120SOL    HW217503   0.696   0.711   0.241
  121SOL     OW17504   3.662   5.251   0.580
  121SOL    HW117505   3.755   5.254   0.557
  121SOL    HW217506   3.624   5.187   0.520
  122SOL     OW17507   4.800   5.414   0.785
  122SOL    HW117508   4.711   5.405   0.753
  122SOL    HW217509   4.828   5.501   0.754
  123SOL     OW17510   0.292   2.687   6.002
  123SOL    HW117511   0.376   2.643   5.998
  123SOL    HW217512   0.274   2.697   6.095
  124SOL     OW17513   4.206   5.355   6.182
  124SOL    HW117514   4.191   5.433   6.236
  124SOL    HW217515   4.298   5.334   6.195
  125SOL     OW17516   3.848   4.155   1.272
  125SOL    HW117517   3.781   4.144   1.339
  125SOL    HW217518   3.930   4.159   1.321
  126SOL     OW17519   4.467   2.611   6.856
  126SOL    HW117520   4.461   2.661   6.938
  126SOL    HW217521   4.421   2.665   6.792
  127SOL     OW17522   2.052   1.675   5.506
  127SOL    HW117523   1.981   1.720   5.552
  127SOL    HW217524   2.131   1.722   5.532
  128SOL     OW17525   3.623   3.842   0.048
  128SOL    HW117526   3.548   3.845   7.792
  128SOL    HW217527   3.662   3.929   0.042
  129SOL     OW17528   5.467   0.652   5.737
  129SOL    HW117529   5.394   0.672   5.796
  129SOL    HW217530   5.545   0.663   5.792
  130SOL     OW17531   2.922   5.957   7.757
  130SOL    HW117532   2.947   5.866   7.773
  130SOL    HW217533   3.004   6.005   7.758
  131SOL     OW17534   0.803   4.175   5.945
  131SOL    HW117535   0.729   4.144   5.893
  131SOL    HW217536   0.831   4.100   5.997
  132SOL     OW17537   1.545   3.938   7.568
  132SOL    HW117538   1.572   3.891   7.489
  132SOL    HW217539   1.450   3.932   7.568
  133SOL     OW17540   4.315   6.247   6.755
  133SOL    HW117541   4.401   6.257   6.715
  133SOL    HW217542   4.311   6.154   6.779
  134SOL     OW17543   2.293   3.067   7.454
  134SOL    HW117544   2.246   3.120   7.390
  134SOL    HW217545   2.225   3.018   7.500
  135SOL     OW17546   1.322   3.908   6.129
  135SOL    HW117547   1.359   3.943   6.048
  135SOL    HW217548   1.302   3.986   6.181
  136SOL     OW17549   2.313   4.826   2.266
  136SOL    HW117550   2.247   4.763   2.235
  136SOL    HW217551   2.275   4.862   2.346
  137SOL     OW17552   4.142   4.561   1.049
  137SOL    HW117553   4.142   4.657   1.044
  137SOL    HW217554   4.166   4.533   0.961
  138SOL     OW17555   1.797   0.010   6.188
  138SOL    HW117556   1.703   6.446   6.196
  138SOL    HW217557   1.808   0.102   6.166
  139SOL     OW17558   3.384   5.314   6.956
  139SOL    HW117559   3.421   5.402   6.962
  139SOL    HW217560   3.290   5.329   6.949
  140SOL     OW17561   1.801   1.693   7.146
  140SOL    HW117562   1.742   1.618   7.142
  140SOL    HW217563   1.830   1.705   7.056
  141SOL     OW17564   0.585   6.168   1.527
  141SOL    HW117565   0.579   6.252   1.480
  141SOL    HW217566   0.576   6.102   1.459
  142SOL     OW17567   3.275   1.642   7.097
  142SOL    HW117568   3.230   1.678   7.173
  142SOL    HW217569   3.315   1.717   7.054
  143SOL     OW17570   0.068   0.543   1.100
  143SOL    HW117571   0.084   0.543   1.195
  143SOL    HW217572   0.043   0.453   1.080
  144SOL     OW17573   6.319   4.427   7.342
  144SOL    HW117574   6.256   4.393   7.405
  144SOL    HW217575   6.286   4.401   7.257
  145SOL     OW17576   3.069   0.600   6.558
  145SOL    HW117577   3.020   0.524   6.527
  145SOL    HW217578   3.054   0.667   6.492
  146SOL     OW17579   5.913   3.527   1.535
  146SOL    HW117580   5.924   3.453   1.595
  146SOL    HW217581   6.002   3.557   1.516
  147SOL     OW17582   0.690   0.031   0.446
  147SOL    HW117583   0.645   6.395   0.440
  147SOL    HW217584   0.621   0.095   0.462
  148SOL     OW17585   3.943   2.966   6.295
  148SOL    HW117586   3.917   3.047   6.251
  148SOL    HW217587   3.971   2.908   6.224
  149SOL     OW17588   0.152   6.308   1.429
  149SOL    HW117589   0.174   6.220   1.458
  149SOL    HW217590   0.233   6.343   1.392
  150SOL     OW17591   4.967   0.994   0.599
  150SOL    HW117592   5.008   0.909   0.616
  150SOL    HW217593   4.912   0.980   0.522
  151SOL     OW17594   4.968   5.006   1.109
  151SOL    HW117595   4.999   5.043   1.192
  151SOL    HW217596   4.983   4.912   1.118
  152SOL     OW17597   4.955   2.617   7.700
  152SOL    HW117598   4.927   2.546   7.642
  152SOL    HW217599   4.944   2.582   7.788
  153SOL     OW17600   2.281   5.112   1.183
  153SOL    HW117601   2.208   5.173   1.195
  153SOL    HW217602   2.359   5.162   1.207
  154SOL     OW17603   3.870   5.771   6.686
  154SOL    HW117604   3.817   5.837   6.640
  154SOL    HW217605   3.843   5.688   6.646
  155SOL     OW17606   5.284   5.728   6.963
  155SOL    HW117607   5.238   5.673   7.026
  155SOL    HW217608   5.257   5.817   6.984
  156SOL     OW17609   2.343   3.607   0.451
  156SOL    HW117610   2.319   3.633   0.362
  156SOL    HW217611   2.281   3.537   0.473
  157SOL     OW17612   6.054   1.288   6.305
  157SOL    HW117613   6.043   1.196   6.281
  157SOL    HW217614   6.149   1.300   6.307
  158SOL     OW17615   0.635   1.366   0.466
  158SOL    HW117616   0.552   1.413   0.472
  158SOL    HW217617   0.694   1.415   0.524
  159SOL     OW17618   1.928   3.144   6.801
  159SOL    HW117619   1.852   3.179   6.848
  159SOL    HW217620   1.999   3.205   6.820
  160SOL     OW17621   4.563   2.074   0.936
  160SOL    HW117622   4.529   2.018   0.866
  160SOL    HW217623   4.656   2.049   0.942
  161SOL     OW17624   0.198   2.617   1.606
  161SOL    HW117625   0.222   2.707   1.630
  161SOL    HW217626   0.170   2.577   1.689
  162SOL     OW17627   2.007   1.829   1.370
  162SOL    HW117628   2.091   1.839   1.415
  162SOL    HW217629   1.973   1.918   1.363
  163SOL     OW17630   1.850   1.534   5.389
  163SOL    HW117631   1.928   1.577   5.422
  163SOL    HW217632   1.878   1.491   5.308
  164SOL     OW17633   4.286   4.624   6.615
  164SOL    HW117634   4.321   4.535   6.608
  164SOL    HW217635   4.210   4.624   6.556
  165SOL     OW17636   0.987   1.243   0.142
  165SOL    HW117637   0.934   1.314   0.108
  165SOL    HW217638   1.013   1.192   0.065
  166SOL     OW17639   2.551   4.445   7.253
  166SOL    HW117640   2.498   4.403   7.321
  166SOL    HW217641   2.488   4.492   7.198
  167SOL     OW17642   1.381   5.109   5.791
  167SOL    HW117643   1.455   5.150   5.745
  167SOL    HW217644   1.422   5.039   5.843
  168SOL     OW17645   1.611   2.714   0.712
  168SOL    HW117646   1.604   2.780   0.782
  168SOL    HW217647   1.659   2.642   0.752
  169SOL     OW17648   3.085   4.629   1.459
  169SOL    HW117649   3.166   4.653   1.503
  169SOL    HW217650   3.075   4.535   1.477
  170SOL     OW17651   4.633   1.781   7.024
  170SOL    HW117652   4.635   1.740   7.111
  170SOL    HW217653   4.685   1.861   7.035
  171SOL     OW17654   6.136   0.139   6.844
  171SOL    HW117655   6.192   0.165   6.917
  171SOL    HW217656   6.162   0.049   6.824
  172SOL     OW17657   4.195   1.045   1.967
  172SOL    HW117658   4.212   1.131   2.006
  172SOL    HW217659   4.281   1.004   1.961
  173SOL     OW17660   1.150   1.692   6.964
  173SOL    HW117661   1.114   1.611   6.998
  173SOL    HW217662   1.209   1.723   7.032
  174SOL     OW17663   0.066   5.637   6.120
  174SOL    HW117664   0.081   5.725   6.155
  174SOL    HW217665   0.100   5.578   6.187
  175SOL     OW17666   0.836   3.245   7.682
  175SOL    HW117667   0.858   3.248   7.589
  175SOL    HW217668   0.920   3.242   7.727
  176SOL     OW17669   3.260   5.779   0.525
  176SOL    HW117670   3.221   5.752   0.608
  176SOL    HW217671   3.194   5.837   0.486
  177SOL     OW17672   0.478   5.265   7.160
  177SOL    HW117673   0.436   5.202   7.219
  177SOL    HW217674   0.562   5.285   7.201
  178SOL     OW17675   4.274   4.174   7.455
  178SOL    HW117676   4.271   4.084   7.422
  178SOL    HW217677   4.355   4.179   7.506
  179SOL     OW17678   0.629   4.356   6.058
  179SOL    HW117679   0.655   4.377   6.147
  179SOL    HW217680   0.699   4.299   6.025
  180SOL     OW17681   3.902   2.327   7.289
  180SOL    HW117682   3.815   2.331   7.329
  180SOL    HW217683   3.962   2.343   7.362
  181SOL     OW17684   5.427   2.415   0.902
  181SOL    HW117685   5.371   2.442   0.975
  181SOL    HW217686   5.501   2.372   0.943
  182SOL     OW17687   0.737   4.978   0.331
  182SOL    HW117688   0.818   4.994   0.379
  182SOL    HW217689   0.748   5.028   0.250
  183SOL     OW17690   4.772   1.499   6.240
  183SOL    HW117691   4.847   1.553   6.214
  183SOL    HW217692   4.740   1.462   6.157
  184SOL     OW17693   2.767   4.118   1.232
  184SOL    HW117694   2.730   4.163   1.155
  184SOL    HW217695   2.857   4.149   1.236
  185SOL     OW17696   4.554   4.820   7.065
  185SOL    HW117697   4.562   4.896   7.123
  185SOL    HW217698   4.559   4.858   6.976
  186SOL     OW17699   5.305   4.429   7.650
  186SOL    HW117700   5.359   4.353   7.629
  186SOL    HW217701   5.231   4.393   7.699
  187SOL     OW17702   1.897   2.233   6.902
  187SOL    HW117703   1.929   2.151   6.866
  187SOL    HW217704   1.930   2.235   6.992
  188SOL     OW17705   5.528   5.339   0.343
  188SOL    HW117706   5.508   5.291   0.424
  188SOL    HW217707   5.560   5.272   0.283
  189SOL     OW17708   1.340   4.520   0.657
  189SOL    HW117709   1.250   4.491   0.669
  189SOL    HW217710   1.335   4.587   0.589
  190SOL     OW17711   2.509   5.582   6.062
  190SOL    HW117712   2.436   5.636   6.033
  190SOL    HW217713   2.561   5.567   5.983
  191SOL     OW17714   3.480   5.948   0.528
  191SOL    HW117715   3.441   6.010   0.590
  191SOL    HW217716   3.413   5.880   0.518
  192SOL     OW17717   4.656   6.024   0.982
  192SOL    HW117718   4.655   6.119   0.980
  192SOL    HW217719   4.580   6.000   1.035
  193SOL     OW17720   0.880   5.421   1.516
  193SOL    HW117721   0.902   5.452   1.603
  193SOL    HW217722   0.824   5.489   1.479
  194SOL     OW17723   6.270   5.897   6.059
  194SOL    HW117724   6.221   5.831   6.010
  194SOL    HW217725   6.344   5.918   6.002
  195SOL     OW17726   0.141   1.931   1.174
  195SOL    HW117727   0.182   1.872   1.237
  195SOL    HW217728   0.212   1.987   1.142
  196SOL     OW17729   0.119   5.090   7.495
  196SOL    HW117730   0.139   5.024   7.561
  196SOL    HW217731   0.024   5.085   7.483
  197SOL     OW17732   1.604   0.067   0.371
  197SOL    HW117733   1.610   0.038   0.462
  197SOL    HW217734   1.637   6.441   0.321
  198SOL     OW17735   1.772   0.281   0.429
  198SOL    HW117736   1.799   0.250   0.515
  198SOL    HW217737   1.717   0.211   0.394
  199SOL     OW17738   3.398   2.778   6.124
  199SOL    HW117739   3.372   2.779   6.216
  199SOL    HW217740   3.332   2.832   6.079
  200SOL     OW17741   2.478   4.399   6.295
  200SOL    HW117742   2.518   4.350   6.224
  200SOL    HW217743   2.534   4.477   6.304
  201SOL     OW17744   4.075   1.643   2.366
  201SOL    HW117745   4.165   1.612   2.357
  201SOL    HW217746   4.035   1.582   2.429
  202SOL     OW17747   5.977   5.249   6.706
  202SOL    HW117748   5.899   5.228   6.655
  202SOL    HW217749   5.993   5.171   6.759
  203SOL     OW17750   1.052   0.839   0.027
  203SOL    HW117751   1.075   0.877   0.112
  203SOL    HW217752   1.133   0.801   7.797
  204SOL     OW17753   0.561   3.983   0.644
  204SOL    HW117754   0.574   3.889   0.658
  204SOL    HW217755   0.632   4.008   0.585
  205SOL     OW17756   5.347   4.464   7.364
  205SOL    HW117757   5.317   4.460   7.455
  205SOL    HW217758   5.394   4.548   7.359
  206SOL     OW17759   4.239   1.935   6.686
  206SOL    HW117760   4.307   2.002   6.697
  206SOL    HW217761   4.283   1.863   6.642
  207SOL     OW17762   5.319   3.262   0.044
  207SOL    HW117763   5.328   3.186   0.102
  207SOL    HW217764   5.391   3.253   7.785
  208SOL     OW17765   2.187   3.150   0.981
  208SOL    HW117766   2.253   3.169   1.047
  208SOL    HW217767   2.104   3.177   1.021
  209SOL     OW17768   6.433   1.953   7.771
  209SOL    HW117769   6.415   1.937   0.061
  209SOL    HW217770   0.073   1.916   7.757
  210SOL     OW17771   4.070   0.896   7.457
  210SOL    HW117772   4.053   0.802   7.456
  210SOL    HW217773   4.162   0.904   7.432
  211SOL     OW17774   4.642   6.025   6.621
  211SOL    HW117775   4.611   6.115   6.611
  211SOL    HW217776   4.567   5.971   6.594
  212SOL     OW17777   0.219   3.062   6.135
  212SOL    HW117778   0.254   3.100   6.216
  212SOL    HW217779   0.125   3.054   6.150
  213SOL     OW17780   4.320   4.304   5.510
  213SOL    HW117781   4.235   4.309   5.467
  213SOL    HW217782   4.352   4.216   5.490
  214SOL     OW17783   1.415   6.175   7.296
  214SOL    HW117784   1.367   6.121   7.232
  214SOL    HW217785   1.491   6.207   7.247
  215SOL     OW17786   4.175   6.103   5.838
  215SOL    HW117787   4.223   6.151   5.771
  215SOL    HW217788   4.224   6.022   5.850
  216SOL     OW17789   5.855   4.019   0.934
  216SOL    HW117790   5.946   4.046   0.923
  216SOL    HW217791   5.857   3.924   0.924
  217SOL     OW17792   5.161   3.688   1.165
  217SOL    HW117793   5.069   3.715   1.168
  217SOL    HW217794   5.163   3.604   1.210
  218SOL     OW17795   3.744   6.214   1.033
  218SOL    HW117796   3.740   6.310   1.034
  218SOL    HW217797   3.724   6.191   0.942
  219SOL     OW17798   0.144   0.541   1.361
  219SOL    HW117799   0.164   0.460   1.408
  219SOL    HW217800   0.118   0.603   1.429
  220SOL     OW17801   4.827   2.525   0.593
  220SOL    HW117802   4.736   2.511   0.618
  220SOL    HW217803   4.867   2.567   0.669
  221SOL     OW17804   3.271   5.000   2.269
  221SOL    HW117805   3.239   4.912   2.287
  221SOL    HW217806   3.347   5.010   2.326
  222SOL     OW17807   0.920   5.589   0.513
  222SOL    HW117808   1.013   5.601   0.490
  222SOL    HW217809   0.885   5.678   0.520
  223SOL     OW17810   2.188   3.324   5.617
  223SOL    HW117811   2.270   3.293   5.656
  223SOL    HW217812   2.210   3.340   5.525
  224SOL     OW17813   4.512   4.805   2.026
  224SOL    HW117814   4.478   4.722   2.061
  224SOL    HW217815   4.600   4.813   2.064
  225SOL     OW17816   5.294   0.857   1.077
  225SOL    HW117817   5.297   0.907   0.996
  225SOL    HW217818   5.349   0.907   1.138
  226SOL     OW17819   2.766   0.965   0.263
  226SOL    HW117820   2.758   1.039   0.324
  226SOL    HW217821   2.684   0.917   0.273
  227SOL     OW17822   4.447   3.139   1.688
  227SOL    HW117823   4.439   3.045   1.703
  227SOL    HW217824   4.510   3.168   1.754
  228SOL     OW17825   3.275   3.176   7.202
  228SOL    HW117826   3.281   3.205   7.293
  228SOL    HW217827   3.271   3.080   7.208
  229SOL     OW17828   5.400   1.960   6.216
  229SOL    HW117829   5.393   1.872   6.252
  229SOL    HW217830   5.327   2.008   6.255
  230SOL     OW17831   3.896   2.556   6.830
  230SOL    HW117832   3.808   2.566   6.792
  230SOL    HW217833   3.880   2.529   6.920
  231SOL     OW17834   4.473   0.896   1.023
  231SOL    HW117835   4.546   0.953   1.046
  231SOL    HW217836   4.398   0.956   1.014
  232SOL     OW17837   1.216   5.712   1.045
  232SOL    HW117838   1.171   5.694   1.127
  232SOL    HW217839   1.148   5.748   0.988
  233SOL     OW17840   5.830   2.930   0.824
  233SOL    HW117841   5.754   2.911   0.769
  233SOL    HW217842   5.793   2.976   0.900
  234SOL     OW17843   0.874   1.964   0.480
  234SOL    HW117844   0.863   1.917   0.398
  234SOL    HW217845   0.946   1.920   0.524
  235SOL     OW17846   2.198   2.352   6.167
  235SOL    HW117847   2.152   2.430   6.197
  235SOL    HW217848   2.290   2.378   6.167
  236SOL     OW17849   5.397   0.586   6.921
  236SOL    HW117850   5.349   0.647   6.978
  236SOL    HW217851   5.449   0.533   6.981
  237SOL     OW17852   0.665   5.654   7.478
  237SOL    HW117853   0.747   5.694   7.448
  237SOL    HW217854   0.606   5.663   7.404
  238SOL     OW17855   1.335   4.824   6.424
  238SOL    HW117856   1.394   4.863   6.359
  238SOL    HW217857   1.327   4.733   6.397
  239SOL     OW17858   5.732   1.442   0.827
  239SOL    HW117859   5.717   1.448   0.733
  239SOL    HW217860   5.668   1.377   0.858
  240SOL     OW17861   0.989   5.093   0.073
  240SOL    HW117862   0.895   5.104   0.087
  240SOL    HW217863   1.029   5.159   0.130
  241SOL     OW17864   2.723   1.091   6.782
  241SOL    HW117865   2.810   1.052   6.770
  241SOL    HW217866   2.734   1.183   6.756
  242SOL     OW17867   3.898   6.192   5.382
  242SOL    HW117868   3.944   6.131   5.325
  242SOL    HW217869   3.864   6.260   5.322
  243SOL     OW17870   0.537   6.368   7.613
  243SOL    HW117871   0.603   6.359   7.682
  243SOL    HW217872   0.553   6.294   7.555
  244SOL     OW17873   6.163   5.004   0.223
  244SOL    HW117874   6.162   5.098   0.202
  244SOL    HW217875   6.226   4.997   0.295
  245SOL     OW17876   2.381   4.591   7.094
  245SOL    HW117877   2.326   4.530   7.047
  245SOL    HW217878   2.397   4.663   7.032
  246SOL     OW17879   6.296   2.406   1.523
  246SOL    HW117880   6.342   2.395   1.606
  246SOL    HW217881   6.341   2.479   1.480
  247SOL     OW17882   0.431   4.325   6.771
  247SOL    HW117883   0.375   4.331   6.693
  247SOL    HW217884   0.493   4.255   6.750
  248SOL     OW17885   2.135   3.306   1.894
  248SOL    HW117886   2.171   3.295   1.807
  248SOL    HW217887   2.143   3.399   1.912
  249SOL     OW17888   5.796   5.997   6.332
  249SOL    HW117889   5.724   6.060   6.321
  249SOL    HW217890   5.800   5.951   6.249
  250SOL     OW17891   4.602   0.085   0.245
  250SOL    HW117892   4.566   0.020   0.185
  250SOL    HW217893   4.525   0.127   0.284
  251SOL     OW17894   4.620   4.344   6.599
  251SOL    HW117895   4.637   4.257   6.563
  251SOL    HW217896   4.527   4.344   6.621
  252SOL     OW17897   2.148   3.924   0.486
  252SOL    HW117898   2.178   4.009   0.455
  252SOL    HW217899   2.221   3.890   0.538
  253SOL     OW17900   5.169   0.055   0.335
  253SOL    HW117901   5.111   0.124   0.367
  253SOL    HW217902   5.240   0.051   0.400
  254SOL     OW17903   4.913   0.678   7.782
  254SOL    HW117904   4.889   0.647   7.695
  254SOL    HW217905   4.982   0.619   0.008
  255SOL     OW17906   0.828   1.313   7.075
  255SOL    HW117907   0.756   1.332   7.016
  255SOL    HW217908   0.791   1.323   7.163
  256SOL     OW17909   4.247   1.539   7.574
  256SOL    HW117910   4.249   1.464   7.515
  256SOL    HW217911   4.195   1.509   7.649
  257SOL     OW17912   0.447   3.555   6.513
  257SOL    HW117913   0.403   3.504   6.446
  257SOL    HW217914   0.440   3.646   6.483
  258SOL     OW17915   5.941   2.614   5.701
  258SOL    HW117916   5.882   2.689   5.706
  258SOL    HW217917   6.029   2.653   5.697
  259SOL     OW17918   2.972   5.148   1.538
  259SOL    HW117919   2.978   5.053   1.531
  259SOL    HW217920   2.878   5.167   1.532
  260SOL     OW17921   6.229   3.649   7.620
  260SOL    HW117922   6.281   3.674   7.696
  260SOL    HW217923   6.141   3.684   7.639
  261SOL     OW17924   1.861   0.181   7.091
  261SOL    HW117925   1.952   0.210   7.101
  261SOL    HW217926   1.814   0.221   7.164
  262SOL     OW17927   3.434   6.021   6.431
  262SOL    HW117928   3.452   5.935   6.394
  262SOL    HW217929   3.364   6.006   6.494
  263SOL     OW17930   2.548   1.544   6.586
  263SOL    HW117931   2.487   1.610   6.554
  263SOL    HW217932   2.634   1.585   6.578
  264SOL     OW17933   0.832   5.762   5.543
  264SOL    HW117934   0.759   5.820   5.521
  264SOL    HW217935   0.798   5.674   5.525
  265SOL     OW17936   1.537   6.432   6.266
  265SOL    HW117937   1.546   0.041   6.341
  265SOL    HW217938   1.485   6.358   6.297
  266SOL     OW17939   3.751   1.256   0.039
  266SOL    HW117940   3.684   1.311   7.802
  266SOL    HW217941   3.723   1.166   0.018
  267SOL     OW17942   2.224   3.960   1.910
  267SOL    HW117943   2.186   3.949   1.997
  267SOL    HW217944   2.193   3.885   1.860
  268SOL     OW17945   1.470   1.555   0.703
  268SOL    HW117946   1.563   1.568   0.683
  268SOL    HW217947   1.470   1.508   0.787
  269SOL     OW17948   3.673   1.677   0.654
  269SOL    HW117949   3.699   1.699   0.564
  269SOL    HW217950   3.754   1.686   0.704
  270SOL     OW17951   3.800   0.924   6.491
  270SOL    HW117952   3.730   0.869   6.526
  270SOL    HW217953   3.856   0.863   6.443
  271SOL     OW17954   3.943   5.107   0.783
  271SOL    HW117955   3.907   5.019   0.779
  271SOL    HW217956   3.872   5.161   0.817
  272SOL     OW17957   3.497   2.363   5.870
  272SOL    HW117958   3.497   2.273   5.901
  272SOL    HW217959   3.565   2.366   5.803
  273SOL     OW17960   0.482   4.831   7.122
  273SOL    HW117961   0.410   4.892   7.107
  273SOL    HW217962   0.442   4.745   7.112
  274SOL     OW17963   4.869   4.860   6.751
  274SOL    HW117964   4.897   4.842   6.661
  274SOL    HW217965   4.921   4.799   6.804
  275SOL     OW17966   4.497   2.408   1.092
  275SOL    HW117967   4.524   2.499   1.078
  275SOL    HW217968   4.480   2.374   1.004
  276SOL     OW17969   3.793   5.995   5.550
  276SOL    HW117970   3.823   6.068   5.496
  276SOL    HW217971   3.706   6.022   5.579
  277SOL     OW17972   0.812   1.414   2.282
  277SOL    HW117973   0.888   1.413   2.223
  277SOL    HW217974   0.771   1.329   2.269
  278SOL     OW17975   4.691   5.890   7.093
  278SOL    HW117976   4.687   5.978   7.130
  278SOL    HW217977   4.781   5.861   7.109
  279SOL     OW17978   5.248   0.796   6.650
  279SOL    HW117979   5.255   0.876   6.597
  279SOL    HW217980   5.337   0.779   6.680
  280SOL     OW17981   5.969   3.987   2.040
  280SOL    HW117982   5.926   4.049   1.981
  280SOL    HW217983   5.979   3.907   1.987
  281SOL     OW17984   1.464   0.266   7.660
  281SOL    HW117985   1.430   0.323   7.591
  281SOL    HW217986   1.556   0.291   7.668
  282SOL     OW17987   2.064   4.626   1.252
  282SOL    HW117988   2.022   4.621   1.337
  282SOL    HW217989   2.095   4.717   1.246
  283SOL     OW17990   2.518   5.982   7.522
  283SOL    HW117991   2.609   6.013   7.523
  283SOL    HW217992   2.469   6.048   7.570
  284SOL     OW17993   3.679   2.826   1.908
  284SOL    HW117994   3.692   2.731   1.919
  284SOL    HW217995   3.712   2.864   1.989
  285SOL     OW17996   4.951   5.826   1.072
  285SOL    HW117997   4.912   5.850   0.988
  285SOL    HW217998   4.877   5.801   1.127
  286SOL     OW17999   4.132   6.437   6.659
  286SOL    HW118000   4.174   0.073   6.680
  286SOL    HW218001   4.195   6.372   6.689
  287SOL     OW18002   3.607   5.677   1.844
  287SOL    HW118003   3.576   5.628   1.920
  287SOL    HW218004   3.530   5.688   1.788
  288SOL     OW18005   5.919   5.222   0.269
  288SOL    HW118006   5.939   5.195   0.358
  288SOL    HW218007   6.005   5.242   0.230
  289SOL     OW18008   4.892   0.661   1.224
  289SOL    HW118009   4.949   0.690   1.296
  289SOL    HW218010   4.930   0.578   1.195
  290SOL     OW18011   3.367   3.542   0.258
  290SOL    HW118012   3.297   3.497   0.305
  290SOL    HW218013   3.420   3.471   0.221
  291SOL     OW18014   3.482   3.591   1.550
  291SOL    HW118015   3.426   3.516   1.570
  291SOL    HW218016   3.505   3.627   1.636
  292SOL     OW18017   3.968   4.158   6.169
  292SOL    HW118018   3.996   4.249   6.172
  292SOL    HW218019   4.048   4.108   6.155
  293SOL     OW18020   2.577   3.728   0.777
  293SOL    HW118021   2.670   3.747   0.795
  293SOL    HW218022   2.579   3.648   0.725
  294SOL     OW18023   5.198   1.240   7.682
  294SOL    HW118024   5.132   1.246   7.613
  294SOL    HW218025   5.226   1.149   7.682
  295SOL     OW18026   3.655   5.736   0.880
  295SOL    HW118027   3.653   5.799   0.808
  295SOL    HW218028   3.747   5.721   0.897
  296SOL     OW18029   2.816   5.296   5.597
  296SOL    HW118030   2.832   5.376   5.646
  296SOL    HW218031   2.725   5.273   5.617
  297SOL     OW18032   0.661   2.953   1.570
  297SOL    HW118033   0.660   2.863   1.538
  297SOL    HW218034   0.648   2.945   1.665
  298SOL     OW18035   6.147   5.874   1.597
  298SOL    HW118036   6.082   5.865   1.527
  298SOL    HW218037   6.097   5.861   1.677
  299SOL     OW18038   0.341   4.153   0.203
  299SOL    HW118039   0.308   4.120   0.119
  299SOL    HW218040   0.319   4.246   0.202
  300SOL     OW18041   4.046   3.947   5.816
  300SOL    HW118042   4.066   4.035   5.786
  300SOL    HW218043   3.950   3.943   5.818
  301SOL     OW18044   4.939   1.369   0.933
  301SOL    HW118045   4.886   1.332   1.003
  301SOL    HW218046   4.918   1.316   0.856
  302SOL     OW18047   3.864   2.058   6.831
  302SOL    HW118048   3.882   2.086   6.921
  302SOL    HW218049   3.859   2.140   6.782
  303SOL     OW18050   4.856   0.313   5.530
  303SOL    HW118051   4.903   0.255   5.589
  303SOL    HW218052   4.911   0.391   5.522
  304SOL     OW18053   2.708   4.160   1.498
  304SOL    HW118054   2.722   4.144   1.404
  304SOL    HW218055   2.728   4.253   1.509
  305SOL     OW18056   2.521   6.317   7.376
  305SOL    HW118057   2.466   6.257   7.326
  305SOL    HW218058   2.557   6.377   7.310
  306SOL     OW18059   3.208   2.713   4.999
  306SOL    HW118060   3.235   2.758   5.079
  306SOL    HW218061   3.286   2.715   4.943
  307SOL     OW18062   5.993   2.042   6.478
  307SOL    HW118063   6.056   1.978   6.510
  307SOL    HW218064   5.916   1.990   6.454
  308SOL     OW18065   1.832   4.445   7.221
  308SOL    HW118066   1.803   4.486   7.303
  308SOL    HW218067   1.815   4.511   7.154
  309SOL     OW18068   3.615   1.901   1.655
  309SOL    HW118069   3.676   1.857   1.715
  309SOL    HW218070   3.545   1.934   1.711
  310SOL     OW18071   5.498   3.486   6.457
  310SOL    HW118072   5.540   3.416   6.407
  310SOL    HW218073   5.565   3.515   6.518
  311SOL     OW18074   4.356   2.199   1.582
  311SOL    HW118075   4.296   2.145   1.632
  311SOL    HW218076   4.356   2.284   1.627
  312SOL     OW18077   1.365   1.032   1.033
  312SOL    HW118078   1.456   1.003   1.024
  312SOL    HW218079   1.322   1.003   0.953
  313SOL     OW18080   2.549   2.897   1.690
  313SOL    HW118081   2.459   2.882   1.719
  313SOL    HW218082   2.562   2.837   1.616
  314SOL     OW18083   6.234   3.005   0.930
  314SOL    HW118084   6.187   2.943   0.986
  314SOL    HW218085   6.174   3.022   0.857
  315SOL     OW18086   6.448   2.367   7.525
  315SOL    HW118087   6.372   2.424   7.516
  315SOL    HW218088   0.070   2.425   7.555
  316SOL     OW18089   3.106   4.062   6.690
  316SOL    HW118090   3.124   4.114   6.611
  316SOL    HW218091   3.142   4.115   6.762
  317SOL     OW18092   2.059   3.873   0.217
  317SOL    HW118093   2.075   3.897   0.308
  317SOL    HW218094   1.970   3.904   0.199
  318SOL     OW18095   5.224   1.726   1.429
  318SOL    HW118096   5.288   1.783   1.386
  318SOL    HW218097   5.169   1.786   1.479
  319SOL     OW18098   5.220   0.088   0.062
  319SOL    HW118099   5.157   0.157   0.042
  319SOL    HW218100   5.210   0.073   0.156
  320SOL     OW18101   3.794   6.058   6.942
  320SOL    HW118102   3.834   5.971   6.950
  320SOL    HW218103   3.842   6.100   6.871
  321SOL     OW18104   2.386   1.601   7.748
  321SOL    HW118105   2.405   1.695   7.755
  321SOL    HW218106   2.295   1.594   7.777
  322SOL     OW18107   3.341   2.015   0.457
  322SOL    HW118108   3.307   2.096   0.418
  322SOL    HW218109   3.311   1.946   0.398
  323SOL     OW18110   1.762   4.575   7.456
  323SOL    HW118111   1.701   4.647   7.472
  323SOL    HW218112   1.849   4.614   7.467
  324SOL     OW18113   5.978   1.933   5.872
  324SOL    HW118114   6.071   1.932   5.851
  324SOL    HW218115   5.941   1.997   5.812
  325SOL     OW18116   1.123   1.772   0.893
  325SOL    HW118117   1.176   1.735   0.964
  325SOL    HW218118   1.041   1.797   0.935
  326SOL     OW18119   4.549   5.676   0.795
  326SOL    HW118120   4.550   5.671   0.891
  326SOL    HW218121   4.641   5.684   0.770
  327SOL     OW18122   1.001   2.170   7.630
  327SOL    HW118123   0.992   2.076   7.619
  327SOL    HW218124   0.969   2.207   7.547
  328SOL     OW18125   0.489   6.248   0.149
  328SOL    HW118126   0.567   6.255   0.095
  328SOL    HW218127   0.431   6.188   0.101
  329SOL     OW18128   3.315   1.254   7.593
  329SOL    HW118129   3.348   1.264   7.504
  329SOL    HW218130   3.309   1.160   7.607
  330SOL     OW18131   1.798   5.890   0.642
  330SOL    HW118132   1.777   5.959   0.578
  330SOL    HW218133   1.892   5.876   0.632
  331SOL     OW18134   0.724   1.684   6.936
  331SOL    HW118135   0.655   1.660   6.875
  331SOL    HW218136   0.691   1.657   7.022
  332SOL     OW18137   6.127   2.951   7.392
  332SOL    HW118138   6.037   2.980   7.407
  332SOL    HW218139   6.163   3.015   7.330
  333SOL     OW18140   2.369   3.609   1.803
  333SOL    HW118141   2.284   3.649   1.788
  333SOL    HW218142   2.371   3.588   1.896
  334SOL     OW18143   4.977   1.268   6.834
  334SOL    HW118144   4.937   1.348   6.867
  334SOL    HW218145   4.936   1.198   6.885
  335SOL     OW18146   5.529   3.252   0.318
  335SOL    HW118147   5.614   3.247   0.273
  335SOL    HW218148   5.547   3.304   0.396
  336SOL     OW18149   2.725   5.534   7.212
  336SOL    HW118150   2.695   5.444   7.224
  336SOL    HW218151   2.646   5.584   7.192
  337SOL     OW18152   0.138   5.654   6.664
  337SOL    HW118153   0.113   5.661   6.756
  337SOL    HW218154   0.210   5.717   6.654
  338SOL     OW18155   0.210   5.350   0.090
  338SOL    HW118156   0.166   5.341   0.005
  338SOL    HW218157   0.262   5.270   0.098
  339SOL     OW18158   1.021   4.452   6.018
  339SOL    HW118159   1.109   4.487   6.003
  339SOL    HW218160   1.037   4.362   6.049
  340SOL     OW18161   5.180   5.047   5.738
  340SOL    HW118162   5.090   5.021   5.756
  340SOL    HW218163   5.184   5.139   5.764
  341SOL     OW18164   0.040   0.714   0.151
  341SOL    HW118165   0.060   0.772   0.078
  341SOL    HW218166   0.023   0.773   0.225
  342SOL     OW18167   0.793   4.819   7.783
  342SOL    HW118168   0.746   4.792   0.060
  342SOL    HW218169   0.727   4.813   7.714
  343SOL     OW18170   3.308   5.582   1.220
  343SOL    HW118171   3.382   5.609   1.165
  343SOL    HW218172   3.347   5.568   1.306
  344SOL     OW18173   5.816   5.206   1.548
  344SOL    HW118174   5.728   5.199   1.585
  344SOL    HW218175   5.864   5.258   1.613
  345SOL     OW18176   2.664   5.069   5.891
  345SOL    HW118177   2.742   5.057   5.945
  345SOL    HW218178   2.663   4.993   5.833
  346SOL     OW18179   5.247   2.419   7.556
  346SOL    HW118180   5.301   2.435   7.633
  346SOL    HW218181   5.257   2.497   7.502
  347SOL     OW18182   0.366   5.128   0.112
  347SOL    HW118183   0.421   5.133   0.190
  347SOL    HW218184   0.424   5.096   0.043
  348SOL     OW18185   2.626   1.794   0.122
  348SOL    HW118186   2.680   1.749   0.057
  348SOL    HW218187   2.547   1.818   0.074
  349SOL     OW18188   6.132   0.607   7.184
  349SOL    HW118189   6.218   0.590   7.146
  349SOL    HW218190   6.134   0.562   7.269
  350SOL     OW18191   6.289   0.439   7.731
  350SOL    HW118192   6.227   0.368   7.714
  350SOL    HW218193   6.251   0.515   7.687
  351SOL     OW18194   6.213   4.346   0.843
  351SOL    HW118195   6.143   4.381   0.788
  351SOL    HW218196   6.192   4.253   0.853
  352SOL     OW18197   5.650   3.163   6.615
  352SOL    HW118198   5.676   3.127   6.699
  352SOL    HW218199   5.711   3.234   6.598
  353SOL     OW18200   4.317   4.070   6.523
  353SOL    HW118201   4.222   4.063   6.526
  353SOL    HW218202   4.342   4.023   6.443
  354SOL     OW18203   1.577   3.611   5.943
  354SOL    HW118204   1.618   3.687   5.901
  354SOL    HW218205   1.558   3.552   5.870
  355SOL     OW18206   3.243   1.848   0.265
  355SOL    HW118207   3.148   1.839   0.267
  355SOL    HW218208   3.260   1.911   0.194
  356SOL     OW18209   0.443   3.293   5.753
  356SOL    HW118210   0.512   3.307   5.688
  356SOL    HW218211   0.484   3.240   5.822
  357SOL     OW18212   5.586   2.501   0.255
  357SOL    HW118213   5.510   2.451   0.286
  357SOL    HW218214   5.549   2.566   0.195
  358SOL     OW18215   2.741   3.006   2.278
  358SOL    HW118216   2.808   3.044   2.336
  358SOL    HW218217   2.790   2.949   2.219
  359SOL     OW18218   1.496   0.401   1.439
  359SOL    HW118219   1.564   0.357   1.490
  359SOL    HW218220   1.512   0.494   1.452
  360SOL     OW18221   2.027   6.158   7.203
  360SOL    HW118222   2.025   6.204   7.119
  360SOL    HW218223   1.948   6.188   7.249
  361SOL     OW18224   2.387   1.554   6.812
  361SOL    HW118225   2.390   1.472   6.862
  361SOL    HW218226   2.446   1.539   6.738
  362SOL     OW18227   3.169   1.024   6.598
  362SOL    HW118228   3.144   1.030   6.506
  362SOL    HW218229   3.236   1.092   6.610
  363SOL     OW18230   3.651   5.685   2.237
  363SOL    HW118231   3.662   5.625   2.310
  363SOL    HW218232   3.613   5.632   2.167
  364SOL     OW18233   4.090   4.216   5.754
  364SOL    HW118234   4.036   4.232   5.831
  364SOL    HW218235   4.179   4.207   5.788
  365SOL     OW18236   2.412   3.627   1.448
  365SOL    HW118237   2.483   3.600   1.391
  365SOL    HW218238   2.454   3.681   1.515
  366SOL     OW18239   3.617   1.938   6.779
  366SOL    HW118240   3.601   1.940   6.874
  366SOL    HW218241   3.707   1.969   6.770
  367SOL     OW18242   0.997   1.787   6.053
  367SOL    HW118243   1.035   1.776   6.140
  367SOL    HW218244   1.059   1.842   6.006
  368SOL     OW18245   0.841   3.650   7.069
  368SOL    HW118246   0.835   3.738   7.032
  368SOL    HW218247   0.752   3.629   7.098
  369SOL     OW18248   2.407   3.147   6.610
  369SOL    HW118249   2.370   3.101   6.686
  369SOL    HW218250   2.502   3.142   6.623
  370SOL     OW18251   3.229   4.211   6.901
  370SOL    HW118252   3.285   4.275   6.945
  370SOL    HW218253   3.140   4.243   6.915
  371SOL     OW18254   3.299   4.549   5.875
  371SOL    HW118255   3.348   4.625   5.844
  371SOL    HW218256   3.249   4.519   5.799
  372SOL     OW18257   0.405   5.421   7.643
  372SOL    HW118258   0.315   5.389   7.649
  372SOL    HW218259   0.401   5.492   7.579
  373SOL     OW18260   4.738   0.780   6.696
  373SOL    HW118261   4.696   0.710   6.747
  373SOL    HW218262   4.832   0.763   6.705
  374SOL     OW18263   4.502   0.484   1.654
  374SOL    HW118264   4.540   0.480   1.741
  374SOL    HW218265   4.496   0.578   1.634
  375SOL     OW18266   1.403   4.116   0.657
  375SOL    HW118267   1.457   4.194   0.670
  375SOL    HW218268   1.401   4.074   0.742
  376SOL     OW18269   1.434   6.239   0.174
  376SOL    HW118270   1.524   6.267   0.191
  376SOL    HW218271   1.416   6.269   0.085
  377SOL     OW18272   0.494   3.216   7.372
  377SOL    HW118273   0.562   3.155   7.345
  377SOL    HW218274   0.413   3.183   7.332
  378SOL     OW18275   2.167   2.669   7.552
  378SOL    HW118276   2.165   2.762   7.576
  378SOL    HW218277   2.104   2.662   7.480
  379SOL     OW18278   5.973   2.385   6.844
  379SOL    HW118279   5.996   2.301   6.804
  379SOL    HW218280   5.887   2.406   6.807
  380SOL     OW18281   5.418   0.370   7.552
  380SOL    HW118282   5.474   0.405   7.622
  380SOL    HW218283   5.453   0.408   7.472
  381SOL     OW18284   4.628   0.731   1.305
  381SOL    HW118285   4.572   0.691   1.238
  381SOL    HW218286   4.715   0.695   1.287
  382SOL     OW18287   6.447   5.680   0.155
  382SOL    HW118288   6.409   5.730   0.083
  382SOL    HW218289   0.088   5.660   0.125
  383SOL     OW18290   5.909   3.152   0.520
  383SOL    HW118291   5.903   3.064   0.485
  383SOL    HW218292   5.958   3.201   0.453
  384SOL     OW18293   3.030   1.581   5.740
  384SOL    HW118294   3.007   1.510   5.800
  384SOL    HW218295   3.101   1.544   5.686
  385SOL     OW18296   6.154   2.280   0.103
  385SOL    HW118297   6.072   2.247   0.067
  385SOL    HW218298   6.220   2.254   0.040
  386SOL     OW18299   4.059   2.780   5.848
  386SOL    HW118300   4.080   2.701   5.798
  386SOL    HW218301   3.966   2.795   5.831
  387SOL     OW18302   2.826   4.935   0.748
  387SOL    HW118303   2.835   4.853   0.699
  387SOL    HW218304   2.866   4.917   0.833
  388SOL     OW18305   5.421   2.572   6.327
  388SOL    HW118306   5.447   2.608   6.243
  388SOL    HW218307   5.483   2.500   6.343
  389SOL     OW18308   5.851   4.170   1.864
  389SOL    HW118309   5.906   4.237   1.904
  389SOL    HW218310   5.762   4.201   1.876
  390SOL     OW18311   5.477   5.235   0.588
  390SOL    HW118312   5.388   5.221   0.620
  390SOL    HW218313   5.524   5.156   0.614
  391SOL     OW18314   3.609   4.018   6.998
  391SOL    HW118315   3.566   4.074   6.933
  391SOL    HW218316   3.686   3.983   6.952
  392SOL     OW18317   0.405   2.055   0.138
  392SOL    HW118318   0.431   2.124   0.199
  392SOL    HW218319   0.412   1.974   0.189
  393SOL     OW18320   1.723   1.391   5.066
  393SOL    HW118321   1.741   1.299   5.047
  393SOL    HW218322   1.805   1.424   5.103
  394SOL     OW18323   1.590   5.732   1.169
  394SOL    HW118324   1.644   5.726   1.090
  394SOL    HW218325   1.528   5.803   1.150
  395SOL     OW18326   3.901   2.322   2.382
  395SOL    HW118327   3.837   2.284   2.441
  395SOL    HW218328   3.986   2.300   2.422
  396SOL     OW18329   4.949   4.883   1.407
  396SOL    HW118330   5.023   4.828   1.431
  396SOL    HW218331   4.988   4.969   1.391
  397SOL     OW18332   4.992   5.129   6.262
  397SOL    HW118333   4.943   5.055   6.225
  397SOL    HW218334   5.082   5.114   6.235
  398SOL     OW18335   5.778   6.394   6.635
  398SOL    HW118336   5.709   6.397   6.568
  398SOL    HW218337   5.859   6.383   6.586
  399SOL     OW18338   2.900   2.736   7.435
  399SOL    HW118339   2.912   2.689   7.352
  399SOL    HW218340   2.933   2.824   7.417
  400SOL     OW18341   5.601   1.854   5.825
  400SOL    HW118342   5.618   1.759   5.819
  400SOL    HW218343   5.524   1.861   5.881
  401SOL     OW18344   6.008   5.307   5.447
  401SOL    HW118345   6.054   5.389   5.433
  401SOL    HW218346   5.917   5.333   5.461
  402SOL     OW18347   1.186   1.917   1.466
  402SOL    HW118348   1.256   1.979   1.490
  402SOL    HW218349   1.200   1.842   1.524
  403SOL     OW18350   2.575   3.229   6.358
  403SOL    HW118351   2.521   3.235   6.437
  403SOL    HW218352   2.534   3.158   6.308
  404SOL     OW18353   5.421   0.902   1.429
  404SOL    HW118354   5.490   0.933   1.488
  404SOL    HW218355   5.436   0.949   1.347
  405SOL     OW18356   5.361   1.408   7.442
  405SOL    HW118357   5.379   1.465   7.517
  405SOL    HW218358   5.386   1.460   7.366
  406SOL     OW18359   1.336   4.658   7.125
  406SOL    HW118360   1.391   4.604   7.068
  406SOL    HW218361   1.394   4.730   7.151
  407SOL     OW18362   2.591   0.119   6.217
  407SOL    HW118363   2.636   0.058   6.159
  407SOL    HW218364   2.655   0.139   6.285
  408SOL     OW18365   5.297   2.506   1.118
  408SOL    HW118366   5.359   2.552   1.174
  408SOL    HW218367   5.224   2.567   1.109
  409SOL     OW18368   6.142   6.230   0.928
  409SOL    HW118369   6.130   6.322   0.952
  409SOL    HW218370   6.099   6.221   0.843
  410SOL     OW18371   5.313   3.171   6.949
  410SOL    HW118372   5.349   3.100   6.896
  410SOL    HW218373   5.341   3.251   6.903
  411SOL     OW18374   2.096   1.785   1.107
  411SOL    HW118375   2.049   1.710   1.070
  411SOL    HW218376   2.064   1.791   1.197
  412SOL     OW18377   5.525   1.671   0.541
  412SOL    HW118378   5.450   1.667   0.601
  412SOL    HW218379   5.486   1.679   0.454
  413SOL     OW18380   3.086   2.976   2.286
  413SOL    HW118381   3.174   2.974   2.247
  413SOL    HW218382   3.031   2.927   2.225
  414SOL     OW18383   2.134   5.057   6.716
  414SOL    HW118384   2.126   4.977   6.768
  414SOL    HW218385   2.047   5.097   6.721
  415SOL     OW18386   3.463   1.718   5.194
  415SOL    HW118387   3.559   1.721   5.188
  415SOL    HW218388   3.447   1.674   5.278
  416SOL     OW18389   5.802   1.690   5.619
  416SOL    HW118390   5.738   1.658   5.682
  416SOL    HW218391   5.773   1.779   5.599
  417SOL     OW18392   1.792   0.040   6.597
  417SOL    HW118393   1.729   0.006   6.661
  417SOL    HW218394   1.804   6.417   6.534
  418SOL     OW18395   0.340   1.078   0.882
  418SOL    HW118396   0.401   1.144   0.849
  418SOL    HW218397   0.383   0.995   0.866
  419SOL     OW18398   3.288   1.275   1.157
  419SOL    HW118399   3.340   1.351   1.180
  419SOL    HW218400   3.199   1.297   1.186
  420SOL     OW18401   0.267   5.592   0.490
  420SOL    HW118402   0.351   5.635   0.476
  420SOL    HW218403   0.243   5.614   0.580
  421SOL     OW18404   4.123   0.629   5.732
  421SOL    HW118405   4.052   0.690   5.711
  421SOL    HW218406   4.144   0.646   5.823
  422SOL     OW18407   3.809   0.497   6.726
  422SOL    HW118408   3.758   0.555   6.782
  422SOL    HW218409   3.745   0.455   6.669
  423SOL     OW18410   4.336   3.076   7.230
  423SOL    HW118411   4.337   3.166   7.199
  423SOL    HW218412   4.322   3.023   7.152
  424SOL     OW18413   2.260   3.679   0.203
  424SOL    HW118414   2.225   3.600   0.161
  424SOL    HW218415   2.187   3.741   0.200
  425SOL     OW18416   6.014   3.585   0.064
  425SOL    HW118417   5.994   3.648   7.797
  425SOL    HW218418   6.037   3.639   0.140
  426SOL     OW18419   0.558   5.198   6.329
  426SOL    HW118420   0.487   5.207   6.392
  426SOL    HW218421   0.525   5.138   6.263
  427SOL     OW18422   5.575   4.019   7.249
  427SOL    HW118423   5.529   3.994   7.169
  427SOL    HW218424   5.562   4.113   7.257
  428SOL     OW18425   2.575   2.726   0.770
  428SOL    HW118426   2.515   2.797   0.796
  428SOL    HW218427   2.647   2.771   0.726
  429SOL     OW18428   1.072   3.910   7.031
  429SOL    HW118429   1.115   3.824   7.024
  429SOL    HW218430   1.109   3.949   7.110
  430SOL     OW18431   1.882   0.651   5.978
  430SOL    HW118432   1.962   0.603   5.958
  430SOL    HW218433   1.821   0.628   5.908
  431SOL     OW18434   0.654   1.605   1.510
  431SOL    HW118435   0.666   1.570   1.421
  431SOL    HW218436   0.717   1.556   1.563
  432SOL     OW18437   0.575   4.649   1.215
  432SOL    HW118438   0.644   4.704   1.251
  432SOL    HW218439   0.501   4.708   1.199
  433SOL     OW18440   0.178   0.925   1.689
  433SOL    HW118441   0.268   0.939   1.719
  433SOL    HW218442   0.124   0.969   1.755
  434SOL     OW18443   4.287   4.718   5.347
  434SOL    HW118444   4.247   4.684   5.427
  434SOL    HW218445   4.220   4.774   5.309
  435SOL     OW18446   5.178   2.734   0.731
  435SOL    HW118447   5.221   2.766   0.810
  435SOL    HW218448   5.096   2.695   0.762
  436SOL     OW18449   0.057   0.701   1.564
  436SOL    HW118450   0.100   0.772   1.610
  436SOL    HW218451   6.418   0.734   1.543
  437SOL     OW18452   0.007   2.822   2.418
  437SOL    HW118453   0.060   2.902   2.421
  437SOL    HW218454   0.047   2.769   2.350
  438SOL     OW18455   1.700   4.500   2.048
  438SOL    HW118456   1.763   4.571   2.061
  438SOL    HW218457   1.621   4.544   2.018
  439SOL     OW18458   1.287   6.272   5.728
  439SOL    HW118459   1.223   6.209   5.693
  439SOL    HW218460   1.361   6.218   5.755
  440SOL     OW18461   1.048   4.008   6.563
  440SOL    HW118462   1.030   3.988   6.471
  440SOL    HW218463   1.066   4.102   6.564
  441SOL     OW18464   4.146   1.267   6.609
  441SOL    HW118465   4.238   1.270   6.581
  441SOL    HW218466   4.124   1.174   6.606
  442SOL     OW18467   2.644   5.597   1.594
  442SOL    HW118468   2.686   5.678   1.565
  442SOL    HW218469   2.632   5.609   1.688
  443SOL     OW18470   5.032   6.257   0.360
  443SOL    HW118471   4.997   6.237   0.273
  443SOL    HW218472   5.076   6.341   0.349
  444SOL     OW18473   5.137   5.076   7.013
  444SOL    HW118474   5.186   5.055   7.092
  444SOL    HW218475   5.198   5.060   6.942
  445SOL     OW18476   2.979   0.968   6.784
  445SOL    HW118477   3.038   0.990   6.712
  445SOL    HW218478   2.981   0.872   6.789
  446SOL     OW18479   0.403   4.007   7.533
  446SOL    HW118480   0.344   3.951   7.483
  446SOL    HW218481   0.430   4.075   7.470
  447SOL     OW18482   1.534   2.190   0.473
  447SOL    HW118483   1.453   2.179   0.523
  447SOL    HW218484   1.534   2.282   0.447
  448SOL     OW18485   6.160   0.913   7.761
  448SOL    HW118486   6.170   0.880   0.047
  448SOL    HW218487   6.147   0.835   7.708
  449SOL     OW18488   3.643   4.015   7.578
  449SOL    HW118489   3.549   4.034   7.567
  449SOL    HW218490   3.661   3.948   7.512
  450SOL     OW18491   1.711   1.205   1.091
  450SOL    HW118492   1.705   1.291   1.049
  450SOL    HW218493   1.804   1.185   1.090
  451SOL     OW18494   2.066   2.597   6.226
  451SOL    HW118495   2.050   2.672   6.169
  451SOL    HW218496   2.104   2.634   6.305
  452SOL     OW18497   4.281   6.081   1.967
  452SOL    HW118498   4.221   6.033   2.024
  452SOL    HW218499   4.239   6.165   1.951
  453SOL     OW18500   4.660   2.913   7.151
  453SOL    HW118501   4.717   2.930   7.076
  453SOL    HW218502   4.587   2.862   7.114
  454SOL     OW18503   4.175   5.336   0.493
  454SOL    HW118504   4.235   5.323   0.566
  454SOL    HW218505   4.196   5.265   0.432
  455SOL     OW18506   5.186   2.451   6.387
  455SOL    HW118507   5.266   2.500   6.367
  455SOL    HW218508   5.172   2.396   6.310
  456SOL     OW18509   2.643   0.405   7.702
  456SOL    HW118510   2.681   0.321   7.729
  456SOL    HW218511   2.628   0.395   7.608
  457SOL     OW18512   1.732   6.008   1.344
  457SOL    HW118513   1.717   6.099   1.369
  457SOL    HW218514   1.707   5.957   1.421
  458SOL     OW18515   4.318   0.249   2.055
  458SOL    HW118516   4.226   0.268   2.076
  458SOL    HW218517   4.343   0.180   2.116
  459SOL     OW18518   5.279   1.666   0.662
  459SOL    HW118519   5.257   1.749   0.621
  459SOL    HW218520   5.223   1.663   0.741
  460SOL     OW18521   2.435   3.175   7.094
  460SOL    HW118522   2.401   3.087   7.080
  460SOL    HW218523   2.524   3.162   7.126
  461SOL     OW18524   2.791   4.444   1.510
  461SOL    HW118525   2.881   4.423   1.486
  461SOL    HW218526   2.794   4.463   1.603
  462SOL     OW18527   0.106   1.293   7.394
  462SOL    HW118528   0.018   1.290   7.357
  462SOL    HW218529   0.146   1.210   7.368
  463SOL     OW18530   4.484   0.437   6.460
  463SOL    HW118531   4.548   0.374   6.494
  463SOL    HW218532   4.440   0.472   6.537
  464SOL     OW18533   2.641   3.102   1.168
  464SOL    HW118534   2.692   3.133   1.093
  464SOL    HW218535   2.620   3.011   1.146
  465SOL     OW18536   4.960   4.836   7.515
  465SOL    HW118537   4.965   4.931   7.521
  465SOL    HW218538   4.930   4.808   7.602
  466SOL     OW18539   5.695   1.398   7.375
  466SOL    HW118540   5.698   1.472   7.435
  466SOL    HW218541   5.649   1.329   7.424
  467SOL     OW18542   0.233   2.368   7.186
  467SOL    HW118543   0.190   2.293   7.226
  467SOL    HW218544   0.170   2.399   7.120
  468SOL     OW18545   3.188   2.214   6.347
  468SOL    HW118546   3.198   2.309   6.342
  468SOL    HW218547   3.129   2.200   6.422
  469SOL     OW18548   4.890   4.392   6.672
  469SOL    HW118549   4.921   4.340   6.746
  469SOL    HW218550   4.801   4.361   6.656
  470SOL     OW18551   6.213   5.358   0.522
  470SOL    HW118552   6.268   5.385   0.448
  470SOL    HW218553   6.135   5.413   0.515
  471SOL     OW18554   0.326   5.894   5.506
  471SOL    HW118555   0.318   5.838   5.583
  471SOL    HW218556   0.272   5.971   5.527
  472SOL     OW18557   1.706   1.714   0.884
  472SOL    HW118558   1.717   1.684   0.794
  472SOL    HW218559   1.736   1.805   0.884
  473SOL     OW18560   2.294   6.281   6.292
  473SOL    HW118561   2.211   6.309   6.253
  473SOL    HW218562   2.331   6.360   6.331
  474SOL     OW18563   3.491   0.125   6.644
  474SOL    HW118564   3.576   0.152   6.608
  474SOL    HW218565   3.427   0.178   6.596
  475SOL     OW18566   1.175   2.308   0.566
  475SOL    HW118567   1.107   2.252   0.603
  475SOL    HW218568   1.198   2.369   0.636
  476SOL     OW18569   4.223   1.339   0.305
  476SOL    HW118570   4.140   1.322   0.259
  476SOL    HW218571   4.276   1.386   0.241
  477SOL     OW18572   0.764   3.532   5.794
  477SOL    HW118573   0.832   3.570   5.739
  477SOL    HW218574   0.811   3.498   5.870
  478SOL     OW18575   1.666   4.850   7.552
  478SOL    HW118576   1.628   4.792   7.618
  478SOL    HW218577   1.590   4.893   7.511
  479SOL     OW18578   5.122   0.464   1.421
  479SOL    HW118579   5.137   0.558   1.411
  479SOL    HW218580   5.095   0.434   1.334
  480SOL     OW18581   4.047   2.049   6.523
  480SOL    HW118582   4.105   2.008   6.587
  480SOL    HW218583   4.097   2.124   6.490
  481SOL     OW18584   5.171   0.966   6.108
  481SOL    HW118585   5.115   1.040   6.084
  481SOL    HW218586   5.110   0.892   6.116
  482SOL     OW18587   0.988   1.897   7.668
  482SOL    HW118588   1.038   1.818   7.688
  482SOL    HW218589   0.900   1.878   7.700
  483SOL     OW18590   6.350   2.805   6.999
  483SOL    HW118591   6.357   2.808   7.095
  483SOL    HW218592   6.262   2.772   6.983
  484SOL     OW18593   4.923   0.095   7.029
  484SOL    HW118594   4.945   0.009   6.995
  484SOL    HW218595   4.828   0.092   7.044
  485SOL     OW18596   1.846   1.748   6.874
  485SOL    HW118597   1.882   1.735   6.786
  485SOL    HW218598   1.752   1.755   6.861
  486SOL     OW18599   4.978   3.066   0.421
  486SOL    HW118600   5.050   3.033   0.476
  486SOL    HW218601   5.007   3.049   0.331
  487SOL     OW18602   5.079   5.876   1.595
  487SOL    HW118603   4.992   5.883   1.556
  487SOL    HW218604   5.076   5.935   1.670
  488SOL     OW18605   6.105   2.345   0.891
  488SOL    HW118606   6.155   2.268   0.863
  488SOL    HW218607   6.171   2.411   0.911
  489SOL     OW18608   3.754   5.397   2.007
  489SOL    HW118609   3.680   5.452   2.033
  489SOL    HW218610   3.824   5.458   1.989
  490SOL     OW18611   2.873   1.991   5.831
  490SOL    HW118612   2.784   1.965   5.806
  490SOL    HW218613   2.930   1.943   5.771
  491SOL     OW18614   3.176   4.745   2.304
  491SOL    HW118615   3.173   4.664   2.355
  491SOL    HW218616   3.171   4.716   2.213
  492SOL     OW18617   4.296   4.378   0.110
  492SOL    HW118618   4.203   4.364   0.094
  492SOL    HW218619   4.337   4.294   0.089
  493SOL     OW18620   6.014   4.341   1.994
  493SOL    HW118621   6.104   4.332   2.027
  493SOL    HW218622   5.992   4.433   2.012
  494SOL     OW18623   0.259   6.176   7.594
  494SOL    HW118624   0.262   6.148   7.685
  494SOL    HW218625   0.327   6.125   7.550
  495SOL     OW18626   1.789   6.115   1.098
  495SOL    HW118627   1.756   6.056   1.030
  495SOL    HW218628   1.780   6.064   1.179
  496SOL     OW18629   0.592   2.262   7.607
  496SOL    HW118630   0.502   2.281   7.582
  496SOL    HW218631   0.641   2.263   7.524
  497SOL     OW18632   1.837   1.551   7.659
  497SOL    HW118633   1.840   1.598   7.575
  497SOL    HW218634   1.801   1.465   7.636
  498SOL     OW18635   4.541   2.212   6.437
  498SOL    HW118636   4.513   2.303   6.438
  498SOL    HW218637   4.636   2.216   6.423
  499SOL     OW18638   2.741   6.062   2.243
  499SOL    HW118639   2.784   6.134   2.197
  499SOL    HW218640   2.780   5.983   2.207
  500SOL     OW18641   2.898   0.905   5.798
  500SOL    HW118642   2.822   0.869   5.753
  500SOL    HW218643   2.972   0.857   5.761
  501SOL     OW18644   4.169   3.786   0.021
  501SOL    HW118645   4.264   3.789   0.026
  501SOL    HW218646   4.141   3.873   0.048
  502SOL     OW18647   6.112   1.624   7.007
  502SOL    HW118648   6.084   1.676   6.931
  502SOL    HW218649   6.154   1.687   7.065
  503SOL     OW18650   4.096   0.657   1.277
  503SOL    HW118651   4.003   0.666   1.298
  503SOL    HW218652   4.138   0.728   1.324
  504SOL     OW18653   5.556   5.315   6.898
  504SOL    HW118654   5.579   5.286   6.987
  504SOL    HW218655   5.542   5.409   6.907
  505SOL     OW18656   1.063   1.752   6.322
  505SOL    HW118657   1.065   1.682   6.388
  505SOL    HW218658   1.115   1.823   6.360
  506SOL     OW18659   1.165   2.910   7.317
  506SOL    HW118660   1.134   2.938   7.231
  506SOL    HW218661   1.165   2.814   7.312
  507SOL     OW18662   2.734   5.773   6.688
  507SOL    HW118663   2.738   5.819   6.771
  507SOL    HW218664   2.654   5.804   6.646
  508SOL     OW18665   6.249   3.981   0.076
  508SOL    HW118666   6.164   3.983   0.121
  508SOL    HW218667   6.228   3.997   7.787
  509SOL     OW18668   2.152   5.191   0.867
  509SOL    HW118669   2.227   5.133   0.882
  509SOL    HW218670   2.078   5.146   0.906
  510SOL     OW18671   5.230   0.742   5.860
  510SOL    HW118672   5.139   0.715   5.867
  510SOL    HW218673   5.226   0.826   5.814
  511SOL     OW18674   5.842   1.162   0.035
  511SOL    HW118675   5.764   1.212   0.057
  511SOL    HW218676   5.822   1.120   7.754
  512SOL     OW18677   4.596   2.924   6.317
  512SOL    HW118678   4.521   2.869   6.341
  512SOL    HW218679   4.666   2.896   6.376
  513SOL     OW18680   3.667   2.361   7.436
  513SOL    HW118681   3.579   2.326   7.422
  513SOL    HW218682   3.704   2.307   7.505
  514SOL     OW18683   3.175   5.335   0.577
  514SOL    HW118684   3.268   5.344   0.596
  514SOL    HW218685   3.164   5.244   0.550
  515SOL     OW18686   0.686   4.504   1.006
  515SOL    HW118687   0.663   4.542   1.090
  515SOL    HW218688   0.641   4.558   0.941
  516SOL     OW18689   4.237   2.093   7.312
  516SOL    HW118690   4.157   2.044   7.295
  516SOL    HW218691   4.299   2.028   7.343
  517SOL     OW18692   4.651   4.431   6.330
  517SOL    HW118693   4.654   4.418   6.424
  517SOL    HW218694   4.597   4.359   6.297
  518SOL     OW18695   1.584   5.256   5.650
  518SOL    HW118696   1.530   5.330   5.622
  518SOL    HW218697   1.659   5.257   5.591
  519SOL     OW18698   5.811   1.130   6.057
  519SOL    HW118699   5.754   1.056   6.036
  519SOL    HW218700   5.882   1.124   5.993
  520SOL     OW18701   3.783   4.478   6.318
  520SOL    HW118702   3.835   4.449   6.243
  520SOL    HW218703   3.803   4.571   6.326
  521SOL     OW18704   1.634   6.075   6.374
  521SOL    HW118705   1.609   6.103   6.286
  521SOL    HW218706   1.551   6.064   6.420
  522SOL     OW18707   2.160   2.063   0.716
  522SOL    HW118708   2.118   2.062   0.802
  522SOL    HW218709   2.245   2.022   0.730
  523SOL     OW18710   5.664   5.422   0.667
  523SOL    HW118711   5.601   5.358   0.632
  523SOL    HW218712   5.694   5.470   0.590
  524SOL     OW18713   4.775   3.424   1.938
  524SOL    HW118714   4.862   3.407   1.900
  524SOL    HW218715   4.789   3.423   2.032
  525SOL     OW18716   0.181   3.437   6.080
  525SOL    HW118717   0.088   3.451   6.094
  525SOL    HW218718   0.191   3.439   5.985
  526SOL     OW18719   0.004   4.758   1.299
  526SOL    HW118720   0.060   4.680   1.299
  526SOL    HW218721   6.365   4.725   1.279
  527SOL     OW18722   0.080   5.018   1.637
  527SOL    HW118723   0.024   4.941   1.626
  527SOL    HW218724   0.090   5.027   1.732
  528SOL     OW18725   3.338   5.339   0.244
  528SOL    HW118726   3.383   5.379   0.170
  528SOL    HW218727   3.345   5.403   0.314
  529SOL     OW18728   2.157   3.418   0.508
  529SOL    HW118729   2.161   3.357   0.434
  529SOL    HW218730   2.149   3.361   0.585
  530SOL     OW18731   2.730   4.475   0.725
  530SOL    HW118732   2.636   4.491   0.725
  530SOL    HW218733   2.738   4.380   0.728
  531SOL     OW18734   5.735   3.053   1.051
  531SOL    HW118735   5.785   3.134   1.050
  531SOL    HW218736   5.777   2.999   1.118
  532SOL     OW18737   4.237   2.629   7.488
  532SOL    HW118738   4.276   2.561   7.543
  532SOL    HW218739   4.258   2.603   7.399
  533SOL     OW18740   1.044   5.202   1.471
  533SOL    HW118741   0.995   5.123   1.492
  533SOL    HW218742   0.981   5.273   1.480
  534SOL     OW18743   2.517   1.326   1.479
  534SOL    HW118744   2.563   1.392   1.532
  534SOL    HW218745   2.579   1.254   1.471
  535SOL     OW18746   3.601   1.800   6.022
  535SOL    HW118747   3.661   1.765   5.956
  535SOL    HW218748   3.520   1.817   5.974
  536SOL     OW18749   6.212   5.809   0.924
  536SOL    HW118750   6.181   5.760   1.001
  536SOL    HW218751   6.275   5.751   0.882
  537SOL     OW18752   3.850   2.382   2.118
  537SOL    HW118753   3.874   2.369   2.210
  537SOL    HW218754   3.825   2.295   2.087
  538SOL     OW18755   6.330   2.136   6.468
  538SOL    HW118756   6.332   2.124   6.562
  538SOL    HW218757   6.298   2.226   6.456
  539SOL     OW18758   4.628   1.179   7.169
  539SOL    HW118759   4.556   1.124   7.197
  539SOL    HW218760   4.586   1.254   7.127
  540SOL     OW18761   0.497   4.877   6.779
  540SOL    HW118762   0.428   4.819   6.812
  540SOL    HW218763   0.489   4.957   6.831
  541SOL     OW18764   2.599   1.704   0.378
  541SOL    HW118765   2.662   1.755   0.428
  541SOL    HW218766   2.607   1.737   0.288
  542SOL     OW18767   0.222   4.648   6.530
  542SOL    HW118768   0.201   4.577   6.468
  542SOL    HW218769   0.290   4.699   6.485
  543SOL     OW18770   6.021   2.805   6.267
  543SOL    HW118771   5.927   2.812   6.255
  543SOL    HW218772   6.032   2.734   6.330
  544SOL     OW18773   3.757   4.801   1.668
  544SOL    HW118774   3.686   4.865   1.677
  544SOL    HW218775   3.740   4.758   1.584
  545SOL     OW18776   5.785   0.409   7.460
  545SOL    HW118777   5.708   0.442   7.414
  545SOL    HW218778   5.789   0.461   7.540
  546SOL     OW18779   1.354   0.371   1.069
  546SOL    HW118780   1.313   0.325   0.996
  546SOL    HW218781   1.351   0.308   1.141
  547SOL     OW18782   2.153   5.828   2.218
  547SOL    HW118783   2.101   5.764   2.266
  547SOL    HW218784   2.173   5.786   2.135
  548SOL     OW18785   5.139   5.506   7.551
  548SOL    HW118786   5.147   5.421   7.507
  548SOL    HW218787   5.142   5.484   7.644
  549SOL     OW18788   0.260   0.740   1.051
  549SOL    HW118789   0.260   0.736   0.955
  549SOL    HW218790   0.189   0.682   1.077
  550SOL     OW18791   4.767   4.410   1.174
  550SOL    HW118792   4.743   4.350   1.245
  550SOL    HW218793   4.788   4.492   1.218
  551SOL     OW18794   2.477   1.003   6.859
  551SOL    HW118795   2.474   1.047   6.943
  551SOL    HW218796   2.562   1.028   6.822
  552SOL     OW18797   6.116   0.918   0.597
  552SOL    HW118798   6.187   0.897   0.657
  552SOL    HW218799   6.037   0.886   0.641
  553SOL     OW18800   0.497   4.522   0.658
  553SOL    HW118801   0.588   4.507   0.635
  553SOL    HW218802   0.501   4.563   0.745
  554SOL     OW18803   0.417   2.211   0.813
  554SOL    HW118804   0.468   2.283   0.850
  554SOL    HW218805   0.393   2.241   0.725
  555SOL     OW18806   0.154   2.450   5.887
  555SOL    HW118807   0.174   2.543   5.900
  555SOL    HW218808   0.200   2.427   5.807
  556SOL     OW18809   3.057   2.935   0.468
  556SOL    HW118810   3.132   2.877   0.482
  556SOL    HW218811   2.986   2.876   0.439
  557SOL     OW18812   4.010   0.582   7.180
  557SOL    HW118813   3.994   0.521   7.109
  557SOL    HW218814   4.065   0.650   7.141
  558SOL     OW18815   6.019   3.883   7.365
  558SOL    HW118816   6.105   3.842   7.364
  558SOL    HW218817   5.961   3.819   7.324
  559SOL     OW18818   3.196   0.288   1.185
  559SOL    HW118819   3.254   0.216   1.210
  559SOL    HW218820   3.110   0.264   1.220
  560SOL     OW18821   3.927   1.434   6.580
  560SOL    HW118822   3.971   1.519   6.576
  560SOL    HW218823   3.998   1.370   6.572
  561SOL     OW18824   3.476   0.370   0.346
  561SOL    HW118825   3.504   0.336   0.261
  561SOL    HW218826   3.496   0.300   0.408
  562SOL     OW18827   5.704   2.151   5.394
  562SOL    HW118828   5.696   2.070   5.444
  562SOL    HW218829   5.779   2.196   5.432
  563SOL     OW18830   5.394   1.553   7.197
  563SOL    HW118831   5.304   1.527   7.177
  563SOL    HW218832   5.440   1.546   7.113
  564SOL     OW18833   0.904   5.767   7.409
  564SOL    HW118834   0.994   5.783   7.379
  564SOL    HW218835   0.881   5.846   7.457
  565SOL     OW18836   1.026   5.540   5.873
  565SOL    HW118837   1.004   5.448   5.861
  565SOL    HW218838   1.083   5.561   5.799
  566SOL     OW18839   2.261   4.268   0.721
  566SOL    HW118840   2.179   4.222   0.701
  566SOL    HW218841   2.330   4.205   0.702
  567SOL     OW18842   5.066   3.540   2.236
  567SOL    HW118843   5.101   3.496   2.158
  567SOL    HW218844   5.059   3.632   2.210
  568SOL     OW18845   0.147   2.730   1.017
  568SOL    HW118846   0.125   2.822   1.002
  568SOL    HW218847   0.105   2.684   0.944
  569SOL     OW18848   2.600   6.242   1.886
  569SOL    HW118849   2.561   6.179   1.946
  569SOL    HW218850   2.589   6.326   1.929
  570SOL     OW18851   4.341   5.010   0.983
  570SOL    HW118852   4.299   5.096   0.974
  570SOL    HW218853   4.406   5.022   1.053
  571SOL     OW18854   1.640   0.502   6.544
  571SOL    HW118855   1.657   0.459   6.461
  571SOL    HW218856   1.687   0.450   6.609
  572SOL     OW18857   1.810   2.972   1.925
  572SOL    HW118858   1.831   3.060   1.895
  572SOL    HW218859   1.736   2.945   1.869
  573SOL     OW18860   3.374   5.932   0.221
  573SOL    HW118861   3.300   5.911   0.277
  573SOL    HW218862   3.419   5.849   0.207
  574SOL     OW18863   3.421   3.595   0.749
  574SOL    HW118864   3.390   3.644   0.673
  574SOL    HW218865   3.403   3.652   0.824
  575SOL     OW18866   2.944   5.980   5.256
  575SOL    HW118867   2.962   6.071   5.279
  575SOL    HW218868   2.852   5.966   5.281
  576SOL     OW18869   4.481   0.848   7.017
  576SOL    HW118870   4.392   0.814   7.025
  576SOL    HW218871   4.489   0.912   7.088
  577SOL     OW18872   6.228   5.870   6.893
  577SOL    HW118873   6.168   5.801   6.921
  577SOL    HW218874   6.195   5.898   6.808
  578SOL     OW18875   5.213   4.003   2.031
  578SOL    HW118876   5.294   4.051   2.049
  578SOL    HW218877   5.145   4.070   2.031
  579SOL     OW18878   0.502   5.706   7.256
  579SOL    HW118879   0.459   5.683   7.173
  579SOL    HW218880   0.550   5.786   7.235
  580SOL     OW18881   2.729   2.817   7.059
  580SOL    HW118882   2.682   2.749   7.107
  580SOL    HW218883   2.747   2.779   6.973
  581SOL     OW18884   1.416   1.137   5.106
  581SOL    HW118885   1.472   1.075   5.058
  581SOL    HW218886   1.334   1.090   5.118
  582SOL     OW18887   4.112   6.417   0.790
  582SOL    HW118888   4.138   0.042   0.734
  582SOL    HW218889   4.064   0.010   0.862
  583SOL     OW18890   2.519   2.913   0.415
  583SOL    HW118891   2.591   2.923   0.478
  583SOL    HW218892   2.552   2.953   0.335
  584SOL     OW18893   4.243   5.163   1.247
  584SOL    HW118894   4.240   5.257   1.231
  584SOL    HW218895   4.316   5.151   1.308
  585SOL     OW18896   3.026   5.525   0.418
  585SOL    HW118897   2.947   5.491   0.459
  585SOL    HW218898   3.097   5.472   0.455
  586SOL     OW18899   5.122   4.323   0.043
  586SOL    HW118900   5.169   4.244   0.017
  586SOL    HW218901   5.065   4.295   0.115
  587SOL     OW18902   3.028   5.699   7.784
  587SOL    HW118903   3.115   5.670   7.755
  587SOL    HW218904   2.970   5.674   7.712
  588SOL     OW18905   3.787   5.095   6.767
  588SOL    HW118906   3.837   5.103   6.686
  588SOL    HW218907   3.850   5.115   6.837
  589SOL     OW18908   0.445   3.678   7.379
  589SOL    HW118909   0.434   3.594   7.423
  589SOL    HW218910   0.359   3.719   7.384
  590SOL     OW18911   4.657   0.456   7.061
  590SOL    HW118912   4.731   0.513   7.083
  590SOL    HW218913   4.696   0.383   7.013
  591SOL     OW18914   1.498   5.257   2.292
  591SOL    HW118915   1.470   5.165   2.288
  591SOL    HW218916   1.577   5.255   2.346
  592SOL     OW18917   2.205   6.036   6.908
  592SOL    HW118918   2.144   6.108   6.927
  592SOL    HW218919   2.291   6.069   6.935
  593SOL     OW18920   2.888   2.510   1.976
  593SOL    HW118921   2.798   2.540   1.984
  593SOL    HW218922   2.920   2.505   2.066
  594SOL     OW18923   6.332   3.297   7.006
  594SOL    HW118924   6.334   3.242   6.928
  594SOL    HW218925   6.293   3.379   6.976
  595SOL     OW18926   3.984   0.103   0.988
  595SOL    HW118927   4.033   0.064   1.061
  595SOL    HW218928   3.893   0.083   1.007
  596SOL     OW18929   4.869   0.428   6.525
  596SOL    HW118930   4.952   0.398   6.560
  596SOL    HW218931   4.884   0.519   6.501
  597SOL     OW18932   2.829   3.040   0.059
  597SOL    HW118933   2.862   2.953   0.079
  597SOL    HW218934   2.904   3.098   0.072
  598SOL     OW18935   0.246   1.858   7.756
  598SOL    HW118936   0.273   1.767   7.746
  598SOL    HW218937   0.302   1.891   0.023
  599SOL     OW18938   2.120   1.662   0.009
  599SOL    HW118939   2.039   1.703   0.038
  599SOL    HW218940   2.119   1.672   7.716
  600SOL     OW18941   4.177   2.009   0.355
  600SOL    HW118942   4.263   2.029   0.394
  600SOL    HW218943   4.198   1.978   0.267
  601SOL     OW18944   1.209   5.144   2.133
  601SOL    HW118945   1.243   5.233   2.138
  601SOL    HW218946   1.273   5.090   2.179
  602SOL     OW18947   3.972   1.319   0.179
  602SOL    HW118948   3.897   1.288   0.129
  602SOL    HW218949   3.936   1.385   0.238
  603SOL     OW18950   3.369   0.281   5.667
  603SOL    HW118951   3.363   0.186   5.683
  603SOL    HW218952   3.311   0.319   5.733
  604SOL     OW18953   3.814   4.384   1.119
  604SOL    HW118954   3.854   4.356   1.036
  604SOL    HW218955   3.825   4.309   1.177
  605SOL     OW18956   0.025   0.004   0.420
  605SOL    HW118957   6.426   0.009   0.503
  605SOL    HW218958   6.437   6.376   0.375
  606SOL     OW18959   1.399   1.284   0.293
  606SOL    HW118960   1.470   1.315   0.236
  606SOL    HW218961   1.389   1.191   0.270
  607SOL     OW18962   4.348   5.891   0.034
  607SOL    HW118963   4.295   5.970   0.020
  607SOL    HW218964   4.287   5.829   0.074
  608SOL     OW18965   0.562   5.970   6.919
  608SOL    HW118966   0.467   5.983   6.921
  608SOL    HW218967   0.574   5.896   6.859
  609SOL     OW18968   5.194   2.000   1.892
  609SOL    HW118969   5.287   2.009   1.913
  609SOL    HW218970   5.150   1.999   1.977
  610SOL     OW18971   3.264   0.730   1.854
  610SOL    HW118972   3.274   0.813   1.902
  610SOL    HW218973   3.319   0.740   1.777
  611SOL     OW18974   0.574   2.021   1.116
  611SOL    HW118975   0.611   2.033   1.203
  611SOL    HW218976   0.646   2.041   1.056
  612SOL     OW18977   4.430   5.517   7.706
  612SOL    HW118978   4.363   5.464   7.749
  612SOL    HW218979   4.493   5.536   7.776
  613SOL     OW18980   4.078   4.074   2.397
  613SOL    HW118981   4.112   4.153   2.438
  613SOL    HW218982   4.155   4.016   2.389
  614SOL     OW18983   4.546   3.235   7.483
  614SOL    HW118984   4.580   3.214   7.396
  614SOL    HW218985   4.624   3.257   7.534
  615SOL     OW18986   5.791   6.339   1.489
  615SOL    HW118987   5.866   6.360   1.433
  615SOL    HW218988   5.816   6.371   1.575
  616SOL     OW18989   0.496   2.885   6.374
  616SOL    HW118990   0.566   2.887   6.440
  616SOL    HW218991   0.542   2.873   6.291
  617SOL     OW18992   4.044   4.087   6.492
  617SOL    HW118993   3.988   4.119   6.562
  617SOL    HW218994   4.057   4.163   6.435
  618SOL     OW18995   4.242   0.877   0.267
  618SOL    HW118996   4.206   0.861   0.354
  618SOL    HW218997   4.320   0.821   0.263
  619SOL     OW18998   2.641   4.239   1.012
  619SOL    HW118999   2.670   4.231   0.921
  619SOL    HW219000   2.552   4.203   1.012
  620SOL     OW19001   2.500   0.237   6.938
  620SOL    HW119002   2.495   0.143   6.919
  620SOL    HW219003   2.565   0.270   6.877
  621SOL     OW19004   3.701   5.303   0.242
  621SOL    HW119005   3.676   5.229   0.298
  621SOL    HW219006   3.677   5.276   0.154
  622SOL     OW19007   1.056   5.586   6.981
  622SOL    HW119008   1.047   5.603   6.887
  622SOL    HW219009   1.009   5.659   7.023
  623SOL     OW19010   1.789   3.462   1.805
  623SOL    HW119011   1.759   3.513   1.730
  623SOL    HW219012   1.835   3.526   1.860
  624SOL     OW19013   1.975   0.603   0.183
  624SOL    HW119014   1.954   0.696   0.171
  624SOL    HW219015   2.004   0.573   0.097
  625SOL     OW19016   1.166   5.800   7.327
  625SOL    HW119017   1.233   5.836   7.384
  625SOL    HW219018   1.206   5.721   7.290
  626SOL     OW19019   2.471   1.532   7.493
  626SOL    HW119020   2.553   1.582   7.485
  626SOL    HW219021   2.438   1.554   7.580
  627SOL     OW19022   5.788   3.671   1.741
  627SOL    HW119023   5.823   3.623   1.666
  627SOL    HW219024   5.719   3.616   1.776
  628SOL     OW19025   5.593   6.194   1.370
  628SOL    HW119026   5.662   6.247   1.409
  628SOL    HW219027   5.576   6.235   1.285
  629SOL     OW19028   2.229   2.264   1.566
  629SOL    HW119029   2.287   2.192   1.591
  629SOL    HW219030   2.192   2.294   1.649
  630SOL     OW19031   6.286   0.076   6.084
  630SOL    HW119032   6.335   0.150   6.122
  630SOL    HW219033   6.207   0.116   6.047
  631SOL     OW19034   5.578   0.774   6.435
  631SOL    HW119035   5.546   0.768   6.524
  631SOL    HW219036   5.500   0.792   6.382
  632SOL     OW19037   4.966   4.223   6.885
  632SOL    HW119038   4.939   4.237   6.976
  632SOL    HW219039   4.915   4.148   6.857
  633SOL     OW19040   0.680   3.414   7.322
  633SOL    HW119041   0.609   3.350   7.329
  633SOL    HW219042   0.653   3.472   7.251
  634SOL     OW19043   0.668   0.552   0.126
  634SOL    HW119044   0.692   0.462   0.150
  634SOL    HW219045   0.578   0.561   0.156
  635SOL     OW19046   1.942   5.581   5.650
  635SOL    HW119047   1.909   5.568   5.561
  635SOL    HW219048   2.013   5.518   5.659
  636SOL     OW19049   1.887   5.009   1.281
  636SOL    HW119050   1.833   4.944   1.326
  636SOL    HW219051   1.875   5.090   1.330
  637SOL     OW19052   3.725   2.723   0.105
  637SOL    HW119053   3.675   2.765   0.175
  637SOL    HW219054   3.685   2.755   0.024
  638SOL     OW19055   0.546   3.988   1.158
  638SOL    HW119056   0.479   3.920   1.151
  638SOL    HW219057   0.569   4.009   1.068
  639SOL     OW19058   5.335   3.686   1.656
  639SOL    HW119059   5.299   3.767   1.692
  639SOL    HW219060   5.348   3.629   1.733
  640SOL     OW19061   4.428   3.346   7.136
  640SOL    HW119062   4.397   3.418   7.192
  640SOL    HW219063   4.491   3.299   7.191
  641SOL     OW19064   1.614   4.402   5.489
  641SOL    HW119065   1.685   4.447   5.442
  641SOL    HW219066   1.658   4.358   5.562
  642SOL     OW19067   3.768   3.354   6.439
  642SOL    HW119068   3.861   3.351   6.463
  642SOL    HW219069   3.730   3.421   6.495
  643SOL     OW19070   4.402   1.136   2.385
  643SOL    HW119071   4.452   1.157   2.306
  643SOL    HW219072   4.448   1.060   2.422
  644SOL     OW19073   5.187   5.548   7.146
  644SOL    HW119074   5.275   5.525   7.175
  644SOL    HW219075   5.136   5.468   7.158
  645SOL     OW19076   1.107   0.059   0.303
  645SOL    HW119077   1.185   0.112   0.293
  645SOL    HW219078   1.139   6.421   0.332
  646SOL     OW19079   4.291   5.974   6.823
  646SOL    HW119080   4.275   5.888   6.785
  646SOL    HW219081   4.341   5.957   6.903
  647SOL     OW19082   4.922   2.198   6.961
  647SOL    HW119083   4.985   2.131   6.989
  647SOL    HW219084   4.855   2.148   6.914
  648SOL     OW19085   6.085   6.067   2.173
  648SOL    HW119086   6.155   6.019   2.130
  648SOL    HW219087   6.117   6.157   2.179
  649SOL     OW19088   2.244   4.172   0.421
  649SOL    HW119089   2.264   4.187   0.328
  649SOL    HW219090   2.329   4.174   0.464
  650SOL     OW19091   1.854   1.955   0.272
  650SOL    HW119092   1.907   1.904   0.210
  650SOL    HW219093   1.913   1.970   0.346
  651SOL     OW19094   4.071   2.468   0.999
  651SOL    HW119095   4.048   2.426   1.082
  651SOL    HW219096   4.105   2.554   1.025
  652SOL     OW19097   1.612   3.292   2.156
  652SOL    HW119098   1.693   3.252   2.189
  652SOL    HW219099   1.543   3.249   2.207
  653SOL     OW19100   5.998   3.690   2.330
  653SOL    HW119101   6.068   3.641   2.287
  653SOL    HW219102   6.022   3.781   2.319
  654SOL     OW19103   2.247   6.261   0.596
  654SOL    HW119104   2.157   6.292   0.602
  654SOL    HW219105   2.274   6.247   0.687
  655SOL     OW19106   5.337   4.414   2.121
  655SOL    HW119107   5.242   4.414   2.131
  655SOL    HW219108   5.359   4.323   2.104
  656SOL     OW19109   0.261   5.881   5.914
  656SOL    HW119110   0.278   5.815   5.847
  656SOL    HW219111   0.169   5.905   5.901
  657SOL     OW19112   0.011   1.622   0.469
  657SOL    HW119113   6.416   1.701   0.501
  657SOL    HW219114   0.040   1.576   0.548
  658SOL     OW19115   2.708   2.918   6.244
  658SOL    HW119116   2.688   2.851   6.309
  658SOL    HW219117   2.623   2.957   6.223
  659SOL     OW19118   0.567   5.883   0.839
  659SOL    HW119119   0.522   5.887   0.923
  659SOL    HW219120   0.655   5.851   0.860
  660SOL     OW19121   0.688   2.442   7.794
  660SOL    HW119122   0.621   2.510   7.789
  660SOL    HW219123   0.660   2.376   7.731
  661SOL     OW19124   5.144   0.777   0.659
  661SOL    HW119125   5.198   0.698   0.666
  661SOL    HW219126   5.205   0.845   0.628
  662SOL     OW19127   1.939   1.106   6.194
  662SOL    HW119128   1.961   1.024   6.149
  662SOL    HW219129   1.856   1.133   6.154
  663SOL     OW19130   3.144   2.298   5.827
  663SOL    HW119131   3.174   2.251   5.906
  663SOL    HW219132   3.212   2.281   5.762
  664SOL     OW19133   5.484   5.705   6.427
  664SOL    HW119134   5.556   5.753   6.468
  664SOL    HW219135   5.525   5.628   6.389
  665SOL     OW19136   2.985   3.805   7.368
  665SOL    HW119137   3.016   3.776   7.282
  665SOL    HW219138   2.984   3.901   7.362
  666SOL     OW19139   5.176   1.636   5.219
  666SOL    HW119140   5.115   1.567   5.193
  666SOL    HW219141   5.262   1.594   5.215
  667SOL     OW19142   5.806   2.921   7.070
  667SOL    HW119143   5.812   2.826   7.075
  667SOL    HW219144   5.735   2.945   7.128
  668SOL     OW19145   5.836   3.308   6.969
  668SOL    HW119146   5.851   3.282   7.060
  668SOL    HW219147   5.924   3.328   6.935
  669SOL     OW19148   6.237   1.081   6.071
  669SOL    HW119149   6.316   1.095   6.123
  669SOL    HW219150   6.170   1.057   6.135
  670SOL     OW19151   5.464   2.637   1.289
  670SOL    HW119152   5.492   2.577   1.358
  670SOL    HW219153   5.395   2.690   1.329
  671SOL     OW19154   2.998   6.267   7.706
  671SOL    HW119155   3.056   6.192   7.698
  671SOL    HW219156   3.041   6.324   7.770
  672SOL     OW19157   0.065   5.619   1.749
  672SOL    HW119158   6.422   5.619   1.776
  672SOL    HW219159   0.063   5.640   1.655
  673SOL     OW19160   0.394   2.374   7.418
  673SOL    HW119161   0.337   2.421   7.479
  673SOL    HW219162   0.348   2.377   7.334
  674SOL     OW19163   3.726   4.109   0.021
  674SOL    HW119164   3.707   4.079   7.735
  674SOL    HW219165   3.711   4.204   0.018
  675SOL     OW19166   5.157   0.579   6.507
  675SOL    HW119167   5.077   0.619   6.474
  675SOL    HW219168   5.200   0.648   6.557
  676SOL     OW19169   1.665   4.339   7.579
  676SOL    HW119170   1.577   4.372   7.593
  676SOL    HW219171   1.715   4.415   7.549
  677SOL     OW19172   4.782   4.019   6.842
  677SOL    HW119173   4.737   4.064   6.914
  677SOL    HW219174   4.714   4.002   6.778
  678SOL     OW19175   1.408   2.670   7.410
  678SOL    HW119176   1.321   2.659   7.371
  678SOL    HW219177   1.402   2.628   7.496
  679SOL     OW19178   3.314   0.840   6.998
  679SOL    HW119179   3.320   0.766   7.058
  679SOL    HW219180   3.241   0.893   7.032
  680SOL     OW19181   1.888   6.304   0.463
  680SOL    HW119182   1.920   6.313   0.553
  680SOL    HW219183   1.939   6.366   0.412
  681SOL     OW19184   5.081   4.048   5.052
  681SOL    HW119185   5.131   4.024   4.975
  681SOL    HW219186   5.038   3.966   5.079
  682SOL     OW19187   5.161   4.511   0.553
  682SOL    HW119188   5.226   4.450   0.519
  682SOL    HW219189   5.077   4.472   0.531
  683SOL     OW19190   5.378   2.335   0.340
  683SOL    HW119191   5.416   2.254   0.374
  683SOL    HW219192   5.307   2.356   0.400
  684SOL     OW19193   4.706   4.799   0.868
  684SOL    HW119194   4.699   4.884   0.911
  684SOL    HW219195   4.623   4.756   0.885
  685SOL     OW19196   0.815   0.605   6.195
  685SOL    HW119197   0.827   0.688   6.147
  685SOL    HW219198   0.904   0.573   6.210
  686SOL     OW19199   2.651   5.753   0.459
  686SOL    HW119200   2.632   5.844   0.481
  686SOL    HW219201   2.721   5.728   0.519
  687SOL     OW19202   1.478   5.086   0.289
  687SOL    HW119203   1.486   5.175   0.253
  687SOL    HW219204   1.562   5.044   0.267
  688SOL     OW19205   0.734   1.601   7.414
  688SOL    HW119206   0.682   1.638   7.486
  688SOL    HW219207   0.686   1.626   7.335
  689SOL     OW19208   0.908   0.046   6.294
  689SOL    HW119209   0.867   0.127   6.263
  689SOL    HW219210   0.839   0.002   6.343
  690SOL     OW19211   5.395   4.173   0.211
  690SOL    HW119212   5.363   4.147   0.125
  690SOL    HW219213   5.350   4.115   0.272
  691SOL     OW19214   1.855   0.276   6.112
  691SOL    HW119215   1.950   0.265   6.106
  691SOL    HW219216   1.829   0.298   6.022
  692SOL     OW19217   5.000   5.183   0.313
  692SOL    HW119218   4.998   5.146   0.402
  692SOL    HW219219   5.072   5.137   0.270
  693SOL     OW19220   4.395   1.711   7.417
  693SOL    HW119221   4.319   1.682   7.468
  693SOL    HW219222   4.402   1.804   7.435
  694SOL     OW19223   5.621   0.825   5.382
  694SOL    HW119224   5.551   0.846   5.444
  694SOL    HW219225   5.693   0.794   5.436
  695SOL     OW19226   2.041   3.427   7.162
  695SOL    HW119227   1.982   3.448   7.234
  695SOL    HW219228   2.106   3.367   7.200
  696SOL     OW19229   2.793   3.846   6.941
  696SOL    HW119230   2.739   3.819   7.015
  696SOL    HW219231   2.817   3.937   6.961
  697SOL     OW19232   2.328   4.115   7.113
  697SOL    HW119233   2.294   4.032   7.148
  697SOL    HW219234   2.269   4.136   7.041
  698SOL     OW19235   4.423   5.411   5.857
  698SOL    HW119236   4.503   5.413   5.804
  698SOL    HW219237   4.388   5.499   5.852
  699SOL     OW19238   3.226   2.576   0.646
  699SOL    HW119239   3.232   2.651   0.587
  699SOL    HW219240   3.294   2.516   0.614
  700SOL     OW19241   1.092   5.291   0.237
  700SOL    HW119242   1.171   5.303   0.290
  700SOL    HW219243   1.020   5.309   0.298
  701SOL     OW19244   5.067   2.296   7.392
  701SOL    HW119245   5.114   2.287   7.309
  701SOL    HW219246   5.130   2.336   7.451
  702SOL     OW19247   2.097   5.470   0.507
  702SOL    HW119248   2.135   5.423   0.433
  702SOL    HW219249   2.170   5.480   0.568
  703SOL     OW19250   4.029   2.483   6.386
  703SOL    HW119251   3.945   2.438   6.393
  703SOL    HW219252   4.030   2.543   6.460
  704SOL     OW19253   6.382   3.005   6.811
  704SOL    HW119254   6.389   2.950   6.889
  704SOL    HW219255   0.013   3.058   6.811
  705SOL     OW19256   1.372   3.026   1.187
  705SOL    HW119257   1.438   2.962   1.213
  705SOL    HW219258   1.423   3.101   1.156
  706SOL     OW19259   3.643   3.821   0.662
  706SOL    HW119260   3.725   3.773   0.676
  706SOL    HW219261   3.616   3.847   0.750
  707SOL     OW19262   4.402   5.843   1.329
  707SOL    HW119263   4.417   5.913   1.267
  707SOL    HW219264   4.459   5.863   1.403
  708SOL     OW19265   3.810   0.938   6.776
  708SOL    HW119266   3.780   0.964   6.688
  708SOL    HW219267   3.851   0.853   6.763
  709SOL     OW19268   2.798   5.922   5.860
  709SOL    HW119269   2.800   5.993   5.796
  709SOL    HW219270   2.794   5.842   5.807
  710SOL     OW19271   6.227   3.508   5.707
  710SOL    HW119272   6.283   3.583   5.684
  710SOL    HW219273   6.196   3.475   5.623
  711SOL     OW19274   6.202   1.210   6.892
  711SOL    HW119275   6.171   1.262   6.966
  711SOL    HW219276   6.122   1.179   6.850
  712SOL     OW19277   1.111   3.101   1.201
  712SOL    HW119278   1.062   3.029   1.162
  712SOL    HW219279   1.203   3.072   1.197
  713SOL     OW19280   3.061   2.554   1.773
  713SOL    HW119281   2.999   2.546   1.845
  713SOL    HW219282   3.147   2.562   1.816
  714SOL     OW19283   1.870   5.218   5.962
  714SOL    HW119284   1.836   5.307   5.955
  714SOL    HW219285   1.856   5.194   6.053
  715SOL     OW19286   5.109   6.433   7.384
  715SOL    HW119287   5.048   6.389   7.444
  715SOL    HW219288   5.065   0.068   7.362
  716SOL     OW19289   1.394   1.050   6.196
  716SOL    HW119290   1.302   1.072   6.208
  716SOL    HW219291   1.440   1.103   6.262
  717SOL     OW19292   4.270   2.542   0.064
  717SOL    HW119293   4.251   2.473   0.128
  717SOL    HW219294   4.304   2.495   7.790
  718SOL     OW19295   4.608   0.339   0.647
  718SOL    HW119296   4.682   0.359   0.704
  718SOL    HW219297   4.622   0.393   0.569
  719SOL     OW19298   1.081   6.087   7.436
  719SOL    HW119299   1.157   6.030   7.451
  719SOL    HW219300   1.115   6.175   7.446
  720SOL     OW19301   0.057   2.288   1.986
  720SOL    HW119302   0.118   2.226   2.026
  720SOL    HW219303   0.066   2.367   2.038
  721SOL     OW19304   5.475   0.409   5.608
  721SOL    HW119305   5.478   0.495   5.649
  721SOL    HW219306   5.456   0.426   5.516
  722SOL     OW19307   4.955   6.289   6.920
  722SOL    HW119308   4.950   6.215   6.980
  722SOL    HW219309   5.046   6.290   6.891
  723SOL     OW19310   1.966   3.788   6.671
  723SOL    HW119311   1.883   3.766   6.629
  723SOL    HW219312   2.004   3.703   6.694
  724SOL     OW19313   1.609   1.872   0.036
  724SOL    HW119314   1.583   1.941   7.777
  724SOL    HW219315   1.589   1.909   0.122
  725SOL     OW19316   5.171   2.387   0.509
  725SOL    HW119317   5.172   2.347   0.596
  725SOL    HW219318   5.081   2.375   0.479
  726SOL     OW19319   4.565   2.482   0.670
  726SOL    HW119320   4.531   2.565   0.702
  726SOL    HW219321   4.532   2.416   0.731
  727SOL     OW19322   2.541   0.181   0.973
  727SOL    HW119323   2.501   0.103   0.935
  727SOL    HW219324   2.501   0.254   0.925
  728SOL     OW19325   2.099   2.054   6.499
  728SOL    HW119326   2.138   1.981   6.547
  728SOL    HW219327   2.110   2.031   6.407
  729SOL     OW19328   4.765   4.819   2.118
  729SOL    HW119329   4.807   4.903   2.130
  729SOL    HW219330   4.836   4.755   2.116
  730SOL     OW19331   6.321   5.659   5.280
  730SOL    HW119332   6.409   5.688   5.304
  730SOL    HW219333   6.306   5.697   5.193
  731SOL     OW19334   2.996   1.053   1.351
  731SOL    HW119335   3.069   1.002   1.318
  731SOL    HW219336   2.985   1.024   1.441
  732SOL     OW19337   4.199   5.012   6.381
  732SOL    HW119338   4.154   4.966   6.452
  732SOL    HW219339   4.287   5.027   6.414
  733SOL     OW19340   1.554   4.683   7.741
  733SOL    HW119341   1.586   4.637   0.016
  733SOL    HW219342   1.484   4.740   7.775
  734SOL     OW19343   5.276   4.163   0.743
  734SOL    HW119344   5.296   4.222   0.669
  734SOL    HW219345   5.257   4.222   0.816
  735SOL     OW19346   0.103   2.171   7.364
  735SOL    HW119347   0.062   2.239   7.418
  735SOL    HW219348   0.165   2.129   7.423
  736SOL     OW19349   0.586   1.008   6.092
  736SOL    HW119350   0.544   1.067   6.029
  736SOL    HW219351   0.525   0.935   6.101
  737SOL     OW19352   0.611   4.125   6.682
  737SOL    HW119353   0.657   4.153   6.762
  737SOL    HW219354   0.669   4.151   6.611
  738SOL     OW19355   5.551   2.962   7.782
  738SOL    HW119356   5.554   3.051   7.748
  738SOL    HW219357   5.575   2.971   0.072
  739SOL     OW19358   2.262   2.971   0.313
  739SOL    HW119359   2.345   2.963   0.361
  739SOL    HW219360   2.217   2.888   0.331
  740SOL     OW19361   3.910   5.122   0.033
  740SOL    HW119362   3.916   5.099   0.126
  740SOL    HW219363   3.960   5.053   7.792
  741SOL     OW19364   5.509   3.612   7.358
  741SOL    HW119365   5.524   3.697   7.400
  741SOL    HW219366   5.427   3.580   7.395
  742SOL     OW19367   0.275   4.189   1.105
  742SOL    HW119368   0.360   4.223   1.077
  742SOL    HW219369   0.288   4.166   1.198
  743SOL     OW19370   4.221   2.717   0.630
  743SOL    HW119371   4.143   2.679   0.671
  743SOL    HW219372   4.209   2.698   0.537
  744SOL     OW19373   5.438   5.209   7.362
  744SOL    HW119374   5.350   5.239   7.385
  744SOL    HW219375   5.497   5.271   7.404
  745SOL     OW19376   3.492   4.681   7.186
  745SOL    HW119377   3.415   4.683   7.129
  745SOL    HW219378   3.474   4.746   7.254
  746SOL     OW19379   1.330   5.397   2.134
  746SOL    HW119380   1.371   5.481   2.112
  746SOL    HW219381   1.393   5.355   2.193
  747SOL     OW19382   3.673   3.945   6.046
  747SOL    HW119383   3.585   3.917   6.020
  747SOL    HW219384   3.721   3.953   5.964
  748SOL     OW19385   2.409   4.826   6.411
  748SOL    HW119386   2.485   4.882   6.427
  748SOL    HW219387   2.334   4.884   6.420
  749SOL     OW19388   0.677   3.546   2.325
  749SOL    HW119389   0.700   3.624   2.275
  749SOL    HW219390   0.749   3.484   2.306
  750SOL     OW19391   0.797   5.844   0.541
  750SOL    HW119392   0.779   5.937   0.555
  750SOL    HW219393   0.719   5.799   0.573
  751SOL     OW19394   3.331   5.706   6.908
  751SOL    HW119395   3.411   5.657   6.927
  751SOL    HW219396   3.361   5.795   6.890
  752SOL     OW19397   0.427   0.847   0.169
  752SOL    HW119398   0.463   0.880   0.087
  752SOL    HW219399   0.348   0.900   0.183
  753SOL     OW19400   4.890   0.209   1.064
  753SOL    HW119401   4.799   0.238   1.055
  753SOL    HW219402   4.907   0.159   0.985
  754SOL     OW19403   3.016   1.735   6.190
  754SOL    HW119404   3.074   1.783   6.249
  754SOL    HW219405   3.030   1.643   6.212
  755SOL     OW19406   2.182   2.062   1.277
  755SOL    HW119407   2.246   2.051   1.207
  755SOL    HW219408   2.214   2.007   1.348
  756SOL     OW19409   5.594   0.810   0.643
  756SOL    HW119410   5.586   0.720   0.672
  756SOL    HW219411   5.531   0.818   0.571
  757SOL     OW19412   2.116   5.956   6.657
  757SOL    HW119413   2.157   5.974   6.742
  757SOL    HW219414   2.061   6.032   6.640
  758SOL     OW19415   3.658   0.887   5.475
  758SOL    HW119416   3.604   0.896   5.397
  758SOL    HW219417   3.736   0.939   5.457
  759SOL     OW19418   5.501   5.630   7.686
  759SOL    HW119419   5.459   5.615   7.601
  759SOL    HW219420   5.470   5.716   7.714
  760SOL     OW19421   6.232   1.829   7.146
  760SOL    HW119422   6.167   1.899   7.156
  760SOL    HW219423   6.289   1.839   7.222
  761SOL     OW19424   0.087   5.401   6.556
  761SOL    HW119425   0.102   5.485   6.600
  761SOL    HW219426   0.117   5.336   6.619
  762SOL     OW19427   2.183   0.880   1.123
  762SOL    HW119428   2.229   0.870   1.207
  762SOL    HW219429   2.090   0.872   1.146
  763SOL     OW19430   6.125   1.367   7.104
  763SOL    HW119431   6.122   1.455   7.066
  763SOL    HW219432   6.060   1.369   7.175
  764SOL     OW19433   2.862   1.267   0.728
  764SOL    HW119434   2.908   1.192   0.691
  764SOL    HW219435   2.924   1.339   0.721
  765SOL     OW19436   3.438   2.821   1.513
  765SOL    HW119437   3.531   2.841   1.504
  765SOL    HW219438   3.424   2.810   1.607
  766SOL     OW19439   2.307   4.020   5.974
  766SOL    HW119440   2.391   3.987   6.008
  766SOL    HW219441   2.326   4.111   5.951
  767SOL     OW19442   5.607   2.931   7.429
  767SOL    HW119443   5.613   2.978   7.346
  767SOL    HW219444   5.529   2.967   7.471
  768SOL     OW19445   3.161   0.522   1.993
  768SOL    HW119446   3.129   0.564   2.073
  768SOL    HW219447   3.200   0.594   1.942
  769SOL     OW19448   2.402   5.386   6.225
  769SOL    HW119449   2.399   5.327   6.149
  769SOL    HW219450   2.438   5.468   6.190
  770SOL     OW19451   5.799   6.301   6.901
  770SOL    HW119452   5.798   6.346   6.816
  770SOL    HW219453   5.810   6.371   6.965
  771SOL     OW19454   2.934   1.611   1.104
  771SOL    HW119455   2.870   1.601   1.033
  771SOL    HW219456   2.897   1.560   1.176
  772SOL     OW19457   1.540   5.684   1.427
  772SOL    HW119458   1.558   5.710   1.337
  772SOL    HW219459   1.571   5.757   1.481
  773SOL     OW19460   5.052   2.753   0.321
  773SOL    HW119461   4.999   2.770   0.399
  773SOL    HW219462   5.051   2.836   0.273
  774SOL     OW19463   6.296   4.009   6.690
  774SOL    HW119464   6.241   4.032   6.616
  774SOL    HW219465   6.383   3.994   6.652
  775SOL     OW19466   5.423   6.321   5.655
  775SOL    HW119467   5.469   6.377   5.592
  775SOL    HW219468   5.345   6.370   5.680
  776SOL     OW19469   0.305   0.268   6.404
  776SOL    HW119470   0.217   0.307   6.407
  776SOL    HW219471   0.311   0.218   6.486
  777SOL     OW19472   2.065   5.275   1.205
  777SOL    HW119473   2.018   5.225   1.139
  777SOL    HW219474   2.006   5.278   1.280
  778SOL     OW19475   2.353   3.397   6.945
  778SOL    HW119476   2.419   3.422   6.880
  778SOL    HW219477   2.394   3.325   6.994
  779SOL     OW19478   4.837   5.908   1.447
  779SOL    HW119479   4.807   5.849   1.378
  779SOL    HW219480   4.766   5.909   1.511
  780SOL     OW19481   3.616   5.255   7.527
  780SOL    HW119482   3.649   5.328   7.579
  780SOL    HW219483   3.651   5.271   7.439
  781SOL     OW19484   5.351   0.070   0.547
  781SOL    HW119485   5.337   0.101   0.636
  781SOL    HW219486   5.373   6.426   0.557
  782SOL     OW19487   5.472   2.222   5.271
  782SOL    HW119488   5.548   2.211   5.327
  782SOL    HW219489   5.508   2.224   5.182
  783SOL     OW19490   1.620   2.261   5.924
  783SOL    HW119491   1.648   2.318   5.852
  783SOL    HW219492   1.699   2.213   5.949
  784SOL     OW19493   2.553   2.695   1.505
  784SOL    HW119494   2.580   2.630   1.570
  784SOL    HW219495   2.563   2.650   1.421
  785SOL     OW19496   6.182   2.326   7.262
  785SOL    HW119497   6.237   2.395   7.225
  785SOL    HW219498   6.175   2.348   7.355
  786SOL     OW19499   2.564   0.572   0.101
  786SOL    HW119500   2.584   0.511   0.030
  786SOL    HW219501   2.470   0.564   0.114
  787SOL     OW19502   3.743   5.924   6.047
  787SOL    HW119503   3.752   5.916   6.142
  787SOL    HW219504   3.683   5.998   6.034
  788SOL     OW19505   1.465   2.982   0.440
  788SOL    HW119506   1.452   3.025   0.524
  788SOL    HW219507   1.534   3.031   0.397
  789SOL     OW19508   3.204   0.193   0.173
  789SOL    HW119509   3.272   0.157   0.230
  789SOL    HW219510   3.251   0.250   0.112
  790SOL     OW19511   5.886   3.236   5.756
  790SOL    HW119512   5.883   3.152   5.709
  790SOL    HW219513   5.812   3.285   5.721
  791SOL     OW19514   3.960   0.425   6.949
  791SOL    HW119515   3.925   0.338   6.967
  791SOL    HW219516   3.912   0.454   6.871
  792SOL     OW19517   3.441   4.556   5.299
  792SOL    HW119518   3.463   4.463   5.291
  792SOL    HW219519   3.431   4.570   5.393
  793SOL     OW19520   3.354   1.238   6.953
  793SOL    HW119521   3.418   1.193   6.897
  793SOL    HW219522   3.398   1.317   6.981
  794SOL     OW19523   4.121   3.844   1.789
  794SOL    HW119524   4.046   3.898   1.766
  794SOL    HW219525   4.099   3.757   1.759
  795SOL     OW19526   1.209   3.586   0.207
  795SOL    HW119527   1.219   3.491   0.203
  795SOL    HW219528   1.115   3.601   0.218
  796SOL     OW19529   4.387   0.509   1.371
  796SOL    HW119530   4.408   0.576   1.435
  796SOL    HW219531   4.387   0.555   1.287
  797SOL     OW19532   5.617   2.819   0.686
  797SOL    HW119533   5.674   2.752   0.648
  797SOL    HW219534   5.579   2.777   0.763
  798SOL     OW19535   1.599   1.004   7.347
  798SOL    HW119536   1.596   1.018   7.252
  798SOL    HW219537   1.577   0.912   7.358
  799SOL     OW19538   2.015   0.869   6.082
  799SOL    HW119539   2.082   0.888   6.016
  799SOL    HW219540   1.965   0.797   6.044
  800SOL     OW19541   5.570   4.989   6.356
  800SOL    HW119542   5.635   4.997   6.287
  800SOL    HW219543   5.551   5.079   6.383
  801SOL     OW19544   5.335   3.926   6.033
  801SOL    HW119545   5.325   3.850   5.976
  801SOL    HW219546   5.361   3.997   5.975
  802SOL     OW19547   3.660   3.232   0.750
  802SOL    HW119548   3.635   3.239   0.842
  802SOL    HW219549   3.666   3.323   0.720
  803SOL     OW19550   5.835   1.480   6.719
  803SOL    HW119551   5.859   1.557   6.668
  803SOL    HW219552   5.866   1.406   6.667
  804SOL     OW19553   2.971   2.005   7.021
  804SOL    HW119554   2.981   2.053   7.104
  804SOL    HW219555   2.919   1.928   7.044
  805SOL     OW19556   5.537   1.397   1.965
  805SOL    HW119557   5.568   1.375   1.878
  805SOL    HW219558   5.507   1.314   2.003
  806SOL     OW19559   4.106   5.994   7.333
  806SOL    HW119560   4.044   5.928   7.302
  806SOL    HW219561   4.135   6.038   7.253
  807SOL     OW19562   5.889   5.471   1.197
  807SOL    HW119563   5.850   5.388   1.226
  807SOL    HW219564   5.816   5.520   1.160
  808SOL     OW19565   4.410   1.463   0.143
  808SOL    HW119566   4.400   1.522   0.068
  808SOL    HW219567   4.482   1.405   0.117
  809SOL     OW19568   4.918   3.215   5.310
  809SOL    HW119569   4.921   3.309   5.294
  809SOL    HW219570   4.825   3.194   5.316
  810SOL     OW19571   2.575   1.020   7.670
  810SOL    HW119572   2.653   1.035   7.725
  810SOL    HW219573   2.610   1.005   7.582
  811SOL     OW19574   4.584   4.094   0.247
  811SOL    HW119575   4.558   4.046   0.325
  811SOL    HW219576   4.599   4.183   0.277
  812SOL     OW19577   6.176   0.891   6.460
  812SOL    HW119578   6.235   0.949   6.508
  812SOL    HW219579   6.186   0.806   6.504
  813SOL     OW19580   1.579   4.842   2.109
  813SOL    HW119581   1.671   4.818   2.103
  813SOL    HW219582   1.534   4.775   2.057
  814SOL     OW19583   0.352   2.290   1.769
  814SOL    HW119584   0.363   2.208   1.817
  814SOL    HW219585   0.278   2.274   1.710
  815SOL     OW19586   5.627   0.449   0.447
  815SOL    HW119587   5.699   0.443   0.384
  815SOL    HW219588   5.562   0.386   0.415
  816SOL     OW19589   0.314   4.742   6.250
  816SOL    HW119590   0.317   4.650   6.224
  816SOL    HW219591   0.274   4.787   6.175
  817SOL     OW19592   3.408   1.684   0.699
  817SOL    HW119593   3.400   1.656   0.790
  817SOL    HW219594   3.502   1.681   0.681
  818SOL     OW19595   2.875   3.432   1.012
  818SOL    HW119596   2.819   3.358   0.988
  818SOL    HW219597   2.950   3.425   0.953
  819SOL     OW19598   3.334   2.961   0.997
  819SOL    HW119599   3.283   2.900   0.944
  819SOL    HW219600   3.272   3.029   1.023
  820SOL     OW19601   2.777   5.827   1.534
  820SOL    HW119602   2.833   5.882   1.589
  820SOL    HW219603   2.823   5.823   1.450
  821SOL     OW19604   1.381   2.626   1.915
  821SOL    HW119605   1.395   2.688   1.844
  821SOL    HW219606   1.446   2.558   1.901
  822SOL     OW19607   6.433   2.475   0.039
  822SOL    HW119608   6.416   2.387   0.007
  822SOL    HW219609   6.348   2.506   0.071
  823SOL     OW19610   1.167   1.196   1.788
  823SOL    HW119611   1.260   1.209   1.808
  823SOL    HW219612   1.154   1.242   1.705
  824SOL     OW19613   1.744   0.774   1.406
  824SOL    HW119614   1.766   0.714   1.335
  824SOL    HW219615   1.673   0.731   1.453
  825SOL     OW19616   1.031   6.294   7.732
  825SOL    HW119617   0.993   6.339   0.005
  825SOL    HW219618   1.035   6.362   7.664
  826SOL     OW19619   1.856   5.949   7.512
  826SOL    HW119620   1.935   5.904   7.482
  826SOL    HW219621   1.853   5.931   7.606
  827SOL     OW19622   1.053   1.472   7.091
  827SOL    HW119623   1.037   1.519   7.173
  827SOL    HW219624   0.977   1.415   7.081
  828SOL     OW19625   1.935   2.495   1.612
  828SOL    HW119626   1.878   2.423   1.586
  828SOL    HW219627   1.874   2.565   1.636
  829SOL     OW19628   2.361   3.456   1.160
  829SOL    HW119629   2.446   3.487   1.191
  829SOL    HW219630   2.371   3.361   1.153
  830SOL     OW19631   0.196   0.300   1.471
  830SOL    HW119632   0.175   0.254   1.390
  830SOL    HW219633   0.188   0.233   1.539
  831SOL     OW19634   1.997   5.074   5.498
  831SOL    HW119635   2.091   5.063   5.483
  831SOL    HW219636   1.974   5.006   5.560
  832SOL     OW19637   1.589   1.800   7.436
  832SOL    HW119638   1.669   1.748   7.449
  832SOL    HW219639   1.519   1.735   7.434
  833SOL     OW19640   2.847   1.494   6.921
  833SOL    HW119641   2.939   1.516   6.903
  833SOL    HW219642   2.822   1.436   6.850
  834SOL     OW19643   3.482   0.389   5.443
  834SOL    HW119644   3.438   0.348   5.517
  834SOL    HW219645   3.497   0.479   5.472
  835SOL     OW19646   3.906   5.803   6.956
  835SOL    HW119647   3.883   5.795   6.863
  835SOL    HW219648   3.979   5.742   6.968
  836SOL     OW19649   6.110   4.895   6.268
  836SOL    HW119650   6.169   4.934   6.204
  836SOL    HW219651   6.036   4.863   6.216
  837SOL     OW19652   1.088   2.935   7.579
  837SOL    HW119653   1.113   2.933   7.486
  837SOL    HW219654   1.149   2.996   7.619
  838SOL     OW19655   3.167   3.458   1.448
  838SOL    HW119656   3.195   3.402   1.375
  838SOL    HW219657   3.215   3.425   1.524
  839SOL     OW19658   0.710   2.543   0.369
  839SOL    HW119659   0.763   2.592   0.431
  839SOL    HW219660   0.767   2.473   0.338
  840SOL     OW19661   0.734   4.585   1.768
  840SOL    HW119662   0.708   4.615   1.681
  840SOL    HW219663   0.684   4.505   1.783
  841SOL     OW19664   2.294   2.311   0.321
  841SOL    HW119665   2.263   2.316   0.411
  841SOL    HW219666   2.216   2.285   0.270
  842SOL     OW19667   3.548   0.761   6.333
  842SOL    HW119668   3.585   0.698   6.271
  842SOL    HW219669   3.453   0.749   6.326
  843SOL     OW19670   2.206   1.319   2.423
  843SOL    HW119671   2.272   1.313   2.492
  843SOL    HW219672   2.125   1.341   2.469
  844SOL     OW19673   2.500   1.312   5.991
  844SOL    HW119674   2.571   1.251   6.015
  844SOL    HW219675   2.537   1.364   5.920
  845SOL     OW19676   2.877   5.432   5.947
  845SOL    HW119677   2.897   5.464   5.859
  845SOL    HW219678   2.788   5.463   5.964
  846SOL     OW19679   2.196   5.871   6.185
  846SOL    HW119680   2.166   5.860   6.275
  846SOL    HW219681   2.187   5.784   6.146
  847SOL     OW19682   5.571   5.721   6.010
  847SOL    HW119683   5.484   5.752   6.035
  847SOL    HW219684   5.572   5.628   6.034
  848SOL     OW19685   3.901   6.082   1.541
  848SOL    HW119686   3.868   6.135   1.614
  848SOL    HW219687   3.823   6.038   1.506
  849SOL     OW19688   1.194   3.664   7.061
  849SOL    HW119689   1.281   3.663   7.100
  849SOL    HW219690   1.134   3.645   7.133
  850SOL     OW19691   5.175   0.729   2.369
  850SOL    HW119692   5.186   0.675   2.291
  850SOL    HW219693   5.265   0.748   2.398
  851SOL     OW19694   0.087   3.765   7.625
  851SOL    HW119695   0.031   3.757   7.703
  851SOL    HW219696   0.129   3.680   7.617
  852SOL     OW19697   5.670   6.199   0.190
  852SOL    HW119698   5.680   6.235   0.101
  852SOL    HW219699   5.757   6.168   0.212
  853SOL     OW19700   3.105   4.683   6.696
  853SOL    HW119701   3.047   4.615   6.729
  853SOL    HW219702   3.077   4.763   6.741
  854SOL     OW19703   2.256   3.435   7.653
  854SOL    HW119704   2.233   3.442   7.746
  854SOL    HW219705   2.318   3.363   7.649
  855SOL     OW19706   3.402   0.089   1.195
  855SOL    HW119707   3.386   6.444   1.215
  855SOL    HW219708   3.421   0.089   1.101
  856SOL     OW19709   0.578   1.334   7.736
  856SOL    HW119710   0.568   1.274   0.007
  856SOL    HW219711   0.503   1.393   7.742
  857SOL     OW19712   3.902   2.198   1.131
  857SOL    HW119713   3.878   2.141   1.204
  857SOL    HW219714   3.970   2.149   1.085
  858SOL     OW19715   1.913   2.934   7.121
  858SOL    HW119716   1.891   3.026   7.137
  858SOL    HW219717   1.856   2.885   7.181
  859SOL     OW19718   3.032   1.847   5.673
  859SOL    HW119719   3.083   1.841   5.593
  859SOL    HW219720   3.032   1.758   5.708
  860SOL     OW19721   6.051   0.260   7.157
  860SOL    HW119722   6.141   0.248   7.125
  860SOL    HW219723   6.057   0.242   7.251
  861SOL     OW19724   2.236   4.674   0.962
  861SOL    HW119725   2.169   4.742   0.963
  861SOL    HW219726   2.280   4.682   1.047
  862SOL     OW19727   2.135   6.190   1.218
  862SOL    HW119728   2.151   6.098   1.196
  862SOL    HW219729   2.222   6.230   1.220
  863SOL     OW19730   6.078   2.069   7.238
  863SOL    HW119731   6.117   2.157   7.249
  863SOL    HW219732   6.065   2.061   7.144
  864SOL     OW19733   3.235   2.223   0.294
  864SOL    HW119734   3.276   2.308   0.279
  864SOL    HW219735   3.141   2.243   0.300
  865SOL     OW19736   3.918   6.155   7.754
  865SOL    HW119737   3.904   6.248   7.736
  865SOL    HW219738   3.902   6.112   7.670
  866SOL     OW19739   3.036   6.023   2.077
  866SOL    HW119740   2.972   5.952   2.079
  866SOL    HW219741   2.986   6.100   2.051
  867SOL     OW19742   0.229   0.176   1.004
  867SOL    HW119743   0.300   0.214   0.953
  867SOL    HW219744   0.151   0.223   0.975
  868SOL     OW19745   4.391   0.390   7.083
  868SOL    HW119746   4.482   0.409   7.060
  868SOL    HW219747   4.397   0.338   7.163
  869SOL     OW19748   3.085   3.662   0.909
  869SOL    HW119749   3.089   3.572   0.876
  869SOL    HW219750   3.123   3.656   0.997
  870SOL     OW19751   5.293   5.327   6.383
  870SOL    HW119752   5.287   5.406   6.329
  870SOL    HW219753   5.262   5.355   6.469
  871SOL     OW19754   0.571   3.441   1.442
  871SOL    HW119755   0.562   3.347   1.452
  871SOL    HW219756   0.642   3.452   1.377
  872SOL     OW19757   0.820   2.710   0.555
  872SOL    HW119758   0.744   2.743   0.604
  872SOL    HW219759   0.863   2.650   0.616
  873SOL     OW19760   2.023   5.752   1.324
  873SOL    HW119761   1.965   5.766   1.399
  873SOL    HW219762   1.973   5.696   1.265
  874SOL     OW19763   4.058   0.904   0.938
  874SOL    HW119764   3.974   0.916   0.982
  874SOL    HW219765   4.083   0.814   0.961
  875SOL     OW19766   1.131   1.682   7.738
  875SOL    HW119767   1.197   1.619   7.710
  875SOL    HW219768   1.144   1.691   0.029
  876SOL     OW19769   1.262   4.115   6.303
  876SOL    HW119770   1.272   4.209   6.320
  876SOL    HW219771   1.291   4.073   6.384
  877SOL     OW19772   3.756   2.147   0.335
  877SOL    HW119773   3.841   2.169   0.373
  877SOL    HW219774   3.711   2.097   0.403
  878SOL     OW19775   0.042   0.874   0.376
  878SOL    HW119776   0.106   0.925   0.326
  878SOL    HW219777   6.439   0.940   0.423
  879SOL     OW19778   1.705   1.019   0.742
  879SOL    HW119779   1.763   1.087   0.778
  879SOL    HW219780   1.717   1.026   0.647
  880SOL     OW19781   3.912   0.675   0.110
  880SOL    HW119782   3.943   0.661   0.199
  880SOL    HW219783   3.816   0.679   0.118
  881SOL     OW19784   1.460   3.732   1.522
  881SOL    HW119785   1.393   3.752   1.588
  881SOL    HW219786   1.435   3.786   1.446
  882SOL     OW19787   1.390   4.999   6.982
  882SOL    HW119788   1.303   5.002   6.942
  882SOL    HW219789   1.416   5.090   6.992
  883SOL     OW19790   1.481   4.084   1.149
  883SOL    HW119791   1.488   4.180   1.147
  883SOL    HW219792   1.564   4.055   1.187
  884SOL     OW19793   2.973   1.509   7.779
  884SOL    HW119794   2.909   1.438   7.771
  884SOL    HW219795   2.993   1.514   0.069
  885SOL     OW19796   6.247   3.029   1.774
  885SOL    HW119797   6.233   3.103   1.832
  885SOL    HW219798   6.329   2.990   1.804
  886SOL     OW19799   5.914   2.963   6.625
  886SOL    HW119800   5.997   2.985   6.667
  886SOL    HW219801   5.847   2.995   6.685
  887SOL     OW19802   5.117   6.051   1.812
  887SOL    HW119803   5.085   6.134   1.776
  887SOL    HW219804   5.117   6.064   1.906
  888SOL     OW19805   0.812   0.251   7.140
  888SOL    HW119806   0.883   0.308   7.169
  888SOL    HW219807   0.775   0.216   7.221
  889SOL     OW19808   5.188   6.080   0.099
  889SOL    HW119809   5.183   6.161   0.049
  889SOL    HW219810   5.267   6.089   0.152
  890SOL     OW19811   0.821   1.233   0.706
  890SOL    HW119812   0.890   1.280   0.661
  890SOL    HW219813   0.865   1.157   0.744
  891SOL     OW19814   5.605   1.000   1.599
  891SOL    HW119815   5.644   0.965   1.679
  891SOL    HW219816   5.680   1.016   1.541
  892SOL     OW19817   1.005   4.837   6.203
  892SOL    HW119818   0.915   4.871   6.201
  892SOL    HW219819   1.034   4.854   6.293
  893SOL     OW19820   2.879   0.924   7.043
  893SOL    HW119821   2.895   0.946   6.952
  893SOL    HW219822   2.964   0.929   7.085
  894SOL     OW19823   2.296   2.485   1.021
  894SOL    HW119824   2.391   2.491   1.009
  894SOL    HW219825   2.261   2.492   0.932
  895SOL     OW19826   2.700   1.871   1.315
  895SOL    HW119827   2.784   1.892   1.274
  895SOL    HW219828   2.678   1.949   1.366
  896SOL     OW19829   5.497   1.441   0.247
  896SOL    HW119830   5.455   1.526   0.256
  896SOL    HW219831   5.469   1.392   0.325
  897SOL     OW19832   1.452   6.326   1.637
  897SOL    HW119833   1.500   6.399   1.677
  897SOL    HW219834   1.514   6.253   1.640
  898SOL     OW19835   1.733   1.223   6.734
  898SOL    HW119836   1.746   1.129   6.720
  898SOL    HW219837   1.798   1.265   6.676
  899SOL     OW19838   1.867   2.645   7.781
  899SOL    HW119839   1.791   2.599   7.746
  899SOL    HW219840   1.862   2.732   7.741
  900SOL     OW19841   0.407   0.125   7.468
  900SOL    HW119842   0.457   0.058   7.515
  900SOL    HW219843   0.345   0.075   7.414
  901SOL     OW19844   3.442   6.101   0.020
  901SOL    HW119845   3.414   6.042   0.090
  901SOL    HW219846   3.530   6.128   0.046
  902SOL     OW19847   2.639   5.652   1.862
  902SOL    HW119848   2.663   5.745   1.855
  902SOL    HW219849   2.560   5.652   1.916
  903SOL     OW19850   4.989   3.811   0.667
  903SOL    HW119851   4.972   3.829   0.759
  903SOL    HW219852   4.909   3.836   0.622
  904SOL     OW19853   5.375   0.342   6.743
  904SOL    HW119854   5.383   0.419   6.800
  904SOL    HW219855   5.445   0.352   6.679
  905SOL     OW19856   0.663   2.373   7.072
  905SOL    HW119857   0.580   2.405   7.037
  905SOL    HW219858   0.725   2.444   7.054
  906SOL     OW19859   0.223   4.937   7.697
  906SOL    HW119860   0.228   4.841   7.697
  906SOL    HW219861   0.314   4.966   7.706
  907SOL     OW19862   0.927   4.963   5.645
  907SOL    HW119863   0.998   4.991   5.703
  907SOL    HW219864   0.958   4.984   5.557
  908SOL     OW19865   0.770   0.635   6.469
  908SOL    HW119866   0.783   0.624   6.375
  908SOL    HW219867   0.849   0.680   6.499
  909SOL     OW19868   4.406   5.876   7.048
  909SOL    HW119869   4.500   5.873   7.067
  909SOL    HW219870   4.371   5.799   7.092
  910SOL     OW19871   5.215   0.410   0.315
  910SOL    HW119872   5.297   0.366   0.333
  910SOL    HW219873   5.151   0.367   0.371
  911SOL     OW19874   4.920   4.622   7.343
  911SOL    HW119875   4.977   4.651   7.272
  911SOL    HW219876   4.919   4.695   7.405
  912SOL     OW19877   3.790   6.018   6.573
  912SOL    HW119878   3.717   6.080   6.563
  912SOL    HW219879   3.854   6.066   6.626
  913SOL     OW19880   0.811   3.540   2.020
  913SOL    HW119881   0.787   3.622   2.063
  913SOL    HW219882   0.840   3.483   2.092
  914SOL     OW19883   4.217   2.741   1.523
  914SOL    HW119884   4.252   2.726   1.610
  914SOL    HW219885   4.255   2.671   1.469
  915SOL     OW19886   0.540   5.527   1.270
  915SOL    HW119887   0.464   5.583   1.285
  915SOL    HW219888   0.606   5.559   1.331
  916SOL     OW19889   3.961   3.942   0.741
  916SOL    HW119890   3.917   3.856   0.741
  916SOL    HW219891   3.984   3.957   0.832
  917SOL     OW19892   2.561   6.001   1.562
  917SOL    HW119893   2.525   5.986   1.475
  917SOL    HW219894   2.635   5.939   1.568
  918SOL     OW19895   5.418   3.692   0.301
  918SOL    HW119896   5.356   3.733   0.240
  918SOL    HW219897   5.382   3.604   0.315
  919SOL     OW19898   3.377   2.552   1.466
  919SOL    HW119899   3.431   2.535   1.543
  919SOL    HW219900   3.382   2.647   1.454
  920SOL     OW19901   0.596   2.410   0.872
  920SOL    HW119902   0.674   2.438   0.921
  920SOL    HW219903   0.543   2.489   0.866
  921SOL     OW19904   5.848   2.172   6.117
  921SOL    HW119905   5.777   2.166   6.181
  921SOL    HW219906   5.805   2.161   6.032
  922SOL     OW19907   0.339   5.695   6.315
  922SOL    HW119908   0.385   5.692   6.399
  922SOL    HW219909   0.285   5.616   6.315
  923SOL     OW19910   1.687   6.263   2.200
  923SOL    HW119911   1.729   6.349   2.194
  923SOL    HW219912   1.759   6.201   2.188
  924SOL     OW19913   1.804   1.970   0.872
  924SOL    HW119914   1.896   1.995   0.883
  924SOL    HW219915   1.782   2.001   0.784
  925SOL     OW19916   0.960   4.631   7.674
  925SOL    HW119917   0.905   4.694   7.721
  925SOL    HW219918   1.019   4.596   7.740
  926SOL     OW19919   0.638   6.235   6.178
  926SOL    HW119920   0.631   6.289   6.099
  926SOL    HW219921   0.657   6.296   6.248
  927SOL     OW19922   5.237   4.763   0.885
  927SOL    HW119923   5.149   4.772   0.847
  927SOL    HW219924   5.264   4.675   0.861
  928SOL     OW19925   2.001   4.553   6.861
  928SOL    HW119926   1.943   4.478   6.871
  928SOL    HW219927   2.088   4.520   6.885
  929SOL     OW19928   1.185   1.496   5.902
  929SOL    HW119929   1.216   1.585   5.916
  929SOL    HW219930   1.250   1.441   5.944
  930SOL     OW19931   5.732   5.051   6.144
  930SOL    HW119932   5.785   4.973   6.130
  930SOL    HW219933   5.791   5.125   6.129
  931SOL     OW19934   4.308   6.020   7.520
  931SOL    HW119935   4.240   6.009   7.454
  931SOL    HW219936   4.350   5.935   7.526
  932SOL     OW19937   5.087   4.023   2.398
  932SOL    HW119938   5.109   3.938   2.437
  932SOL    HW219939   5.171   4.062   2.376
  933SOL     OW19940   4.646   5.235   1.926
  933SOL    HW119941   4.737   5.246   1.898
  933SOL    HW219942   4.594   5.254   1.848
  934SOL     OW19943   5.165   3.255   6.367
  934SOL    HW119944   5.237   3.194   6.352
  934SOL    HW219945   5.183   3.291   6.454
  935SOL     OW19946   1.020   3.641   7.272
  935SOL    HW119947   0.983   3.701   7.338
  935SOL    HW219948   0.954   3.638   7.203
  936SOL     OW19949   1.802   0.461   0.771
  936SOL    HW119950   1.852   0.535   0.737
  936SOL    HW219951   1.711   0.492   0.772
  937SOL     OW19952   6.274   6.275   7.487
  937SOL    HW119953   6.272   6.336   7.561
  937SOL    HW219954   6.183   6.249   7.475
  938SOL     OW19955   5.968   2.475   5.388
  938SOL    HW119956   5.935   2.457   5.300
  938SOL    HW219957   5.948   2.397   5.439
  939SOL     OW19958   1.151   4.974   6.843
  939SOL    HW119959   1.079   5.031   6.870
  939SOL    HW219960   1.112   4.887   6.837
  940SOL     OW19961   6.416   0.300   7.417
  940SOL    HW119962   6.393   0.212   7.387
  940SOL    HW219963   0.010   0.286   7.502
  941SOL     OW19964   0.394   0.820   6.110
  941SOL    HW119965   0.310   0.821   6.063
  941SOL    HW219966   0.397   0.733   6.151
  942SOL     OW19967   2.428   2.099   2.192
  942SOL    HW119968   2.349   2.097   2.247
  942SOL    HW219969   2.421   2.181   2.143
  943SOL     OW19970   1.717   2.025   0.611
  943SOL    HW119971   1.649   1.959   0.622
  943SOL    HW219972   1.673   2.099   0.570
  944SOL     OW19973   3.935   1.796   1.326
  944SOL    HW119974   3.899   1.711   1.301
  944SOL    HW219975   4.009   1.809   1.267
  945SOL     OW19976   5.271   2.293   7.207
  945SOL    HW119977   5.290   2.223   7.145
  945SOL    HW219978   5.351   2.345   7.211
  946SOL     OW19979   2.937   4.490   6.772
  946SOL    HW119980   2.960   4.419   6.832
  946SOL    HW219981   2.843   4.479   6.757
  947SOL     OW19982   1.890   4.705   5.905
  947SOL    HW119983   1.853   4.721   5.991
  947SOL    HW219984   1.828   4.646   5.862
  948SOL     OW19985   0.640   1.114   7.567
  948SOL    HW119986   0.556   1.103   7.522
  948SOL    HW219987   0.633   1.200   7.610
  949SOL     OW19988   4.442   2.752   7.084
  949SOL    HW119989   4.374   2.818   7.065
  949SOL    HW219990   4.403   2.697   7.152
  950SOL     OW19991   1.882   3.473   7.380
  950SOL    HW119992   1.939   3.510   7.448
  950SOL    HW219993   1.806   3.440   7.427
  951SOL     OW19994   2.699   3.404   7.133
  951SOL    HW119995   2.714   3.400   7.039
  951SOL    HW219996   2.689   3.498   7.151
  952SOL     OW19997   4.787   4.674   6.296
  952SOL    HW119998   4.835   4.656   6.215
  952SOL    HW219999   4.738   4.594   6.314
  953SOL     OW20000   1.465   1.367   7.323
  953SOL    HW120001   1.479   1.314   7.401
  953SOL    HW220002   1.424   1.307   7.260
  954SOL     OW20003   6.443   3.983   1.274
  954SOL    HW120004   0.050   3.953   1.201
  954SOL    HW220005   6.431   4.077   1.257
  955SOL     OW20006   0.377   1.957   0.721
  955SOL    HW120007   0.461   1.944   0.676
  955SOL    HW220008   0.387   2.040   0.768
  956SOL     OW20009   2.711   5.904   6.120
  956SOL    HW120010   2.635   5.962   6.126
  956SOL    HW220011   2.734   5.905   6.028
  957SOL     OW20012   5.174   5.264   7.416
  957SOL    HW120013   5.125   5.275   7.335
  957SOL    HW220014   5.122   5.201   7.467
  958SOL     OW20015   4.040   4.768   5.789
  958SOL    HW120016   3.982   4.830   5.745
  958SOL    HW220017   4.081   4.820   5.859
  959SOL     OW20018   0.594   4.930   0.943
  959SOL    HW120019   0.565   5.015   0.910
  959SOL    HW220020   0.687   4.926   0.924
  960SOL     OW20021   3.074   1.199   6.931
  960SOL    HW120022   3.169   1.208   6.925
  960SOL    HW220023   3.054   1.123   6.876
  961SOL     OW20024   2.493   1.214   5.179
  961SOL    HW120025   2.451   1.297   5.200
  961SOL    HW220026   2.423   1.160   5.143
  962SOL     OW20027   5.037   0.498   6.130
  962SOL    HW120028   5.037   0.486   6.035
  962SOL    HW220029   5.036   0.593   6.142
  963SOL     OW20030   5.671   2.653   1.778
  963SOL    HW120031   5.654   2.559   1.780
  963SOL    HW220032   5.741   2.664   1.714
  964SOL     OW20033   3.718   4.301   0.762
  964SOL    HW120034   3.749   4.291   0.672
  964SOL    HW220035   3.795   4.279   0.816
  965SOL     OW20036   0.750   0.440   1.595
  965SOL    HW120037   0.813   0.512   1.588
  965SOL    HW220038   0.796   0.365   1.556
  966SOL     OW20039   2.255   0.778   7.063
  966SOL    HW120040   2.175   0.734   7.033
  966SOL    HW220041   2.303   0.799   6.983
  967SOL     OW20042   5.301   3.861   7.648
  967SOL    HW120043   5.279   3.800   7.718
  967SOL    HW220044   5.381   3.825   7.609
  968SOL     OW20045   6.324   3.240   1.036
  968SOL    HW120046   6.284   3.158   1.008
  968SOL    HW220047   6.384   3.263   0.965
  969SOL     OW20048   5.396   4.735   6.855
  969SOL    HW120049   5.474   4.706   6.809
  969SOL    HW220050   5.326   4.677   6.826
  970SOL     OW20051   5.047   0.242   2.192
  970SOL    HW120052   5.008   0.327   2.210
  970SOL    HW220053   5.129   0.263   2.147
  971SOL     OW20054   5.849   4.326   7.646
  971SOL    HW120055   5.787   4.385   7.603
  971SOL    HW220056   5.849   4.247   7.592
  972SOL     OW20057   4.762   1.101   6.244
  972SOL    HW120058   4.752   1.140   6.157
  972SOL    HW220059   4.843   1.139   6.278
  973SOL     OW20060   5.384   0.763   0.450
  973SOL    HW120061   5.421   0.767   0.362
  973SOL    HW220062   5.370   0.669   0.465
  974SOL     OW20063   1.580   2.607   7.199
  974SOL    HW120064   1.517   2.627   7.268
  974SOL    HW220065   1.557   2.518   7.170
  975SOL     OW20066   4.540   5.894   1.562
  975SOL    HW120067   4.582   5.812   1.586
  975SOL    HW220068   4.474   5.909   1.630
  976SOL     OW20069   5.996   4.233   7.282
  976SOL    HW120070   6.079   4.223   7.329
  976SOL    HW220071   6.013   4.197   7.195
  977SOL     OW20072   6.070   0.038   0.997
  977SOL    HW120073   6.044   0.109   1.057
  977SOL    HW220074   5.993   0.026   0.941
  978SOL     OW20075   2.740   4.598   1.274
  978SOL    HW120076   2.759   4.559   1.359
  978SOL    HW220077   2.666   4.547   1.240
  979SOL     OW20078   5.082   1.846   5.942
  979SOL    HW120079   5.014   1.852   5.875
  979SOL    HW220080   5.053   1.775   6.000
  980SOL     OW20081   5.168   4.054   6.204
  980SOL    HW120082   5.142   3.977   6.254
  980SOL    HW220083   5.228   4.020   6.137
  981SOL     OW20084   3.285   5.124   2.026
  981SOL    HW120085   3.330   5.207   2.043
  981SOL    HW220086   3.278   5.083   2.112
  982SOL     OW20087   6.256   1.318   2.199
  982SOL    HW120088   6.328   1.290   2.143
  982SOL    HW220089   6.203   1.239   2.213
  983SOL     OW20090   3.435   1.628   5.449
  983SOL    HW120091   3.502   1.606   5.513
  983SOL    HW220092   3.356   1.583   5.480
  984SOL     OW20093   1.134   0.485   5.371
  984SOL    HW120094   1.054   0.456   5.328
  984SOL    HW220095   1.173   0.405   5.405
  985SOL     OW20096   0.599   3.495   6.727
  985SOL    HW120097   0.549   3.519   6.649
  985SOL    HW220098   0.685   3.535   6.714
  986SOL     OW20099   3.612   1.990   0.508
  986SOL    HW120100   3.520   1.996   0.483
  986SOL    HW220101   3.611   2.003   0.603
  987SOL     OW20102   0.727   4.020   2.596
  987SOL    HW120103   0.661   3.961   2.632
  987SOL    HW220104   0.706   4.105   2.635
  988SOL     OW20105   0.219   4.900   1.420
  988SOL    HW120106   0.182   4.951   1.492
  988SOL    HW220107   0.143   4.857   1.379
  989SOL     OW20108   4.765   6.047   1.735
  989SOL    HW120109   4.689   6.083   1.781
  989SOL    HW220110   4.790   6.116   1.674
  990SOL     OW20111   0.877   4.064   7.202
  990SOL    HW120112   0.863   4.007   7.127
  990SOL    HW220113   0.972   4.066   7.215
  991SOL     OW20114   1.344   1.521   7.678
  991SOL    HW120115   1.317   1.431   7.694
  991SOL    HW220116   1.408   1.539   7.746
  992SOL     OW20117   2.323   1.683   0.443
  992SOL    HW120118   2.321   1.631   0.523
  992SOL    HW220119   2.416   1.696   0.424
  993SOL     OW20120   4.195   6.276   0.384
  993SOL    HW120121   4.237   6.219   0.448
  993SOL    HW220122   4.246   6.262   0.303
  994SOL     OW20123   4.919   3.389   7.017
  994SOL    HW120124   4.827   3.366   7.004
  994SOL    HW220125   4.963   3.306   7.036
  995SOL     OW20126   4.141   2.257   2.485
  995SOL    HW120127   4.202   2.324   2.452
  995SOL    HW220128   4.196   2.197   2.535
  996SOL     OW20129   1.453   0.552   6.182
  996SOL    HW120130   1.515   0.617   6.146
  996SOL    HW220131   1.442   0.488   6.112
  997SOL     OW20132   5.764   5.146   6.566
  997SOL    HW120133   5.803   5.074   6.517
  997SOL    HW220134   5.697   5.181   6.508
  998SOL     OW20135   4.046   0.377   1.002
  998SOL    HW120136   3.972   0.391   1.062
  998SOL    HW220137   4.036   0.285   0.975
  999SOL     OW20138   4.864   5.796   1.816
  999SOL    HW120139   4.847   5.888   1.796
  999SOL    HW220140   4.785   5.766   1.860
 1000SOL     OW20141   2.997   5.746   0.253
 1000SOL    HW120142   3.019   5.720   0.164
 1000SOL    HW220143   3.014   5.668   0.306
 1001SOL     OW20144   3.161   6.388   0.084
 1001SOL    HW120145   3.243   6.379   0.035
 1001SOL    HW220146   3.162   0.030   0.116
 1002SOL     OW20147   4.447   3.021   5.031
 1002SOL    HW120148   4.479   3.111   5.041
 1002SOL    HW220149   4.487   2.974   5.104
 1003SOL     OW20150   3.242   0.027   1.483
 1003SOL    HW120151   3.292   0.080   1.545
 1003SOL    HW220152   3.309   6.429   1.431
 1004SOL     OW20153   0.219   4.318   7.599
 1004SOL    HW120154   0.314   4.305   7.607
 1004SOL    HW220155   0.186   4.309   7.689
 1005SOL     OW20156   0.575   5.296   6.711
 1005SOL    HW120157   0.660   5.256   6.693
 1005SOL    HW220158   0.517   5.259   6.644
 1006SOL     OW20159   4.721   5.342   0.140
 1006SOL    HW120160   4.678   5.426   0.121
 1006SOL    HW220161   4.722   5.336   0.235
 1007SOL     OW20162   1.526   6.354   5.946
 1007SOL    HW120163   1.512   6.274   5.895
 1007SOL    HW220164   1.440   6.394   5.954
 1008SOL     OW20165   2.780   3.629   7.343
 1008SOL    HW120166   2.854   3.688   7.358
 1008SOL    HW220167   2.801   3.550   7.393
 1009SOL     OW20168   2.229   4.416   6.947
 1009SOL    HW120169   2.195   4.327   6.940
 1009SOL    HW220170   2.292   4.423   6.876
 1010SOL     OW20171   1.471   0.184   5.790
 1010SOL    HW120172   1.556   0.140   5.793
 1010SOL    HW220173   1.425   0.143   5.717
 1011SOL     OW20174   5.930   4.325   1.073
 1011SOL    HW120175   5.861   4.339   1.138
 1011SOL    HW220176   5.884   4.321   0.990
 1012SOL     OW20177   3.569   1.133   6.798
 1012SOL    HW120178   3.597   1.046   6.823
 1012SOL    HW220179   3.650   1.183   6.791
 1013SOL     OW20180   6.408   1.294   6.732
 1013SOL    HW120181   6.428   1.377   6.775
 1013SOL    HW220182   6.329   1.263   6.775
 1014SOL     OW20183   0.020   1.755   6.751
 1014SOL    HW120184   0.012   1.828   6.813
 1014SOL    HW220185   0.079   1.787   6.683
 1015SOL     OW20186   4.918   6.366   6.320
 1015SOL    HW120187   4.884   6.375   6.231
 1015SOL    HW220188   4.983   6.436   6.327
 1016SOL     OW20189   0.070   1.016   1.214
 1016SOL    HW120190   0.165   1.005   1.212
 1016SOL    HW220191   0.046   0.992   1.304
 1017SOL     OW20192   1.459   0.837   1.757
 1017SOL    HW120193   1.450   0.913   1.815
 1017SOL    HW220194   1.489   0.767   1.815
 1018SOL     OW20195   2.567   0.150   1.772
 1018SOL    HW120196   2.490   0.207   1.768
 1018SOL    HW220197   2.572   0.122   1.864
 1019SOL     OW20198   1.774   0.389   6.768
 1019SOL    HW120199   1.710   0.355   6.830
 1019SOL    HW220200   1.786   0.480   6.793
 1020SOL     OW20201   1.379   4.614   6.733
 1020SOL    HW120202   1.443   4.543   6.736
 1020SOL    HW220203   1.428   4.692   6.760
 1021SOL     OW20204   1.265   1.267   7.731
 1021SOL    HW120205   1.332   1.200   7.744
 1021SOL    HW220206   1.184   1.217   7.720
 1022SOL     OW20207   1.856   1.696   7.421
 1022SOL    HW120208   1.849   1.686   7.326
 1022SOL    HW220209   1.872   1.789   7.434
 1023SOL     OW20210   3.097   4.392   0.679
 1023SOL    HW120211   3.099   4.478   0.720
 1023SOL    HW220212   3.048   4.337   0.741
 1024SOL     OW20213   5.300   4.300   1.206
 1024SOL    HW120214   5.248   4.228   1.243
 1024SOL    HW220215   5.317   4.357   1.281
 1025SOL     OW20216   4.640   3.200   1.871
 1025SOL    HW120217   4.674   3.284   1.902
 1025SOL    HW220218   4.715   3.141   1.873
 1026SOL     OW20219   2.707   0.718   7.093
 1026SOL    HW120220   2.762   0.795   7.077
 1026SOL    HW220221   2.632   0.752   7.142
 1027SOL     OW20222   1.451   6.097   0.539
 1027SOL    HW120223   1.546   6.094   0.527
 1027SOL    HW220224   1.433   6.188   0.563
 1028SOL     OW20225   2.702   2.000   6.512
 1028SOL    HW120226   2.661   1.992   6.598
 1028SOL    HW220227   2.655   2.072   6.470
 1029SOL     OW20228   4.850   0.573   7.531
 1029SOL    HW120229   4.898   0.540   7.455
 1029SOL    HW220230   4.771   0.519   7.535
 1030SOL     OW20231   2.923   4.850   0.996
 1030SOL    HW120232   2.943   4.758   1.013
 1030SOL    HW220233   2.851   4.870   1.055
 1031SOL     OW20234   2.986   4.093   2.084
 1031SOL    HW120235   2.909   4.080   2.029
 1031SOL    HW220236   3.028   4.007   2.088
 1032SOL     OW20237   1.187   3.304   0.242
 1032SOL    HW120238   1.212   3.212   0.250
 1032SOL    HW220239   1.109   3.312   0.296
 1033SOL     OW20240   4.984   1.148   5.996
 1033SOL    HW120241   4.998   1.114   5.908
 1033SOL    HW220242   4.890   1.164   6.002
 1034SOL     OW20243   4.603   0.425   5.535
 1034SOL    HW120244   4.562   0.357   5.481
 1034SOL    HW220245   4.694   0.396   5.545
 1035SOL     OW20246   5.589   1.364   6.758
 1035SOL    HW120247   5.669   1.412   6.737
 1035SOL    HW220248   5.619   1.285   6.803
 1036SOL     OW20249   4.589   4.421   7.575
 1036SOL    HW120250   4.561   4.332   7.596
 1036SOL    HW220251   4.529   4.477   7.626
 1037SOL     OW20252   0.775   3.026   6.282
 1037SOL    HW120253   0.842   3.063   6.225
 1037SOL    HW220254   0.717   2.978   6.222
 1038SOL     OW20255   6.255   5.393   0.832
 1038SOL    HW120256   6.268   5.336   0.756
 1038SOL    HW220257   6.250   5.332   0.906
 1039SOL     OW20258   2.117   1.591   6.782
 1039SOL    HW120259   2.073   1.539   6.849
 1039SOL    HW220260   2.211   1.579   6.799
 1040SOL     OW20261   4.036   2.033   5.583
 1040SOL    HW120262   3.999   1.993   5.662
 1040SOL    HW220263   4.115   2.077   5.614
 1041SOL     OW20264   5.418   1.042   0.106
 1041SOL    HW120265   5.439   0.957   0.143
 1041SOL    HW220266   5.369   1.022   0.027
 1042SOL     OW20267   0.655   0.289   0.230
 1042SOL    HW120268   0.604   0.286   0.311
 1042SOL    HW220269   0.744   0.266   0.257
 1043SOL     OW20270   3.748   0.759   7.516
 1043SOL    HW120271   3.805   0.810   7.574
 1043SOL    HW220272   3.706   0.696   7.573
 1044SOL     OW20273   2.302   1.786   2.230
 1044SOL    HW120274   2.384   1.774   2.279
 1044SOL    HW220275   2.315   1.735   2.150
 1045SOL     OW20276   5.076   3.486   6.811
 1045SOL    HW120277   5.139   3.530   6.868
 1045SOL    HW220278   5.008   3.453   6.870
 1046SOL     OW20279   4.891   4.778   7.773
 1046SOL    HW120280   4.936   4.709   0.019
 1046SOL    HW220281   4.884   4.851   0.031
 1047SOL     OW20282   2.051   1.238   0.609
 1047SOL    HW120283   1.965   1.260   0.572
 1047SOL    HW220284   2.113   1.268   0.543
 1048SOL     OW20285   5.141   1.462   7.134
 1048SOL    HW120286   5.053   1.494   7.154
 1048SOL    HW220287   5.146   1.378   7.179
 1049SOL     OW20288   4.961   6.126   1.331
 1049SOL    HW120289   4.924   6.049   1.373
 1049SOL    HW220290   5.022   6.090   1.266
 1050SOL     OW20291   5.027   5.907   0.248
 1050SOL    HW120292   5.089   5.884   0.317
 1050SOL    HW220293   5.072   5.974   0.196
 1051SOL     OW20294   5.787   0.272   0.695
 1051SOL    HW120295   5.699   0.271   0.732
 1051SOL    HW220296   5.794   0.189   0.647
 1052SOL     OW20297   0.044   1.594   6.147
 1052SOL    HW120298   0.064   1.514   6.098
 1052SOL    HW220299   0.099   1.588   6.226
 1053SOL     OW20300   5.187   2.529   1.564
 1053SOL    HW120301   5.272   2.486   1.572
 1053SOL    HW220302   5.172   2.568   1.650
 1054SOL     OW20303   4.144   4.801   7.476
 1054SOL    HW120304   4.226   4.803   7.427
 1054SOL    HW220305   4.142   4.714   7.516
 1055SOL     OW20306   0.498   1.777   1.357
 1055SOL    HW120307   0.533   1.865   1.369
 1055SOL    HW220308   0.551   1.722   1.415
 1056SOL     OW20309   5.414   6.112   0.244
 1056SOL    HW120310   5.428   6.059   0.323
 1056SOL    HW220311   5.502   6.135   0.215
 1057SOL     OW20312   1.912   2.085   1.341
 1057SOL    HW120313   2.001   2.106   1.313
 1057SOL    HW220314   1.860   2.089   1.261
 1058SOL     OW20315   0.353   1.757   7.260
 1058SOL    HW120316   0.309   1.771   7.176
 1058SOL    HW220317   0.322   1.671   7.288
 1059SOL     OW20318   4.475   3.283   6.054
 1059SOL    HW120319   4.402   3.220   6.057
 1059SOL    HW220320   4.515   3.277   6.141
 1060SOL     OW20321   3.811   6.295   6.384
 1060SOL    HW120322   3.839   6.374   6.430
 1060SOL    HW220323   3.736   6.263   6.434
 1061SOL     OW20324   1.563   1.654   6.220
 1061SOL    HW120325   1.566   1.684   6.129
 1061SOL    HW220326   1.488   1.594   6.222
 1062SOL     OW20327   1.269   0.918   0.770
 1062SOL    HW120328   1.239   0.864   0.843
 1062SOL    HW220329   1.199   0.911   0.704
 1063SOL     OW20330   4.771   1.596   1.512
 1063SOL    HW120331   4.723   1.625   1.590
 1063SOL    HW220332   4.775   1.501   1.520
 1064SOL     OW20333   2.058   2.912   6.879
 1064SOL    HW120334   2.010   2.984   6.837
 1064SOL    HW220335   2.018   2.904   6.965
 1065SOL     OW20336   3.123   5.067   0.499
 1065SOL    HW120337   3.056   5.002   0.477
 1065SOL    HW220338   3.168   5.032   0.575
 1066SOL     OW20339   3.143   6.318   6.040
 1066SOL    HW120340   3.128   6.254   6.110
 1066SOL    HW220341   3.212   6.375   6.075
 1067SOL     OW20342   2.730   1.222   5.785
 1067SOL    HW120343   2.675   1.297   5.762
 1067SOL    HW220344   2.705   1.153   5.724
 1068SOL     OW20345   2.476   0.685   7.504
 1068SOL    HW120346   2.568   0.670   7.526
 1068SOL    HW220347   2.477   0.713   7.412
 1069SOL     OW20348   5.191   1.912   0.881
 1069SOL    HW120349   5.152   1.825   0.871
 1069SOL    HW220350   5.188   1.930   0.975
 1070SOL     OW20351   3.589   4.095   7.264
 1070SOL    HW120352   3.593   4.082   7.169
 1070SOL    HW220353   3.617   4.011   7.301
 1071SOL     OW20354   1.156   3.826   0.860
 1071SOL    HW120355   1.109   3.754   0.901
 1071SOL    HW220356   1.098   3.857   0.791
 1072SOL     OW20357   0.602   5.360   0.032
 1072SOL    HW120358   0.671   5.400   7.782
 1072SOL    HW220359   0.521   5.379   7.788
 1073SOL     OW20360   0.682   0.769   1.421
 1073SOL    HW120361   0.725   0.789   1.505
 1073SOL    HW220362   0.748   0.721   1.371
 1074SOL     OW20363   3.091   0.458   6.032
 1074SOL    HW120364   3.144   0.512   5.973
 1074SOL    HW220365   3.071   0.379   5.981
 1075SOL     OW20366   0.623   1.051   6.947
 1075SOL    HW120367   0.570   1.011   6.878
 1075SOL    HW220368   0.565   1.114   6.989
 1076SOL     OW20369   3.251   4.635   7.060
 1076SOL    HW120370   3.194   4.650   6.985
 1076SOL    HW220371   3.194   4.647   7.136
 1077SOL     OW20372   0.839   2.591   7.050
 1077SOL    HW120373   0.861   2.605   7.142
 1077SOL    HW220374   0.807   2.675   7.019
 1078SOL     OW20375   3.316   0.979   1.954
 1078SOL    HW120376   3.297   1.061   1.909
 1078SOL    HW220377   3.408   0.960   1.934
 1079SOL     OW20378   1.982   5.590   7.541
 1079SOL    HW120379   1.959   5.531   7.470
 1079SOL    HW220380   2.013   5.669   7.498
 1080SOL     OW20381   3.154   5.700   0.778
 1080SOL    HW120382   3.100   5.621   0.774
 1080SOL    HW220383   3.242   5.668   0.798
 1081SOL     OW20384   0.277   3.401   1.118
 1081SOL    HW120385   0.217   3.330   1.138
 1081SOL    HW220386   0.295   3.443   1.202
 1082SOL     OW20387   4.906   3.840   6.040
 1082SOL    HW120388   4.890   3.810   5.951
 1082SOL    HW220389   4.936   3.762   6.087
 1083SOL     OW20390   0.254   0.693   0.776
 1083SOL    HW120391   0.279   0.601   0.765
 1083SOL    HW220392   0.191   0.709   0.705
 1084SOL     OW20393   0.794   1.554   0.605
 1084SOL    HW120394   0.874   1.504   0.589
 1084SOL    HW220395   0.800   1.579   0.698
 1085SOL     OW20396   2.526   2.210   1.205
 1085SOL    HW120397   2.460   2.268   1.243
 1085SOL    HW220398   2.475   2.140   1.164
 1086SOL     OW20399   2.892   4.677   0.634
 1086SOL    HW120400   2.966   4.665   0.695
 1086SOL    HW220401   2.828   4.611   0.662
 1087SOL     OW20402   4.119   1.861   5.389
 1087SOL    HW120403   4.083   1.920   5.456
 1087SOL    HW220404   4.051   1.795   5.377
 1088SOL     OW20405   2.369   5.771   1.003
 1088SOL    HW120406   2.444   5.741   1.054
 1088SOL    HW220407   2.314   5.817   1.066
 1089SOL     OW20408   5.975   5.080   0.781
 1089SOL    HW120409   5.916   5.153   0.800
 1089SOL    HW220410   6.004   5.050   0.867
 1090SOL     OW20411   5.402   3.747   1.046
 1090SOL    HW120412   5.386   3.719   0.956
 1090SOL    HW220413   5.320   3.728   1.092
 1091SOL     OW20414   2.156   3.445   0.106
 1091SOL    HW120415   2.171   3.368   0.161
 1091SOL    HW220416   2.063   3.463   0.114
 1092SOL     OW20417   0.021   1.851   1.968
 1092SOL    HW120418   0.094   1.864   2.029
 1092SOL    HW220419   0.026   1.759   1.944
 1093SOL     OW20420   4.745   6.149   7.189
 1093SOL    HW120421   4.839   6.136   7.191
 1093SOL    HW220422   4.726   6.198   7.269
 1094SOL     OW20423   4.204   1.375   7.070
 1094SOL    HW120424   4.300   1.374   7.066
 1094SOL    HW220425   4.176   1.401   6.983
 1095SOL     OW20426   2.855   3.762   0.792
 1095SOL    HW120427   2.887   3.774   0.702
 1095SOL    HW220428   2.929   3.723   0.839
 1096SOL     OW20429   0.648   3.432   7.759
 1096SOL    HW120430   0.714   3.362   7.752
 1096SOL    HW220431   0.690   3.498   0.011
 1097SOL     OW20432   2.527   5.515   1.351
 1097SOL    HW120433   2.567   5.542   1.433
 1097SOL    HW220434   2.538   5.590   1.293
 1098SOL     OW20435   0.951   2.544   7.772
 1098SOL    HW120436   0.938   2.598   0.047
 1098SOL    HW220437   0.868   2.497   7.761
 1099SOL     OW20438   4.363   4.457   0.363
 1099SOL    HW120439   4.336   4.430   0.275
 1099SOL    HW220440   4.398   4.545   0.352
 1100SOL     OW20441   5.998   4.396   0.679
 1100SOL    HW120442   5.928   4.355   0.730
 1100SOL    HW220443   5.958   4.475   0.642
 1101SOL     OW20444   2.364   3.474   7.400
 1101SOL    HW120445   2.330   3.469   7.489
 1101SOL    HW220446   2.452   3.435   7.406
 1102SOL     OW20447   2.734   0.988   0.598
 1102SOL    HW120448   2.736   1.067   0.543
 1102SOL    HW220449   2.660   1.001   0.657
 1103SOL     OW20450   5.585   0.016   5.478
 1103SOL    HW120451   5.563   0.099   5.435
 1103SOL    HW220452   5.641   6.418   5.414
 1104SOL     OW20453   5.811   1.053   1.426
 1104SOL    HW120454   5.775   1.140   1.412
 1104SOL    HW220455   5.866   1.037   1.350
 1105SOL     OW20456   2.640   3.106   0.711
 1105SOL    HW120457   2.624   3.165   0.638
 1105SOL    HW220458   2.692   3.035   0.674
 1106SOL     OW20459   3.198   3.987   7.064
 1106SOL    HW120460   3.212   4.063   7.008
 1106SOL    HW220461   3.277   3.934   7.053
 1107SOL     OW20462   0.893   5.509   7.300
 1107SOL    HW120463   0.897   5.597   7.338
 1107SOL    HW220464   0.982   5.474   7.310
 1108SOL     OW20465   2.633   2.110   1.445
 1108SOL    HW120466   2.673   2.174   1.504
 1108SOL    HW220467   2.618   2.158   1.364
 1109SOL     OW20468   5.661   4.035   7.658
 1109SOL    HW120469   5.745   4.049   7.613
 1109SOL    HW220470   5.686   4.010   7.747
 1110SOL     OW20471   5.785   3.372   1.946
 1110SOL    HW120472   5.718   3.431   1.913
 1110SOL    HW220473   5.808   3.407   2.032
 1111SOL     OW20474   5.439   3.165   1.494
 1111SOL    HW120475   5.402   3.229   1.555
 1111SOL    HW220476   5.515   3.209   1.456
 1112SOL     OW20477   2.001   2.590   2.089
 1112SOL    HW120478   1.992   2.501   2.056
 1112SOL    HW220479   2.055   2.582   2.167
 1113SOL     OW20480   2.017   1.380   6.963
 1113SOL    HW120481   1.925   1.354   6.968
 1113SOL    HW220482   2.057   1.313   6.908
 1114SOL     OW20483   6.305   1.202   0.898
 1114SOL    HW120484   6.324   1.237   0.811
 1114SOL    HW220485   6.378   1.143   0.917
 1115SOL     OW20486   2.745   0.297   7.129
 1115SOL    HW120487   2.661   0.343   7.131
 1115SOL    HW220488   2.810   0.365   7.148
 1116SOL     OW20489   6.339   5.593   7.048
 1116SOL    HW120490   6.256   5.616   7.006
 1116SOL    HW220491   6.313   5.557   7.133
 1117SOL     OW20492   3.447   3.847   5.911
 1117SOL    HW120493   3.362   3.813   5.883
 1117SOL    HW220494   3.479   3.895   5.834
 1118SOL     OW20495   5.756   0.839   7.757
 1118SOL    HW120496   5.761   0.907   7.690
 1118SOL    HW220497   5.716   0.883   0.029
 1119SOL     OW20498   0.226   3.841   7.400
 1119SOL    HW120499   0.166   3.820   7.472
 1119SOL    HW220500   0.169   3.844   7.323
 1120SOL     OW20501   3.375   6.440   6.142
 1120SOL    HW120502   3.436   0.053   6.184
 1120SOL    HW220503   3.404   6.353   6.172
 1121SOL     OW20504   3.189   3.697   0.121
 1121SOL    HW120505   3.111   3.647   0.098
 1121SOL    HW220506   3.251   3.631   0.153
 1122SOL     OW20507   3.809   0.311   5.982
 1122SOL    HW120508   3.740   0.332   5.920
 1122SOL    HW220509   3.888   0.349   5.944
 1123SOL     OW20510   4.315   0.869   6.637
 1123SOL    HW120511   4.247   0.920   6.592
 1123SOL    HW220512   4.302   0.888   6.729
 1124SOL     OW20513   5.855   1.883   2.295
 1124SOL    HW120514   5.778   1.904   2.348
 1124SOL    HW220515   5.896   1.967   2.277
 1125SOL     OW20516   5.696   6.201   7.265
 1125SOL    HW120517   5.668   6.113   7.238
 1125SOL    HW220518   5.788   6.205   7.238
 1126SOL     OW20519   4.293   0.489   7.501
 1126SOL    HW120520   4.280   0.395   7.499
 1126SOL    HW220521   4.362   0.505   7.436
 1127SOL     OW20522   5.221   6.299   6.872
 1127SOL    HW120523   5.270   6.373   6.835
 1127SOL    HW220524   5.230   6.309   6.966
 1128SOL     OW20525   1.254   2.205   6.585
 1128SOL    HW120526   1.246   2.293   6.621
 1128SOL    HW220527   1.290   2.153   6.656
 1129SOL     OW20528   4.651   4.138   2.168
 1129SOL    HW120529   4.610   4.136   2.254
 1129SOL    HW220530   4.738   4.099   2.182
 1130SOL     OW20531   3.591   2.880   0.290
 1130SOL    HW120532   3.673   2.927   0.274
 1130SOL    HW220533   3.528   2.949   0.311
 1131SOL     OW20534   0.614   2.819   0.696
 1131SOL    HW120535   0.582   2.799   0.784
 1131SOL    HW220536   0.535   2.839   0.646
 1132SOL     OW20537   6.102   2.055   7.526
 1132SOL    HW120538   6.129   1.979   7.578
 1132SOL    HW220539   6.111   2.027   7.435
 1133SOL     OW20540   5.224   1.407   0.587
 1133SOL    HW120541   5.303   1.373   0.543
 1133SOL    HW220542   5.247   1.496   0.611
 1134SOL     OW20543   5.902   0.859   1.002
 1134SOL    HW120544   5.969   0.908   0.956
 1134SOL    HW220545   5.895   0.902   1.087
 1135SOL     OW20546   0.371   4.583   7.101
 1135SOL    HW120547   0.397   4.492   7.086
 1135SOL    HW220548   0.286   4.577   7.143
 1136SOL     OW20549   3.884   5.862   7.232
 1136SOL    HW120550   3.888   5.836   7.140
 1136SOL    HW220551   3.805   5.915   7.238
 1137SOL     OW20552   1.721   6.089   0.470
 1137SOL    HW120553   1.728   6.057   0.380
 1137SOL    HW220554   1.776   6.168   0.472
 1138SOL     OW20555   4.454   2.345   0.451
 1138SOL    HW120556   4.493   2.399   0.519
 1138SOL    HW220557   4.527   2.319   0.395
 1139SOL     OW20558   6.053   2.848   5.100
 1139SOL    HW120559   5.964   2.844   5.066
 1139SOL    HW220560   6.050   2.798   5.182
 1140SOL     OW20561   3.134   6.230   0.314
 1140SOL    HW120562   3.225   6.231   0.342
 1140SOL    HW220563   3.134   6.277   0.230
 1141SOL     OW20564   0.203   2.012   5.766
 1141SOL    HW120565   0.188   2.085   5.826
 1141SOL    HW220566   0.179   1.934   5.818
 1142SOL     OW20567   3.011   2.202   6.566
 1142SOL    HW120568   3.028   2.130   6.627
 1142SOL    HW220569   2.922   2.231   6.586
 1143SOL     OW20570   0.059   3.294   7.667
 1143SOL    HW120571   0.090   3.257   7.749
 1143SOL    HW220572   0.074   3.225   7.602
 1144SOL     OW20573   4.274   1.081   0.984
 1144SOL    HW120574   4.194   1.032   0.965
 1144SOL    HW220575   4.280   1.145   0.912
 1145SOL     OW20576   3.668   2.402   5.664
 1145SOL    HW120577   3.751   2.450   5.669
 1145SOL    HW220578   3.629   2.431   5.582
 1146SOL     OW20579   1.005   4.874   0.671
 1146SOL    HW120580   1.092   4.899   0.702
 1146SOL    HW220581   0.987   4.936   0.600
 1147SOL     OW20582   4.711   6.085   0.257
 1147SOL    HW120583   4.714   6.116   0.347
 1147SOL    HW220584   4.782   6.131   0.213
 1148SOL     OW20585   4.589   0.076   6.118
 1148SOL    HW120586   4.551   0.100   6.033
 1148SOL    HW220587   4.662   0.018   6.096
 1149SOL     OW20588   2.358   2.438   0.081
 1149SOL    HW120589   2.332   2.404   0.167
 1149SOL    HW220590   2.276   2.470   0.043
 1150SOL     OW20591   5.638   3.297   6.289
 1150SOL    HW120592   5.584   3.339   6.222
 1150SOL    HW220593   5.611   3.205   6.287
 1151SOL     OW20594   3.822   5.724   5.544
 1151SOL    HW120595   3.734   5.698   5.517
 1151SOL    HW220596   3.817   5.819   5.554
 1152SOL     OW20597   2.282   1.832   7.383
 1152SOL    HW120598   2.357   1.867   7.431
 1152SOL    HW220599   2.234   1.779   7.447
 1153SOL     OW20600   3.268   4.907   5.320
 1153SOL    HW120601   3.253   4.882   5.412
 1153SOL    HW220602   3.307   4.830   5.280
 1154SOL     OW20603   4.492   0.225   1.850
 1154SOL    HW120604   4.427   0.220   1.920
 1154SOL    HW220605   4.537   0.308   1.866
 1155SOL     OW20606   4.265   1.748   0.673
 1155SOL    HW120607   4.192   1.786   0.624
 1155SOL    HW220608   4.225   1.679   0.726
 1156SOL     OW20609   2.109   0.271   7.202
 1156SOL    HW120610   2.135   0.305   7.287
 1156SOL    HW220611   2.173   0.307   7.141
 1157SOL     OW20612   0.389   1.790   1.984
 1157SOL    HW120613   0.321   1.814   2.048
 1157SOL    HW220614   0.358   1.708   1.946
 1158SOL     OW20615   6.390   3.570   7.200
 1158SOL    HW120616   6.407   3.486   7.243
 1158SOL    HW220617   6.439   3.565   7.118
 1159SOL     OW20618   0.273   1.504   7.335
 1159SOL    HW120619   0.205   1.437   7.348
 1159SOL    HW220620   0.354   1.454   7.325
 1160SOL     OW20621   0.292   4.441   0.238
 1160SOL    HW120622   0.348   4.413   0.311
 1160SOL    HW220623   0.334   4.520   0.204
 1161SOL     OW20624   1.731   3.638   7.693
 1161SOL    HW120625   1.775   3.717   7.660
 1161SOL    HW220626   1.717   3.656   7.786
 1162SOL     OW20627   3.643   5.197   1.376
 1162SOL    HW120628   3.568   5.226   1.323
 1162SOL    HW220629   3.637   5.249   1.457
 1163SOL     OW20630   3.996   2.918   0.009
 1163SOL    HW120631   4.086   2.951   0.007
 1163SOL    HW220632   3.989   2.864   7.733
 1164SOL     OW20633   5.243   3.938   6.862
 1164SOL    HW120634   5.160   3.891   6.867
 1164SOL    HW220635   5.252   3.962   6.770
 1165SOL     OW20636   3.838   0.503   0.509
 1165SOL    HW120637   3.909   0.535   0.453
 1165SOL    HW220638   3.872   0.421   0.545
 1166SOL     OW20639   4.437   1.652   7.748
 1166SOL    HW120640   4.379   1.626   7.676
 1166SOL    HW220641   4.445   1.747   7.739
 1167SOL     OW20642   3.849   0.176   6.979
 1167SOL    HW120643   3.756   0.177   6.957
 1167SOL    HW220644   3.876   0.085   6.967
 1168SOL     OW20645   2.471   6.128   5.343
 1168SOL    HW120646   2.413   6.121   5.419
 1168SOL    HW220647   2.462   6.219   5.315
 1169SOL     OW20648   0.919   3.968   6.089
 1169SOL    HW120649   0.909   3.941   6.180
 1169SOL    HW220650   0.978   3.903   6.051
 1170SOL     OW20651   3.211   4.761   1.237
 1170SOL    HW120652   3.143   4.707   1.276
 1170SOL    HW220653   3.276   4.772   1.307
 1171SOL     OW20654   5.364   4.787   1.279
 1171SOL    HW120655   5.432   4.742   1.229
 1171SOL    HW220656   5.331   4.855   1.220
 1172SOL     OW20657   0.640   1.739   6.355
 1172SOL    HW120658   0.655   1.738   6.261
 1172SOL    HW220659   0.561   1.791   6.368
 1173SOL     OW20660   3.558   3.116   2.083
 1173SOL    HW120661   3.568   3.085   1.993
 1173SOL    HW220662   3.569   3.211   2.077
 1174SOL     OW20663   0.017   2.033   0.923
 1174SOL    HW120664   6.432   2.102   0.981
 1174SOL    HW220665   0.079   1.985   0.977
 1175SOL     OW20666   4.609   3.642   6.247
 1175SOL    HW120667   4.618   3.667   6.155
 1175SOL    HW220668   4.685   3.586   6.264
 1176SOL     OW20669   4.386   3.822   0.283
 1176SOL    HW120670   4.412   3.826   0.191
 1176SOL    HW220671   4.403   3.731   0.309
 1177SOL     OW20672   6.366   2.210   1.098
 1177SOL    HW120673   6.440   2.246   1.147
 1177SOL    HW220674   6.289   2.255   1.134
 1178SOL     OW20675   2.049   4.872   7.690
 1178SOL    HW120676   1.977   4.927   7.722
 1178SOL    HW220677   2.082   4.828   7.768
 1179SOL     OW20678   0.103   4.913   1.088
 1179SOL    HW120679   0.102   4.861   1.007
 1179SOL    HW220680   0.056   4.859   1.152
 1180SOL     OW20681   2.520   3.478   6.736
 1180SOL    HW120682   2.604   3.459   6.776
 1180SOL    HW220683   2.540   3.541   6.667
 1181SOL     OW20684   5.379   3.792   5.356
 1181SOL    HW120685   5.399   3.886   5.351
 1181SOL    HW220686   5.454   3.749   5.316
 1182SOL     OW20687   4.068   5.920   0.825
 1182SOL    HW120688   4.092   5.885   0.739
 1182SOL    HW220689   4.011   5.853   0.863
 1183SOL     OW20690   2.573   4.380   0.442
 1183SOL    HW120691   2.564   4.341   0.355
 1183SOL    HW220692   2.663   4.414   0.444
 1184SOL     OW20693   2.163   2.314   6.577
 1184SOL    HW120694   2.214   2.290   6.655
 1184SOL    HW220695   2.134   2.230   6.541
 1185SOL     OW20696   4.328   3.624   6.234
 1185SOL    HW120697   4.324   3.587   6.145
 1185SOL    HW220698   4.421   3.618   6.257
 1186SOL     OW20699   5.905   2.196   0.001
 1186SOL    HW120700   5.840   2.159   7.743
 1186SOL    HW220701   5.852   2.230   0.074
 1187SOL     OW20702   4.086   4.677   6.096
 1187SOL    HW120703   4.170   4.632   6.097
 1187SOL    HW220704   4.105   4.763   6.058
 1188SOL     OW20705   0.857   6.446   6.625
 1188SOL    HW120706   0.865   6.361   6.581
 1188SOL    HW220707   0.885   6.429   6.715
 1189SOL     OW20708   2.266   3.396   1.429
 1189SOL    HW120709   2.314   3.476   1.452
 1189SOL    HW220710   2.257   3.400   1.334
 1190SOL     OW20711   2.803   1.472   1.294
 1190SOL    HW120712   2.716   1.511   1.295
 1190SOL    HW220713   2.827   1.464   1.386
 1191SOL     OW20714   5.913   1.215   2.135
 1191SOL    HW120715   5.988   1.171   2.175
 1191SOL    HW220716   5.890   1.285   2.196
 1192SOL     OW20717   2.784   5.503   1.143
 1192SOL    HW120718   2.789   5.457   1.059
 1192SOL    HW220719   2.875   5.518   1.167
 1193SOL     OW20720   0.342   1.770   6.085
 1193SOL    HW120721   0.274   1.762   6.019
 1193SOL    HW220722   0.326   1.855   6.126
 1194SOL     OW20723   5.040   0.320   0.750
 1194SOL    HW120724   4.956   0.362   0.767
 1194SOL    HW220725   5.102   0.365   0.806
 1195SOL     OW20726   6.180   0.387   1.064
 1195SOL    HW120727   6.148   0.477   1.064
 1195SOL    HW220728   6.108   0.335   1.100
 1196SOL     OW20729   4.554   1.959   2.261
 1196SOL    HW120730   4.581   1.903   2.188
 1196SOL    HW220731   4.636   1.983   2.304
 1197SOL     OW20732   4.755   6.117   6.178
 1197SOL    HW120733   4.846   6.094   6.200
 1197SOL    HW220734   4.760   6.207   6.147
 1198SOL     OW20735   2.673   3.865   1.279
 1198SOL    HW120736   2.713   3.806   1.215
 1198SOL    HW220737   2.710   3.951   1.258
 1199SOL     OW20738   4.190   1.787   1.849
 1199SOL    HW120739   4.265   1.750   1.895
 1199SOL    HW220740   4.118   1.727   1.870
 1200SOL     OW20741   4.483   5.294   1.709
 1200SOL    HW120742   4.490   5.206   1.670
 1200SOL    HW220743   4.480   5.353   1.634
 1201SOL     OW20744   2.892   3.174   6.814
 1201SOL    HW120745   2.920   3.089   6.780
 1201SOL    HW220746   2.953   3.192   6.886
 1202SOL     OW20747   5.754   5.979   1.908
 1202SOL    HW120748   5.781   6.067   1.882
 1202SOL    HW220749   5.659   5.986   1.923
 1203SOL     OW20750   3.368   3.086   1.463
 1203SOL    HW120751   3.380   2.991   1.457
 1203SOL    HW220752   3.354   3.102   1.556
 1204SOL     OW20753   6.269   3.354   1.673
 1204SOL    HW120754   6.221   3.338   1.755
 1204SOL    HW220755   6.355   3.314   1.688
 1205SOL     OW20756   5.910   0.294   1.898
 1205SOL    HW120757   5.917   0.231   1.970
 1205SOL    HW220758   5.885   0.376   1.941
 1206SOL     OW20759   1.872   0.681   2.165
 1206SOL    HW120760   1.921   0.657   2.244
 1206SOL    HW220761   1.917   0.633   2.095
 1207SOL     OW20762   5.242   3.004   1.412
 1207SOL    HW120763   5.226   3.037   1.323
 1207SOL    HW220764   5.314   3.057   1.444
 1208SOL     OW20765   0.290   6.027   6.469
 1208SOL    HW120766   0.217   6.057   6.414
 1208SOL    HW220767   0.364   6.021   6.409
 1209SOL     OW20768   5.406   1.489   5.228
 1209SOL    HW120769   5.498   1.510   5.215
 1209SOL    HW220770   5.394   1.405   5.184
 1210SOL     OW20771   3.802   1.288   6.781
 1210SOL    HW120772   3.760   1.361   6.826
 1210SOL    HW220773   3.844   1.327   6.704
 1211SOL     OW20774   1.997   4.702   7.478
 1211SOL    HW120775   2.009   4.764   7.551
 1211SOL    HW220776   2.079   4.653   7.475
 1212SOL     OW20777   4.702   5.243   1.383
 1212SOL    HW120778   4.776   5.275   1.434
 1212SOL    HW220779   4.712   5.147   1.384
 1213SOL     OW20780   5.283   5.002   7.231
 1213SOL    HW120781   5.325   5.075   7.276
 1213SOL    HW220782   5.260   4.941   7.301
 1214SOL     OW20783   0.002   2.697   0.366
 1214SOL    HW120784   0.061   2.646   0.310
 1214SOL    HW220785   6.434   2.642   0.442
 1215SOL     OW20786   0.995   0.014   6.033
 1215SOL    HW120787   0.962   0.019   6.122
 1215SOL    HW220788   0.921   0.043   5.978
 1216SOL     OW20789   4.832   3.398   2.205
 1216SOL    HW120790   4.833   3.326   2.268
 1216SOL    HW220791   4.909   3.450   2.226
 1217SOL     OW20792   5.707   2.768   5.966
 1217SOL    HW120793   5.753   2.689   5.994
 1217SOL    HW220794   5.738   2.785   5.878
 1218SOL     OW20795   1.564   0.658   7.719
 1218SOL    HW120796   1.641   0.608   7.691
 1218SOL    HW220797   1.535   0.614   7.798
 1219SOL     OW20798   0.996   3.114   6.778
 1219SOL    HW120799   0.907   3.094   6.806
 1219SOL    HW220800   1.044   3.033   6.794
 1220SOL     OW20801   0.013   2.757   6.225
 1220SOL    HW120802   0.106   2.748   6.245
 1220SOL    HW220803   0.004   2.848   6.196
 1221SOL     OW20804   1.287   3.720   6.638
 1221SOL    HW120805   1.213   3.693   6.692
 1221SOL    HW220806   1.364   3.698   6.690
 1222SOL     OW20807   4.440   0.107   1.614
 1222SOL    HW120808   4.523   0.071   1.583
 1222SOL    HW220809   4.461   0.146   1.699
 1223SOL     OW20810   2.408   4.694   1.179
 1223SOL    HW120811   2.446   4.607   1.189
 1223SOL    HW220812   2.393   4.725   1.268
 1224SOL     OW20813   6.388   4.792   1.594
 1224SOL    HW120814   6.446   4.717   1.607
 1224SOL    HW220815   6.361   4.786   1.502
 1225SOL     OW20816   5.455   6.087   7.490
 1225SOL    HW120817   5.416   6.174   7.487
 1225SOL    HW220818   5.414   6.040   7.417
 1226SOL     OW20819   5.032   4.462   6.255
 1226SOL    HW120820   4.985   4.379   6.252
 1226SOL    HW220821   4.990   4.516   6.188
 1227SOL     OW20822   2.592   2.531   0.574
 1227SOL    HW120823   2.531   2.558   0.506
 1227SOL    HW220824   2.577   2.591   0.646
 1228SOL     OW20825   3.120   5.879   7.328
 1228SOL    HW120826   3.177   5.826   7.272
 1228SOL    HW220827   3.035   5.835   7.323
 1229SOL     OW20828   5.275   1.292   1.381
 1229SOL    HW120829   5.196   1.243   1.360
 1229SOL    HW220830   5.314   1.246   1.454
 1230SOL     OW20831   4.927   4.373   0.515
 1230SOL    HW120832   4.866   4.428   0.565
 1230SOL    HW220833   4.938   4.295   0.569
 1231SOL     OW20834   0.134   3.972   1.007
 1231SOL    HW120835   0.054   3.989   0.956
 1231SOL    HW220836   0.169   4.059   1.025
 1232SOL     OW20837   0.709   4.982   7.033
 1232SOL    HW120838   0.644   5.035   6.988
 1232SOL    HW220839   0.658   4.912   7.074
 1233SOL     OW20840   4.107   1.690   0.020
 1233SOL    HW120841   4.014   1.683   0.038
 1233SOL    HW220842   4.138   1.599   0.015
 1234SOL     OW20843   4.571   2.867   5.217
 1234SOL    HW120844   4.570   2.808   5.292
 1234SOL    HW220845   4.595   2.811   5.143
 1235SOL     OW20846   3.856   3.676   0.330
 1235SOL    HW120847   3.946   3.704   0.319
 1235SOL    HW220848   3.808   3.755   0.355
 1236SOL     OW20849   3.536   4.306   1.834
 1236SOL    HW120850   3.568   4.386   1.875
 1236SOL    HW220851   3.503   4.334   1.749
 1237SOL     OW20852   3.136   3.971   6.126
 1237SOL    HW120853   3.054   3.977   6.078
 1237SOL    HW220854   3.187   4.046   6.096
 1238SOL     OW20855   3.588   2.646   6.492
 1238SOL    HW120856   3.641   2.720   6.462
 1238SOL    HW220857   3.501   2.684   6.507
 1239SOL     OW20858   3.560   2.383   1.338
 1239SOL    HW120859   3.497   2.447   1.371
 1239SOL    HW220860   3.632   2.436   1.304
 1240SOL     OW20861   1.430   5.964   0.148
 1240SOL    HW120862   1.428   6.056   0.172
 1240SOL    HW220863   1.440   5.917   0.231
 1241SOL     OW20864   1.396   5.908   1.095
 1241SOL    HW120865   1.338   5.835   1.076
 1241SOL    HW220866   1.369   5.976   1.033
 1242SOL     OW20867   1.390   1.199   7.114
 1242SOL    HW120868   1.353   1.250   7.042
 1242SOL    HW220869   1.470   1.160   7.078
 1243SOL     OW20870   5.495   0.770   7.300
 1243SOL    HW120871   5.518   0.863   7.296
 1243SOL    HW220872   5.424   0.761   7.237
 1244SOL     OW20873   0.468   2.781   0.922
 1244SOL    HW120874   0.445   2.874   0.925
 1244SOL    HW220875   0.452   2.750   1.011
 1245SOL     OW20876   0.653   2.741   6.693
 1245SOL    HW120877   0.693   2.807   6.636
 1245SOL    HW220878   0.559   2.760   6.689
 1246SOL     OW20879   2.934   4.240   1.731
 1246SOL    HW120880   2.881   4.186   1.790
 1246SOL    HW220881   2.902   4.329   1.744
 1247SOL     OW20882   4.153   4.591   1.479
 1247SOL    HW120883   4.240   4.556   1.460
 1247SOL    HW220884   4.151   4.676   1.435
 1248SOL     OW20885   5.109   2.686   7.264
 1248SOL    HW120886   5.185   2.665   7.318
 1248SOL    HW220887   5.039   2.704   7.327
 1249SOL     OW20888   5.553   0.299   0.844
 1249SOL    HW120889   5.486   0.286   0.911
 1249SOL    HW220890   5.535   0.386   0.808
 1250SOL     OW20891   5.208   3.327   6.101
 1250SOL    HW120892   5.192   3.313   6.194
 1250SOL    HW220893   5.128   3.368   6.069
 1251SOL     OW20894   4.930   0.614   0.557
 1251SOL    HW120895   4.997   0.662   0.605
 1251SOL    HW220896   4.950   0.629   0.465
 1252SOL     OW20897   1.374   0.615   5.405
 1252SOL    HW120898   1.347   0.707   5.403
 1252SOL    HW220899   1.294   0.567   5.384
 1253SOL     OW20900   4.339   2.106   2.589
 1253SOL    HW120901   4.386   2.026   2.612
 1253SOL    HW220902   4.406   2.165   2.554
 1254SOL     OW20903   2.686   5.672   6.256
 1254SOL    HW120904   2.697   5.757   6.214
 1254SOL    HW220905   2.621   5.626   6.202
 1255SOL     OW20906   3.526   0.874   1.002
 1255SOL    HW120907   3.533   0.784   0.971
 1255SOL    HW220908   3.500   0.866   1.094
 1256SOL     OW20909   1.848   5.736   1.536
 1256SOL    HW120910   1.779   5.799   1.553
 1256SOL    HW220911   1.857   5.687   1.618
 1257SOL     OW20912   3.329   6.082   0.728
 1257SOL    HW120913   3.337   6.037   0.812
 1257SOL    HW220914   3.237   6.075   0.705
 1258SOL     OW20915   3.748   0.710   5.932
 1258SOL    HW120916   3.773   0.717   5.840
 1258SOL    HW220917   3.822   0.745   5.980
 1259SOL     OW20918   2.207   0.110   1.188
 1259SOL    HW120919   2.174   0.168   1.256
 1259SOL    HW220920   2.202   0.161   1.107
 1260SOL     OW20921   0.847   1.241   6.753
 1260SOL    HW120922   0.793   1.222   6.676
 1260SOL    HW220923   0.797   1.206   6.827
 1261SOL     OW20924   5.441   0.261   0.371
 1261SOL    HW120925   5.412   0.202   0.441
 1261SOL    HW220926   5.473   0.202   0.303
 1262SOL     OW20927   2.695   1.685   7.453
 1262SOL    HW120928   2.670   1.757   7.395
 1262SOL    HW220929   2.788   1.671   7.434
 1263SOL     OW20930   1.709   4.525   5.775
 1263SOL    HW120931   1.728   4.438   5.742
 1263SOL    HW220932   1.619   4.519   5.809
 1264SOL     OW20933   3.597   6.210   6.533
 1264SOL    HW120934   3.533   6.148   6.497
 1264SOL    HW220935   3.543   6.278   6.574
 1265SOL     OW20936   0.031   3.371   5.400
 1265SOL    HW120937   6.395   3.332   5.374
 1265SOL    HW220938   0.081   3.377   5.318
 1266SOL     OW20939   3.917   4.461   1.519
 1266SOL    HW120940   3.850   4.524   1.491
 1266SOL    HW220941   4.000   4.504   1.497
 1267SOL     OW20942   0.684   4.351   5.462
 1267SOL    HW120943   0.599   4.346   5.419
 1267SOL    HW220944   0.665   4.345   5.556
 1268SOL     OW20945   2.943   1.878   6.530
 1268SOL    HW120946   2.861   1.925   6.513
 1268SOL    HW220947   2.975   1.916   6.612
 1269SOL     OW20948   0.622   1.926   0.609
 1269SOL    HW120949   0.613   1.850   0.552
 1269SOL    HW220950   0.711   1.958   0.594
 1270SOL     OW20951   3.947   4.370   5.563
 1270SOL    HW120952   3.996   4.328   5.634
 1270SOL    HW220953   3.999   4.353   5.485
 1271SOL     OW20954   0.891   6.354   6.884
 1271SOL    HW120955   0.956   6.287   6.860
 1271SOL    HW220956   0.807   6.312   6.869
 1272SOL     OW20957   4.000   1.770   6.336
 1272SOL    HW120958   4.089   1.797   6.313
 1272SOL    HW220959   4.007   1.735   6.425
 1273SOL     OW20960   3.286   0.477   7.087
 1273SOL    HW120961   3.376   0.452   7.064
 1273SOL    HW220962   3.297   0.548   7.150
 1274SOL     OW20963   6.135   5.655   0.317
 1274SOL    HW120964   6.194   5.587   0.285
 1274SOL    HW220965   6.071   5.608   0.370
 1275SOL     OW20966   3.943   2.121   1.842
 1275SOL    HW120967   3.891   2.107   1.763
 1275SOL    HW220968   3.878   2.126   1.912
 1276SOL     OW20969   1.487   3.610   6.800
 1276SOL    HW120970   1.529   3.600   6.886
 1276SOL    HW220971   1.464   3.521   6.774
 1277SOL     OW20972   1.452   3.426   7.228
 1277SOL    HW120973   1.409   3.507   7.254
 1277SOL    HW220974   1.509   3.451   7.155
 1278SOL     OW20975   3.402   2.306   7.401
 1278SOL    HW120976   3.393   2.390   7.357
 1278SOL    HW220977   3.389   2.241   7.332
 1279SOL     OW20978   0.168   2.261   1.220
 1279SOL    HW120979   0.210   2.231   1.301
 1279SOL    HW220980   0.217   2.219   1.150
 1280SOL     OW20981   0.470   5.951   7.608
 1280SOL    HW120982   0.388   5.910   7.637
 1280SOL    HW220983   0.539   5.902   7.652
 1281SOL     OW20984   4.255   5.335   0.025
 1281SOL    HW120985   4.278   5.299   0.111
 1281SOL    HW220986   4.272   5.263   7.767
 1282SOL     OW20987   0.011   2.042   1.409
 1282SOL    HW120988   0.052   2.034   1.323
 1282SOL    HW220989   6.380   2.094   1.393
 1283SOL     OW20990   5.552   0.598   2.233
 1283SOL    HW120991   5.514   0.537   2.171
 1283SOL    HW220992   5.637   0.560   2.256
 1284SOL     OW20993   4.563   2.248   7.503
 1284SOL    HW120994   4.591   2.313   7.438
 1284SOL    HW220995   4.634   2.245   7.567
 1285SOL     OW20996   2.711   1.140   6.046
 1285SOL    HW120997   2.738   1.050   6.062
 1285SOL    HW220998   2.728   1.154   5.953
 1286SOL     OW20999   6.139   4.314   7.528
 1286SOL    HW121000   6.067   4.351   7.578
 1286SOL    HW221001   6.209   4.302   7.591
 1287SOL     OW21002   2.193   3.031   6.456
 1287SOL    HW121003   2.191   2.937   6.475
 1287SOL    HW221004   2.269   3.063   6.505
 1288SOL     OW21005   0.716   1.956   7.332
 1288SOL    HW121006   0.808   1.929   7.324
 1288SOL    HW221007   0.701   2.013   7.256
 1289SOL     OW21008   0.500   4.554   7.678
 1289SOL    HW121009   0.564   4.547   7.749
 1289SOL    HW221010   0.493   4.466   7.642
 1290SOL     OW21011   1.279   0.619   1.169
 1290SOL    HW121012   1.297   0.530   1.138
 1290SOL    HW221013   1.363   0.663   1.169
 1291SOL     OW21014   2.630   6.076   0.927
 1291SOL    HW121015   2.602   6.105   1.014
 1291SOL    HW221016   2.551   6.040   0.887
 1292SOL     OW21017   4.336   0.493   0.303
 1292SOL    HW121018   4.380   0.578   0.300
 1292SOL    HW221019   4.300   0.481   0.215
 1293SOL     OW21020   1.879   1.665   2.030
 1293SOL    HW121021   1.947   1.601   2.012
 1293SOL    HW221022   1.919   1.724   2.094
 1294SOL     OW21023   0.196   5.717   2.161
 1294SOL    HW121024   0.196   5.720   2.257
 1294SOL    HW221025   0.103   5.723   2.137
 1295SOL     OW21026   5.354   0.608   6.075
 1295SOL    HW121027   5.317   0.666   6.008
 1295SOL    HW221028   5.323   0.521   6.051
 1296SOL     OW21029   5.916   1.522   6.290
 1296SOL    HW121030   5.825   1.493   6.284
 1296SOL    HW221031   5.967   1.441   6.295
 1297SOL     OW21032   0.274   0.691   6.404
 1297SOL    HW121033   0.350   0.729   6.449
 1297SOL    HW221034   0.312   0.630   6.340
 1298SOL     OW21035   1.836   0.205   0.685
 1298SOL    HW121036   1.827   0.295   0.718
 1298SOL    HW221037   1.892   0.162   0.750
 1299SOL     OW21038   0.941   4.572   6.247
 1299SOL    HW121039   0.965   4.662   6.227
 1299SOL    HW221040   0.968   4.521   6.171
 1300SOL     OW21041   4.684   0.330   1.523
 1300SOL    HW121042   4.613   0.378   1.567
 1300SOL    HW221043   4.763   0.381   1.543
 1301SOL     OW21044   2.690   2.298   0.681
 1301SOL    HW121045   2.641   2.370   0.643
 1301SOL    HW221046   2.746   2.339   0.747
 1302SOL     OW21047   4.390   5.846   0.635
 1302SOL    HW121048   4.299   5.814   0.636
 1302SOL    HW221049   4.435   5.792   0.699
 1303SOL     OW21050   2.805   3.741   1.485
 1303SOL    HW121051   2.749   3.670   1.515
 1303SOL    HW221052   2.755   3.785   1.416
 1304SOL     OW21053   3.714   5.352   7.277
 1304SOL    HW121054   3.809   5.358   7.272
 1304SOL    HW221055   3.689   5.315   7.192
 1305SOL     OW21056   5.088   5.179   1.659
 1305SOL    HW121057   5.156   5.195   1.725
 1305SOL    HW221058   5.091   5.084   1.646
 1306SOL     OW21059   3.351   2.772   6.537
 1306SOL    HW121060   3.310   2.808   6.458
 1306SOL    HW221061   3.339   2.840   6.603
 1307SOL     OW21062   3.792   1.429   6.136
 1307SOL    HW121063   3.737   1.451   6.211
 1307SOL    HW221064   3.840   1.510   6.117
 1308SOL     OW21065   2.003   6.132   0.912
 1308SOL    HW121066   1.940   6.151   0.981
 1308SOL    HW221067   2.006   6.036   0.909
 1309SOL     OW21068   2.758   5.909   6.925
 1309SOL    HW121069   2.830   5.861   6.966
 1309SOL    HW221070   2.699   5.929   6.997
 1310SOL     OW21071   1.168   4.178   7.505
 1310SOL    HW121072   1.138   4.252   7.454
 1310SOL    HW221073   1.190   4.215   7.591
 1311SOL     OW21074   5.554   3.860   7.473
 1311SOL    HW121075   5.581   3.918   7.544
 1311SOL    HW221076   5.556   3.915   7.395
 1312SOL     OW21077   0.570   5.687   0.635
 1312SOL    HW121078   0.555   5.757   0.700
 1312SOL    HW221079   0.557   5.606   0.684
 1313SOL     OW21080   6.197   1.806   1.990
 1313SOL    HW121081   6.182   1.750   1.913
 1313SOL    HW221082   6.290   1.829   1.985
 1314SOL     OW21083   2.679   0.004   6.648
 1314SOL    HW121084   2.600   0.058   6.647
 1314SOL    HW221085   2.685   6.420   6.738
 1315SOL     OW21086   4.451   2.707   0.781
 1315SOL    HW121087   4.368   2.699   0.734
 1315SOL    HW221088   4.463   2.802   0.792
 1316SOL     OW21089   5.694   4.889   0.442
 1316SOL    HW121090   5.778   4.900   0.397
 1316SOL    HW221091   5.670   4.798   0.425
 1317SOL     OW21092   3.000   2.818   7.126
 1317SOL    HW121093   2.907   2.838   7.114
 1317SOL    HW221094   3.016   2.742   7.070
 1318SOL     OW21095   4.949   2.207   0.795
 1318SOL    HW121096   4.932   2.179   0.705
 1318SOL    HW221097   5.041   2.232   0.795
 1319SOL     OW21098   5.129   3.177   0.718
 1319SOL    HW121099   5.213   3.220   0.701
 1319SOL    HW221100   5.138   3.090   0.678
 1320SOL     OW21101   1.609   4.539   0.175
 1320SOL    HW121102   1.670   4.567   0.242
 1320SOL    HW221103   1.617   4.443   0.173
 1321SOL     OW21104   1.543   1.323   5.260
 1321SOL    HW121105   1.597   1.368   5.195
 1321SOL    HW221106   1.492   1.260   5.209
 1322SOL     OW21107   1.658   0.821   2.059
 1322SOL    HW121108   1.730   0.776   2.104
 1322SOL    HW221109   1.615   0.752   2.008
 1323SOL     OW21110   5.964   1.654   1.133
 1323SOL    HW121111   6.031   1.617   1.191
 1323SOL    HW221112   5.962   1.595   1.058
 1324SOL     OW21113   1.757   5.298   0.977
 1324SOL    HW121114   1.705   5.360   1.028
 1324SOL    HW221115   1.782   5.347   0.899
 1325SOL     OW21116   3.438   1.577   0.023
 1325SOL    HW121117   3.497   1.512   7.787
 1325SOL    HW221118   3.359   1.572   7.772
 1326SOL     OW21119   0.890   2.581   7.362
 1326SOL    HW121120   0.795   2.575   7.352
 1326SOL    HW221121   0.902   2.640   7.437
 1327SOL     OW21122   2.522   5.552   6.848
 1327SOL    HW121123   2.500   5.588   6.762
 1327SOL    HW221124   2.545   5.460   6.830
 1328SOL     OW21125   5.802   2.823   7.699
 1328SOL    HW121126   5.716   2.865   7.694
 1328SOL    HW221127   5.782   2.731   7.714
 1329SOL     OW21128   3.380   3.904   7.496
 1329SOL    HW121129   3.363   3.875   7.586
 1329SOL    HW221130   3.425   3.830   7.456
 1330SOL     OW21131   2.818   5.849   2.086
 1330SOL    HW121132   2.781   5.872   2.000
 1330SOL    HW221133   2.759   5.783   2.121
 1331SOL     OW21134   4.737   0.749   0.201
 1331SOL    HW121135   4.811   0.714   0.250
 1331SOL    HW221136   4.762   0.738   0.109
 1332SOL     OW21137   5.967   0.236   1.158
 1332SOL    HW121138   5.886   0.231   1.106
 1332SOL    HW221139   5.938   0.259   1.246
 1333SOL     OW21140   4.551   1.823   1.263
 1333SOL    HW121141   4.507   1.897   1.222
 1333SOL    HW221142   4.546   1.840   1.357
 1334SOL     OW21143   3.763   3.166   1.429
 1334SOL    HW121144   3.852   3.142   1.401
 1334SOL    HW221145   3.776   3.231   1.497
 1335SOL     OW21146   2.225   0.319   6.657
 1335SOL    HW121147   2.139   0.281   6.675
 1335SOL    HW221148   2.231   0.395   6.715
 1336SOL     OW21149   4.642   4.193   0.586
 1336SOL    HW121150   4.646   4.255   0.514
 1336SOL    HW221151   4.587   4.121   0.553
 1337SOL     OW21152   0.151   4.147   6.090
 1337SOL    HW121153   0.232   4.195   6.070
 1337SOL    HW221154   0.129   4.104   6.007
 1338SOL     OW21155   6.150   5.943   6.643
 1338SOL    HW121156   6.222   5.993   6.605
 1338SOL    HW221157   6.071   5.988   6.611
 1339SOL     OW21158   4.434   1.596   6.326
 1339SOL    HW121159   4.502   1.548   6.374
 1339SOL    HW221160   4.466   1.599   6.236
 1340SOL     OW21161   2.120   5.891   0.059
 1340SOL    HW121162   2.204   5.932   0.036
 1340SOL    HW221163   2.115   5.900   0.154
 1341SOL     OW21164   0.434   2.645   7.750
 1341SOL    HW121165   0.383   2.712   7.796
 1341SOL    HW221166   0.499   2.694   7.700
 1342SOL     OW21167   6.345   4.638   6.861
 1342SOL    HW121168   6.353   4.634   6.765
 1342SOL    HW221169   6.421   4.589   6.892
 1343SOL     OW21170   5.219   4.937   7.732
 1343SOL    HW121171   5.306   4.973   7.719
 1343SOL    HW221172   5.228   4.844   7.710
 1344SOL     OW21173   6.207   4.647   1.256
 1344SOL    HW121174   6.203   4.559   1.217
 1344SOL    HW221175   6.135   4.648   1.320
 1345SOL     OW21176   2.721   2.195   6.892
 1345SOL    HW121177   2.689   2.113   6.855
 1345SOL    HW221178   2.732   2.177   6.985
 1346SOL     OW21179   0.893   5.722   2.022
 1346SOL    HW121180   0.883   5.633   2.058
 1346SOL    HW221181   0.838   5.722   1.943
 1347SOL     OW21182   2.495   5.272   1.227
 1347SOL    HW121183   2.525   5.297   1.140
 1347SOL    HW221184   2.508   5.350   1.280
 1348SOL     OW21185   5.881   4.468   7.352
 1348SOL    HW121186   5.951   4.527   7.379
 1348SOL    HW221187   5.926   4.387   7.329
 1349SOL     OW21188   0.063   3.229   1.717
 1349SOL    HW121189   0.109   3.210   1.799
 1349SOL    HW221190   0.053   3.143   1.676
 1350SOL     OW21191   1.977   0.074   0.903
 1350SOL    HW121192   1.977   0.023   0.984
 1350SOL    HW221193   2.050   0.134   0.913
 1351SOL     OW21194   1.121   3.513   0.723
 1351SOL    HW121195   1.059   3.443   0.700
 1351SOL    HW221196   1.095   3.539   0.812
 1352SOL     OW21197   2.204   0.623   7.505
 1352SOL    HW121198   2.169   0.686   7.443
 1352SOL    HW221199   2.298   0.642   7.508
 1353SOL     OW21200   6.297   4.667   7.201
 1353SOL    HW121201   6.296   4.597   7.267
 1353SOL    HW221202   6.295   4.622   7.117
 1354SOL     OW21203   3.062   1.257   1.885
 1354SOL    HW121204   3.063   1.333   1.944
 1354SOL    HW221205   3.154   1.237   1.870
 1355SOL     OW21206   1.345   4.181   7.109
 1355SOL    HW121207   1.298   4.221   7.035
 1355SOL    HW221208   1.395   4.253   7.148
 1356SOL     OW21209   5.004   1.612   0.037
 1356SOL    HW121210   5.089   1.572   0.020
 1356SOL    HW221211   5.012   1.650   0.124
 1357SOL     OW21212   3.254   1.031   1.593
 1357SOL    HW121213   3.161   1.007   1.597
 1357SOL    HW221214   3.269   1.084   1.671
 1358SOL     OW21215   5.853   4.226   6.829
 1358SOL    HW121216   5.784   4.292   6.834
 1358SOL    HW221217   5.922   4.267   6.777
 1359SOL     OW21218   3.472   4.197   5.833
 1359SOL    HW121219   3.542   4.262   5.840
 1359SOL    HW221220   3.515   4.120   5.797
 1360SOL     OW21221   1.643   3.144   0.305
 1360SOL    HW121222   1.579   3.214   0.313
 1360SOL    HW221223   1.728   3.188   0.302
 1361SOL     OW21224   5.312   3.463   5.747
 1361SOL    HW121225   5.364   3.432   5.673
 1361SOL    HW221226   5.224   3.473   5.712
 1362SOL     OW21227   6.043   6.164   1.172
 1362SOL    HW121228   6.088   6.182   1.090
 1362SOL    HW221229   6.073   6.076   1.197
 1363SOL     OW21230   5.896   4.658   0.038
 1363SOL    HW121231   5.927   4.736   7.795
 1363SOL    HW221232   5.805   4.649   0.012
 1364SOL     OW21233   2.961   5.301   1.001
 1364SOL    HW121234   2.876   5.303   0.957
 1364SOL    HW221235   2.950   5.234   1.069
 1365SOL     OW21236   3.404   3.093   0.292
 1365SOL    HW121237   3.468   3.144   0.341
 1365SOL    HW221238   3.432   3.100   0.201
 1366SOL     OW21239   0.982   3.231   6.534
 1366SOL    HW121240   1.034   3.170   6.481
 1366SOL    HW221241   0.983   3.193   6.622
 1367SOL     OW21242   2.283   4.243   1.562
 1367SOL    HW121243   2.347   4.184   1.600
 1367SOL    HW221244   2.267   4.208   1.474
 1368SOL     OW21245   2.686   3.572   7.690
 1368SOL    HW121246   2.647   3.644   7.641
 1368SOL    HW221247   2.723   3.613   7.768
 1369SOL     OW21248   3.838   4.581   7.606
 1369SOL    HW121249   3.813   4.502   7.558
 1369SOL    HW221250   3.842   4.649   7.539
 1370SOL     OW21251   0.689   3.321   5.634
 1370SOL    HW121252   0.750   3.255   5.665
 1370SOL    HW221253   0.709   3.399   5.686
 1371SOL     OW21254   5.538   4.069   0.813
 1371SOL    HW121255   5.522   4.053   0.906
 1371SOL    HW221256   5.455   4.102   0.779
 1372SOL     OW21257   5.195   6.213   6.597
 1372SOL    HW121258   5.105   6.190   6.573
 1372SOL    HW221259   5.193   6.222   6.692
 1373SOL     OW21260   5.559   2.612   7.021
 1373SOL    HW121261   5.503   2.688   7.036
 1373SOL    HW221262   5.531   2.577   6.937
 1374SOL     OW21263   6.095   2.470   1.831
 1374SOL    HW121264   6.120   2.530   1.761
 1374SOL    HW221265   6.156   2.491   1.902
 1375SOL     OW21266   2.675   5.050   6.687
 1375SOL    HW121267   2.649   5.018   6.600
 1375SOL    HW221268   2.769   5.065   6.680
 1376SOL     OW21269   6.326   0.993   7.328
 1376SOL    HW121270   6.322   1.088   7.319
 1376SOL    HW221271   6.236   0.967   7.350
 1377SOL     OW21272   1.621   3.540   7.034
 1377SOL    HW121273   1.680   3.469   7.006
 1377SOL    HW221274   1.675   3.594   7.091
 1378SOL     OW21275   1.696   0.732   0.514
 1378SOL    HW121276   1.778   0.717   0.560
 1378SOL    HW221277   1.634   0.757   0.582
 1379SOL     OW21278   5.544   1.030   7.236
 1379SOL    HW121279   5.631   1.033   7.197
 1379SOL    HW221280   5.492   1.091   7.184
 1380SOL     OW21281   1.670   2.654   2.340
 1380SOL    HW121282   1.690   2.726   2.280
 1380SOL    HW221283   1.586   2.620   2.311
 1381SOL     OW21284   1.034   0.847   0.631
 1381SOL    HW121285   1.039   0.752   0.629
 1381SOL    HW221286   0.982   0.870   0.554
 1382SOL     OW21287   5.701   3.269   1.431
 1382SOL    HW121288   5.703   3.353   1.385
 1382SOL    HW221289   5.681   3.292   1.522
 1383SOL     OW21290   0.303   1.169   6.215
 1383SOL    HW121291   0.332   1.237   6.154
 1383SOL    HW221292   0.345   1.089   6.184
 1384SOL     OW21293   5.193   3.097   5.940
 1384SOL    HW121294   5.100   3.072   5.941
 1384SOL    HW221295   5.196   3.181   5.986
 1385SOL     OW21296   4.598   1.671   6.625
 1385SOL    HW121297   4.633   1.599   6.572
 1385SOL    HW221298   4.645   1.748   6.595
 1386SOL     OW21299   6.343   4.912   6.872
 1386SOL    HW121300   6.346   4.818   6.887
 1386SOL    HW221301   6.435   4.938   6.863
 1387SOL     OW21302   4.806   2.025   2.351
 1387SOL    HW121303   4.892   2.023   2.393
 1387SOL    HW221304   4.822   1.987   2.264
 1388SOL     OW21305   2.631   3.153   1.596
 1388SOL    HW121306   2.584   3.219   1.646
 1388SOL    HW221307   2.601   3.069   1.633
 1389SOL     OW21308   4.654   1.652   1.746
 1389SOL    HW121309   4.684   1.711   1.815
 1389SOL    HW221310   4.644   1.567   1.789
 1390SOL     OW21311   1.088   2.182   1.325
 1390SOL    HW121312   1.111   2.090   1.340
 1390SOL    HW221313   1.122   2.228   1.403
 1391SOL     OW21314   0.906   3.394   2.228
 1391SOL    HW121315   0.963   3.327   2.191
 1391SOL    HW221316   0.967   3.463   2.257
 1392SOL     OW21317   6.029   0.276   0.527
 1392SOL    HW121318   6.056   0.356   0.481
 1392SOL    HW221319   5.955   0.303   0.581
 1393SOL     OW21320   4.048   0.211   7.171
 1393SOL    HW121321   4.125   0.182   7.123
 1393SOL    HW221322   3.975   0.198   7.110
 1394SOL     OW21323   6.160   2.374   0.530
 1394SOL    HW121324   6.194   2.321   0.458
 1394SOL    HW221325   6.106   2.313   0.581
 1395SOL     OW21326   4.618   1.802   5.913
 1395SOL    HW121327   4.621   1.883   5.862
 1395SOL    HW221328   4.647   1.734   5.853
 1396SOL     OW21329   3.472   4.523   6.082
 1396SOL    HW121330   3.479   4.433   6.116
 1396SOL    HW221331   3.414   4.515   6.007
 1397SOL     OW21332   3.046   5.257   6.439
 1397SOL    HW121333   3.125   5.309   6.451
 1397SOL    HW221334   2.979   5.320   6.410
 1398SOL     OW21335   6.180   3.918   1.300
 1398SOL    HW121336   6.135   3.979   1.241
 1398SOL    HW221337   6.272   3.947   1.299
 1399SOL     OW21338   1.570   4.417   6.755
 1399SOL    HW121339   1.653   4.434   6.709
 1399SOL    HW221340   1.553   4.324   6.738
 1400SOL     OW21341   4.125   4.893   6.995
 1400SOL    HW121342   4.088   4.980   6.978
 1400SOL    HW221343   4.187   4.880   6.923
 1401SOL     OW21344   3.790   2.192   0.785
 1401SOL    HW121345   3.701   2.156   0.787
 1401SOL    HW221346   3.847   2.115   0.786
 1402SOL     OW21347   2.194   1.847   6.667
 1402SOL    HW121348   2.247   1.863   6.745
 1402SOL    HW221349   2.134   1.776   6.693
 1403SOL     OW21350   4.454   3.453   7.632
 1403SOL    HW121351   4.360   3.439   7.620
 1403SOL    HW221352   4.495   3.383   7.582
 1404SOL     OW21353   2.756   2.502   5.495
 1404SOL    HW121354   2.732   2.563   5.564
 1404SOL    HW221355   2.691   2.432   5.501
 1405SOL     OW21356   1.380   0.875   5.645
 1405SOL    HW121357   1.307   0.908   5.697
 1405SOL    HW221358   1.345   0.864   5.557
 1406SOL     OW21359   4.051   0.390   1.369
 1406SOL    HW121360   4.089   0.469   1.332
 1406SOL    HW221361   4.127   0.337   1.395
 1407SOL     OW21362   3.711   3.899   0.404
 1407SOL    HW121363   3.690   3.894   0.497
 1407SOL    HW221364   3.631   3.872   0.360
 1408SOL     OW21365   0.274   4.997   6.370
 1408SOL    HW121366   0.187   4.977   6.335
 1408SOL    HW221367   0.323   4.915   6.361
 1409SOL     OW21368   5.650   5.778   5.748
 1409SOL    HW121369   5.609   5.703   5.703
 1409SOL    HW221370   5.621   5.769   5.839
 1410SOL     OW21371   5.136   1.879   7.477
 1410SOL    HW121372   5.082   1.948   7.515
 1410SOL    HW221373   5.074   1.811   7.451
 1411SOL     OW21374   5.588   6.171   6.338
 1411SOL    HW121375   5.596   6.261   6.370
 1411SOL    HW221376   5.524   6.130   6.397
 1412SOL     OW21377   4.016   1.830   6.811
 1412SOL    HW121378   3.954   1.903   6.820
 1412SOL    HW221379   4.099   1.873   6.791
 1413SOL     OW21380   2.066   4.407   1.575
 1413SOL    HW121381   2.015   4.360   1.509
 1413SOL    HW221382   2.148   4.359   1.580
 1414SOL     OW21383   3.103   3.101   6.469
 1414SOL    HW121384   3.012   3.118   6.446
 1414SOL    HW221385   3.134   3.184   6.506
 1415SOL     OW21386   0.910   0.732   1.055
 1415SOL    HW121387   0.896   0.722   1.150
 1415SOL    HW221388   0.837   0.787   1.026
 1416SOL     OW21389   2.679   4.812   0.339
 1416SOL    HW121390   2.707   4.766   0.260
 1416SOL    HW221391   2.603   4.762   0.370
 1417SOL     OW21392   5.506   2.403   0.640
 1417SOL    HW121393   5.472   2.410   0.728
 1417SOL    HW221394   5.470   2.478   0.593
 1418SOL     OW21395   1.765   4.147   0.661
 1418SOL    HW121396   1.704   4.221   0.660
 1418SOL    HW221397   1.708   4.070   0.661
 1419SOL     OW21398   6.282   5.935   2.034
 1419SOL    HW121399   6.306   5.845   2.053
 1419SOL    HW221400   6.359   5.972   1.990
 1420SOL     OW21401   3.116   5.440   6.092
 1420SOL    HW121402   3.098   5.499   6.166
 1420SOL    HW221403   3.034   5.437   6.043
 1421SOL     OW21404   2.680   5.630   7.743
 1421SOL    HW121405   2.666   5.540   7.772
 1421SOL    HW221406   2.694   5.680   0.021
 1422SOL     OW21407   6.025   1.797   6.816
 1422SOL    HW121408   6.075   1.809   6.735
 1422SOL    HW221409   5.936   1.823   6.793
 1423SOL     OW21410   2.390   0.826   7.732
 1423SOL    HW121411   2.452   0.898   7.718
 1423SOL    HW221412   2.407   0.765   7.660
 1424SOL     OW21413   4.663   3.138   1.188
 1424SOL    HW121414   4.727   3.203   1.217
 1424SOL    HW221415   4.681   3.125   1.095
 1425SOL     OW21416   6.135   4.265   0.475
 1425SOL    HW121417   6.103   4.322   0.545
 1425SOL    HW221418   6.229   4.281   0.473
 1426SOL     OW21419   4.276   4.010   1.289
 1426SOL    HW121420   4.274   4.057   1.205
 1426SOL    HW221421   4.205   4.050   1.340
 1427SOL     OW21422   2.541   2.873   6.687
 1427SOL    HW121423   2.463   2.907   6.730
 1427SOL    HW221424   2.600   2.948   6.683
 1428SOL     OW21425   5.563   1.248   7.570
 1428SOL    HW121426   5.559   1.263   7.665
 1428SOL    HW221427   5.478   1.276   7.538
 1429SOL     OW21428   0.116   4.326   0.055
 1429SOL    HW121429   0.075   4.259   0.111
 1429SOL    HW221430   0.169   4.378   0.116
 1430SOL     OW21431   3.592   2.723   1.242
 1430SOL    HW121432   3.628   2.786   1.305
 1430SOL    HW221433   3.661   2.658   1.231
 1431SOL     OW21434   5.789   2.612   0.621
 1431SOL    HW121435   5.779   2.547   0.689
 1431SOL    HW221436   5.884   2.620   0.609
 1432SOL     OW21437   2.992   3.474   5.998
 1432SOL    HW121438   2.954   3.562   5.994
 1432SOL    HW221439   2.917   3.415   5.993
 1433SOL     OW21440   0.276   0.106   0.451
 1433SOL    HW121441   0.333   0.083   0.377
 1433SOL    HW221442   0.194   0.060   0.433
 1434SOL     OW21443   5.257   0.376   5.953
 1434SOL    HW121444   5.307   0.329   5.886
 1434SOL    HW221445   5.175   0.399   5.910
 1435SOL     OW21446   1.684   3.969   1.305
 1435SOL    HW121447   1.775   3.940   1.315
 1435SOL    HW221448   1.658   3.998   1.392
 1436SOL     OW21449   5.090   1.657   0.866
 1436SOL    HW121450   5.005   1.677   0.906
 1436SOL    HW221451   5.127   1.589   0.922
 1437SOL     OW21452   6.239   3.008   7.653
 1437SOL    HW121453   6.218   2.986   7.562
 1437SOL    HW221454   6.254   2.923   7.695
 1438SOL     OW21455   0.266   4.703   6.799
 1438SOL    HW121456   0.259   4.677   6.707
 1438SOL    HW221457   0.225   4.631   6.847
 1439SOL     OW21458   4.474   0.726   0.294
 1439SOL    HW121459   4.495   0.741   0.386
 1439SOL    HW221460   4.557   0.736   0.247
 1440SOL     OW21461   0.018   5.323   1.882
 1440SOL    HW121462   6.384   5.348   1.925
 1440SOL    HW221463   0.083   5.384   1.916
 1441SOL     OW21464   2.305   2.739   1.150
 1441SOL    HW121465   2.288   2.738   1.244
 1441SOL    HW221466   2.289   2.649   1.122
 1442SOL     OW21467   3.497   3.143   6.603
 1442SOL    HW121468   3.429   3.082   6.631
 1442SOL    HW221469   3.485   3.220   6.659
 1443SOL     OW21470   3.881   1.594   7.599
 1443SOL    HW121471   3.864   1.588   7.693
 1443SOL    HW221472   3.862   1.507   7.565
 1444SOL     OW21473   2.455   0.781   0.510
 1444SOL    HW121474   2.497   0.773   0.424
 1444SOL    HW221475   2.438   0.875   0.520
 1445SOL     OW21476   3.431   5.085   0.166
 1445SOL    HW121477   3.391   5.168   0.192
 1445SOL    HW221478   3.498   5.110   0.101
 1446SOL     OW21479   4.919   0.692   6.438
 1446SOL    HW121480   4.853   0.711   6.371
 1446SOL    HW221481   4.947   0.778   6.469
 1447SOL     OW21482   1.850   0.154   1.242
 1447SOL    HW121483   1.886   0.076   1.201
 1447SOL    HW221484   1.848   0.219   1.172
 1448SOL     OW21485   0.794   5.413   0.687
 1448SOL    HW121486   0.839   5.482   0.638
 1448SOL    HW221487   0.828   5.332   0.649
 1449SOL     OW21488   3.864   5.681   1.760
 1449SOL    HW121489   3.902   5.638   1.836
 1449SOL    HW221490   3.771   5.691   1.782
 1450SOL     OW21491   4.932   2.635   0.830
 1450SOL    HW121492   4.913   2.561   0.888
 1450SOL    HW221493   4.897   2.711   0.877
 1451SOL     OW21494   0.646   1.637   2.277
 1451SOL    HW121495   0.706   1.563   2.289
 1451SOL    HW221496   0.560   1.596   2.271
 1452SOL     OW21497   6.179   2.880   6.061
 1452SOL    HW121498   6.123   2.852   6.134
 1452SOL    HW221499   6.118   2.892   5.988
 1453SOL     OW21500   2.748   2.154   0.444
 1453SOL    HW121501   2.731   2.198   0.527
 1453SOL    HW221502   2.678   2.184   0.386
 1454SOL     OW21503   4.931   1.895   5.484
 1454SOL    HW121504   5.015   1.883   5.441
 1454SOL    HW221505   4.881   1.950   5.423
 1455SOL     OW21506   0.849   1.933   6.343
 1455SOL    HW121507   0.922   1.875   6.320
 1455SOL    HW221508   0.776   1.873   6.358
 1456SOL     OW21509   1.138   4.181   0.609
 1456SOL    HW121510   1.090   4.100   0.627
 1456SOL    HW221511   1.230   4.158   0.624
 1457SOL     OW21512   4.388   2.441   7.629
 1457SOL    HW121513   4.416   2.357   7.593
 1457SOL    HW221514   4.469   2.491   7.638
 1458SOL     OW21515   5.431   0.869   5.578
 1458SOL    HW121516   5.455   0.790   5.625
 1458SOL    HW221517   5.361   0.908   5.630
 1459SOL     OW21518   5.554   0.426   7.080
 1459SOL    HW121519   5.536   0.333   7.095
 1459SOL    HW221520   5.629   0.426   7.020
 1460SOL     OW21521   3.372   2.460   0.248
 1460SOL    HW121522   3.446   2.437   0.192
 1460SOL    HW221523   3.362   2.555   0.237
 1461SOL     OW21524   5.331   5.177   1.361
 1461SOL    HW121525   5.337   5.268   1.391
 1461SOL    HW221526   5.403   5.168   1.298
 1462SOL     OW21527   4.766   2.284   7.701
 1462SOL    HW121528   4.846   2.260   7.748
 1462SOL    HW221529   4.795   2.347   7.635
 1463SOL     OW21530   4.815   6.336   6.688
 1463SOL    HW121531   4.857   6.420   6.668
 1463SOL    HW221532   4.850   6.311   6.773
 1464SOL     OW21533   4.845   2.253   5.863
 1464SOL    HW121534   4.834   2.287   5.774
 1464SOL    HW221535   4.759   2.266   5.904
 1465SOL     OW21536   1.510   3.720   6.190
 1465SOL    HW121537   1.446   3.786   6.163
 1465SOL    HW221538   1.540   3.681   6.108
 1466SOL     OW21539   0.280   2.734   6.284
 1466SOL    HW121540   0.346   2.797   6.310
 1466SOL    HW221541   0.281   2.667   6.353
 1467SOL     OW21542   4.041   5.326   7.469
 1467SOL    HW121543   4.022   5.332   7.563
 1467SOL    HW221544   4.077   5.238   7.458
 1468SOL     OW21545   0.413   5.887   1.505
 1468SOL    HW121546   0.463   5.926   1.434
 1468SOL    HW221547   0.478   5.847   1.563
 1469SOL     OW21548   1.998   6.322   0.710
 1469SOL    HW121549   1.993   6.250   0.773
 1469SOL    HW221550   2.000   6.401   0.764
 1470SOL     OW21551   4.692   4.971   1.412
 1470SOL    HW121552   4.780   4.931   1.414
 1470SOL    HW221553   4.650   4.939   1.492
 1471SOL     OW21554   5.753   2.287   0.211
 1471SOL    HW121555   5.707   2.368   0.234
 1471SOL    HW221556   5.781   2.251   0.295
 1472SOL     OW21557   2.786   4.444   6.477
 1472SOL    HW121558   2.750   4.425   6.563
 1472SOL    HW221559   2.721   4.503   6.437
 1473SOL     OW21560   1.053   0.565   0.611
 1473SOL    HW121561   0.995   0.491   0.625
 1473SOL    HW221562   1.076   0.560   0.518
 1474SOL     OW21563   5.753   4.832   7.283
 1474SOL    HW121564   5.688   4.764   7.302
 1474SOL    HW221565   5.795   4.804   7.202
 1475SOL     OW21566   6.315   0.882   0.789
 1475SOL    HW121567   6.329   0.797   0.831
 1475SOL    HW221568   6.390   0.934   0.816
 1476SOL     OW21569   1.253   4.949   0.768
 1476SOL    HW121570   1.292   4.930   0.853
 1476SOL    HW221571   1.321   4.926   0.705
 1477SOL     OW21572   5.782   0.614   1.686
 1477SOL    HW121573   5.725   0.561   1.742
 1477SOL    HW221574   5.830   0.670   1.747
 1478SOL     OW21575   2.598   2.620   7.202
 1478SOL    HW121576   2.515   2.602   7.157
 1478SOL    HW221577   2.583   2.592   7.292
 1479SOL     OW21578   4.473   1.937   1.796
 1479SOL    HW121579   4.466   1.863   1.856
 1479SOL    HW221580   4.389   1.981   1.803
 1480SOL     OW21581   1.104   3.601   6.809
 1480SOL    HW121582   1.121   3.507   6.810
 1480SOL    HW221583   1.133   3.632   6.895
 1481SOL     OW21584   5.455   1.278   6.108
 1481SOL    HW121585   5.456   1.190   6.070
 1481SOL    HW221586   5.469   1.336   6.033
 1482SOL     OW21587   2.455   3.833   6.993
 1482SOL    HW121588   2.528   3.813   7.051
 1482SOL    HW221589   2.382   3.854   7.052
 1483SOL     OW21590   1.172   2.908   6.815
 1483SOL    HW121591   1.212   2.915   6.729
 1483SOL    HW221592   1.213   2.830   6.854
 1484SOL     OW21593   5.011   3.088   7.659
 1484SOL    HW121594   4.992   3.071   7.567
 1484SOL    HW221595   5.033   3.003   7.696
 1485SOL     OW21596   0.870   1.014   5.272
 1485SOL    HW121597   0.872   1.110   5.279
 1485SOL    HW221598   0.943   0.985   5.327
 1486SOL     OW21599   1.748   4.990   6.280
 1486SOL    HW121600   1.753   5.082   6.258
 1486SOL    HW221601   1.761   4.987   6.375
 1487SOL     OW21602   5.925   6.132   0.272
 1487SOL    HW121603   5.926   6.118   0.366
 1487SOL    HW221604   5.955   6.049   0.235
 1488SOL     OW21605   0.798   1.200   1.489
 1488SOL    HW121606   0.767   1.144   1.561
 1488SOL    HW221607   0.822   1.283   1.531
 1489SOL     OW21608   0.458   0.945   1.720
 1489SOL    HW121609   0.538   0.998   1.720
 1489SOL    HW221610   0.488   0.857   1.743
 1490SOL     OW21611   4.468   2.975   0.826
 1490SOL    HW121612   4.409   2.996   0.898
 1490SOL    HW221613   4.549   3.022   0.846
 1491SOL     OW21614   3.819   1.998   6.389
 1491SOL    HW121615   3.895   2.014   6.445
 1491SOL    HW221616   3.828   1.907   6.361
 1492SOL     OW21617   0.389   0.366   7.023
 1492SOL    HW121618   0.341   0.391   7.102
 1492SOL    HW221619   0.463   0.427   7.020
 1493SOL     OW21620   6.429   3.334   7.333
 1493SOL    HW121621   0.033   3.259   7.361
 1493SOL    HW221622   6.372   3.354   7.407
 1494SOL     OW21623   0.011   2.407   1.748
 1494SOL    HW121624   0.007   2.365   1.834
 1494SOL    HW221625   0.062   2.346   1.694
 1495SOL     OW21626   3.591   0.780   6.606
 1495SOL    HW121627   3.570   0.756   6.516
 1495SOL    HW221628   3.508   0.807   6.644
 1496SOL     OW21629   2.893   3.732   5.979
 1496SOL    HW121630   2.816   3.715   6.034
 1496SOL    HW221631   2.904   3.827   5.984
 1497SOL     OW21632   0.439   0.605   5.846
 1497SOL    HW121633   0.353   0.608   5.888
 1497SOL    HW221634   0.495   0.563   5.911
 1498SOL     OW21635   6.025   1.594   2.054
 1498SOL    HW121636   6.043   1.577   1.962
 1498SOL    HW221637   6.090   1.659   2.080
 1499SOL     OW21638   3.674   5.488   2.424
 1499SOL    HW121639   3.644   5.494   2.514
 1499SOL    HW221640   3.769   5.499   2.429
 1500SOL     OW21641   0.913   4.409   2.072
 1500SOL    HW121642   0.913   4.381   1.981
 1500SOL    HW221643   0.823   4.392   2.102
 1501SOL     OW21644   6.102   3.342   5.519
 1501SOL    HW121645   6.092   3.253   5.552
 1501SOL    HW221646   6.152   3.332   5.439
 1502SOL     OW21647   1.812   6.285   6.412
 1502SOL    HW121648   1.805   6.336   6.332
 1502SOL    HW221649   1.749   6.213   6.400
 1503SOL     OW21650   1.740   4.300   1.509
 1503SOL    HW121651   1.682   4.224   1.518
 1503SOL    HW221652   1.816   4.267   1.462
 1504SOL     OW21653   2.148   1.086   7.397
 1504SOL    HW121654   2.146   1.133   7.481
 1504SOL    HW221655   2.108   1.147   7.335
 1505SOL     OW21656   4.942   0.075   0.826
 1505SOL    HW121657   4.985   0.151   0.787
 1505SOL    HW221658   5.014   0.017   0.852
 1506SOL     OW21659   4.556   6.157   1.483
 1506SOL    HW121660   4.640   6.190   1.515
 1506SOL    HW221661   4.556   6.064   1.506
 1507SOL     OW21662   2.760   0.705   7.524
 1507SOL    HW121663   2.838   0.674   7.478
 1507SOL    HW221664   2.748   0.795   7.493
 1508SOL     OW21665   4.203   3.641   5.539
 1508SOL    HW121666   4.282   3.590   5.524
 1508SOL    HW221667   4.132   3.582   5.515
 1509SOL     OW21668   5.580   5.919   2.231
 1509SOL    HW121669   5.578   6.005   2.273
 1509SOL    HW221670   5.672   5.907   2.206
 1510SOL     OW21671   1.360   5.492   0.975
 1510SOL    HW121672   1.315   5.574   0.993
 1510SOL    HW221673   1.292   5.425   0.985
 1511SOL     OW21674   1.499   2.051   1.178
 1511SOL    HW121675   1.463   2.140   1.181
 1511SOL    HW221676   1.422   1.994   1.186
 1512SOL     OW21677   5.587   2.645   7.402
 1512SOL    HW121678   5.667   2.599   7.429
 1512SOL    HW221679   5.609   2.738   7.413
 1513SOL     OW21680   4.956   2.411   1.479
 1513SOL    HW121681   4.993   2.331   1.440
 1513SOL    HW221682   5.032   2.459   1.511
 1514SOL     OW21683   2.811   2.738   0.122
 1514SOL    HW121684   2.853   2.706   0.042
 1514SOL    HW221685   2.728   2.691   0.127
 1515SOL     OW21686   3.245   2.905   7.210
 1515SOL    HW121687   3.296   2.852   7.149
 1515SOL    HW221688   3.154   2.883   7.190
 1516SOL     OW21689   3.458   6.416   7.067
 1516SOL    HW121690   3.488   6.328   7.045
 1516SOL    HW221691   3.367   6.405   7.093
 1517SOL     OW21692   0.441   4.134   2.359
 1517SOL    HW121693   0.446   4.206   2.297
 1517SOL    HW221694   0.347   4.113   2.365
 1518SOL     OW21695   0.169   4.077   2.349
 1518SOL    HW121696   0.147   3.987   2.373
 1518SOL    HW221697   0.102   4.130   2.391
 1519SOL     OW21698   0.007   3.827   1.510
 1519SOL    HW121699   0.096   3.847   1.536
 1519SOL    HW221700   6.442   3.875   1.428
 1520SOL     OW21701   3.101   1.913   5.993
 1520SOL    HW121702   3.070   1.845   6.053
 1520SOL    HW221703   3.023   1.938   5.942
 1521SOL     OW21704   4.932   4.264   1.008
 1521SOL    HW121705   4.887   4.318   1.072
 1521SOL    HW221706   4.863   4.232   0.950
 1522SOL     OW21707   4.024   5.859   1.229
 1522SOL    HW121708   4.071   5.883   1.309
 1522SOL    HW221709   4.010   5.941   1.183
 1523SOL     OW21710   6.422   1.489   5.789
 1523SOL    HW121711   0.025   1.443   5.856
 1523SOL    HW221712   6.397   1.421   5.726
 1524SOL     OW21713   6.249   0.006   0.152
 1524SOL    HW121714   6.155   6.446   0.166
 1524SOL    HW221715   6.286   6.376   0.193
 1525SOL     OW21716   4.820   2.847   6.455
 1525SOL    HW121717   4.891   2.902   6.421
 1525SOL    HW221718   4.856   2.759   6.453
 1526SOL     OW21719   4.563   1.186   2.170
 1526SOL    HW121720   4.605   1.270   2.190
 1526SOL    HW221721   4.516   1.202   2.088
 1527SOL     OW21722   1.945   3.208   1.097
 1527SOL    HW121723   1.970   3.180   1.185
 1527SOL    HW221724   1.888   3.284   1.111
 1528SOL     OW21725   2.216   1.305   0.397
 1528SOL    HW121726   2.233   1.232   0.338
 1528SOL    HW221727   2.206   1.381   0.339
 1529SOL     OW21728   0.228   1.743   1.383
 1529SOL    HW121729   0.226   1.741   1.478
 1529SOL    HW221730   0.321   1.752   1.361
 1530SOL     OW21731   2.316   5.996   0.541
 1530SOL    HW121732   2.288   6.088   0.534
 1530SOL    HW221733   2.308   5.962   0.452
 1531SOL     OW21734   2.835   3.621   5.738
 1531SOL    HW121735   2.924   3.616   5.702
 1531SOL    HW221736   2.846   3.661   5.824
 1532SOL     OW21737   6.299   0.018   7.683
 1532SOL    HW121738   6.296   0.004   7.778
 1532SOL    HW221739   6.391   0.008   7.660
 1533SOL     OW21740   2.547   4.303   0.181
 1533SOL    HW121741   2.458   4.272   0.166
 1533SOL    HW221742   2.558   4.376   0.120
 1534SOL     OW21743   3.984   6.284   1.373
 1534SOL    HW121744   3.942   6.359   1.415
 1534SOL    HW221745   3.970   6.211   1.434
 1535SOL     OW21746   5.610   3.662   7.106
 1535SOL    HW121747   5.558   3.736   7.076
 1535SOL    HW221748   5.567   3.635   7.188
 1536SOL     OW21749   0.770   3.639   0.097
 1536SOL    HW121750   0.829   3.612   0.167
 1536SOL    HW221751   0.808   3.720   0.063
 1537SOL     OW21752   0.196   5.889   6.183
 1537SOL    HW121753   0.230   5.885   6.093
 1537SOL    HW221754   0.253   5.830   6.233
 1538SOL     OW21755   2.622   3.889   0.054
 1538SOL    HW121756   2.682   3.816   0.069
 1538SOL    HW221757   2.673   3.967   0.077
 1539SOL     OW21758   5.813   0.765   5.575
 1539SOL    HW121759   5.839   0.856   5.587
 1539SOL    HW221760   5.856   0.718   5.646
 1540SOL     OW21761   0.334   2.546   1.373
 1540SOL    HW121762   0.287   2.562   1.455
 1540SOL    HW221763   0.385   2.466   1.390
 1541SOL     OW21764   6.182   1.852   7.714
 1541SOL    HW121765   6.189   1.761   7.742
 1541SOL    HW221766   6.270   1.888   7.723
 1542SOL     OW21767   4.128   1.453   6.818
 1542SOL    HW121768   4.157   1.527   6.764
 1542SOL    HW221769   4.129   1.378   6.758
 1543SOL     OW21770   5.653   0.135   5.906
 1543SOL    HW121771   5.697   0.092   5.832
 1543SOL    HW221772   5.694   0.098   5.984
 1544SOL     OW21773   2.375   2.206   7.721
 1544SOL    HW121774   2.387   2.289   7.769
 1544SOL    HW221775   2.335   2.147   7.785
 1545SOL     OW21776   5.292   4.118   7.759
 1545SOL    HW121777   5.353   4.152   7.694
 1545SOL    HW221778   5.275   4.028   7.732
 1546SOL     OW21779   2.450   2.960   0.843
 1546SOL    HW121780   2.509   3.023   0.802
 1546SOL    HW221781   2.366   2.976   0.800
 1547SOL     OW21782   3.009   2.120   7.278
 1547SOL    HW121783   3.005   2.055   7.348
 1547SOL    HW221784   2.947   2.187   7.304
 1548SOL     OW21785   4.765   3.871   0.511
 1548SOL    HW121786   4.733   3.781   0.502
 1548SOL    HW221787   4.686   3.925   0.510
 1549SOL     OW21788   5.928   3.151   1.527
 1549SOL    HW121789   5.936   3.209   1.602
 1549SOL    HW221790   5.855   3.187   1.476
 1550SOL     OW21791   5.928   6.081   6.556
 1550SOL    HW121792   5.898   6.054   6.469
 1550SOL    HW221793   5.849   6.084   6.609
 1551SOL     OW21794   3.129   4.988   1.111
 1551SOL    HW121795   3.166   4.917   1.162
 1551SOL    HW221796   3.067   4.945   1.051
 1552SOL     OW21797   3.344   5.972   1.801
 1552SOL    HW121798   3.324   5.989   1.893
 1552SOL    HW221799   3.261   5.983   1.755
 1553SOL     OW21800   5.645   4.411   6.879
 1553SOL    HW121801   5.663   4.431   6.971
 1553SOL    HW221802   5.645   4.497   6.836
 1554SOL     OW21803   2.529   0.466   7.212
 1554SOL    HW121804   2.529   0.562   7.209
 1554SOL    HW221805   2.448   0.440   7.169
 1555SOL     OW21806   5.994   3.828   6.586
 1555SOL    HW121807   6.026   3.909   6.547
 1555SOL    HW221808   5.903   3.846   6.609
 1556SOL     OW21809   2.230   0.534   6.834
 1556SOL    HW121810   2.147   0.577   6.856
 1556SOL    HW221811   2.289   0.605   6.811
 1557SOL     OW21812   1.111   0.324   6.758
 1557SOL    HW121813   1.046   0.265   6.796
 1557SOL    HW221814   1.094   0.409   6.800
 1558SOL     OW21815   1.879   2.173   5.993
 1558SOL    HW121816   1.916   2.099   5.945
 1558SOL    HW221817   1.932   2.179   6.073
 1559SOL     OW21818   4.925   0.815   7.390
 1559SOL    HW121819   4.875   0.896   7.373
 1559SOL    HW221820   4.868   0.765   7.449
 1560SOL     OW21821   2.453   4.085   0.612
 1560SOL    HW121822   2.516   4.060   0.545
 1560SOL    HW221823   2.412   4.002   0.638
 1561SOL     OW21824   3.189   6.111   1.097
 1561SOL    HW121825   3.150   6.182   1.047
 1561SOL    HW221826   3.156   6.031   1.055
 1562SOL     OW21827   5.641   2.232   7.376
 1562SOL    HW121828   5.601   2.287   7.309
 1562SOL    HW221829   5.690   2.166   7.327
 1563SOL     OW21830   2.436   5.207   0.710
 1563SOL    HW121831   2.418   5.153   0.787
 1563SOL    HW221832   2.524   5.182   0.683
 1564SOL     OW21833   4.584   4.848   6.787
 1564SOL    HW121834   4.672   4.883   6.776
 1564SOL    HW221835   4.588   4.760   6.750
 1565SOL     OW21836   2.292   4.503   7.697
 1565SOL    HW121837   2.256   4.415   7.708
 1565SOL    HW221838   2.277   4.524   7.605
 1566SOL     OW21839   3.716   1.925   7.309
 1566SOL    HW121840   3.663   1.846   7.316
 1566SOL    HW221841   3.695   1.975   7.388
 1567SOL     OW21842   2.866   1.408   6.458
 1567SOL    HW121843   2.946   1.430   6.410
 1567SOL    HW221844   2.820   1.346   6.403
 1568SOL     OW21845   5.613   2.315   7.778
 1568SOL    HW121846   5.629   2.238   7.723
 1568SOL    HW221847   5.647   2.291   0.061
 1569SOL     OW21848   2.107   4.520   6.418
 1569SOL    HW121849   2.146   4.512   6.331
 1569SOL    HW221850   2.105   4.430   6.451
 1570SOL     OW21851   0.031   2.497   1.157
 1570SOL    HW121852   0.088   2.428   1.190
 1570SOL    HW221853   0.089   2.572   1.145
 1571SOL     OW21854   0.011   3.403   1.367
 1571SOL    HW121855   0.049   3.339   1.308
 1571SOL    HW221856   6.367   3.378   1.374
 1572SOL     OW21857   0.383   1.167   7.069
 1572SOL    HW121858   0.343   1.080   7.064
 1572SOL    HW221859   0.313   1.227   7.043
 1573SOL     OW21860   5.480   1.559   6.928
 1573SOL    HW121861   5.520   1.635   6.885
 1573SOL    HW221862   5.513   1.484   6.879
 1574SOL     OW21863   0.372   1.077   7.486
 1574SOL    HW121864   0.306   1.054   7.420
 1574SOL    HW221865   0.342   1.036   7.567
 1575SOL     OW21866   6.057   3.044   0.725
 1575SOL    HW121867   6.017   3.097   0.656
 1575SOL    HW221868   5.983   3.000   0.767
 1576SOL     OW21869   2.118   0.534   5.898
 1576SOL    HW121870   2.092   0.571   5.813
 1576SOL    HW221871   2.209   0.562   5.910
 1577SOL     OW21872   6.186   3.156   7.213
 1577SOL    HW121873   6.150   3.220   7.274
 1577SOL    HW221874   6.251   3.205   7.162
 1578SOL     OW21875   0.047   0.364   6.435
 1578SOL    HW121876   0.051   0.444   6.487
 1578SOL    HW221877   6.442   0.304   6.489
 1579SOL     OW21878   5.131   0.540   0.098
 1579SOL    HW121879   5.165   0.494   0.174
 1579SOL    HW221880   5.209   0.574   0.054
 1580SOL     OW21881   3.282   2.837   5.235
 1580SOL    HW121882   3.215   2.904   5.247
 1580SOL    HW221883   3.361   2.877   5.270
 1581SOL     OW21884   4.863   3.786   6.615
 1581SOL    HW121885   4.923   3.717   6.586
 1581SOL    HW221886   4.887   3.801   6.707
 1582SOL     OW21887   4.975   4.157   0.686
 1582SOL    HW121888   4.903   4.147   0.748
 1582SOL    HW221889   5.054   4.147   0.739
 1583SOL     OW21890   0.240   3.825   0.769
 1583SOL    HW121891   0.199   3.831   0.855
 1583SOL    HW221892   0.258   3.915   0.744
 1584SOL     OW21893   3.750   1.513   1.508
 1584SOL    HW121894   3.700   1.431   1.503
 1584SOL    HW221895   3.790   1.522   1.421
 1585SOL     OW21896   5.996   3.784   0.637
 1585SOL    HW121897   5.953   3.766   0.721
 1585SOL    HW221898   5.992   3.879   0.628
 1586SOL     OW21899   0.324   4.088   0.728
 1586SOL    HW121900   0.351   4.144   0.801
 1586SOL    HW221901   0.406   4.055   0.691
 1587SOL     OW21902   5.344   1.965   7.320
 1587SOL    HW121903   5.268   1.926   7.364
 1587SOL    HW221904   5.362   2.044   7.371
 1588SOL     OW21905   5.889   2.316   1.714
 1588SOL    HW121906   5.806   2.349   1.748
 1588SOL    HW221907   5.955   2.367   1.760
 1589SOL     OW21908   1.326   4.605   6.235
 1589SOL    HW121909   1.419   4.627   6.235
 1589SOL    HW221910   1.305   4.592   6.142
 1590SOL     OW21911   5.611   2.347   6.014
 1590SOL    HW121912   5.517   2.361   6.004
 1590SOL    HW221913   5.630   2.269   5.962
 1591SOL     OW21914   3.161   5.163   5.346
 1591SOL    HW121915   3.103   5.150   5.421
 1591SOL    HW221916   3.191   5.075   5.323
 1592SOL     OW21917   1.255   3.109   5.916
 1592SOL    HW121918   1.329   3.169   5.903
 1592SOL    HW221919   1.178   3.166   5.919
 1593SOL     OW21920   1.448   1.387   0.931
 1593SOL    HW121921   1.387   1.368   1.002
 1593SOL    HW221922   1.437   1.314   0.870
 1594SOL     OW21923   2.625   3.962   0.438
 1594SOL    HW121924   2.638   3.870   0.415
 1594SOL    HW221925   2.711   3.992   0.467
 1595SOL     OW21926   1.250   5.576   7.180
 1595SOL    HW121927   1.184   5.577   7.111
 1595SOL    HW221928   1.333   5.575   7.134
 1596SOL     OW21929   2.191   2.414   7.195
 1596SOL    HW121930   2.239   2.473   7.137
 1596SOL    HW221931   2.224   2.434   7.282
 1597SOL     OW21932   0.311   2.553   6.494
 1597SOL    HW121933   0.356   2.522   6.573
 1597SOL    HW221934   0.232   2.499   6.488
 1598SOL     OW21935   0.284   4.125   1.389
 1598SOL    HW121936   0.279   4.037   1.427
 1598SOL    HW221937   0.205   4.169   1.420
 1599SOL     OW21938   4.852   3.753   1.152
 1599SOL    HW121939   4.760   3.775   1.144
 1599SOL    HW221940   4.857   3.659   1.131
 1600SOL     OW21941   2.910   4.215   6.368
 1600SOL    HW121942   2.998   4.212   6.403
 1600SOL    HW221943   2.870   4.292   6.409
 1601SOL     OW21944   0.330   5.571   7.419
 1601SOL    HW121945   0.394   5.629   7.376
 1601SOL    HW221946   0.303   5.510   7.350
 1602SOL     OW21947   5.784   4.335   0.114
 1602SOL    HW121948   5.864   4.305   0.157
 1602SOL    HW221949   5.805   4.333   0.020
 1603SOL     OW21950   2.100   2.095   6.163
 1603SOL    HW121951   2.130   2.184   6.178
 1603SOL    HW221952   2.166   2.056   6.105
 1604SOL     OW21953   6.247   2.979   5.279
 1604SOL    HW121954   6.247   2.920   5.355
 1604SOL    HW221955   6.192   2.934   5.214
 1605SOL     OW21956   3.447   4.851   7.393
 1605SOL    HW121957   3.370   4.859   7.450
 1605SOL    HW221958   3.522   4.862   7.452
 1606SOL     OW21959   1.752   5.017   0.218
 1606SOL    HW121960   1.808   4.947   0.254
 1606SOL    HW221961   1.768   5.013   0.123
 1607SOL     OW21962   3.865   1.207   1.387
 1607SOL    HW121963   3.792   1.223   1.446
 1607SOL    HW221964   3.902   1.123   1.417
 1608SOL     OW21965   0.712   3.512   0.609
 1608SOL    HW121966   0.656   3.518   0.532
 1608SOL    HW221967   0.697   3.594   0.656
 1609SOL     OW21968   2.834   2.567   1.610
 1609SOL    HW121969   2.762   2.556   1.672
 1609SOL    HW221970   2.913   2.561   1.664
 1610SOL     OW21971   1.766   6.419   5.398
 1610SOL    HW121972   1.681   0.001   5.365
 1610SOL    HW221973   1.789   6.346   5.341
 1611SOL     OW21974   0.162   1.344   7.021
 1611SOL    HW121975   0.108   1.413   6.981
 1611SOL    HW221976   0.105   1.267   7.022
 1612SOL     OW21977   0.915   5.238   1.841
 1612SOL    HW121978   0.935   5.324   1.805
 1612SOL    HW221979   0.820   5.237   1.853
 1613SOL     OW21980   3.538   6.042   5.650
 1613SOL    HW121981   3.514   6.124   5.693
 1613SOL    HW221982   3.459   6.017   5.601
 1614SOL     OW21983   1.237   1.842   7.487
 1614SOL    HW121984   1.147   1.817   7.505
 1614SOL    HW221985   1.282   1.759   7.471
 1615SOL     OW21986   2.379   0.101   6.033
 1615SOL    HW121987   2.445   0.110   6.102
 1615SOL    HW221988   2.408   0.027   5.980
 1616SOL     OW21989   2.346   6.163   7.636
 1616SOL    HW121990   2.291   6.169   7.558
 1616SOL    HW221991   2.389   6.249   7.642
 1617SOL     OW21992   5.034   6.282   1.696
 1617SOL    HW121993   4.955   6.265   1.644
 1617SOL    HW221994   5.067   6.365   1.662
 1618SOL     OW21995   3.860   3.596   1.317
 1618SOL    HW121996   3.770   3.573   1.296
 1618SOL    HW221997   3.857   3.625   1.408
 1619SOL     OW21998   5.511   3.979   6.241
 1619SOL    HW121999   5.544   4.056   6.194
 1619SOL    HW222000   5.448   3.939   6.181
 1620SOL     OW22001   2.250   5.687   0.765
 1620SOL    HW122002   2.288   5.699   0.852
 1620SOL    HW222003   2.287   5.605   0.733
 1621SOL     OW22004   2.158   2.300   0.570
 1621SOL    HW122005   2.169   2.219   0.619
 1621SOL    HW222006   2.067   2.297   0.539
 1622SOL     OW22007   1.113   5.489   1.982
 1622SOL    HW122008   1.032   5.467   2.027
 1622SOL    HW222009   1.182   5.452   2.038
 1623SOL     OW22010   5.167   1.462   1.047
 1623SOL    HW122011   5.132   1.523   1.111
 1623SOL    HW222012   5.089   1.420   1.009
 1624SOL     OW22013   5.571   3.403   0.540
 1624SOL    HW122014   5.646   3.383   0.596
 1624SOL    HW222015   5.561   3.498   0.547
 1625SOL     OW22016   2.577   1.821   1.654
 1625SOL    HW122017   2.523   1.900   1.642
 1625SOL    HW222018   2.530   1.753   1.605
 1626SOL     OW22019   1.484   1.627   1.640
 1626SOL    HW122020   1.395   1.663   1.644
 1626SOL    HW222021   1.522   1.648   1.725
 1627SOL     OW22022   2.876   2.260   5.891
 1627SOL    HW122023   2.967   2.281   5.871
 1627SOL    HW222024   2.870   2.165   5.876
 1628SOL     OW22025   3.217   0.559   7.737
 1628SOL    HW122026   3.269   0.484   7.765
 1628SOL    HW222027   3.132   0.522   7.714
 1629SOL     OW22028   1.151   4.055   7.251
 1629SOL    HW122029   1.223   4.097   7.204
 1629SOL    HW222030   1.160   4.085   7.341
 1630SOL     OW22031   2.265   2.955   0.034
 1630SOL    HW122032   2.264   2.967   0.129
 1630SOL    HW222033   2.349   2.913   0.016
 1631SOL     OW22034   5.047   3.318   0.937
 1631SOL    HW122035   5.126   3.371   0.947
 1631SOL    HW222036   5.064   3.262   0.862
 1632SOL     OW22037   5.054   5.302   7.172
 1632SOL    HW122038   4.967   5.337   7.153
 1632SOL    HW222039   5.067   5.234   7.106
 1633SOL     OW22040   4.203   4.212   0.796
 1633SOL    HW122041   4.207   4.272   0.722
 1633SOL    HW222042   4.246   4.132   0.766
 1634SOL     OW22043   2.674   3.678   6.130
 1634SOL    HW122044   2.637   3.590   6.132
 1634SOL    HW222045   2.694   3.698   6.222
 1635SOL     OW22046   3.638   2.259   1.090
 1635SOL    HW122047   3.733   2.246   1.092
 1635SOL    HW222048   3.617   2.292   1.177
 1636SOL     OW22049   5.396   6.252   0.577
 1636SOL    HW122050   5.314   6.206   0.561
 1636SOL    HW222051   5.445   6.197   0.637
 1637SOL     OW22052   0.024   1.266   1.701
 1637SOL    HW122053   0.067   1.323   1.765
 1637SOL    HW222054   0.013   1.183   1.746
 1638SOL     OW22055   1.362   1.440   6.274
 1638SOL    HW122056   1.279   1.401   6.302
 1638SOL    HW222057   1.371   1.413   6.183
 1639SOL     OW22058   4.420   1.276   6.543
 1639SOL    HW122059   4.483   1.347   6.531
 1639SOL    HW222060   4.446   1.210   6.479
 1640SOL     OW22061   0.504   5.120   0.349
 1640SOL    HW122062   0.436   5.076   0.400
 1640SOL    HW222063   0.581   5.064   0.358
 1641SOL     OW22064   4.267   2.945   5.770
 1641SOL    HW122065   4.202   2.890   5.813
 1641SOL    HW222066   4.231   3.033   5.774
 1642SOL     OW22067   2.054   6.411   5.366
 1642SOL    HW122068   2.054   6.332   5.420
 1642SOL    HW222069   1.962   6.436   5.360
 1643SOL     OW22070   6.411   6.040   6.544
 1643SOL    HW122071   6.414   5.946   6.529
 1643SOL    HW222072   6.439   6.078   6.461
 1644SOL     OW22073   4.662   4.616   6.651
 1644SOL    HW122074   4.638   4.524   6.642
 1644SOL    HW222075   4.751   4.615   6.685
 1645SOL     OW22076   4.515   6.366   2.040
 1645SOL    HW122077   4.587   6.329   2.091
 1645SOL    HW222078   4.464   6.417   2.104
 1646SOL     OW22079   2.089   3.342   6.906
 1646SOL    HW122080   2.056   3.364   6.993
 1646SOL    HW222081   2.184   3.349   6.914
 1647SOL     OW22082   2.637   4.973   6.425
 1647SOL    HW122083   2.623   5.042   6.360
 1647SOL    HW222084   2.713   4.925   6.393
 1648SOL     OW22085   5.468   3.899   6.503
 1648SOL    HW122086   5.481   3.930   6.413
 1648SOL    HW222087   5.401   3.957   6.539
 1649SOL     OW22088   0.446   4.358   0.445
 1649SOL    HW122089   0.534   4.328   0.421
 1649SOL    HW222090   0.460   4.415   0.521
 1650SOL     OW22091   6.427   5.043   7.772
 1650SOL    HW122092   0.068   5.010   7.762
 1650SOL    HW222093   6.375   4.965   7.795
 1651SOL     OW22094   4.736   1.336   1.598
 1651SOL    HW122095   4.707   1.362   1.685
 1651SOL    HW222096   4.668   1.278   1.565
 1652SOL     OW22097   2.019   0.549   1.977
 1652SOL    HW122098   2.094   0.605   1.999
 1652SOL    HW222099   2.053   0.491   1.908
 1653SOL     OW22100   4.210   1.670   5.588
 1653SOL    HW122101   4.187   1.725   5.513
 1653SOL    HW222102   4.301   1.691   5.607
 1654SOL     OW22103   5.249   4.676   0.227
 1654SOL    HW122104   5.323   4.641   0.177
 1654SOL    HW222105   5.290   4.711   0.307
 1655SOL     OW22106   5.972   5.848   1.802
 1655SOL    HW122107   5.993   5.785   1.870
 1655SOL    HW222108   5.895   5.894   1.835
 1656SOL     OW22109   3.718   5.383   5.326
 1656SOL    HW122110   3.657   5.353   5.259
 1656SOL    HW222111   3.774   5.307   5.343
 1657SOL     OW22112   1.134   4.506   6.719
 1657SOL    HW122113   1.093   4.544   6.641
 1657SOL    HW222114   1.221   4.546   6.722
 1658SOL     OW22115   6.433   2.048   5.591
 1658SOL    HW122116   0.011   1.970   5.541
 1658SOL    HW222117   0.049   2.053   5.662
 1659SOL     OW22118   2.615   5.721   1.154
 1659SOL    HW122119   2.676   5.785   1.117
 1659SOL    HW222120   2.663   5.638   1.149
 1660SOL     OW22121   0.462   1.771   1.073
 1660SOL    HW122122   0.500   1.859   1.075
 1660SOL    HW222123   0.470   1.739   1.163
 1661SOL     OW22124   3.879   1.096   7.385
 1661SOL    HW122125   3.945   1.033   7.415
 1661SOL    HW222126   3.856   1.066   7.297
 1662SOL     OW22127   6.110   0.210   7.419
 1662SOL    HW122128   6.105   0.207   7.514
 1662SOL    HW222129   6.179   0.149   7.396
 1663SOL     OW22130   2.072   3.529   2.083
 1663SOL    HW122131   2.021   3.491   2.155
 1663SOL    HW222132   2.008   3.579   2.032
 1664SOL     OW22133   1.185   1.018   7.115
 1664SOL    HW122134   1.180   1.004   7.021
 1664SOL    HW222135   1.253   1.084   7.127
 1665SOL     OW22136   0.509   5.126   6.917
 1665SOL    HW122137   0.486   5.176   6.996
 1665SOL    HW222138   0.525   5.192   6.850
 1666SOL     OW22139   4.968   3.617   6.184
 1666SOL    HW122140   4.921   3.579   6.259
 1666SOL    HW222141   4.973   3.546   6.121
 1667SOL     OW22142   2.748   1.357   6.701
 1667SOL    HW122143   2.665   1.398   6.675
 1667SOL    HW222144   2.804   1.365   6.624
 1668SOL     OW22145   2.672   0.761   1.371
 1668SOL    HW122146   2.739   0.727   1.312
 1668SOL    HW222147   2.721   0.811   1.436
 1669SOL     OW22148   6.150   2.624   1.607
 1669SOL    HW122149   6.175   2.540   1.568
 1669SOL    HW222150   6.221   2.684   1.582
 1670SOL     OW22151   1.487   2.508   6.864
 1670SOL    HW122152   1.570   2.555   6.875
 1670SOL    HW222153   1.487   2.443   6.934
 1671SOL     OW22154   0.088   1.071   7.771
 1671SOL    HW122155   0.109   1.001   7.710
 1671SOL    HW222156   0.013   1.116   7.732
 1672SOL     OW22157   5.983   1.151   7.457
 1672SOL    HW122158   6.031   1.172   7.537
 1672SOL    HW222159   5.983   1.232   7.407
 1673SOL     OW22160   5.416   1.206   7.058
 1673SOL    HW122161   5.368   1.229   6.978
 1673SOL    HW222162   5.482   1.275   7.067
 1674SOL     OW22163   2.513   1.267   7.418
 1674SOL    HW122164   2.608   1.262   7.430
 1674SOL    HW222165   2.488   1.350   7.458
 1675SOL     OW22166   5.831   5.303   0.848
 1675SOL    HW122167   5.901   5.365   0.870
 1675SOL    HW222168   5.783   5.345   0.777
 1676SOL     OW22169   2.838   3.124   6.368
 1676SOL    HW122170   2.805   3.044   6.328
 1676SOL    HW222171   2.764   3.185   6.362
 1677SOL     OW22172   0.281   2.983   1.181
 1677SOL    HW122173   0.323   2.897   1.192
 1677SOL    HW222174   0.320   3.018   1.100
 1678SOL     OW22175   6.262   4.496   6.153
 1678SOL    HW122176   6.322   4.426   6.180
 1678SOL    HW222177   6.319   4.562   6.114
 1679SOL     OW22178   2.362   6.424   6.963
 1679SOL    HW122179   2.287   6.438   6.905
 1679SOL    HW222180   2.344   0.031   7.039
 1680SOL     OW22181   5.900   3.269   1.034
 1680SOL    HW122182   5.964   3.307   1.094
 1680SOL    HW222183   5.928   3.299   0.947
 1681SOL     OW22184   4.256   1.295   7.448
 1681SOL    HW122185   4.223   1.242   7.375
 1681SOL    HW222186   4.237   1.243   7.526
 1682SOL     OW22187   4.910   4.239   7.167
 1682SOL    HW122188   4.882   4.187   7.243
 1682SOL    HW222189   5.002   4.260   7.185
 1683SOL     OW22190   1.341   5.492   1.365
 1683SOL    HW122191   1.267   5.547   1.337
 1683SOL    HW222192   1.410   5.555   1.385
 1684SOL     OW22193   2.320   2.984   6.813
 1684SOL    HW122194   2.227   2.964   6.815
 1684SOL    HW222195   2.351   2.965   6.902
 1685SOL     OW22196   1.263   5.918   6.881
 1685SOL    HW122197   1.172   5.898   6.858
 1685SOL    HW222198   1.314   5.861   6.823
 1686SOL     OW22199   5.224   5.216   0.704
 1686SOL    HW122200   5.236   5.311   0.710
 1686SOL    HW222201   5.195   5.191   0.792
 1687SOL     OW22202   2.973   1.947   0.690
 1687SOL    HW122203   2.986   2.038   0.717
 1687SOL    HW222204   3.061   1.910   0.690
 1688SOL     OW22205   5.994   1.952   0.096
 1688SOL    HW122206   6.057   1.910   0.037
 1688SOL    HW222207   5.973   2.035   0.053
 1689SOL     OW22208   4.435   5.492   1.900
 1689SOL    HW122209   4.344   5.520   1.887
 1689SOL    HW222210   4.450   5.427   1.831
 1690SOL     OW22211   2.009   3.666   0.533
 1690SOL    HW122212   2.054   3.583   0.519
 1690SOL    HW222213   2.073   3.733   0.506
 1691SOL     OW22214   5.413   0.114   7.663
 1691SOL    HW122215   5.352   0.117   7.736
 1691SOL    HW222216   5.408   0.201   7.623
 1692SOL     OW22217   1.622   4.242   0.194
 1692SOL    HW122218   1.630   4.201   0.108
 1692SOL    HW222219   1.624   4.169   0.256
 1693SOL     OW22220   5.353   3.056   0.228
 1693SOL    HW122221   5.417   3.115   0.267
 1693SOL    HW222222   5.372   2.970   0.265
 1694SOL     OW22223   0.644   2.073   7.798
 1694SOL    HW122224   0.560   2.067   0.040
 1694SOL    HW222225   0.629   2.134   7.726
 1695SOL     OW22226   1.627   0.959   1.006
 1695SOL    HW122227   1.658   0.964   0.915
 1695SOL    HW222228   1.655   1.041   1.046
 1696SOL     OW22229   4.529   6.415   0.816
 1696SOL    HW122230   4.579   6.378   0.889
 1696SOL    HW222231   4.457   6.353   0.802
 1697SOL     OW22232   0.076   0.165   1.926
 1697SOL    HW122233   0.131   0.242   1.918
 1697SOL    HW222234   0.128   0.093   1.890
 1698SOL     OW22235   1.661   5.366   6.653
 1698SOL    HW122236   1.577   5.324   6.671
 1698SOL    HW222237   1.725   5.296   6.667
 1699SOL     OW22238   3.244   1.287   6.212
 1699SOL    HW122239   3.273   1.324   6.129
 1699SOL    HW222240   3.322   1.286   6.267
 1700SOL     OW22241   5.473   4.220   7.575
 1700SOL    HW122242   5.540   4.161   7.610
 1700SOL    HW222243   5.499   4.234   7.484
 1701SOL     OW22244   6.259   6.329   6.827
 1701SOL    HW122245   6.349   6.312   6.799
 1701SOL    HW222246   6.205   6.304   6.752
 1702SOL     OW22247   0.115   3.959   6.296
 1702SOL    HW122248   0.126   3.880   6.244
 1702SOL    HW222249   0.147   4.030   6.240
 1703SOL     OW22250   2.390   0.000   0.832
 1703SOL    HW122251   2.340   6.370   0.858
 1703SOL    HW222252   2.328   0.051   0.779
 1704SOL     OW22253   3.469   1.279   6.368
 1704SOL    HW122254   3.523   1.201   6.353
 1704SOL    HW222255   3.530   1.352   6.354
 1705SOL     OW22256   3.482   0.676   5.841
 1705SOL    HW122257   3.491   0.660   5.747
 1705SOL    HW222258   3.572   0.677   5.874
 1706SOL     OW22259   2.213   1.524   0.235
 1706SOL    HW122260   2.247   1.593   0.292
 1706SOL    HW222261   2.175   1.570   0.161
 1707SOL     OW22262   4.056   3.559   0.126
 1707SOL    HW122263   3.999   3.523   0.057
 1707SOL    HW222264   4.089   3.641   0.090
 1708SOL     OW22265   2.074   2.374   1.360
 1708SOL    HW122266   2.007   2.428   1.403
 1708SOL    HW222267   2.114   2.324   1.431
 1709SOL     OW22268   5.405   5.488   5.833
 1709SOL    HW122269   5.436   5.522   5.749
 1709SOL    HW222270   5.338   5.550   5.861
 1710SOL     OW22271   0.987   1.901   7.252
 1710SOL    HW122272   1.028   1.987   7.255
 1710SOL    HW222273   0.959   1.891   7.161
 1711SOL     OW22274   1.807   3.950   0.121
 1711SOL    HW122275   1.774   3.860   0.110
 1711SOL    HW222276   1.777   3.996   0.043
 1712SOL     OW22277   3.480   0.074   0.927
 1712SOL    HW122278   3.495   0.153   0.874
 1712SOL    HW222279   3.442   0.011   0.865
 1713SOL     OW22280   2.815   5.895   1.050
 1713SOL    HW122281   2.759   5.956   1.004
 1713SOL    HW222282   2.899   5.898   1.003
 1714SOL     OW22283   5.456   2.110   1.021
 1714SOL    HW122284   5.518   2.050   1.062
 1714SOL    HW222285   5.409   2.150   1.095
 1715SOL     OW22286   3.926   2.135   7.089
 1715SOL    HW122287   3.962   2.061   7.138
 1715SOL    HW222288   3.922   2.206   7.152
 1716SOL     OW22289   0.902   5.797   7.080
 1716SOL    HW122290   0.909   5.874   7.137
 1716SOL    HW222291   0.819   5.757   7.104
 1717SOL     OW22292   5.470   2.987   0.525
 1717SOL    HW122293   5.525   2.993   0.446
 1717SOL    HW222294   5.518   2.930   0.584
 1718SOL     OW22295   2.203   3.241   0.295
 1718SOL    HW122296   2.296   3.260   0.283
 1718SOL    HW222297   2.200   3.145   0.301
 1719SOL     OW22298   4.530   1.915   1.531
 1719SOL    HW122299   4.520   1.919   1.626
 1719SOL    HW222300   4.440   1.917   1.497
 1720SOL     OW22301   6.380   3.538   6.181
 1720SOL    HW122302   6.334   3.597   6.122
 1720SOL    HW222303   6.311   3.484   6.220
 1721SOL     OW22304   4.945   1.175   1.685
 1721SOL    HW122305   4.883   1.243   1.660
 1721SOL    HW222306   4.937   1.109   1.616
 1722SOL     OW22307   1.018   1.399   0.579
 1722SOL    HW122308   1.059   1.389   0.492
 1722SOL    HW222309   1.084   1.445   0.631
 1723SOL     OW22310   5.431   4.578   1.668
 1723SOL    HW122311   5.464   4.645   1.608
 1723SOL    HW222312   5.391   4.628   1.739
 1724SOL     OW22313   3.903   3.272   0.207
 1724SOL    HW122314   3.862   3.329   0.272
 1724SOL    HW222315   3.992   3.260   0.238
 1725SOL     OW22316   0.173   1.039   7.303
 1725SOL    HW122317   0.208   0.999   7.224
 1725SOL    HW222318   0.084   1.004   7.310
 1726SOL     OW22319   1.973   6.176   6.606
 1726SOL    HW122320   1.929   6.215   6.530
 1726SOL    HW222321   1.910   6.186   6.678
 1727SOL     OW22322   3.649   3.214   5.961
 1727SOL    HW122323   3.643   3.245   5.870
 1727SOL    HW222324   3.624   3.122   5.956
 1728SOL     OW22325   5.671   5.595   1.079
 1728SOL    HW122326   5.614   5.535   1.031
 1728SOL    HW222327   5.617   5.672   1.096
 1729SOL     OW22328   5.633   3.308   1.687
 1729SOL    HW122329   5.623   3.383   1.745
 1729SOL    HW222330   5.646   3.234   1.746
 1730SOL     OW22331   6.007   5.341   7.647
 1730SOL    HW122332   6.089   5.305   7.683
 1730SOL    HW222333   5.950   5.349   7.723
 1731SOL     OW22334   1.153   3.061   6.407
 1731SOL    HW122335   1.120   2.993   6.348
 1731SOL    HW222336   1.210   3.013   6.468
 1732SOL     OW22337   3.698   2.888   1.444
 1732SOL    HW122338   3.700   2.984   1.444
 1732SOL    HW222339   3.790   2.863   1.457
 1733SOL     OW22340   0.628   0.141   6.611
 1733SOL    HW122341   0.651   0.234   6.608
 1733SOL    HW222342   0.712   0.097   6.622
 1734SOL     OW22343   3.329   0.698   7.242
 1734SOL    HW122344   3.420   0.715   7.267
 1734SOL    HW222345   3.278   0.738   7.312
 1735SOL     OW22346   1.741   4.205   7.348
 1735SOL    HW122347   1.702   4.241   7.427
 1735SOL    HW222348   1.764   4.282   7.296
 1736SOL     OW22349   1.631   5.750   7.664
 1736SOL    HW122350   1.719   5.777   7.692
 1736SOL    HW222351   1.581   5.832   7.660
 1737SOL     OW22352   3.691   5.424   6.790
 1737SOL    HW122353   3.645   5.364   6.731
 1737SOL    HW222354   3.757   5.466   6.734
 1738SOL     OW22355   1.879   5.259   1.405
 1738SOL    HW122356   1.842   5.347   1.394
 1738SOL    HW222357   1.838   5.226   1.485
 1739SOL     OW22358   5.295   3.670   6.471
 1739SOL    HW122359   5.354   3.595   6.460
 1739SOL    HW222360   5.353   3.743   6.493
 1740SOL     OW22361   2.447   2.906   5.877
 1740SOL    HW122362   2.534   2.922   5.843
 1740SOL    HW222363   2.417   2.991   5.908
 1741SOL     OW22364   5.762   1.058   7.596
 1741SOL    HW122365   5.686   1.112   7.573
 1741SOL    HW222366   5.829   1.083   7.532
 1742SOL     OW22367   0.112   2.945   0.274
 1742SOL    HW122368   0.067   2.870   0.312
 1742SOL    HW222369   0.102   3.015   0.339
 1743SOL     OW22370   0.022   4.449   0.837
 1743SOL    HW122371   0.029   4.512   0.765
 1743SOL    HW222372   6.380   4.417   0.831
 1744SOL     OW22373   6.192   3.568   1.901
 1744SOL    HW122374   6.278   3.567   1.860
 1744SOL    HW222375   6.165   3.476   1.902
 1745SOL     OW22376   1.605   4.619   6.323
 1745SOL    HW122377   1.621   4.666   6.405
 1745SOL    HW222378   1.595   4.527   6.350
 1746SOL     OW22379   4.840   0.880   5.797
 1746SOL    HW122380   4.892   0.804   5.823
 1746SOL    HW222381   4.904   0.948   5.780
 1747SOL     OW22382   4.711   5.842   2.183
 1747SOL    HW122383   4.635   5.871   2.132
 1747SOL    HW222384   4.772   5.915   2.178
 1748SOL     OW22385   4.103   3.817   0.339
 1748SOL    HW122386   4.193   3.815   0.307
 1748SOL    HW222387   4.104   3.879   0.411
 1749SOL     OW22388   2.028   5.774   1.832
 1749SOL    HW122389   1.968   5.704   1.807
 1749SOL    HW222390   2.081   5.737   1.902
 1750SOL     OW22391   4.472   5.499   1.525
 1750SOL    HW122392   4.541   5.557   1.558
 1750SOL    HW222393   4.395   5.555   1.519
 1751SOL     OW22394   6.007   2.304   7.570
 1751SOL    HW122395   6.042   2.220   7.542
 1751SOL    HW222396   5.970   2.288   7.656
 1752SOL     OW22397   5.056   5.563   6.362
 1752SOL    HW122398   5.136   5.571   6.310
 1752SOL    HW222399   5.001   5.502   6.313
 1753SOL     OW22400   2.398   4.434   6.732
 1753SOL    HW122401   2.409   4.367   6.664
 1753SOL    HW222402   2.365   4.511   6.685
 1754SOL     OW22403   2.201   3.615   7.038
 1754SOL    HW122404   2.266   3.553   7.005
 1754SOL    HW222405   2.136   3.560   7.082
 1755SOL     OW22406   4.877   0.109   2.356
 1755SOL    HW122407   4.941   0.142   2.292
 1755SOL    HW222408   4.881   0.171   2.428
 1756SOL     OW22409   4.390   0.159   6.299
 1756SOL    HW122410   4.415   0.137   6.389
 1756SOL    HW222411   4.467   0.134   6.247
 1757SOL     OW22412   3.763   2.737   0.572
 1757SOL    HW122413   3.792   2.713   0.484
 1757SOL    HW222414   3.739   2.830   0.566
 1758SOL     OW22415   3.591   0.876   7.039
 1758SOL    HW122416   3.498   0.883   7.017
 1758SOL    HW222417   3.592   0.839   7.127
 1759SOL     OW22418   3.748   3.953   1.120
 1759SOL    HW122419   3.781   4.032   1.162
 1759SOL    HW222420   3.824   3.895   1.115
 1760SOL     OW22421   2.748   2.210   1.045
 1760SOL    HW122422   2.674   2.223   1.104
 1760SOL    HW222423   2.766   2.298   1.010
 1761SOL     OW22424   3.309   3.511   7.397
 1761SOL    HW122425   3.226   3.511   7.445
 1761SOL    HW222426   3.287   3.546   7.311
 1762SOL     OW22427   0.416   3.053   0.943
 1762SOL    HW122428   0.372   3.097   0.871
 1762SOL    HW222429   0.499   3.100   0.953
 1763SOL     OW22430   5.865   3.218   7.228
 1763SOL    HW122431   5.868   3.145   7.290
 1763SOL    HW222432   5.924   3.283   7.266
 1764SOL     OW22433   0.975   2.786   6.507
 1764SOL    HW122434   0.994   2.814   6.417
 1764SOL    HW222435   0.894   2.832   6.530
 1765SOL     OW22436   6.321   1.309   6.312
 1765SOL    HW122437   6.380   1.354   6.372
 1765SOL    HW222438   6.373   1.237   6.277
 1766SOL     OW22439   5.709   2.785   6.535
 1766SOL    HW122440   5.733   2.696   6.507
 1766SOL    HW222441   5.792   2.825   6.562
 1767SOL     OW22442   5.470   2.462   1.549
 1767SOL    HW122443   5.501   2.406   1.477
 1767SOL    HW222444   5.517   2.431   1.626
 1768SOL     OW22445   2.987   1.040   7.513
 1768SOL    HW122446   3.002   1.123   7.467
 1768SOL    HW222447   3.018   1.056   7.602
 1769SOL     OW22448   5.826   2.176   0.452
 1769SOL    HW122449   5.911   2.165   0.494
 1769SOL    HW222450   5.768   2.204   0.523
 1770SOL     OW22451   6.103   3.347   5.885
 1770SOL    HW122452   6.030   3.307   5.838
 1770SOL    HW222453   6.148   3.401   5.820
 1771SOL     OW22454   5.839   0.589   1.428
 1771SOL    HW122455   5.810   0.595   1.519
 1771SOL    HW222456   5.759   0.590   1.377
 1772SOL     OW22457   4.946   1.696   7.403
 1772SOL    HW122458   4.939   1.650   7.320
 1772SOL    HW222459   4.932   1.628   7.469
 1773SOL     OW22460   5.010   6.043   6.256
 1773SOL    HW122461   5.048   5.955   6.259
 1773SOL    HW222462   4.992   6.064   6.347
 1774SOL     OW22463   0.313   0.647   7.604
 1774SOL    HW122464   0.310   0.558   7.571
 1774SOL    HW222465   0.402   0.658   7.637
 1775SOL     OW22466   2.345   3.535   6.376
 1775SOL    HW122467   2.315   3.486   6.453
 1775SOL    HW222468   2.417   3.589   6.409
 1776SOL     OW22469   3.235   2.904   6.329
 1776SOL    HW122470   3.214   2.927   6.238
 1776SOL    HW222471   3.188   2.969   6.382
 1777SOL     OW22472   0.759   5.522   7.029
 1777SOL    HW122473   0.760   5.498   7.122
 1777SOL    HW222474   0.850   5.511   7.001
 1778SOL     OW22475   6.242   2.748   7.757
 1778SOL    HW122476   6.221   2.689   0.027
 1778SOL    HW222477   6.171   2.734   7.694
 1779SOL     OW22478   2.582   2.534   7.469
 1779SOL    HW122479   2.641   2.476   7.517
 1779SOL    HW222480   2.597   2.621   7.508
 1780SOL     OW22481   3.759   4.330   6.909
 1780SOL    HW122482   3.695   4.350   6.841
 1780SOL    HW222483   3.719   4.361   6.990
 1781SOL     OW22484   2.349   0.226   1.516
 1781SOL    HW122485   2.347   0.265   1.603
 1781SOL    HW222486   2.275   0.266   1.470
 1782SOL     OW22487   1.621   1.359   0.142
 1782SOL    HW122488   1.587   1.440   0.103
 1782SOL    HW222489   1.704   1.385   0.182
 1783SOL     OW22490   1.367   0.379   7.426
 1783SOL    HW122491   1.449   0.420   7.399
 1783SOL    HW222492   1.346   0.319   7.355
 1784SOL     OW22493   0.615   1.950   6.886
 1784SOL    HW122494   0.645   1.948   6.795
 1784SOL    HW222495   0.649   1.869   6.925
 1785SOL     OW22496   0.307   4.976   0.467
 1785SOL    HW122497   0.236   5.027   0.507
 1785SOL    HW222498   0.322   4.904   0.528
 1786SOL     OW22499   2.560   2.610   0.149
 1786SOL    HW122500   2.524   2.624   0.237
 1786SOL    HW222501   2.501   2.547   0.109
 1787SOL     OW22502   3.253   5.853   7.566
 1787SOL    HW122503   3.246   5.759   7.582
 1787SOL    HW222504   3.208   5.866   7.482
 1788SOL     OW22505   4.439   1.590   0.522
 1788SOL    HW122506   4.459   1.637   0.441
 1788SOL    HW222507   4.393   1.654   0.576
 1789SOL     OW22508   2.319   6.364   5.381
 1789SOL    HW122509   2.311   6.292   5.444
 1789SOL    HW222510   2.229   6.388   5.360
 1790SOL     OW22511   0.850   3.902   0.033
 1790SOL    HW122512   0.891   3.988   0.039
 1790SOL    HW222513   0.763   3.919   7.801
 1791SOL     OW22514   2.926   5.609   6.798
 1791SOL    HW122515   2.855   5.658   6.756
 1791SOL    HW222516   2.895   5.518   6.800
 1792SOL     OW22517   5.520   5.812   0.820
 1792SOL    HW122518   5.434   5.770   0.817
 1792SOL    HW222519   5.575   5.758   0.762
 1793SOL     OW22520   6.399   6.061   7.606
 1793SOL    HW122521   6.366   6.125   7.543
 1793SOL    HW222522   6.369   6.094   7.691
 1794SOL     OW22523   6.006   6.277   7.716
 1794SOL    HW122524   6.091   6.245   7.745
 1794SOL    HW222525   6.002   6.254   7.624
 1795SOL     OW22526   4.553   6.289   6.615
 1795SOL    HW122527   4.642   6.309   6.643
 1795SOL    HW222528   4.518   6.372   6.584
 1796SOL     OW22529   5.045   0.291   0.005
 1796SOL    HW122530   5.065   0.378   0.040
 1796SOL    HW222531   4.957   0.272   0.037
 1797SOL     OW22532   2.366   5.292   5.509
 1797SOL    HW122533   2.398   5.369   5.463
 1797SOL    HW222534   2.441   5.264   5.562
 1798SOL     OW22535   1.804   5.273   5.492
 1798SOL    HW122536   1.869   5.203   5.492
 1798SOL    HW222537   1.851   5.349   5.458
 1799SOL     OW22538   4.926   2.763   7.456
 1799SOL    HW122539   4.836   2.748   7.427
 1799SOL    HW222540   4.931   2.722   7.542
 1800SOL     OW22541   5.751   0.711   6.846
 1800SOL    HW122542   5.757   0.615   6.840
 1800SOL    HW222543   5.730   0.728   6.937
 1801SOL     OW22544   1.416   4.906   0.990
 1801SOL    HW122545   1.494   4.887   0.937
 1801SOL    HW222546   1.447   4.899   1.081
 1802SOL     OW22547   0.387   3.147   7.705
 1802SOL    HW122548   0.331   3.131   7.628
 1802SOL    HW222549   0.325   3.165   7.776
 1803SOL     OW22550   5.394   3.408   6.842
 1803SOL    HW122551   5.485   3.437   6.844
 1803SOL    HW222552   5.348   3.471   6.897
 1804SOL     OW22553   6.417   2.050   1.786
 1804SOL    HW122554   6.348   2.111   1.814
 1804SOL    HW222555   6.437   1.999   1.864
 1805SOL     OW22556   2.304   5.883   0.291
 1805SOL    HW122557   2.299   5.790   0.272
 1805SOL    HW222558   2.340   5.922   0.211
 1806SOL     OW22559   0.408   1.400   6.707
 1806SOL    HW122560   0.391   1.381   6.615
 1806SOL    HW222561   0.346   1.345   6.755
 1807SOL     OW22562   2.862   4.066   0.539
 1807SOL    HW122563   2.949   4.077   0.575
 1807SOL    HW222564   2.857   4.129   0.467
 1808SOL     OW22565   2.291   3.401   6.605
 1808SOL    HW122566   2.362   3.434   6.660
 1808SOL    HW222567   2.306   3.307   6.601
 1809SOL     OW22568   2.020   3.570   7.597
 1809SOL    HW122569   2.107   3.532   7.606
 1809SOL    HW222570   1.972   3.541   7.674
 1810SOL     OW22571   5.467   2.678   6.074
 1810SOL    HW122572   5.553   2.690   6.035
 1810SOL    HW222573   5.427   2.766   6.071
 1811SOL     OW22574   0.681   3.184   1.233
 1811SOL    HW122575   0.728   3.100   1.229
 1811SOL    HW222576   0.625   3.176   1.310
 1812SOL     OW22577   1.553   2.390   1.773
 1812SOL    HW122578   1.618   2.370   1.840
 1812SOL    HW222579   1.562   2.321   1.708
 1813SOL     OW22580   2.138   1.195   1.826
 1813SOL    HW122581   2.196   1.239   1.889
 1813SOL    HW222582   2.056   1.242   1.832
 1814SOL     OW22583   2.821   2.794   1.052
 1814SOL    HW122584   2.848   2.710   1.088
 1814SOL    HW222585   2.726   2.798   1.067
 1815SOL     OW22586   2.321   6.122   1.654
 1815SOL    HW122587   2.413   6.115   1.627
 1815SOL    HW222588   2.286   6.034   1.645
 1816SOL     OW22589   5.734   2.705   0.370
 1816SOL    HW122590   5.747   2.671   0.458
 1816SOL    HW222591   5.691   2.634   0.322
 1817SOL     OW22592   2.043   4.263   1.129
 1817SOL    HW122593   1.984   4.326   1.087
 1817SOL    HW222594   2.060   4.198   1.061
 1818SOL     OW22595   2.919   3.560   6.484
 1818SOL    HW122596   2.869   3.619   6.427
 1818SOL    HW222597   2.883   3.575   6.572
 1819SOL     OW22598   5.063   1.957   0.324
 1819SOL    HW122599   5.046   1.988   0.235
 1819SOL    HW222600   5.048   1.862   0.319
 1820SOL     OW22601   2.727   5.751   0.191
 1820SOL    HW122602   2.687   5.741   0.278
 1820SOL    HW222603   2.821   5.750   0.209
 1821SOL     OW22604   5.964   1.394   7.327
 1821SOL    HW122605   5.987   1.473   7.377
 1821SOL    HW222606   5.868   1.392   7.330
 1822SOL     OW22607   3.463   2.123   6.638
 1822SOL    HW122608   3.513   2.056   6.683
 1822SOL    HW222609   3.441   2.084   6.554
 1823SOL     OW22610   4.276   5.711   6.731
 1823SOL    HW122611   4.289   5.703   6.636
 1823SOL    HW222612   4.339   5.650   6.769
 1824SOL     OW22613   2.455   4.255   6.531
 1824SOL    HW122614   2.528   4.193   6.520
 1824SOL    HW222615   2.453   4.303   6.448
 1825SOL     OW22616   2.821   5.458   1.964
 1825SOL    HW122617   2.752   5.515   1.928
 1825SOL    HW222618   2.802   5.455   2.058
 1826SOL     OW22619   3.670   4.402   5.573
 1826SOL    HW122620   3.765   4.401   5.559
 1826SOL    HW222621   3.660   4.390   5.668
 1827SOL     OW22622   4.283   2.266   6.169
 1827SOL    HW122623   4.330   2.196   6.123
 1827SOL    HW222624   4.318   2.347   6.130
 1828SOL     OW22625   3.123   5.345   1.421
 1828SOL    HW122626   3.200   5.333   1.475
 1828SOL    HW222627   3.063   5.275   1.448
 1829SOL     OW22628   3.303   5.054   1.762
 1829SOL    HW122629   3.293   5.077   1.854
 1829SOL    HW222630   3.243   4.981   1.748
 1830SOL     OW22631   2.314   6.038   2.265
 1830SOL    HW122632   2.261   5.959   2.254
 1830SOL    HW222633   2.253   6.109   2.244
 1831SOL     OW22634   1.858   3.766   6.064
 1831SOL    HW122635   1.808   3.787   5.985
 1831SOL    HW222636   1.949   3.783   6.040
 1832SOL     OW22637   4.451   5.528   6.821
 1832SOL    HW122638   4.442   5.450   6.877
 1832SOL    HW222639   4.545   5.541   6.814
 1833SOL     OW22640   0.952   3.830   6.328
 1833SOL    HW122641   0.925   3.747   6.287
 1833SOL    HW222642   1.044   3.815   6.353
 1834SOL     OW22643   0.390   1.965   1.622
 1834SOL    HW122644   0.350   1.878   1.628
 1834SOL    HW222645   0.373   2.005   1.707
 1835SOL     OW22646   4.478   3.371   0.172
 1835SOL    HW122647   4.564   3.410   0.154
 1835SOL    HW222648   4.498   3.292   0.222
 1836SOL     OW22649   1.465   2.947   6.942
 1836SOL    HW122650   1.415   2.868   6.965
 1836SOL    HW222651   1.500   2.929   6.855
 1837SOL     OW22652   0.206   1.010   0.203
 1837SOL    HW122653   0.161   1.038   0.123
 1837SOL    HW222654   0.250   1.089   0.235
 1838SOL     OW22655   0.881   4.427   5.768
 1838SOL    HW122656   0.795   4.387   5.779
 1838SOL    HW222657   0.922   4.420   5.854
 1839SOL     OW22658   5.521   3.532   1.523
 1839SOL    HW122659   5.530   3.462   1.588
 1839SOL    HW222660   5.450   3.587   1.555
 1840SOL     OW22661   3.576   3.066   1.815
 1840SOL    HW122662   3.488   3.073   1.776
 1840SOL    HW222663   3.592   2.972   1.820
 1841SOL     OW22664   6.182   1.878   6.599
 1841SOL    HW122665   6.232   1.807   6.558
 1841SOL    HW222666   6.248   1.934   6.639
 1842SOL     OW22667   3.137   5.977   6.951
 1842SOL    HW122668   3.230   5.963   6.932
 1842SOL    HW222669   3.106   6.033   6.880
 1843SOL     OW22670   4.239   1.328   2.486
 1843SOL    HW122671   4.292   1.254   2.459
 1843SOL    HW222672   4.279   1.404   2.443
 1844SOL     OW22673   0.435   1.092   6.659
 1844SOL    HW122674   0.354   1.108   6.706
 1844SOL    HW222675   0.461   1.003   6.683
 1845SOL     OW22676   5.791   1.880   6.372
 1845SOL    HW122677   5.826   1.870   6.283
 1845SOL    HW222678   5.727   1.810   6.380
 1846SOL     OW22679   2.206   5.087   2.048
 1846SOL    HW122680   2.129   5.112   1.997
 1846SOL    HW222681   2.173   5.025   2.113
 1847SOL     OW22682   5.823   6.025   6.950
 1847SOL    HW122683   5.798   6.013   6.858
 1847SOL    HW222684   5.830   6.120   6.960
 1848SOL     OW22685   3.463   3.693   1.117
 1848SOL    HW122686   3.513   3.635   1.175
 1848SOL    HW222687   3.373   3.662   1.123
 1849SOL     OW22688   4.579   3.669   7.333
 1849SOL    HW122689   4.609   3.702   7.249
 1849SOL    HW222690   4.495   3.626   7.313
 1850SOL     OW22691   4.793   0.947   0.397
 1850SOL    HW122692   4.712   0.977   0.438
 1850SOL    HW222693   4.765   0.895   0.322
 1851SOL     OW22694   5.644   6.364   7.482
 1851SOL    HW122695   5.549   6.355   7.489
 1851SOL    HW222696   5.669   6.302   7.414
 1852SOL     OW22697   0.343   2.852   0.601
 1852SOL    HW122698   0.333   2.797   0.524
 1852SOL    HW222699   0.254   2.862   0.636
 1853SOL     OW22700   3.577   5.262   1.861
 1853SOL    HW122701   3.502   5.282   1.917
 1853SOL    HW222702   3.651   5.303   1.906
 1854SOL     OW22703   1.004   4.791   1.124
 1854SOL    HW122704   1.071   4.858   1.139
 1854SOL    HW222705   1.053   4.709   1.121
 1855SOL     OW22706   4.990   0.896   7.017
 1855SOL    HW122707   5.066   0.938   7.059
 1855SOL    HW222708   4.927   0.967   7.005
 1856SOL     OW22709   2.120   3.818   6.009
 1856SOL    HW122710   2.183   3.890   6.002
 1856SOL    HW222711   2.149   3.767   6.084
 1857SOL     OW22712   5.821   0.590   7.674
 1857SOL    HW122713   5.792   0.679   7.691
 1857SOL    HW222714   5.917   0.595   7.675
 1858SOL     OW22715   5.669   3.439   0.034
 1858SOL    HW122716   5.685   3.524   0.073
 1858SOL    HW222717   5.712   3.377   0.093
 1859SOL     OW22718   5.543   1.768   6.758
 1859SOL    HW122719   5.484   1.723   6.698
 1859SOL    HW222720   5.501   1.852   6.775
 1860SOL     OW22721   1.517   0.748   1.155
 1860SOL    HW122722   1.565   0.672   1.124
 1860SOL    HW222723   1.558   0.822   1.110
 1861SOL     OW22724   5.908   4.856   6.080
 1861SOL    HW122725   5.968   4.921   6.043
 1861SOL    HW222726   5.896   4.792   6.010
 1862SOL     OW22727   2.107   2.510   7.767
 1862SOL    HW122728   2.145   2.563   7.697
 1862SOL    HW222729   2.025   2.553   7.789
 1863SOL     OW22730   2.364   4.818   1.421
 1863SOL    HW122731   2.277   4.845   1.392
 1863SOL    HW222732   2.419   4.895   1.409
 1864SOL     OW22733   5.177   1.855   5.374
 1864SOL    HW122734   5.169   1.780   5.315
 1864SOL    HW222735   5.264   1.890   5.357
 1865SOL     OW22736   3.634   1.753   1.428
 1865SOL    HW122737   3.625   1.815   1.501
 1865SOL    HW222738   3.680   1.678   1.465
 1866SOL     OW22739   4.386   0.220   0.369
 1866SOL    HW122740   4.360   0.311   0.352
 1866SOL    HW222741   4.406   0.219   0.463
 1867SOL     OW22742   4.896   1.882   5.751
 1867SOL    HW122743   4.912   1.881   5.657
 1867SOL    HW222744   4.815   1.933   5.760
 1868SOL     OW22745   5.253   5.178   1.873
 1868SOL    HW122746   5.211   5.117   1.934
 1868SOL    HW222747   5.328   5.213   1.922
 1869SOL     OW22748   3.072   4.614   0.834
 1869SOL    HW122749   3.150   4.658   0.869
 1869SOL    HW222750   3.020   4.593   0.912
 1870SOL     OW22751   1.414   3.097   0.688
 1870SOL    HW122752   1.348   3.164   0.709
 1870SOL    HW222753   1.392   3.023   0.744
 1871SOL     OW22754   6.063   2.995   7.026
 1871SOL    HW122755   6.103   3.048   7.095
 1871SOL    HW222756   5.973   2.983   7.055
 1872SOL     OW22757   1.796   2.466   0.345
 1872SOL    HW122758   1.703   2.463   0.368
 1872SOL    HW222759   1.812   2.381   0.305
 1873SOL     OW22760   3.300   2.018   1.568
 1873SOL    HW122761   3.238   2.065   1.514
 1873SOL    HW222762   3.376   2.075   1.573
 1874SOL     OW22763   3.930   5.205   0.526
 1874SOL    HW122764   3.946   5.165   0.611
 1874SOL    HW222765   4.005   5.263   0.512
 1875SOL     OW22766   3.704   4.132   6.246
 1875SOL    HW122767   3.678   4.065   6.183
 1875SOL    HW222768   3.798   4.143   6.232
 1876SOL     OW22769   0.396   3.088   0.476
 1876SOL    HW122770   0.382   3.010   0.530
 1876SOL    HW222771   0.418   3.053   0.389
 1877SOL     OW22772   2.414   2.572   6.412
 1877SOL    HW122773   2.429   2.502   6.476
 1877SOL    HW222774   2.428   2.530   6.327
 1878SOL     OW22775   2.692   2.065   0.099
 1878SOL    HW122776   2.637   2.118   0.155
 1878SOL    HW222777   2.677   1.975   0.128
 1879SOL     OW22778   4.513   4.415   7.312
 1879SOL    HW122779   4.535   4.424   7.405
 1879SOL    HW222780   4.594   4.437   7.266
 1880SOL     OW22781   4.980   3.310   7.357
 1880SOL    HW122782   4.946   3.221   7.356
 1880SOL    HW222783   4.903   3.366   7.368
 1881SOL     OW22784   4.096   5.550   0.342
 1881SOL    HW122785   4.123   5.479   0.399
 1881SOL    HW222786   4.000   5.542   0.338
 1882SOL     OW22787   1.625   0.496   7.412
 1882SOL    HW122788   1.688   0.513   7.481
 1882SOL    HW222789   1.589   0.582   7.390
 1883SOL     OW22790   3.973   6.117   1.150
 1883SOL    HW122791   3.981   6.179   1.223
 1883SOL    HW222792   3.895   6.146   1.103
 1884SOL     OW22793   2.752   2.805   1.870
 1884SOL    HW122794   2.683   2.836   1.810
 1884SOL    HW222795   2.714   2.729   1.913
 1885SOL     OW22796   2.385   5.075   1.838
 1885SOL    HW122797   2.343   5.077   1.924
 1885SOL    HW222798   2.314   5.055   1.778
 1886SOL     OW22799   2.814   4.087   7.576
 1886SOL    HW122800   2.868   4.042   7.642
 1886SOL    HW222801   2.847   4.176   7.575
 1887SOL     OW22802   3.711   5.885   0.658
 1887SOL    HW122803   3.766   5.818   0.618
 1887SOL    HW222804   3.636   5.892   0.600
 1888SOL     OW22805   1.878   3.657   1.071
 1888SOL    HW122806   1.879   3.676   0.977
 1888SOL    HW222807   1.967   3.628   1.090
 1889SOL     OW22808   6.010   4.233   6.278
 1889SOL    HW122809   6.002   4.239   6.182
 1889SOL    HW222810   6.014   4.323   6.307
 1890SOL     OW22811   1.085   1.912   0.661
 1890SOL    HW122812   1.066   2.000   0.694
 1890SOL    HW222813   1.103   1.860   0.739
 1891SOL     OW22814   3.680   4.702   6.094
 1891SOL    HW122815   3.607   4.640   6.095
 1891SOL    HW222816   3.725   4.686   6.011
 1892SOL     OW22817   0.297   5.282   1.057
 1892SOL    HW122818   0.211   5.242   1.065
 1892SOL    HW222819   0.284   5.356   0.998
 1893SOL     OW22820   3.860   4.194   5.918
 1893SOL    HW122821   3.884   4.174   6.008
 1893SOL    HW222822   3.829   4.111   5.882
 1894SOL     OW22823   6.087   5.551   7.492
 1894SOL    HW122824   6.020   5.618   7.502
 1894SOL    HW222825   6.053   5.476   7.540
 1895SOL     OW22826   1.581   4.075   1.548
 1895SOL    HW122827   1.584   4.022   1.627
 1895SOL    HW222828   1.488   4.092   1.535
 1896SOL     OW22829   5.650   1.408   6.280
 1896SOL    HW122830   5.685   1.325   6.312
 1896SOL    HW222831   5.581   1.382   6.219
 1897SOL     OW22832   5.789   3.257   0.205
 1897SOL    HW122833   5.867   3.281   0.255
 1897SOL    HW222834   5.810   3.173   0.164
 1898SOL     OW22835   6.005   6.229   0.694
 1898SOL    HW122836   6.032   6.308   0.647
 1898SOL    HW222837   5.980   6.167   0.626
 1899SOL     OW22838   2.675   5.946   5.329
 1899SOL    HW122839   2.617   6.022   5.335
 1899SOL    HW222840   2.620   5.877   5.292
 1900SOL     OW22841   3.357   3.351   0.881
 1900SOL    HW122842   3.428   3.314   0.934
 1900SOL    HW222843   3.396   3.427   0.839
 1901SOL     OW22844   2.795   0.281   1.006
 1901SOL    HW122845   2.709   0.240   0.997
 1901SOL    HW222846   2.789   0.362   0.955
 1902SOL     OW22847   6.186   2.551   0.143
 1902SOL    HW122848   6.160   2.459   0.135
 1902SOL    HW222849   6.147   2.580   0.225
 1903SOL     OW22850   3.408   4.393   1.608
 1903SOL    HW122851   3.326   4.415   1.653
 1903SOL    HW222852   3.390   4.410   1.516
 1904SOL     OW22853   5.253   4.045   0.411
 1904SOL    HW122854   5.279   3.980   0.477
 1904SOL    HW222855   5.158   4.038   0.407
 1905SOL     OW22856   4.399   4.543   1.354
 1905SOL    HW122857   4.401   4.612   1.287
 1905SOL    HW222858   4.483   4.549   1.398
 1906SOL     OW22859   2.054   5.236   6.410
 1906SOL    HW122860   2.131   5.290   6.427
 1906SOL    HW222861   1.998   5.290   6.355
 1907SOL     OW22862   0.762   4.808   1.919
 1907SOL    HW122863   0.857   4.815   1.921
 1907SOL    HW222864   0.745   4.725   1.874
 1908SOL     OW22865   1.377   6.333   7.723
 1908SOL    HW122866   1.332   6.408   7.761
 1908SOL    HW222867   1.442   6.371   7.664
 1909SOL     OW22868   5.882   1.603   1.631
 1909SOL    HW122869   5.929   1.644   1.558
 1909SOL    HW222870   5.790   1.625   1.615
 1910SOL     OW22871   3.271   4.239   5.648
 1910SOL    HW122872   3.225   4.323   5.652
 1910SOL    HW222873   3.329   4.239   5.724
 1911SOL     OW22874   0.651   5.772   7.727
 1911SOL    HW122875   0.647   5.725   7.644
 1911SOL    HW222876   0.744   5.771   7.750
 1912SOL     OW22877   6.342   0.030   1.053
 1912SOL    HW122878   6.248   0.038   1.035
 1912SOL    HW222879   6.376   0.119   1.044
 1913SOL     OW22880   0.898   3.282   7.415
 1913SOL    HW122881   0.926   3.227   7.342
 1913SOL    HW222882   0.822   3.329   7.382
 1914SOL     OW22883   0.058   1.976   6.336
 1914SOL    HW122884   0.004   1.922   6.279
 1914SOL    HW222885   6.445   2.038   6.376
 1915SOL     OW22886   6.305   4.670   2.022
 1915SOL    HW122887   6.381   4.708   2.065
 1915SOL    HW222888   6.232   4.690   2.081
 1916SOL     OW22889   3.013   5.187   5.933
 1916SOL    HW122890   2.951   5.255   5.960
 1916SOL    HW222891   3.070   5.231   5.869
 1917SOL     OW22892   1.720   5.689   0.937
 1917SOL    HW122893   1.810   5.656   0.938
 1917SOL    HW222894   1.672   5.627   0.882
 1918SOL     OW22895   1.190   1.547   0.736
 1918SOL    HW122896   1.171   1.635   0.769
 1918SOL    HW222897   1.283   1.550   0.713
 1919SOL     OW22898   0.419   5.952   0.255
 1919SOL    HW122899   0.378   5.941   0.341
 1919SOL    HW222900   0.438   5.863   0.226
 1920SOL     OW22901   0.591   0.708   1.748
 1920SOL    HW122902   0.588   0.614   1.732
 1920SOL    HW222903   0.674   0.736   1.710
 1921SOL     OW22904   0.123   2.348   6.503
 1921SOL    HW122905   0.191   2.281   6.496
 1921SOL    HW222906   0.072   2.339   6.423
 1922SOL     OW22907   3.422   2.358   6.769
 1922SOL    HW122908   3.431   2.272   6.729
 1922SOL    HW222909   3.365   2.406   6.710
 1923SOL     OW22910   5.948   5.358   1.730
 1923SOL    HW122911   6.006   5.416   1.681
 1923SOL    HW222912   5.970   5.375   1.822
 1924SOL     OW22913   1.429   4.206   5.467
 1924SOL    HW122914   1.494   4.276   5.473
 1924SOL    HW222915   1.359   4.244   5.413
 1925SOL     OW22916   0.653   0.268   7.607
 1925SOL    HW122917   0.638   0.349   7.558
 1925SOL    HW222918   0.579   0.262   7.667
 1926SOL     OW22919   3.334   2.301   5.612
 1926SOL    HW122920   3.347   2.342   5.527
 1926SOL    HW222921   3.395   2.347   5.670
 1927SOL     OW22922   4.156   0.085   0.279
 1927SOL    HW122923   4.236   0.129   0.308
 1927SOL    HW222924   4.162   6.445   0.316
 1928SOL     OW22925   3.087   3.879   6.381
 1928SOL    HW122926   3.086   3.910   6.290
 1928SOL    HW222927   3.177   3.893   6.409
 1929SOL     OW22928   1.203   2.661   0.570
 1929SOL    HW122929   1.286   2.681   0.527
 1929SOL    HW222930   1.166   2.747   0.590
 1930SOL     OW22931   4.145   4.830   0.981
 1930SOL    HW122932   4.223   4.886   0.979
 1930SOL    HW222933   4.124   4.814   0.889
 1931SOL     OW22934   1.698   3.623   5.647
 1931SOL    HW122935   1.640   3.552   5.673
 1931SOL    HW222936   1.659   3.658   5.567
 1932SOL     OW22937   6.220   2.399   6.504
 1932SOL    HW122938   6.211   2.435   6.592
 1932SOL    HW222939   6.250   2.473   6.451
 1933SOL     OW22940   0.855   3.894   6.719
 1933SOL    HW122941   0.930   3.933   6.673
 1933SOL    HW222942   0.856   3.935   6.805
 1934SOL     OW22943   5.377   5.063   2.185
 1934SOL    HW122944   5.409   5.140   2.139
 1934SOL    HW222945   5.292   5.044   2.144
 1935SOL     OW22946   6.184   2.857   2.388
 1935SOL    HW122947   6.279   2.842   2.394
 1935SOL    HW222948   6.175   2.952   2.389
 1936SOL     OW22949   0.105   6.433   6.607
 1936SOL    HW122950   0.196   0.016   6.614
 1936SOL    HW222951   0.104   6.349   6.653
 1937SOL     OW22952   2.712   5.917   1.842
 1937SOL    HW122953   2.640   5.971   1.807
 1937SOL    HW222954   2.788   5.943   1.791
 1938SOL     OW22955   3.065   6.051   0.665
 1938SOL    HW122956   2.970   6.055   0.678
 1938SOL    HW222957   3.075   6.023   0.574
 1939SOL     OW22958   1.868   5.838   7.771
 1939SOL    HW122959   1.835   5.795   0.047
 1939SOL    HW222960   1.957   5.865   7.794
 1940SOL     OW22961   0.148   4.452   5.783
 1940SOL    HW122962   0.080   4.483   5.723
 1940SOL    HW222963   0.164   4.526   5.842
 1941SOL     OW22964   2.908   5.797   1.298
 1941SOL    HW122965   2.880   5.832   1.213
 1941SOL    HW222966   2.952   5.715   1.277
 1942SOL     OW22967   0.011   2.317   6.252
 1942SOL    HW122968   0.095   2.337   6.211
 1942SOL    HW222969   6.431   2.236   6.209
 1943SOL     OW22970   3.515   5.790   6.306
 1943SOL    HW122971   3.610   5.798   6.312
 1943SOL    HW222972   3.498   5.696   6.306
 1944SOL     OW22973   5.476   4.785   6.505
 1944SOL    HW122974   5.384   4.809   6.515
 1944SOL    HW222975   5.514   4.857   6.456
 1945SOL     OW22976   2.350   0.866   5.675
 1945SOL    HW122977   2.299   0.825   5.605
 1945SOL    HW222978   2.426   0.810   5.686
 1946SOL     OW22979   2.861   2.273   0.044
 1946SOL    HW122980   2.809   2.195   0.059
 1946SOL    HW222981   2.908   2.287   0.126
 1947SOL     OW22982   5.220   5.872   2.097
 1947SOL    HW122983   5.190   5.962   2.084
 1947SOL    HW222984   5.218   5.860   2.192
 1948SOL     OW22985   5.606   2.663   2.191
 1948SOL    HW122986   5.685   2.649   2.243
 1948SOL    HW222987   5.586   2.756   2.202
 1949SOL     OW22988   0.052   4.245   6.827
 1949SOL    HW122989   0.009   4.276   6.747
 1949SOL    HW222990   6.429   4.204   6.877
 1950SOL     OW22991   4.636   0.296   1.022
 1950SOL    HW122992   4.601   0.303   1.111
 1950SOL    HW222993   4.561   0.274   0.968
 1951SOL     OW22994   3.370   4.744   1.466
 1951SOL    HW122995   3.400   4.728   1.555
 1951SOL    HW222996   3.418   4.822   1.438
 1952SOL     OW22997   4.551   5.977   6.291
 1952SOL    HW122998   4.486   5.984   6.221
 1952SOL    HW222999   4.624   6.030   6.261
 1953SOL     OW23000   3.448   4.307   0.794
 1953SOL    HW123001   3.436   4.213   0.791
 1953SOL    HW223002   3.543   4.320   0.792
 1954SOL     OW23003   6.405   0.297   0.709
 1954SOL    HW123004   0.028   0.304   0.644
 1954SOL    HW223005   6.352   0.376   0.694
 1955SOL     OW23006   3.004   4.837   7.545
 1955SOL    HW123007   3.095   4.862   7.558
 1955SOL    HW223008   2.955   4.893   7.605
 1956SOL     OW23009   0.809   0.833   6.035
 1956SOL    HW123010   0.771   0.803   5.952
 1956SOL    HW223011   0.747   0.898   6.067
 1957SOL     OW23012   0.898   3.782   7.475
 1957SOL    HW123013   0.962   3.790   7.547
 1957SOL    HW223014   0.844   3.707   7.500
 1958SOL     OW23015   1.522   0.821   0.707
 1958SOL    HW123016   1.432   0.852   0.723
 1958SOL    HW223017   1.577   0.896   0.728
 1959SOL     OW23018   2.557   2.997   7.435
 1959SOL    HW123019   2.587   3.023   7.348
 1959SOL    HW223020   2.463   3.014   7.434
 1960SOL     OW23021   3.680   4.377   7.780
 1960SOL    HW123022   3.729   4.450   7.742
 1960SOL    HW223023   3.592   4.411   7.793
 1961SOL     OW23024   1.144   0.532   0.356
 1961SOL    HW123025   1.154   0.542   0.261
 1961SOL    HW223026   1.219   0.478   0.382
 1962SOL     OW23027   6.223   2.187   1.376
 1962SOL    HW123028   6.245   2.258   1.437
 1962SOL    HW223029   6.174   2.231   1.306
 1963SOL     OW23030   1.520   2.361   7.094
 1963SOL    HW123031   1.588   2.300   7.124
 1963SOL    HW223032   1.440   2.308   7.093
 1964SOL     OW23033   4.351   3.523   5.982
 1964SOL    HW123034   4.389   3.562   5.904
 1964SOL    HW223035   4.398   3.440   5.993
 1965SOL     OW23036   6.209   1.405   1.050
 1965SOL    HW123037   6.246   1.327   1.008
 1965SOL    HW223038   6.126   1.420   1.003
 1966SOL     OW23039   5.027   1.682   0.308
 1966SOL    HW123040   5.067   1.612   0.360
 1966SOL    HW223041   4.933   1.669   0.317
 1967SOL     OW23042   4.768   3.074   6.144
 1967SOL    HW123043   4.812   3.140   6.197
 1967SOL    HW223044   4.704   3.034   6.203
 1968SOL     OW23045   5.508   0.726   6.710
 1968SOL    HW123046   5.597   0.741   6.741
 1968SOL    HW223047   5.467   0.673   6.778
 1969SOL     OW23048   4.470   4.646   0.886
 1969SOL    HW123049   4.526   4.570   0.899
 1969SOL    HW223050   4.387   4.610   0.856
 1970SOL     OW23051   3.542   2.008   1.156
 1970SOL    HW123052   3.580   2.079   1.106
 1970SOL    HW223053   3.468   2.048   1.202
 1971SOL     OW23054   1.058   5.407   6.566
 1971SOL    HW123055   1.058   5.312   6.574
 1971SOL    HW223056   0.993   5.425   6.497
 1972SOL     OW23057   3.477   0.889   1.272
 1972SOL    HW123058   3.567   0.917   1.290
 1972SOL    HW223059   3.467   0.807   1.321
 1973SOL     OW23060   1.807   4.480   6.621
 1973SOL    HW123061   1.822   4.387   6.605
 1973SOL    HW223062   1.895   4.518   6.623
 1974SOL     OW23063   3.594   0.753   7.284
 1974SOL    HW123064   3.641   0.671   7.272
 1974SOL    HW223065   3.630   0.790   7.364
 1975SOL     OW23066   3.834   1.547   1.245
 1975SOL    HW123067   3.840   1.577   1.155
 1975SOL    HW223068   3.790   1.462   1.240
 1976SOL     OW23069   4.347   5.277   6.608
 1976SOL    HW123070   4.380   5.197   6.567
 1976SOL    HW223071   4.384   5.275   6.696
 1977SOL     OW23072   0.576   1.493   0.859
 1977SOL    HW123073   0.517   1.566   0.843
 1977SOL    HW223074   0.663   1.534   0.865
 1978SOL     OW23075   2.376   3.184   1.184
 1978SOL    HW123076   2.467   3.153   1.177
 1978SOL    HW223077   2.348   3.155   1.271
 1979SOL     OW23078   6.046   2.132   0.606
 1979SOL    HW123079   6.078   2.059   0.553
 1979SOL    HW223080   6.097   2.127   0.687
 1980SOL     OW23081   3.200   2.487   6.330
 1980SOL    HW123082   3.235   2.516   6.246
 1980SOL    HW223083   3.109   2.518   6.329
 1981SOL     OW23084   4.663   0.808   1.724
 1981SOL    HW123085   4.714   0.873   1.772
 1981SOL    HW223086   4.609   0.765   1.791
 1982SOL     OW23087   6.312   3.031   6.409
 1982SOL    HW123088   6.220   3.057   6.411
 1982SOL    HW223089   6.332   3.022   6.316
 1983SOL     OW23090   3.408   6.227   0.372
 1983SOL    HW123091   3.433   6.144   0.332
 1983SOL    HW223092   3.476   6.244   0.436
 1984SOL     OW23093   0.674   1.484   1.272
 1984SOL    HW123094   0.766   1.475   1.248
 1984SOL    HW223095   0.627   1.439   1.202
 1985SOL     OW23096   4.833   3.330   1.286
 1985SOL    HW123097   4.839   3.389   1.211
 1985SOL    HW223098   4.912   3.347   1.337
 1986SOL     OW23099   5.732   2.261   0.699
 1986SOL    HW123100   5.653   2.312   0.680
 1986SOL    HW223101   5.780   2.316   0.761
 1987SOL     OW23102   5.094   1.356   2.149
 1987SOL    HW123103   5.158   1.406   2.199
 1987SOL    HW223104   5.145   1.290   2.102
 1988SOL     OW23105   0.934   3.936   0.304
 1988SOL    HW123106   1.023   3.962   0.279
 1988SOL    HW223107   0.894   3.905   0.223
 1989SOL     OW23108   0.009   4.763   0.233
 1989SOL    HW123109   0.096   4.799   0.219
 1989SOL    HW223110   0.024   4.681   0.280
 1990SOL     OW23111   2.490   0.620   2.041
 1990SOL    HW123112   2.578   0.639   2.075
 1990SOL    HW223113   2.506   0.574   1.959
 1991SOL     OW23114   6.076   3.943   2.282
 1991SOL    HW123115   6.143   4.010   2.294
 1991SOL    HW223116   6.038   3.961   2.196
 1992SOL     OW23117   1.674   3.412   7.550
 1992SOL    HW123118   1.581   3.419   7.528
 1992SOL    HW223119   1.691   3.489   7.605
 1993SOL     OW23120   5.361   3.029   1.893
 1993SOL    HW123121   5.354   2.936   1.872
 1993SOL    HW223122   5.282   3.068   1.855
 1994SOL     OW23123   5.270   5.537   6.193
 1994SOL    HW123124   5.241   5.503   6.108
 1994SOL    HW223125   5.310   5.621   6.172
 1995SOL     OW23126   4.606   1.153   0.787
 1995SOL    HW123127   4.692   1.185   0.760
 1995SOL    HW223128   4.621   1.115   0.874
 1996SOL     OW23129   5.031   0.431   1.149
 1996SOL    HW123130   5.095   0.443   1.079
 1996SOL    HW223131   4.981   0.354   1.122
 1997SOL     OW23132   4.457   4.978   2.421
 1997SOL    HW123133   4.399   4.959   2.347
 1997SOL    HW223134   4.537   4.930   2.402
 1998SOL     OW23135   3.065   5.599   6.304
 1998SOL    HW123136   3.129   5.562   6.365
 1998SOL    HW223137   2.995   5.631   6.360
 1999SOL     OW23138   5.154   4.058   5.317
 1999SOL    HW123139   5.070   4.041   5.359
 1999SOL    HW223140   5.134   4.064   5.224
 2000SOL     OW23141   5.773   1.785   7.171
 2000SOL    HW123142   5.782   1.716   7.106
 2000SOL    HW223143   5.687   1.769   7.211
 2001SOL     OW23144   2.989   0.113   0.911
 2001SOL    HW123145   2.924   0.172   0.950
 2001SOL    HW223146   2.951   0.088   0.827
 2002SOL     OW23147   0.267   6.237   0.840
 2002SOL    HW123148   0.304   6.272   0.921
 2002SOL    HW223149   0.175   6.263   0.842
 2003SOL     OW23150   0.777   2.118   6.136
 2003SOL    HW123151   0.810   2.052   6.197
 2003SOL    HW223152   0.689   2.087   6.112
 2004SOL     OW23153   1.782   3.670   7.213
 2004SOL    HW123154   1.852   3.735   7.202
 2004SOL    HW223155   1.820   3.604   7.271
 2005SOL     OW23156   0.439   0.886   1.439
 2005SOL    HW123157   0.427   0.895   1.533
 2005SOL    HW223158   0.524   0.843   1.429
 2006SOL     OW23159   1.489   3.996   5.633
 2006SOL    HW123160   1.581   4.010   5.656
 2006SOL    HW223161   1.468   4.069   5.575
 2007SOL     OW23162   4.847   1.735   0.978
 2007SOL    HW123163   4.839   1.830   0.968
 2007SOL    HW223164   4.831   1.720   1.071
 2008SOL     OW23165   1.200   6.088   7.757
 2008SOL    HW123166   1.284   6.132   7.740
 2008SOL    HW223167   1.134   6.155   7.739
 2009SOL     OW23168   0.921   5.534   0.905
 2009SOL    HW123169   0.860   5.478   0.857
 2009SOL    HW223170   1.005   5.522   0.860
 2010SOL     OW23171   1.107   0.435   7.496
 2010SOL    HW123172   1.200   0.426   7.476
 2010SOL    HW223173   1.098   0.401   7.585
 2011SOL     OW23174   4.549   4.975   1.171
 2011SOL    HW123175   4.596   4.978   1.254
 2011SOL    HW223176   4.613   5.008   1.107
 2012SOL     OW23177   2.037   3.758   5.464
 2012SOL    HW123178   2.022   3.805   5.382
 2012SOL    HW223179   2.110   3.699   5.444
 2013SOL     OW23180   2.485   5.915   1.310
 2013SOL    HW123181   2.532   5.846   1.263
 2013SOL    HW223182   2.407   5.871   1.344
 2014SOL     OW23183   3.464   4.654   1.704
 2014SOL    HW123184   3.434   4.638   1.794
 2014SOL    HW223185   3.480   4.567   1.668
 2015SOL     OW23186   2.095   2.299   1.093
 2015SOL    HW123187   2.164   2.357   1.062
 2015SOL    HW223188   2.089   2.317   1.187
 2016SOL     OW23189   0.360   6.237   6.722
 2016SOL    HW123190   0.268   6.211   6.731
 2016SOL    HW223191   0.376   6.293   6.798
 2017SOL     OW23192   4.479   4.694   0.307
 2017SOL    HW123193   4.521   4.703   0.222
 2017SOL    HW223194   4.550   4.703   0.370
 2018SOL     OW23195   1.518   1.189   7.529
 2018SOL    HW123196   1.480   1.148   7.607
 2018SOL    HW223197   1.537   1.116   7.471
 2019SOL     OW23198   3.213   0.033   6.638
 2019SOL    HW123199   3.304   0.017   6.662
 2019SOL    HW223200   3.215   0.116   6.590
 2020SOL     OW23201   1.069   4.727   7.105
 2020SOL    HW123202   1.164   4.714   7.108
 2020SOL    HW223203   1.050   4.744   7.013
 2021SOL     OW23204   0.634   5.929   7.185
 2021SOL    HW123205   0.714   5.975   7.211
 2021SOL    HW223206   0.618   5.958   7.095
 2022SOL     OW23207   3.847   3.208   6.150
 2022SOL    HW123208   3.842   3.300   6.176
 2022SOL    HW223209   3.775   3.196   6.089
 2023SOL     OW23210   3.359   1.598   6.214
 2023SOL    HW123211   3.331   1.590   6.305
 2023SOL    HW223212   3.430   1.661   6.216
 2024SOL     OW23213   2.871   4.925   7.088
 2024SOL    HW123214   2.794   4.913   7.032
 2024SOL    HW223215   2.846   4.887   7.172
 2025SOL     OW23216   1.627   0.029   0.645
 2025SOL    HW123217   1.632   6.437   0.731
 2025SOL    HW223218   1.695   0.097   0.646
 2026SOL     OW23219   2.234   3.852   7.160
 2026SOL    HW123220   2.219   3.770   7.113
 2026SOL    HW223221   2.272   3.825   7.244
 2027SOL     OW23222   4.925   0.480   6.870
 2027SOL    HW123223   4.990   0.435   6.922
 2027SOL    HW223224   4.974   0.549   6.825
 2028SOL     OW23225   2.392   1.461   5.259
 2028SOL    HW123226   2.423   1.509   5.335
 2028SOL    HW223227   2.306   1.499   5.240
 2029SOL     OW23228   3.943   4.232   0.912
 2029SOL    HW123229   4.028   4.238   0.868
 2029SOL    HW223230   3.943   4.145   0.952
 2030SOL     OW23231   5.262   1.263   6.836
 2030SOL    HW123232   5.287   1.285   6.746
 2030SOL    HW223233   5.166   1.263   6.834
 2031SOL     OW23234   5.802   2.045   7.252
 2031SOL    HW123235   5.788   1.955   7.223
 2031SOL    HW223236   5.896   2.051   7.265
 2032SOL     OW23237   1.825   0.571   7.619
 2032SOL    HW123238   1.840   0.656   7.577
 2032SOL    HW223239   1.906   0.553   7.666
 2033SOL     OW23240   5.338   2.868   7.624
 2033SOL    HW123241   5.409   2.891   7.683
 2033SOL    HW223242   5.333   2.941   7.563
 2034SOL     OW23243   0.509   1.121   0.521
 2034SOL    HW123244   0.573   1.186   0.490
 2034SOL    HW223245   0.497   1.142   0.614
 2035SOL     OW23246   4.216   4.374   1.235
 2035SOL    HW123247   4.180   4.439   1.174
 2035SOL    HW223248   4.286   4.421   1.281
 2036SOL     OW23249   4.167   5.710   0.134
 2036SOL    HW123250   4.134   5.656   0.205
 2036SOL    HW223251   4.102   5.700   0.064
 2037SOL     OW23252   4.730   4.179   0.839
 2037SOL    HW123253   4.702   4.192   0.748
 2037SOL    HW223254   4.679   4.103   0.868
 2038SOL     OW23255   0.693   6.006   0.238
 2038SOL    HW123256   0.598   6.005   0.250
 2038SOL    HW223257   0.722   6.085   0.282
 2039SOL     OW23258   5.542   1.530   2.206
 2039SOL    HW123259   5.629   1.569   2.207
 2039SOL    HW223260   5.540   1.479   2.125
 2040SOL     OW23261   1.769   5.267   6.963
 2040SOL    HW123262   1.796   5.350   6.923
 2040SOL    HW223263   1.837   5.248   7.027
 2041SOL     OW23264   1.191   5.812   7.734
 2041SOL    HW123265   1.198   5.907   7.737
 2041SOL    HW223266   1.097   5.795   7.725
 2042SOL     OW23267   0.691   3.081   7.230
 2042SOL    HW123268   0.667   3.139   7.157
 2042SOL    HW223269   0.786   3.087   7.235
 2043SOL     OW23270   6.084   3.598   0.975
 2043SOL    HW123271   6.173   3.633   0.967
 2043SOL    HW223272   6.088   3.539   1.050
 2044SOL     OW23273   3.685   2.601   7.284
 2044SOL    HW123274   3.694   2.529   7.346
 2044SOL    HW223275   3.713   2.679   7.332
 2045SOL     OW23276   3.626   1.268   1.510
 2045SOL    HW123277   3.601   1.246   1.600
 2045SOL    HW223278   3.551   1.242   1.457
 2046SOL     OW23279   2.801   6.189   7.197
 2046SOL    HW123280   2.804   6.227   7.285
 2046SOL    HW223281   2.890   6.159   7.180
 2047SOL     OW23282   4.539   5.081   0.660
 2047SOL    HW123283   4.629   5.091   0.692
 2047SOL    HW223284   4.520   4.988   0.667
 2048SOL     OW23285   4.314   4.900   2.204
 2048SOL    HW123286   4.270   4.818   2.229
 2048SOL    HW223287   4.377   4.874   2.137
 2049SOL     OW23288   0.940   2.659   5.550
 2049SOL    HW123289   0.872   2.683   5.613
 2049SOL    HW223290   0.990   2.739   5.536
 2050SOL     OW23291   2.967   0.432   0.150
 2050SOL    HW123292   2.980   0.428   0.056
 2050SOL    HW223293   2.891   0.376   0.166
 2051SOL     OW23294   1.887   3.213   1.828
 2051SOL    HW123295   1.842   3.297   1.827
 2051SOL    HW223296   1.976   3.234   1.857
 2052SOL     OW23297   4.335   4.334   6.601
 2052SOL    HW123298   4.271   4.338   6.672
 2052SOL    HW223299   4.339   4.241   6.578
 2053SOL     OW23300   0.757   4.012   7.440
 2053SOL    HW123301   0.799   4.043   7.360
 2053SOL    HW223302   0.802   3.930   7.460
 2054SOL     OW23303   3.398   5.813   2.237
 2054SOL    HW123304   3.490   5.786   2.245
 2054SOL    HW223305   3.348   5.732   2.246
 2055SOL     OW23306   4.474   0.738   1.530
 2055SOL    HW123307   4.526   0.779   1.600
 2055SOL    HW223308   4.531   0.741   1.453
 2056SOL     OW23309   0.669   6.044   5.729
 2056SOL    HW123310   0.585   6.066   5.767
 2056SOL    HW223311   0.648   5.996   5.649
 2057SOL     OW23312   3.115   5.329   5.714
 2057SOL    HW123313   3.048   5.398   5.711
 2057SOL    HW223314   3.080   5.260   5.657
 2058SOL     OW23315   3.815   2.933   5.939
 2058SOL    HW123316   3.781   2.866   5.880
 2058SOL    HW223317   3.747   2.943   6.006
 2059SOL     OW23318   4.204   2.055   1.791
 2059SOL    HW123319   4.193   1.960   1.789
 2059SOL    HW223320   4.116   2.090   1.802
 2060SOL     OW23321   5.247   3.568   7.017
 2060SOL    HW123322   5.249   3.656   7.055
 2060SOL    HW223323   5.229   3.510   7.092
 2061SOL     OW23324   0.527   6.027   6.330
 2061SOL    HW123325   0.573   5.944   6.319
 2061SOL    HW223326   0.567   6.086   6.265
 2062SOL     OW23327   6.220   4.394   7.085
 2062SOL    HW123328   6.153   4.445   7.040
 2062SOL    HW223329   6.236   4.319   7.027
 2063SOL     OW23330   3.198   0.812   0.043
 2063SOL    HW123331   3.127   0.802   0.106
 2063SOL    HW223332   3.208   0.726   0.003
 2064SOL     OW23333   3.106   6.167   5.611
 2064SOL    HW123334   3.149   6.149   5.695
 2064SOL    HW223335   3.113   6.262   5.601
 2065SOL     OW23336   2.514   6.114   6.710
 2065SOL    HW123337   2.456   6.149   6.643
 2065SOL    HW223338   2.522   6.021   6.688
 2066SOL     OW23339   1.876   2.699   2.515
 2066SOL    HW123340   1.912   2.611   2.529
 2066SOL    HW223341   1.800   2.685   2.460
 2067SOL     OW23342   3.638   2.521   6.729
 2067SOL    HW123343   3.624   2.561   6.643
 2067SOL    HW223344   3.560   2.467   6.744
 2068SOL     OW23345   3.497   0.654   5.561
 2068SOL    HW123346   3.559   0.715   5.520
 2068SOL    HW223347   3.412   0.696   5.551
 2069SOL     OW23348   2.728   0.616   6.833
 2069SOL    HW123349   2.817   0.646   6.818
 2069SOL    HW223350   2.708   0.644   6.923
 2070SOL     OW23351   3.478   0.367   6.022
 2070SOL    HW123352   3.529   0.371   5.941
 2070SOL    HW223353   3.402   0.312   6.000
 2071SOL     OW23354   4.939   2.108   1.201
 2071SOL    HW123355   4.863   2.166   1.206
 2071SOL    HW223356   4.997   2.139   1.270
 2072SOL     OW23357   1.253   0.801   7.271
 2072SOL    HW123358   1.200   0.811   7.350
 2072SOL    HW223359   1.230   0.876   7.217
 2073SOL     OW23360   0.827   1.609   0.880
 2073SOL    HW123361   0.899   1.553   0.907
 2073SOL    HW223362   0.836   1.688   0.932
 2074SOL     OW23363   2.873   3.280   0.440
 2074SOL    HW123364   2.952   3.233   0.413
 2074SOL    HW223365   2.906   3.363   0.476
 2075SOL     OW23366   5.263   4.111   1.582
 2075SOL    HW123367   5.307   4.179   1.633
 2075SOL    HW223368   5.246   4.041   1.645
 2076SOL     OW23369   1.280   2.236   7.050
 2076SOL    HW123370   1.289   2.185   6.969
 2076SOL    HW223371   1.216   2.187   7.102
 2077SOL     OW23372   2.079   3.189   6.263
 2077SOL    HW123373   2.112   3.138   6.337
 2077SOL    HW223374   2.081   3.128   6.189
 2078SOL     OW23375   0.789   2.938   1.219
 2078SOL    HW123376   0.738   2.858   1.231
 2078SOL    HW223377   0.866   2.910   1.169
 2079SOL     OW23378   3.899   4.707   6.680
 2079SOL    HW123379   3.923   4.658   6.759
 2079SOL    HW223380   3.804   4.702   6.676
 2080SOL     OW23381   2.836   5.343   6.813
 2080SOL    HW123382   2.744   5.345   6.786
 2080SOL    HW223383   2.837   5.293   6.895
 2081SOL     OW23384   4.244   0.204   7.478
 2081SOL    HW123385   4.253   0.117   7.441
 2081SOL    HW223386   4.150   0.222   7.475
 2082SOL     OW23387   4.518   1.096   6.367
 2082SOL    HW123388   4.524   1.010   6.409
 2082SOL    HW223389   4.602   1.107   6.323
 2083SOL     OW23390   5.185   6.297   7.731
 2083SOL    HW123391   5.253   6.298   7.663
 2083SOL    HW223392   5.197   6.379   7.778
 2084SOL     OW23393   1.826   0.343   1.037
 2084SOL    HW123394   1.738   0.377   1.046
 2084SOL    HW223395   1.855   0.373   0.951
 2085SOL     OW23396   4.944   5.584   1.655
 2085SOL    HW123397   4.930   5.663   1.708
 2085SOL    HW223398   5.037   5.565   1.663
 2086SOL     OW23399   0.540   4.562   6.863
 2086SOL    HW123400   0.470   4.596   6.919
 2086SOL    HW223401   0.502   4.484   6.823
 2087SOL     OW23402   4.918   5.383   6.206
 2087SOL    HW123403   4.923   5.384   6.111
 2087SOL    HW223404   4.945   5.295   6.231
 2088SOL     OW23405   1.353   3.294   7.447
 2088SOL    HW123406   1.400   3.336   7.375
 2088SOL    HW223407   1.272   3.345   7.454
 2089SOL     OW23408   0.140   5.378   0.362
 2089SOL    HW123409   0.177   5.369   0.274
 2089SOL    HW223410   0.193   5.445   0.404
 2090SOL     OW23411   5.094   4.742   7.160
 2090SOL    HW123412   5.156   4.750   7.233
 2090SOL    HW223413   5.082   4.832   7.129
 2091SOL     OW23414   2.058   1.882   6.998
 2091SOL    HW123415   2.103   1.811   7.044
 2091SOL    HW223416   1.983   1.839   6.957
 2092SOL     OW23417   4.296   4.875   0.040
 2092SOL    HW123418   4.350   4.858   7.766
 2092SOL    HW223419   4.344   4.943   0.088
 2093SOL     OW23420   3.175   1.842   6.390
 2093SOL    HW123421   3.210   1.761   6.429
 2093SOL    HW223422   3.096   1.860   6.441
 2094SOL     OW23423   2.891   5.737   7.275
 2094SOL    HW123424   2.829   5.664   7.264
 2094SOL    HW223425   2.922   5.755   7.186
 2095SOL     OW23426   4.863   2.406   0.991
 2095SOL    HW123427   4.819   2.353   1.058
 2095SOL    HW223428   4.887   2.343   0.923
 2096SOL     OW23429   6.419   5.912   1.589
 2096SOL    HW123430   6.324   5.904   1.598
 2096SOL    HW223431   6.448   5.829   1.553
 2097SOL     OW23432   4.650   3.727   7.064
 2097SOL    HW123433   4.640   3.735   6.969
 2097SOL    HW223434   4.743   3.709   7.078
 2098SOL     OW23435   1.465   5.856   0.404
 2098SOL    HW123436   1.443   5.942   0.440
 2098SOL    HW223437   1.500   5.807   0.479
 2099SOL     OW23438   3.568   3.230   1.018
 2099SOL    HW123439   3.562   3.237   1.114
 2099SOL    HW223440   3.585   3.137   1.002
 2100SOL     OW23441   2.228   3.236   1.642
 2100SOL    HW123442   2.231   3.294   1.565
 2100SOL    HW223443   2.207   3.150   1.605
 2101SOL     OW23444   5.547   4.964   7.436
 2101SOL    HW123445   5.628   4.947   7.387
 2101SOL    HW223446   5.517   5.049   7.404
 2102SOL     OW23447   0.729   2.822   6.942
 2102SOL    HW123448   0.738   2.914   6.916
 2102SOL    HW223449   0.704   2.777   6.861
 2103SOL     OW23450   4.535   1.089   1.817
 2103SOL    HW123451   4.491   1.013   1.855
 2103SOL    HW223452   4.501   1.163   1.867
 2104SOL     OW23453   2.399   1.483   6.174
 2104SOL    HW123454   2.431   1.418   6.112
 2104SOL    HW223455   2.436   1.566   6.144
 2105SOL     OW23456   5.727   0.911   1.819
 2105SOL    HW123457   5.721   0.969   1.894
 2105SOL    HW223458   5.783   0.839   1.849
 2106SOL     OW23459   3.732   3.019   0.600
 2106SOL    HW123460   3.820   3.004   0.634
 2106SOL    HW223461   3.693   3.084   0.659
 2107SOL     OW23462   4.850   0.741   1.538
 2107SOL    HW123463   4.868   0.648   1.551
 2107SOL    HW223464   4.783   0.761   1.604
 2108SOL     OW23465   3.518   1.735   1.186
 2108SOL    HW123466   3.563   1.737   1.270
 2108SOL    HW223467   3.519   1.826   1.156
 2109SOL     OW23468   2.385   1.463   7.241
 2109SOL    HW123469   2.420   1.513   7.314
 2109SOL    HW223470   2.432   1.379   7.245
 2110SOL     OW23471   4.317   4.536   2.466
 2110SOL    HW123472   4.273   4.594   2.405
 2110SOL    HW223473   4.377   4.592   2.515
 2111SOL     OW23474   4.653   4.112   6.456
 2111SOL    HW123475   4.596   4.144   6.386
 2111SOL    HW223476   4.720   4.061   6.411
 2112SOL     OW23477   5.108   1.370   6.117
 2112SOL    HW123478   5.062   1.294   6.082
 2112SOL    HW223479   5.169   1.334   6.181
 2113SOL     OW23480   2.016   2.080   2.281
 2113SOL    HW123481   2.072   2.148   2.243
 2113SOL    HW223482   1.930   2.122   2.288
 2114SOL     OW23483   3.203   2.584   5.331
 2114SOL    HW123484   3.252   2.663   5.309
 2114SOL    HW223485   3.269   2.518   5.348
 2115SOL     OW23486   4.561   0.855   6.495
 2115SOL    HW123487   4.478   0.848   6.542
 2115SOL    HW223488   4.627   0.826   6.558
 2116SOL     OW23489   0.582   1.140   0.131
 2116SOL    HW123490   0.591   1.061   0.077
 2116SOL    HW223491   0.656   1.137   0.191
 2117SOL     OW23492   0.376   4.220   1.862
 2117SOL    HW123493   0.301   4.199   1.807
 2117SOL    HW223494   0.344   4.210   1.951
 2118SOL     OW23495   5.417   4.805   2.263
 2118SOL    HW123496   5.411   4.899   2.247
 2118SOL    HW223497   5.355   4.766   2.202
 2119SOL     OW23498   5.943   4.885   0.334
 2119SOL    HW123499   5.966   4.794   0.315
 2119SOL    HW223500   6.011   4.937   0.290
 2120SOL     OW23501   0.336   2.716   0.365
 2120SOL    HW123502   0.369   2.790   0.315
 2120SOL    HW223503   0.278   2.670   0.304
 2121SOL     OW23504   1.148   1.326   1.554
 2121SOL    HW123505   1.116   1.414   1.572
 2121SOL    HW223506   1.216   1.338   1.488
 2122SOL     OW23507   4.807   0.123   0.432
 2122SOL    HW123508   4.784   0.069   0.508
 2122SOL    HW223509   4.736   0.107   0.370
 2123SOL     OW23510   0.935   4.452   5.498
 2123SOL    HW123511   0.927   4.454   5.594
 2123SOL    HW223512   0.850   4.421   5.467
 2124SOL     OW23513   0.076   3.429   6.404
 2124SOL    HW123514   0.167   3.432   6.375
 2124SOL    HW223515   0.027   3.473   6.335
 2125SOL     OW23516   6.438   0.871   7.103
 2125SOL    HW123517   6.399   0.790   7.070
 2125SOL    HW223518   6.381   0.898   7.175
 2126SOL     OW23519   1.012   4.461   7.102
 2126SOL    HW123520   0.926   4.459   7.061
 2126SOL    HW223521   1.032   4.554   7.112
 2127SOL     OW23522   1.353   2.268   6.008
 2127SOL    HW123523   1.296   2.231   5.941
 2127SOL    HW223524   1.441   2.261   5.971
 2128SOL     OW23525   0.526   3.553   0.406
 2128SOL    HW123526   0.548   3.634   0.361
 2128SOL    HW223527   0.455   3.577   0.466
 2129SOL     OW23528   2.073   5.025   7.276
 2129SOL    HW123529   1.983   5.018   7.306
 2129SOL    HW223530   2.125   5.017   7.356
 2130SOL     OW23531   2.805   0.292   0.651
 2130SOL    HW123532   2.805   0.199   0.671
 2130SOL    HW223533   2.891   0.309   0.614
 2131SOL     OW23534   6.106   5.909   1.245
 2131SOL    HW123535   6.109   5.819   1.211
 2131SOL    HW223536   6.044   5.905   1.318
 2132SOL     OW23537   5.332   2.520   5.731
 2132SOL    HW123538   5.288   2.559   5.656
 2132SOL    HW223539   5.420   2.558   5.731
 2133SOL     OW23540   4.926   5.344   1.511
 2133SOL    HW123541   4.984   5.287   1.562
 2133SOL    HW223542   4.922   5.425   1.562
 2134SOL     OW23543   1.333   2.364   7.449
 2134SOL    HW123544   1.323   2.270   7.435
 2134SOL    HW223545   1.265   2.386   7.513
 2135SOL     OW23546   1.601   3.430   0.599
 2135SOL    HW123547   1.622   3.397   0.511
 2135SOL    HW223548   1.508   3.450   0.595
 2136SOL     OW23549   1.896   3.493   0.145
 2136SOL    HW123550   1.825   3.556   0.154
 2136SOL    HW223551   1.872   3.421   0.203
 2137SOL     OW23552   4.857   1.382   2.022
 2137SOL    HW123553   4.795   1.408   2.091
 2137SOL    HW223554   4.940   1.372   2.068
 2138SOL     OW23555   4.905   6.310   1.134
 2138SOL    HW123556   4.900   6.387   1.190
 2138SOL    HW223557   4.917   6.237   1.195
 2139SOL     OW23558   1.203   0.574   7.120
 2139SOL    HW123559   1.217   0.654   7.172
 2139SOL    HW223560   1.290   0.536   7.112
 2140SOL     OW23561   3.141   3.439   0.364
 2140SOL    HW123562   3.154   3.346   0.378
 2140SOL    HW223563   3.091   3.468   0.440
 2141SOL     OW23564   2.103   4.468   0.846
 2141SOL    HW123565   2.161   4.535   0.883
 2141SOL    HW223566   2.162   4.402   0.810
 2142SOL     OW23567   1.362   0.393   0.448
 2142SOL    HW123568   1.343   0.407   0.541
 2142SOL    HW223569   1.450   0.430   0.436
 2143SOL     OW23570   4.785   2.825   5.452
 2143SOL    HW123571   4.833   2.791   5.528
 2143SOL    HW223572   4.707   2.771   5.447
 2144SOL     OW23573   5.851   3.483   2.192
 2144SOL    HW123574   5.887   3.557   2.240
 2144SOL    HW223575   5.926   3.429   2.169
 2145SOL     OW23576   1.111   2.068   0.264
 2145SOL    HW123577   1.136   2.159   0.277
 2145SOL    HW223578   1.032   2.071   0.210
 2146SOL     OW23579   1.218   0.533   0.087
 2146SOL    HW123580   1.229   0.601   0.020
 2146SOL    HW223581   1.174   0.462   0.042
 2147SOL     OW23582   4.309   6.110   0.572
 2147SOL    HW123583   4.322   6.157   0.654
 2147SOL    HW223584   4.346   6.023   0.588
 2148SOL     OW23585   2.955   3.277   1.226
 2148SOL    HW123586   2.885   3.283   1.291
 2148SOL    HW223587   2.934   3.346   1.163
 2149SOL     OW23588   1.438   3.332   6.751
 2149SOL    HW123589   1.502   3.294   6.691
 2149SOL    HW223590   1.457   3.290   6.835
 2150SOL     OW23591   0.542   3.721   7.645
 2150SOL    HW123592   0.499   3.736   7.561
 2150SOL    HW223593   0.618   3.667   7.624
 2151SOL     OW23594   1.356   0.040   5.579
 2151SOL    HW123595   1.387   6.441   5.502
 2151SOL    HW223596   1.318   6.421   5.635
 2152SOL     OW23597   6.368   6.063   7.191
 2152SOL    HW123598   6.293   6.007   7.211
 2152SOL    HW223599   6.432   6.043   7.260
 2153SOL     OW23600   5.609   5.115   1.915
 2153SOL    HW123601   5.538   5.162   1.961
 2153SOL    HW223602   5.689   5.159   1.945
 2154SOL     OW23603   5.086   5.541   5.717
 2154SOL    HW123604   5.001   5.583   5.712
 2154SOL    HW223605   5.127   5.579   5.795
 2155SOL     OW23606   3.041   5.019   6.293
 2155SOL    HW123607   3.047   5.055   6.204
 2155SOL    HW223608   3.042   5.096   6.350
 2156SOL     OW23609   0.954   4.421   1.562
 2156SOL    HW123610   1.037   4.383   1.533
 2156SOL    HW223611   0.892   4.398   1.493
 2157SOL     OW23612   1.359   3.095   7.254
 2157SOL    HW123613   1.348   3.164   7.320
 2157SOL    HW223614   1.303   3.024   7.285
 2158SOL     OW23615   4.967   3.818   0.073
 2158SOL    HW123616   4.918   3.898   0.090
 2158SOL    HW223617   4.945   3.760   0.147
 2159SOL     OW23618   3.269   3.620   7.144
 2159SOL    HW123619   3.183   3.658   7.127
 2159SOL    HW223620   3.331   3.683   7.106
 2160SOL     OW23621   4.032   3.712   1.125
 2160SOL    HW123622   3.982   3.684   1.201
 2160SOL    HW223623   4.010   3.648   1.057
 2161SOL     OW23624   3.771   5.067   1.162
 2161SOL    HW123625   3.867   5.062   1.170
 2161SOL    HW223626   3.744   5.119   1.238
 2162SOL     OW23627   1.753   4.904   7.097
 2162SOL    HW123628   1.662   4.882   7.121
 2162SOL    HW223629   1.791   4.939   7.177
 2163SOL     OW23630   4.510   4.318   5.926
 2163SOL    HW123631   4.475   4.398   5.887
 2163SOL    HW223632   4.583   4.348   5.981
 2164SOL     OW23633   0.767   2.372   1.743
 2164SOL    HW123634   0.752   2.467   1.742
 2164SOL    HW223635   0.845   2.361   1.798
 2165SOL     OW23636   4.676   5.762   7.451
 2165SOL    HW123637   4.598   5.768   7.506
 2165SOL    HW223638   4.739   5.713   7.502
 2166SOL     OW23639   5.193   4.332   0.948
 2166SOL    HW123640   5.236   4.324   1.034
 2166SOL    HW223641   5.100   4.317   0.966
 2167SOL     OW23642   4.617   5.698   1.892
 2167SOL    HW123643   4.577   5.771   1.940
 2167SOL    HW223644   4.557   5.625   1.905
 2168SOL     OW23645   4.785   3.982   6.245
 2168SOL    HW123646   4.840   3.932   6.186
 2168SOL    HW223647   4.696   3.969   6.212
 2169SOL     OW23648   1.248   2.454   6.712
 2169SOL    HW123649   1.173   2.464   6.771
 2169SOL    HW223650   1.325   2.462   6.769
 2170SOL     OW23651   0.493   2.499   1.668
 2170SOL    HW123652   0.471   2.578   1.717
 2170SOL    HW223653   0.443   2.429   1.710
 2171SOL     OW23654   2.056   2.042   0.967
 2171SOL    HW123655   2.081   1.968   1.022
 2171SOL    HW223656   2.076   2.119   1.021
 2172SOL     OW23657   2.179   1.126   1.566
 2172SOL    HW123658   2.151   1.207   1.523
 2172SOL    HW223659   2.170   1.144   1.659
 2173SOL     OW23660   4.797   0.421   0.836
 2173SOL    HW123661   4.743   0.380   0.904
 2173SOL    HW223662   4.799   0.513   0.860
 2174SOL     OW23663   4.500   4.493   5.573
 2174SOL    HW123664   4.431   4.430   5.555
 2174SOL    HW223665   4.574   4.465   5.519
 2175SOL     OW23666   5.301   4.519   0.789
 2175SOL    HW123667   5.253   4.519   0.706
 2175SOL    HW223668   5.257   4.454   0.842
 2176SOL     OW23669   3.562   2.855   7.715
 2176SOL    HW123670   3.470   2.832   7.728
 2176SOL    HW223671   3.581   2.825   7.626
 2177SOL     OW23672   0.929   2.301   7.396
 2177SOL    HW123673   0.939   2.396   7.388
 2177SOL    HW223674   0.838   2.285   7.375
 2178SOL     OW23675   2.267   2.847   6.210
 2178SOL    HW123676   2.233   2.817   6.295
 2178SOL    HW223677   2.189   2.873   6.161
 2179SOL     OW23678   4.751   5.738   1.239
 2179SOL    HW123679   4.787   5.651   1.255
 2179SOL    HW223680   4.671   5.721   1.189
 2180SOL     OW23681   4.224   3.896   5.612
 2180SOL    HW123682   4.162   3.905   5.684
 2180SOL    HW223683   4.214   3.805   5.583
 2181SOL     OW23684   2.314   2.537   1.771
 2181SOL    HW123685   2.345   2.552   1.861
 2181SOL    HW223686   2.241   2.477   1.781
 2182SOL     OW23687   3.405   1.608   0.961
 2182SOL    HW123688   3.464   1.533   0.948
 2182SOL    HW223689   3.442   1.655   1.035
 2183SOL     OW23690   3.662   3.485   7.651
 2183SOL    HW123691   3.746   3.438   7.647
 2183SOL    HW223692   3.662   3.527   7.737
 2184SOL     OW23693   4.509   4.207   6.243
 2184SOL    HW123694   4.422   4.240   6.218
 2184SOL    HW223695   4.522   4.130   6.188
 2185SOL     OW23696   4.609   3.741   6.509
 2185SOL    HW123697   4.698   3.765   6.535
 2185SOL    HW223698   4.616   3.713   6.418
 2186SOL     OW23699   0.337   1.848   6.773
 2186SOL    HW123700   0.293   1.859   6.689
 2186SOL    HW223701   0.393   1.925   6.781
 2187SOL     OW23702   4.402   4.745   1.164
 2187SOL    HW123703   4.412   4.716   1.073
 2187SOL    HW223704   4.453   4.826   1.169
 2188SOL     OW23705   2.998   4.623   6.444
 2188SOL    HW123706   3.044   4.644   6.525
 2188SOL    HW223707   2.938   4.553   6.468
 2189SOL     OW23708   0.660   4.700   1.531
 2189SOL    HW123709   0.591   4.764   1.515
 2189SOL    HW223710   0.724   4.717   1.462
 2190SOL     OW23711   2.924   6.365   0.446
 2190SOL    HW123712   2.937   0.001   0.401
 2190SOL    HW223713   2.988   6.306   0.405
 2191SOL     OW23714   5.189   5.309   5.801
 2191SOL    HW123715   5.149   5.386   5.762
 2191SOL    HW223716   5.276   5.338   5.828
 2192SOL     OW23717   4.415   1.023   7.229
 2192SOL    HW123718   4.392   0.943   7.277
 2192SOL    HW223719   4.334   1.073   7.225
 2193SOL     OW23720   2.465   2.612   6.734
 2193SOL    HW123721   2.381   2.634   6.772
 2193SOL    HW223722   2.510   2.696   6.723
 2194SOL     OW23723   5.708   3.853   6.638
 2194SOL    HW123724   5.626   3.871   6.593
 2194SOL    HW223725   5.702   3.901   6.720
 2195SOL     OW23726   3.918   3.387   7.748
 2195SOL    HW123727   3.908   3.338   0.027
 2195SOL    HW223728   3.995   3.348   7.706
 2196SOL     OW23729   5.830   2.901   1.490
 2196SOL    HW123730   5.741   2.916   1.521
 2196SOL    HW223731   5.874   2.985   1.504
 2197SOL     OW23732   2.781   0.170   7.749
 2197SOL    HW123733   2.763   0.076   7.753
 2197SOL    HW223734   2.830   0.182   7.667
 2198SOL     OW23735   5.386   6.055   6.489
 2198SOL    HW123736   5.342   5.990   6.434
 2198SOL    HW223737   5.316   6.110   6.521
 2199SOL     OW23738   0.250   1.727   1.661
 2199SOL    HW123739   0.266   1.672   1.739
 2199SOL    HW223740   0.161   1.759   1.672
 2200SOL     OW23741   1.806   6.178   7.366
 2200SOL    HW123742   1.789   6.244   7.432
 2200SOL    HW223743   1.821   6.097   7.416
 2201SOL     OW23744   5.980   6.399   5.531
 2201SOL    HW123745   5.930   6.318   5.524
 2201SOL    HW223746   6.054   6.387   5.471
 2202SOL     OW23747   4.322   4.853   2.630
 2202SOL    HW123748   4.385   4.781   2.641
 2202SOL    HW223749   4.361   4.909   2.562
 2203SOL     OW23750   4.123   4.269   7.238
 2203SOL    HW123751   4.177   4.270   7.158
 2203SOL    HW223752   4.186   4.254   7.309
 2204SOL     OW23753   3.981   2.617   0.697
 2204SOL    HW123754   3.902   2.652   0.658
 2204SOL    HW223755   3.975   2.522   0.683
 2205SOL     OW23756   3.650   4.462   7.120
 2205SOL    HW123757   3.736   4.468   7.162
 2205SOL    HW223758   3.605   4.543   7.147
 2206SOL     OW23759   1.987   5.414   0.056
 2206SOL    HW123760   1.911   5.438   0.003
 2206SOL    HW223761   1.966   5.448   0.144
 2207SOL     OW23762   1.150   4.553   1.093
 2207SOL    HW123763   1.228   4.551   1.036
 2207SOL    HW223764   1.085   4.500   1.046
 2208SOL     OW23765   0.597   3.779   0.279
 2208SOL    HW123766   0.598   3.873   0.264
 2208SOL    HW223767   0.647   3.742   0.206
 2209SOL     OW23768   1.038   0.455   6.286
 2209SOL    HW123769   1.091   0.428   6.362
 2209SOL    HW223770   0.978   0.382   6.273
 2210SOL     OW23771   6.339   2.790   7.274
 2210SOL    HW123772   6.261   2.829   7.314
 2210SOL    HW223773   6.410   2.808   7.336
 2211SOL     OW23774   3.269   0.283   1.921
 2211SOL    HW123775   3.272   0.242   2.007
 2211SOL    HW223776   3.230   0.369   1.937
 2212SOL     OW23777   4.170   4.806   1.311
 2212SOL    HW123778   4.133   4.886   1.274
 2212SOL    HW223779   4.250   4.791   1.262
 2213SOL     OW23780   1.065   3.792   7.691
 2213SOL    HW123781   1.073   3.698   7.706
 2213SOL    HW223782   1.001   3.821   7.756
 2214SOL     OW23783   5.037   3.584   6.556
 2214SOL    HW123784   5.050   3.550   6.645
 2214SOL    HW223785   5.125   3.608   6.527
 2215SOL     OW23786   3.580   5.018   1.733
 2215SOL    HW123787   3.586   5.104   1.773
 2215SOL    HW223788   3.486   5.003   1.720
 2216SOL     OW23789   6.216   3.745   6.731
 2216SOL    HW123790   6.243   3.837   6.739
 2216SOL    HW223791   6.136   3.748   6.679
 2217SOL     OW23792   5.389   1.608   6.036
 2217SOL    HW123793   5.427   1.539   5.981
 2217SOL    HW223794   5.375   1.682   5.977
 2218SOL     OW23795   6.371   5.996   1.266
 2218SOL    HW123796   6.377   6.090   1.249
 2218SOL    HW223797   6.277   5.976   1.261
 2219SOL     OW23798   1.557   4.233   5.861
 2219SOL    HW123799   1.625   4.236   5.793
 2219SOL    HW223800   1.522   4.322   5.864
 2220SOL     OW23801   5.391   0.247   1.064
 2220SOL    HW123802   5.451   0.267   1.136
 2220SOL    HW223803   5.366   0.156   1.079
 2221SOL     OW23804   0.549   5.446   0.794
 2221SOL    HW123805   0.634   5.427   0.754
 2221SOL    HW223806   0.570   5.494   0.874
 2222SOL     OW23807   3.770   2.881   6.691
 2222SOL    HW123808   3.750   2.855   6.601
 2222SOL    HW223809   3.803   2.971   6.683
 2223SOL     OW23810   4.335   1.705   6.562
 2223SOL    HW123811   4.351   1.673   6.474
 2223SOL    HW223812   4.420   1.699   6.606
 2224SOL     OW23813   1.014   0.702   5.500
 2224SOL    HW123814   1.045   0.787   5.468
 2224SOL    HW223815   1.064   0.638   5.449
 2225SOL     OW23816   2.300   4.631   6.578
 2225SOL    HW123817   2.339   4.700   6.525
 2225SOL    HW223818   2.224   4.602   6.527
 2226SOL     OW23819   5.864   4.667   6.430
 2226SOL    HW123820   5.925   4.608   6.384
 2226SOL    HW223821   5.779   4.649   6.389
 2227SOL     OW23822   2.819   6.254   6.508
 2227SOL    HW123823   2.816   6.186   6.575
 2227SOL    HW223824   2.765   6.325   6.543
 2228SOL     OW23825   1.490   4.917   6.216
 2228SOL    HW123826   1.581   4.938   6.238
 2228SOL    HW223827   1.490   4.910   6.121
 2229SOL     OW23828   0.483   2.478   6.270
 2229SOL    HW123829   0.541   2.415   6.313
 2229SOL    HW223830   0.432   2.516   6.342
 2230SOL     OW23831   2.513   0.494   1.797
 2230SOL    HW123832   2.541   0.516   1.708
 2230SOL    HW223833   2.449   0.424   1.785
 2231SOL     OW23834   5.582   6.429   6.442
 2231SOL    HW123835   5.489   6.429   6.463
 2231SOL    HW223836   5.594   0.059   6.387
 2232SOL     OW23837   0.867   2.187   6.453
 2232SOL    HW123838   0.859   2.100   6.413
 2232SOL    HW223839   0.947   2.223   6.414
 2233SOL     OW23840   0.736   4.233   6.897
 2233SOL    HW123841   0.753   4.324   6.919
 2233SOL    HW223842   0.823   4.192   6.896
 2234SOL     OW23843   6.261   2.949   1.256
 2234SOL    HW123844   6.213   2.975   1.335
 2234SOL    HW223845   6.195   2.906   1.201
 2235SOL     OW23846   2.630   1.916   5.714
 2235SOL    HW123847   2.559   1.871   5.760
 2235SOL    HW223848   2.645   1.863   5.635
 2236SOL     OW23849   3.882   4.226   6.666
 2236SOL    HW123850   3.817   4.246   6.599
 2236SOL    HW223851   3.835   4.239   6.749
 2237SOL     OW23852   3.605   1.479   7.307
 2237SOL    HW123853   3.588   1.571   7.329
 2237SOL    HW223854   3.691   1.461   7.344
 2238SOL     OW23855   4.048   0.416   6.593
 2238SOL    HW123856   4.024   0.387   6.505
 2238SOL    HW223857   3.964   0.434   6.636
 2239SOL     OW23858   4.899   3.986   1.346
 2239SOL    HW123859   4.870   3.962   1.434
 2239SOL    HW223860   4.882   3.908   1.293
 2240SOL     OW23861   5.959   1.055   1.200
 2240SOL    HW123862   5.929   1.135   1.156
 2240SOL    HW223863   6.054   1.064   1.202
 2241SOL     OW23864   4.978   2.668   1.968
 2241SOL    HW123865   5.037   2.686   1.894
 2241SOL    HW223866   5.017   2.593   2.012
 2242SOL     OW23867   6.138   2.215   2.118
 2242SOL    HW123868   6.066   2.176   2.168
 2242SOL    HW223869   6.149   2.302   2.155
 2243SOL     OW23870   3.521   2.096   5.942
 2243SOL    HW123871   3.460   2.024   5.927
 2243SOL    HW223872   3.551   2.084   6.032
 2244SOL     OW23873   4.331   1.542   2.335
 2244SOL    HW123874   4.378   1.621   2.363
 2244SOL    HW223875   4.362   1.527   2.246
 2245SOL     OW23876   4.678   5.122   6.345
 2245SOL    HW123877   4.720   5.065   6.281
 2245SOL    HW223878   4.747   5.142   6.408
 2246SOL     OW23879   3.195   2.974   6.069
 2246SOL    HW123880   3.220   2.975   5.976
 2246SOL    HW223881   3.116   3.028   6.073
 2247SOL     OW23882   0.727   1.753   6.096
 2247SOL    HW123883   0.679   1.777   6.017
 2247SOL    HW223884   0.818   1.774   6.076
 2248SOL     OW23885   3.054   1.084   0.632
 2248SOL    HW123886   3.127   1.140   0.606
 2248SOL    HW223887   3.094   1.014   0.683
 2249SOL     OW23888   3.286   1.919   5.220
 2249SOL    HW123889   3.203   1.890   5.182
 2249SOL    HW223890   3.348   1.851   5.196
 2250SOL     OW23891   0.653   6.227   1.208
 2250SOL    HW123892   0.642   6.272   1.125
 2250SOL    HW223893   0.623   6.289   1.274
 2251SOL     OW23894   0.706   3.899   7.027
 2251SOL    HW123895   0.642   3.899   6.956
 2251SOL    HW223896   0.655   3.906   7.107
 2252SOL     OW23897   2.497   6.393   7.636
 2252SOL    HW123898   2.587   6.382   7.667
 2252SOL    HW223899   2.503   6.379   7.541
 2253SOL     OW23900   1.125   1.222   6.729
 2253SOL    HW123901   1.165   1.276   6.797
 2253SOL    HW223902   1.031   1.235   6.740
 2254SOL     OW23903   0.660   2.322   7.344
 2254SOL    HW123904   0.574   2.356   7.367
 2254SOL    HW223905   0.665   2.329   7.249
 2255SOL     OW23906   3.390   5.062   6.220
 2255SOL    HW123907   3.480   5.076   6.250
 2255SOL    HW223908   3.348   5.016   6.293
 2256SOL     OW23909   2.847   4.822   6.335
 2256SOL    HW123910   2.910   4.890   6.314
 2256SOL    HW223911   2.899   4.752   6.375
 2257SOL     OW23912   1.973   1.138   1.102
 2257SOL    HW123913   1.963   1.046   1.124
 2257SOL    HW223914   2.068   1.149   1.088
 2258SOL     OW23915   6.295   1.268   7.301
 2258SOL    HW123916   6.248   1.286   7.219
 2258SOL    HW223917   6.276   1.343   7.357
 2259SOL     OW23918   5.259   3.410   1.211
 2259SOL    HW123919   5.251   3.433   1.119
 2259SOL    HW223920   5.354   3.406   1.226
 2260SOL     OW23921   1.381   3.992   0.410
 2260SOL    HW123922   1.386   4.036   0.495
 2260SOL    HW223923   1.470   3.996   0.375
 2261SOL     OW23924   5.732   3.938   0.115
 2261SOL    HW123925   5.707   3.966   0.203
 2261SOL    HW223926   5.715   3.844   0.115
 2262SOL     OW23927   5.390   3.226   0.642
 2262SOL    HW123928   5.414   3.144   0.600
 2262SOL    HW223929   5.438   3.293   0.593
 2263SOL     OW23930   4.848   5.980   7.445
 2263SOL    HW123931   4.844   5.994   7.540
 2263SOL    HW223932   4.782   5.914   7.428
 2264SOL     OW23933   6.070   3.266   0.331
 2264SOL    HW123934   6.152   3.245   0.376
 2264SOL    HW223935   6.098   3.308   0.249
 2265SOL     OW23936   1.833   3.918   6.290
 2265SOL    HW123937   1.830   3.864   6.211
 2265SOL    HW223938   1.911   3.888   6.336
 2266SOL     OW23939   0.593   0.551   7.015
 2266SOL    HW123940   0.639   0.578   7.095
 2266SOL    HW223941   0.661   0.511   6.961
 2267SOL     OW23942   0.469   5.664   2.140
 2267SOL    HW123943   0.499   5.719   2.068
 2267SOL    HW223944   0.376   5.686   2.149
 2268SOL     OW23945   0.445   5.188   1.957
 2268SOL    HW123946   0.370   5.155   2.006
 2268SOL    HW223947   0.487   5.110   1.921
 2269SOL     OW23948   2.694   4.196   0.737
 2269SOL    HW123949   2.756   4.148   0.683
 2269SOL    HW223950   2.608   4.169   0.706
 2270SOL     OW23951   3.089   3.400   0.842
 2270SOL    HW123952   3.179   3.387   0.874
 2270SOL    HW223953   3.077   3.329   0.779
 2271SOL     OW23954   5.312   5.479   0.733
 2271SOL    HW123955   5.278   5.562   0.767
 2271SOL    HW223956   5.383   5.456   0.793
 2272SOL     OW23957   1.770   6.218   1.827
 2272SOL    HW123958   1.841   6.154   1.834
 2272SOL    HW223959   1.713   6.184   1.758
 2273SOL     OW23960   0.470   5.649   6.592
 2273SOL    HW123961   0.498   5.608   6.674
 2273SOL    HW223962   0.425   5.729   6.619
 2274SOL     OW23963   5.784   0.985   7.105
 2274SOL    HW123964   5.877   0.975   7.123
 2274SOL    HW223965   5.750   0.896   7.101
 2275SOL     OW23966   6.327   3.242   0.451
 2275SOL    HW123967   6.330   3.336   0.470
 2275SOL    HW223968   6.418   3.220   0.428
 2276SOL     OW23969   1.367   6.244   6.362
 2276SOL    HW123970   1.357   6.173   6.426
 2276SOL    HW223971   1.290   6.300   6.376
 2277SOL     OW23972   4.437   1.774   2.422
 2277SOL    HW123973   4.475   1.840   2.364
 2277SOL    HW223974   4.460   1.804   2.510
 2278SOL     OW23975   1.503   1.205   6.386
 2278SOL    HW123976   1.439   1.277   6.390
 2278SOL    HW223977   1.588   1.249   6.385
 2279SOL     OW23978   3.397   1.175   1.401
 2279SOL    HW123979   3.345   1.117   1.458
 2279SOL    HW223980   3.344   1.185   1.323
 2280SOL     OW23981   1.267   0.727   7.697
 2280SOL    HW123982   1.360   0.719   7.674
 2280SOL    HW223983   1.226   0.760   7.617
 2281SOL     OW23984   3.024   3.866   1.157
 2281SOL    HW123985   3.039   3.814   1.236
 2281SOL    HW223986   3.097   3.927   1.154
 2282SOL     OW23987   3.703   5.642   1.359
 2282SOL    HW123988   3.754   5.596   1.426
 2282SOL    HW223989   3.612   5.621   1.379
 2283SOL     OW23990   6.368   2.835   6.595
 2283SOL    HW123991   6.370   2.891   6.672
 2283SOL    HW223992   6.354   2.894   6.522
 2284SOL     OW23993   2.720   1.233   6.307
 2284SOL    HW123994   2.634   1.266   6.333
 2284SOL    HW223995   2.710   1.207   6.216
 2285SOL     OW23996   3.606   2.969   6.110
 2285SOL    HW123997   3.540   2.900   6.120
 2285SOL    HW223998   3.604   3.017   6.193
 2286SOL     OW23999   2.101   0.529   6.267
 2286SOL    HW124000   2.051   0.498   6.191
 2286SOL    HW224001   2.131   0.449   6.310
 2287SOL     OW24002   3.826   2.279   6.437
 2287SOL    HW124003   3.816   2.186   6.416
 2287SOL    HW224004   3.835   2.280   6.533
 2288SOL     OW24005   0.711   2.936   0.158
 2288SOL    HW124006   0.734   3.012   0.212
 2288SOL    HW224007   0.695   2.972   0.071
 2289SOL     OW24008   4.340   5.268   0.699
 2289SOL    HW124009   4.288   5.248   0.777
 2289SOL    HW224010   4.401   5.195   0.691
 2290SOL     OW24011   4.217   0.757   7.048
 2290SOL    HW124012   4.216   0.680   6.991
 2290SOL    HW224013   4.198   0.830   6.990
 2291SOL     OW24014   0.383   1.535   6.220
 2291SOL    HW124015   0.385   1.465   6.154
 2291SOL    HW224016   0.379   1.616   6.169
 2292SOL     OW24017   3.923   0.141   6.160
 2292SOL    HW124018   3.888   0.054   6.143
 2292SOL    HW224019   3.876   0.198   6.098
 2293SOL     OW24020   6.018   6.190   7.460
 2293SOL    HW124021   5.990   6.209   7.370
 2293SOL    HW224022   6.025   6.095   7.464
 2294SOL     OW24023   1.161   2.763   1.658
 2294SOL    HW124024   1.149   2.742   1.566
 2294SOL    HW224025   1.256   2.770   1.670
 2295SOL     OW24026   4.638   1.448   2.179
 2295SOL    HW124027   4.552   1.466   2.142
 2295SOL    HW224028   4.668   1.533   2.212
 2296SOL     OW24029   6.028   4.625   6.651
 2296SOL    HW124030   5.958   4.640   6.588
 2296SOL    HW224031   6.076   4.708   6.653
 2297SOL     OW24032   1.533   4.148   6.703
 2297SOL    HW124033   1.461   4.125   6.643
 2297SOL    HW224034   1.561   4.064   6.740
 2298SOL     OW24035   5.307   2.831   0.954
 2298SOL    HW124036   5.344   2.916   0.981
 2298SOL    HW224037   5.241   2.811   1.021
 2299SOL     OW24038   4.658   3.119   5.330
 2299SOL    HW124039   4.644   3.030   5.299
 2299SOL    HW224040   4.571   3.159   5.330
 2300SOL     OW24041   2.669   3.415   5.657
 2300SOL    HW124042   2.673   3.336   5.712
 2300SOL    HW224043   2.728   3.477   5.700
 2301SOL     OW24044   5.317   0.999   0.854
 2301SOL    HW124045   5.261   1.055   0.802
 2301SOL    HW224046   5.406   1.018   0.824
 2302SOL     OW24047   2.500   1.713   6.072
 2302SOL    HW124048   2.588   1.741   6.097
 2302SOL    HW224049   2.489   1.748   5.983
 2303SOL     OW24050   2.460   6.406   0.487
 2303SOL    HW124051   2.433   0.050   0.482
 2303SOL    HW224052   2.383   6.361   0.522
 2304SOL     OW24053   2.900   1.302   7.112
 2304SOL    HW124054   2.866   1.377   7.064
 2304SOL    HW224055   2.964   1.262   7.053
 2305SOL     OW24056   0.579   0.925   7.757
 2305SOL    HW124057   0.611   0.980   7.686
 2305SOL    HW224058   0.584   0.836   7.722
 2306SOL     OW24059   4.038   1.916   1.547
 2306SOL    HW124060   3.993   1.870   1.476
 2306SOL    HW224061   3.971   1.974   1.584
 2307SOL     OW24062   4.227   4.156   1.067
 2307SOL    HW124063   4.222   4.235   1.121
 2307SOL    HW224064   4.229   4.189   0.977
 2308SOL     OW24065   2.416   1.871   7.770
 2308SOL    HW124066   2.431   1.913   7.686
 2308SOL    HW224067   2.351   1.927   0.011
 2309SOL     OW24068   3.873   2.641   0.324
 2309SOL    HW124069   3.833   2.675   0.244
 2309SOL    HW224070   3.868   2.546   0.313
 2310SOL     OW24071   5.135   2.937   1.646
 2310SOL    HW124072   5.174   2.961   1.562
 2310SOL    HW224073   5.140   3.018   1.698
 2311SOL     OW24074   5.253   2.749   6.467
 2311SOL    HW124075   5.219   2.776   6.382
 2311SOL    HW224076   5.329   2.695   6.448
 2312SOL     OW24077   4.735   0.285   6.831
 2312SOL    HW124078   4.707   0.278   6.740
 2312SOL    HW224079   4.799   0.356   6.831
 2313SOL     OW24080   0.944   4.085   1.945
 2313SOL    HW124081   0.932   4.163   1.891
 2313SOL    HW224082   0.879   4.093   2.015
 2314SOL     OW24083   3.220   2.878   7.486
 2314SOL    HW124084   3.135   2.922   7.489
 2314SOL    HW224085   3.247   2.885   7.394
 2315SOL     OW24086   3.873   2.573   7.710
 2315SOL    HW124087   3.784   2.558   7.678
 2315SOL    HW224088   3.861   2.611   7.797
 2316SOL     OW24089   3.821   5.535   0.328
 2316SOL    HW124090   3.795   5.596   0.259
 2316SOL    HW224091   3.779   5.453   0.304
 2317SOL     OW24092   4.446   4.369   2.294
 2317SOL    HW124093   4.488   4.293   2.335
 2317SOL    HW224094   4.400   4.413   2.366
 2318SOL     OW24095   3.175   1.804   5.448
 2318SOL    HW124096   3.135   1.723   5.416
 2318SOL    HW224097   3.219   1.841   5.372
 2319SOL     OW24098   0.124   1.367   5.994
 2319SOL    HW124099   0.218   1.377   6.009
 2319SOL    HW224100   0.111   1.272   5.990
 2320SOL     OW24101   0.430   0.546   6.224
 2320SOL    HW124102   0.486   0.544   6.146
 2320SOL    HW224103   0.473   0.486   6.285
 2321SOL     OW24104   0.417   2.413   6.714
 2321SOL    HW124105   0.511   2.428   6.700
 2321SOL    HW224106   0.406   2.420   6.809
 2322SOL     OW24107   0.628   0.107   6.966
 2322SOL    HW124108   0.671   0.161   7.033
 2322SOL    HW224109   0.663   0.139   6.883
 2323SOL     OW24110   1.317   2.711   6.945
 2323SOL    HW124111   1.381   2.651   6.906
 2323SOL    HW224112   1.268   2.657   7.006
 2324SOL     OW24113   0.851   6.179   6.543
 2324SOL    HW124114   0.876   6.128   6.465
 2324SOL    HW224115   0.756   6.167   6.549
 2325SOL     OW24116   2.224   6.120   1.910
 2325SOL    HW124117   2.261   6.144   1.825
 2325SOL    HW224118   2.272   6.041   1.936
 2326SOL     OW24119   2.703   6.370   6.998
 2326SOL    HW124120   2.739   6.296   7.046
 2326SOL    HW224121   2.646   6.414   7.061
 2327SOL     OW24122   3.836   5.500   1.556
 2327SOL    HW124123   3.853   5.564   1.625
 2327SOL    HW224124   3.922   5.480   1.520
 2328SOL     OW24125   3.902   5.751   2.127
 2328SOL    HW124126   3.922   5.679   2.067
 2328SOL    HW224127   3.821   5.724   2.170
 2329SOL     OW24128   4.014   2.773   6.116
 2329SOL    HW124129   4.039   2.790   6.025
 2329SOL    HW224130   3.935   2.719   6.109
 2330SOL     OW24131   4.979   0.771   6.111
 2330SOL    HW124132   4.965   0.742   6.021
 2330SOL    HW224133   4.891   0.794   6.143
 2331SOL     OW24134   0.866   6.216   0.314
 2331SOL    HW124135   0.946   6.178   0.278
 2331SOL    HW224136   0.862   6.304   0.275
 2332SOL     OW24137   5.813   3.949   7.119
 2332SOL    HW124138   5.839   3.864   7.154
 2332SOL    HW224139   5.743   3.978   7.177
 2333SOL     OW24140   5.894   5.932   7.198
 2333SOL    HW124141   5.883   5.973   7.111
 2333SOL    HW224142   5.805   5.922   7.231
 2334SOL     OW24143   4.582   3.848   1.116
 2334SOL    HW124144   4.581   3.901   1.036
 2334SOL    HW224145   4.492   3.814   1.123
 2335SOL     OW24146   6.072   3.167   7.794
 2335SOL    HW124147   6.121   3.238   0.032
 2335SOL    HW224148   6.139   3.116   7.747
 2336SOL     OW24149   2.190   5.202   2.512
 2336SOL    HW124150   2.274   5.237   2.540
 2336SOL    HW224151   2.143   5.278   2.476
 2337SOL     OW24152   0.004   6.308   0.866
 2337SOL    HW124153   6.419   6.361   0.939
 2337SOL    HW224154   6.420   6.220   0.883
 2338SOL     OW24155   1.697   4.266   2.190
 2338SOL    HW124156   1.777   4.270   2.243
 2338SOL    HW224157   1.692   4.352   2.148
 2339SOL     OW24158   1.098   4.280   0.350
 2339SOL    HW124159   1.112   4.247   0.439
 2339SOL    HW224160   1.182   4.268   0.306
 2340SOL     OW24161   2.805   1.063   0.013
 2340SOL    HW124162   2.898   1.050   7.798
 2340SOL    HW224163   2.792   1.028   0.101
 2341SOL     OW24164   5.251   5.597   5.502
 2341SOL    HW124165   5.230   5.541   5.427
 2341SOL    HW224166   5.188   5.572   5.569
 2342SOL     OW24167   1.124   3.578   1.388
 2342SOL    HW124168   1.066   3.502   1.392
 2342SOL    HW224169   1.139   3.602   1.479
 2343SOL     OW24170   6.368   0.184   6.596
 2343SOL    HW124171   6.426   0.107   6.596
 2343SOL    HW224172   6.378   0.222   6.683
 2344SOL     OW24173   2.146   5.385   5.665
 2344SOL    HW124174   2.128   5.306   5.716
 2344SOL    HW224175   2.191   5.353   5.587
 2345SOL     OW24176   5.574   0.337   6.546
 2345SOL    HW124177   5.626   0.413   6.520
 2345SOL    HW224178   5.559   0.289   6.465
 2346SOL     OW24179   0.153   3.561   0.926
 2346SOL    HW124180   0.223   3.573   0.862
 2346SOL    HW224181   0.192   3.509   0.996
 2347SOL     OW24182   2.406   3.212   5.743
 2347SOL    HW124183   2.376   3.194   5.832
 2347SOL    HW224184   2.501   3.212   5.750
 2348SOL     OW24185   0.789   4.817   1.300
 2348SOL    HW124186   0.861   4.805   1.237
 2348SOL    HW224187   0.739   4.891   1.265
 2349SOL     OW24188   1.361   0.210   6.794
 2349SOL    HW124189   1.353   0.128   6.746
 2349SOL    HW224190   1.275   0.251   6.785
 2350SOL     OW24191   1.417   1.781   6.618
 2350SOL    HW124192   1.325   1.789   6.641
 2350SOL    HW224193   1.425   1.695   6.577
 2351SOL     OW24194   4.926   0.930   1.126
 2351SOL    HW124195   4.973   0.902   1.047
 2351SOL    HW224196   4.911   0.849   1.175
 2352SOL     OW24197   3.794   2.647   5.416
 2352SOL    HW124198   3.836   2.625   5.499
 2352SOL    HW224199   3.713   2.596   5.415
 2353SOL     OW24200   2.086   1.495   1.966
 2353SOL    HW124201   2.022   1.440   1.921
 2353SOL    HW224202   2.160   1.437   1.983
 2354SOL     OW24203   0.733   3.134   0.360
 2354SOL    HW124204   0.693   3.206   0.312
 2354SOL    HW224205   0.673   3.119   0.434
 2355SOL     OW24206   1.178   1.321   6.469
 2355SOL    HW124207   1.175   1.275   6.553
 2355SOL    HW224208   1.140   1.407   6.488
 2356SOL     OW24209   1.237   0.023   1.114
 2356SOL    HW124210   1.146   0.038   1.138
 2356SOL    HW224211   1.288   0.079   1.173
 2357SOL     OW24212   2.488   1.351   6.397
 2357SOL    HW124213   2.445   1.399   6.326
 2357SOL    HW224214   2.505   1.416   6.465
 2358SOL     OW24215   2.387   4.825   6.946
 2358SOL    HW124216   2.310   4.823   6.890
 2358SOL    HW224217   2.366   4.889   7.014
 2359SOL     OW24218   2.130   2.062   7.341
 2359SOL    HW124219   2.176   1.978   7.339
 2359SOL    HW224220   2.189   2.120   7.388
 2360SOL     OW24221   1.109   2.708   1.396
 2360SOL    HW124222   1.062   2.780   1.354
 2360SOL    HW224223   1.133   2.650   1.323
 2361SOL     OW24224   4.880   5.085   6.908
 2361SOL    HW124225   4.970   5.081   6.942
 2361SOL    HW224226   4.874   5.008   6.851
 2362SOL     OW24227   6.366   1.298   0.652
 2362SOL    HW124228   6.427   1.372   0.655
 2362SOL    HW224229   6.288   1.333   0.608
 2363SOL     OW24230   5.105   6.045   1.102
 2363SOL    HW124231   5.051   5.966   1.098
 2363SOL    HW224232   5.112   6.075   1.012
 2364SOL     OW24233   3.609   2.079   6.215
 2364SOL    HW124234   3.678   2.053   6.277
 2364SOL    HW224235   3.528   2.074   6.266
 2365SOL     OW24236   5.739   0.190   1.013
 2365SOL    HW124237   5.771   0.113   0.965
 2365SOL    HW224238   5.681   0.234   0.951
 2366SOL     OW24239   1.667   3.205   0.740
 2366SOL    HW124240   1.586   3.157   0.723
 2366SOL    HW224241   1.651   3.293   0.706
 2367SOL     OW24242   3.424   2.685   7.501
 2367SOL    HW124243   3.413   2.637   7.419
 2367SOL    HW224244   3.352   2.747   7.503
 2368SOL     OW24245   1.598   4.999   1.784
 2368SOL    HW124246   1.652   4.920   1.778
 2368SOL    HW224247   1.513   4.967   1.815
 2369SOL     OW24248   5.790   4.728   1.595
 2369SOL    HW124249   5.765   4.656   1.653
 2369SOL    HW224250   5.706   4.763   1.564
 2370SOL     OW24251   0.915   0.183   6.899
 2370SOL    HW124252   0.916   0.087   6.895
 2370SOL    HW224253   0.891   0.202   6.990
 2371SOL     OW24254   1.649   4.822   0.841
 2371SOL    HW124255   1.651   4.743   0.894
 2371SOL    HW224256   1.733   4.823   0.796
 2372SOL     OW24257   1.694   6.305   0.217
 2372SOL    HW124258   1.764   6.340   0.163
 2372SOL    HW224259   1.723   6.217   0.241
 2373SOL     OW24260   0.094   5.149   0.515
 2373SOL    HW124261   0.108   5.228   0.462
 2373SOL    HW224262   0.089   5.181   0.605
 2374SOL     OW24263   3.495   4.956   1.354
 2374SOL    HW124264   3.500   4.954   1.259
 2374SOL    HW224265   3.559   5.023   1.380
 2375SOL     OW24266   1.344   1.353   1.364
 2375SOL    HW124267   1.314   1.328   1.277
 2375SOL    HW224268   1.434   1.320   1.369
 2376SOL     OW24269   1.929   0.867   0.065
 2376SOL    HW124270   1.942   0.954   0.027
 2376SOL    HW224271   1.834   0.855   0.068
 2377SOL     OW24272   4.801   1.875   1.551
 2377SOL    HW124273   4.708   1.897   1.547
 2377SOL    HW224274   4.804   1.781   1.533
 2378SOL     OW24275   0.589   2.835   7.178
 2378SOL    HW124276   0.622   2.920   7.207
 2378SOL    HW224277   0.631   2.821   7.093
 2379SOL     OW24278   1.898   5.506   0.307
 2379SOL    HW124279   1.852   5.424   0.324
 2379SOL    HW224280   1.960   5.513   0.379
 2380SOL     OW24281   4.927   5.722   0.023
 2380SOL    HW124282   4.875   5.729   0.102
 2380SOL    HW224283   5.018   5.720   0.053
 2381SOL     OW24284   6.246   4.624   7.660
 2381SOL    HW124285   6.335   4.597   7.636
 2381SOL    HW224286   6.259   4.696   7.720
 2382SOL     OW24287   4.201   6.077   1.001
 2382SOL    HW124288   4.127   6.103   1.056
 2382SOL    HW224289   4.164   6.013   0.940
 2383SOL     OW24290   1.437   3.734   0.150
 2383SOL    HW124291   1.358   3.681   0.150
 2383SOL    HW224292   1.411   3.816   0.108
 2384SOL     OW24293   3.662   1.010   7.759
 2384SOL    HW124294   3.600   0.957   0.007
 2384SOL    HW224295   3.739   0.955   7.751
 2385SOL     OW24296   2.372   1.819   6.893
 2385SOL    HW124297   2.338   1.794   6.979
 2385SOL    HW224298   2.396   1.736   6.851
 2386SOL     OW24299   0.071   1.379   6.492
 2386SOL    HW124300   0.027   1.347   6.571
 2386SOL    HW224301   0.153   1.330   6.489
 2387SOL     OW24302   1.666   4.566   1.484
 2387SOL    HW124303   1.696   4.476   1.491
 2387SOL    HW224304   1.611   4.580   1.562
 2388SOL     OW24305   3.382   2.761   1.772
 2388SOL    HW124306   3.349   2.687   1.823
 2388SOL    HW224307   3.346   2.838   1.816
 2389SOL     OW24308   1.693   1.476   1.010
 2389SOL    HW124309   1.607   1.443   0.984
 2389SOL    HW224310   1.700   1.561   0.967
 2390SOL     OW24311   4.034   3.118   1.369
 2390SOL    HW124312   4.039   3.210   1.342
 2390SOL    HW224313   4.093   3.113   1.445
 2391SOL     OW24314   1.041   0.554   6.897
 2391SOL    HW124315   1.014   0.644   6.881
 2391SOL    HW224316   1.097   0.559   6.975
 2392SOL     OW24317   0.251   2.384   6.147
 2392SOL    HW124318   0.248   2.415   6.057
 2392SOL    HW224319   0.337   2.411   6.179
 2393SOL     OW24320   4.510   5.352   2.125
 2393SOL    HW124321   4.568   5.293   2.076
 2393SOL    HW224322   4.477   5.413   2.060
 2394SOL     OW24323   0.746   3.569   7.536
 2394SOL    HW124324   0.734   3.507   7.608
 2394SOL    HW224325   0.725   3.519   7.457
 2395SOL     OW24326   4.068   2.629   6.619
 2395SOL    HW124327   4.011   2.619   6.695
 2395SOL    HW224328   4.139   2.567   6.634
 2396SOL     OW24329   5.828   1.562   6.992
 2396SOL    HW124330   5.921   1.578   7.007
 2396SOL    HW224331   5.822   1.539   6.899
 2397SOL     OW24332   5.047   4.213   2.030
 2397SOL    HW124333   5.057   4.237   1.938
 2397SOL    HW224334   5.060   4.295   2.078
 2398SOL     OW24335   0.734   0.644   7.245
 2398SOL    HW124336   0.752   0.725   7.198
 2398SOL    HW224337   0.799   0.641   7.315
 2399SOL     OW24338   4.383   6.002   6.083
 2399SOL    HW124339   4.345   5.947   6.015
 2399SOL    HW224340   4.436   6.065   6.036
 2400SOL     OW24341   3.677   3.476   6.853
 2400SOL    HW124342   3.727   3.516   6.923
 2400SOL    HW224343   3.694   3.382   6.861
 2401SOL     OW24344   5.901   4.942   6.445
 2401SOL    HW124345   5.980   4.937   6.392
 2401SOL    HW224346   5.870   4.851   6.450
 2402SOL     OW24347   3.664   3.495   0.660
 2402SOL    HW124348   3.582   3.533   0.691
 2402SOL    HW224349   3.732   3.557   0.686
 2403SOL     OW24350   2.398   1.669   1.504
 2403SOL    HW124351   2.454   1.642   1.432
 2403SOL    HW224352   2.368   1.588   1.544
 2404SOL     OW24353   3.469   3.032   5.621
 2404SOL    HW124354   3.472   2.997   5.532
 2404SOL    HW224355   3.454   3.126   5.609
 2405SOL     OW24356   1.294   4.715   1.564
 2405SOL    HW124357   1.283   4.658   1.488
 2405SOL    HW224358   1.206   4.728   1.598
 2406SOL     OW24359   4.954   0.482   7.274
 2406SOL    HW124360   4.912   0.553   7.227
 2406SOL    HW224361   4.995   0.429   7.206
 2407SOL     OW24362   5.149   5.121   6.650
 2407SOL    HW124363   5.177   5.212   6.648
 2407SOL    HW224364   5.206   5.080   6.716
 2408SOL     OW24365   0.120   0.066   1.608
 2408SOL    HW124366   0.160   0.037   1.689
 2408SOL    HW224367   0.136   6.442   1.546
 2409SOL     OW24368   0.109   6.410   7.596
 2409SOL    HW124369   0.142   6.321   7.585
 2409SOL    HW224370   0.173   0.005   7.651
 2410SOL     OW24371   1.438   1.239   1.821
 2410SOL    HW124372   1.454   1.159   1.871
 2410SOL    HW224373   1.522   1.285   1.821
 2411SOL     OW24374   2.965   0.795   0.194
 2411SOL    HW124375   2.897   0.855   0.226
 2411SOL    HW224376   2.922   0.745   0.125
 2412SOL     OW24377   0.857   6.292   7.154
 2412SOL    HW124378   0.770   6.314   7.187
 2412SOL    HW224379   0.858   6.323   7.064
 2413SOL     OW24380   5.053   2.307   7.734
 2413SOL    HW124381   5.095   2.321   0.017
 2413SOL    HW224382   5.110   2.353   7.672
 2414SOL     OW24383   2.004   1.569   0.751
 2414SOL    HW124384   1.991   1.566   0.846
 2414SOL    HW224385   2.096   1.547   0.738
 2415SOL     OW24386   4.201   6.412   1.651
 2415SOL    HW124387   4.221   6.326   1.613
 2415SOL    HW224388   4.281   0.015   1.638
 2416SOL     OW24389   4.354   1.666   1.138
 2416SOL    HW124390   4.386   1.599   1.078
 2416SOL    HW224391   4.434   1.707   1.173
 2417SOL     OW24392   1.079   4.392   7.359
 2417SOL    HW124393   0.998   4.414   7.406
 2417SOL    HW224394   1.056   4.401   7.266
 2418SOL     OW24395   3.033   1.567   5.376
 2418SOL    HW124396   3.016   1.523   5.293
 2418SOL    HW224397   2.965   1.635   5.381
 2419SOL     OW24398   4.494   3.190   6.337
 2419SOL    HW124399   4.529   3.101   6.329
 2419SOL    HW224400   4.401   3.178   6.352
 2420SOL     OW24401   1.183   0.004   6.379
 2420SOL    HW124402   1.223   0.058   6.311
 2420SOL    HW224403   1.089   0.013   6.364
 2421SOL     OW24404   2.706   1.132   1.490
 2421SOL    HW124405   2.777   1.184   1.528
 2421SOL    HW224406   2.732   1.041   1.505
 2422SOL     OW24407   3.604   4.717   0.701
 2422SOL    HW124408   3.549   4.649   0.662
 2422SOL    HW224409   3.576   4.721   0.792
 2423SOL     OW24410   5.385   4.334   2.483
 2423SOL    HW124411   5.439   4.398   2.436
 2423SOL    HW224412   5.318   4.387   2.527
 2424SOL     OW24413   1.803   4.591   0.370
 2424SOL    HW124414   1.819   4.585   0.465
 2424SOL    HW224415   1.844   4.673   0.344
 2425SOL     OW24416   5.366   0.626   7.784
 2425SOL    HW124417   5.441   0.568   7.774
 2425SOL    HW224418   5.357   0.668   7.698
 2426SOL     OW24419   5.652   3.498   6.887
 2426SOL    HW124420   5.713   3.430   6.915
 2426SOL    HW224421   5.642   3.554   6.964
 2427SOL     OW24422   3.139   3.144   1.077
 2427SOL    HW124423   3.091   3.130   0.996
 2427SOL    HW224424   3.075   3.181   1.138
 2428SOL     OW24425   5.081   3.524   5.603
 2428SOL    HW124426   5.054   3.613   5.582
 2428SOL    HW224427   5.126   3.494   5.524
 2429SOL     OW24428   2.289   4.207   0.146
 2429SOL    HW124429   2.263   4.204   0.054
 2429SOL    HW224430   2.332   4.123   0.162
 2430SOL     OW24431   2.029   0.653   5.671
 2430SOL    HW124432   1.962   0.616   5.614
 2430SOL    HW224433   2.098   0.683   5.611
 2431SOL     OW24434   2.322   3.857   6.761
 2431SOL    HW124435   2.362   3.845   6.848
 2431SOL    HW224436   2.246   3.798   6.762
 2432SOL     OW24437   2.405   3.912   1.232
 2432SOL    HW124438   2.409   3.894   1.139
 2432SOL    HW224439   2.494   3.896   1.264
 2433SOL     OW24440   6.118   5.525   1.602
 2433SOL    HW124441   6.185   5.509   1.535
 2433SOL    HW224442   6.167   5.563   1.675
 2434SOL     OW24443   0.719   2.046   1.346
 2434SOL    HW124444   0.745   2.128   1.388
 2434SOL    HW224445   0.801   1.997   1.338
 2435SOL     OW24446   5.610   5.158   0.916
 2435SOL    HW124447   5.604   5.100   0.840
 2435SOL    HW224448   5.697   5.198   0.909
 2436SOL     OW24449   0.054   4.935   6.218
 2436SOL    HW124450   0.113   4.912   6.146
 2436SOL    HW224451   6.422   4.962   6.175
 2437SOL     OW24452   6.178   6.203   6.328
 2437SOL    HW124453   6.241   6.227   6.261
 2437SOL    HW224454   6.184   6.108   6.335
 2438SOL     OW24455   1.596   3.890   6.784
 2438SOL    HW124456   1.565   3.799   6.780
 2438SOL    HW224457   1.653   3.893   6.861
 2439SOL     OW24458   0.944   1.886   1.332
 2439SOL    HW124459   1.027   1.904   1.378
 2439SOL    HW224460   0.928   1.793   1.348
 2440SOL     OW24461   5.095   4.306   1.782
 2440SOL    HW124462   5.056   4.278   1.699
 2440SOL    HW224463   5.189   4.303   1.767
 2441SOL     OW24464   2.570   2.293   5.478
 2441SOL    HW124465   2.560   2.221   5.416
 2441SOL    HW224466   2.494   2.349   5.463
 2442SOL     OW24467   4.550   5.198   5.966
 2442SOL    HW124468   4.499   5.269   5.929
 2442SOL    HW224469   4.632   5.199   5.917
 2443SOL     OW24470   1.666   4.092   6.410
 2443SOL    HW124471   1.728   4.033   6.366
 2443SOL    HW224472   1.598   4.034   6.445
 2444SOL     OW24473   5.348   0.062   6.755
 2444SOL    HW124474   5.360   0.157   6.765
 2444SOL    HW224475   5.344   0.049   6.660
 2445SOL     OW24476   0.427   3.152   6.332
 2445SOL    HW124477   0.444   3.059   6.347
 2445SOL    HW224478   0.511   3.194   6.347
 2446SOL     OW24479   5.143   4.906   1.673
 2446SOL    HW124480   5.149   4.838   1.606
 2446SOL    HW224481   5.090   4.867   1.743
 2447SOL     OW24482   5.853   1.394   2.331
 2447SOL    HW124483   5.818   1.476   2.296
 2447SOL    HW224484   5.793   1.369   2.401
 2448SOL     OW24485   5.407   4.752   0.447
 2448SOL    HW124486   5.411   4.773   0.541
 2448SOL    HW224487   5.483   4.695   0.433
 2449SOL     OW24488   3.045   1.996   6.755
 2449SOL    HW124489   3.014   2.010   6.844
 2449SOL    HW224490   3.118   1.935   6.764
 2450SOL     OW24491   5.556   4.411   6.552
 2450SOL    HW124492   5.548   4.372   6.464
 2450SOL    HW224493   5.494   4.362   6.605
 2451SOL     OW24494   5.770   3.309   0.704
 2451SOL    HW124495   5.848   3.349   0.744
 2451SOL    HW224496   5.805   3.246   0.641
 2452SOL     OW24497   2.657   1.177   4.958
 2452SOL    HW124498   2.600   1.223   4.896
 2452SOL    HW224499   2.610   1.182   5.041
 2453SOL     OW24500   6.409   4.685   6.030
 2453SOL    HW124501   0.050   4.676   5.995
 2453SOL    HW224502   6.398   4.779   6.042
 2454SOL     OW24503   6.398   3.708   5.636
 2454SOL    HW124504   0.035   3.669   5.613
 2454SOL    HW224505   6.415   3.803   5.634
 2455SOL     OW24506   0.317   2.852   7.154
 2455SOL    HW124507   0.300   2.803   7.073
 2455SOL    HW224508   0.411   2.840   7.170
 2456SOL     OW24509   6.100   0.654   1.063
 2456SOL    HW124510   6.023   0.703   1.038
 2456SOL    HW224511   6.137   0.703   1.137
 2457SOL     OW24512   4.655   6.296   1.023
 2457SOL    HW124513   4.746   6.306   1.053
 2457SOL    HW224514   4.603   6.299   1.103
 2458SOL     OW24515   3.768   2.811   7.446
 2458SOL    HW124516   3.758   2.906   7.440
 2458SOL    HW224517   3.854   2.798   7.486
 2459SOL     OW24518   0.689   2.100   7.105
 2459SOL    HW124519   0.685   2.194   7.085
 2459SOL    HW224520   0.660   2.058   7.024
 2460SOL     OW24521   4.003   0.317   6.341
 2460SOL    HW124522   3.973   0.249   6.281
 2460SOL    HW224523   4.084   0.350   6.301
 2461SOL     OW24524   1.499   4.865   7.190
 2461SOL    HW124525   1.455   4.920   7.126
 2461SOL    HW224526   1.483   4.907   7.274
 2462SOL     OW24527   4.961   2.610   6.392
 2462SOL    HW124528   4.952   2.621   6.297
 2462SOL    HW224529   5.046   2.568   6.404
 2463SOL     OW24530   2.307   1.668   1.974
 2463SOL    HW124531   2.220   1.627   1.971
 2463SOL    HW224532   2.364   1.607   1.928
 2464SOL     OW24533   2.010   0.409   0.384
 2464SOL    HW124534   1.922   0.371   0.389
 2464SOL    HW224535   2.003   0.478   0.317
 2465SOL     OW24536   1.424   0.349   6.004
 2465SOL    HW124537   1.391   0.282   6.064
 2465SOL    HW224538   1.443   0.301   5.923
 2466SOL     OW24539   0.133   2.198   1.627
 2466SOL    HW124540   0.080   2.142   1.683
 2466SOL    HW224541   0.129   2.156   1.541
 2467SOL     OW24542   0.642   0.931   5.395
 2467SOL    HW124543   0.716   0.949   5.336
 2467SOL    HW224544   0.662   0.845   5.432
 2468SOL     OW24545   2.750   4.115   0.143
 2468SOL    HW124546   2.807   4.150   0.212
 2468SOL    HW224547   2.676   4.176   0.140
 2469SOL     OW24548   1.525   5.851   7.111
 2469SOL    HW124549   1.447   5.902   7.133
 2469SOL    HW224550   1.576   5.849   7.192
 2470SOL     OW24551   6.055   4.437   1.604
 2470SOL    HW124552   6.052   4.453   1.699
 2470SOL    HW224553   6.134   4.385   1.591
 2471SOL     OW24554   4.684   0.534   0.465
 2471SOL    HW124555   4.635   0.612   0.491
 2471SOL    HW224556   4.773   0.549   0.499
 2472SOL     OW24557   4.637   1.445   7.768
 2472SOL    HW124558   4.596   1.530   7.755
 2472SOL    HW224559   4.655   1.413   7.680
 2473SOL     OW24560   4.827   5.856   6.467
 2473SOL    HW124561   4.770   5.783   6.493
 2473SOL    HW224562   4.782   5.934   6.501
 2474SOL     OW24563   5.603   4.640   6.693
 2474SOL    HW124564   5.604   4.555   6.649
 2474SOL    HW224565   5.563   4.699   6.629
 2475SOL     OW24566   0.122   3.114   7.471
 2475SOL    HW124567   0.093   3.023   7.479
 2475SOL    HW224568   0.182   3.113   7.396
 2476SOL     OW24569   3.180   6.364   7.128
 2476SOL    HW124570   3.147   6.380   7.040
 2476SOL    HW224571   3.146   6.278   7.152
 2477SOL     OW24572   1.889   1.196   0.832
 2477SOL    HW124573   1.940   1.191   0.914
 2477SOL    HW224574   1.954   1.224   0.767
 2478SOL     OW24575   2.957   2.139   1.211
 2478SOL    HW124576   2.888   2.172   1.153
 2478SOL    HW224577   2.971   2.048   1.183
 2479SOL     OW24578   5.039   0.912   0.053
 2479SOL    HW124579   5.068   0.899   0.143
 2479SOL    HW224580   4.989   0.834   0.032
 2480SOL     OW24581   0.032   5.667   1.476
 2480SOL    HW124582   6.424   5.592   1.455
 2480SOL    HW224583   0.060   5.701   1.391
 2481SOL     OW24584   5.018   4.801   1.899
 2481SOL    HW124585   4.998   4.891   1.926
 2481SOL    HW224586   5.005   4.749   1.978
 2482SOL     OW24587   2.449   3.246   7.597
 2482SOL    HW124588   2.397   3.172   7.565
 2482SOL    HW224589   2.512   3.264   7.527
 2483SOL     OW24590   0.951   5.124   1.056
 2483SOL    HW124591   1.027   5.078   1.092
 2483SOL    HW224592   0.910   5.060   0.998
 2484SOL     OW24593   1.023   3.595   0.968
 2484SOL    HW124594   1.047   3.520   1.023
 2484SOL    HW224595   0.941   3.627   1.006
 2485SOL     OW24596   0.872   0.648   7.740
 2485SOL    HW124597   0.929   0.718   7.773
 2485SOL    HW224598   0.825   0.616   0.015
 2486SOL     OW24599   6.369   0.148   1.437
 2486SOL    HW124600   6.418   0.149   1.356
 2486SOL    HW224601   6.433   0.125   1.504
 2487SOL     OW24602   0.675   2.468   6.656
 2487SOL    HW124603   0.757   2.428   6.685
 2487SOL    HW224604   0.688   2.562   6.672
 2488SOL     OW24605   0.647   1.712   0.439
 2488SOL    HW124606   0.705   1.741   0.368
 2488SOL    HW224607   0.703   1.655   0.493
 2489SOL     OW24608   2.847   0.023   0.694
 2489SOL    HW124609   2.774   6.420   0.728
 2489SOL    HW224610   2.871   6.426   0.613
 2490SOL     OW24611   3.876   6.418   7.683
 2490SOL    HW124612   3.872   6.423   7.587
 2490SOL    HW224613   3.957   0.016   7.706
 2491SOL     OW24614   0.255   5.232   6.216
 2491SOL    HW124615   0.264   5.152   6.268
 2491SOL    HW224616   0.249   5.200   6.126
 2492SOL     OW24617   5.966   4.890   7.709
 2492SOL    HW124618   5.956   4.910   7.616
 2492SOL    HW224619   6.060   4.901   7.726
 2493SOL     OW24620   4.542   6.176   1.845
 2493SOL    HW124621   4.536   6.249   1.906
 2493SOL    HW224622   4.460   6.128   1.857
 2494SOL     OW24623   3.834   4.611   1.851
 2494SOL    HW124624   3.805   4.673   1.784
 2494SOL    HW224625   3.753   4.577   1.890
 2495SOL     OW24626   3.078   0.050   7.362
 2495SOL    HW124627   3.108   0.020   7.276
 2495SOL    HW224628   3.155   0.041   7.418
 2496SOL     OW24629   3.748   2.869   5.259
 2496SOL    HW124630   3.770   2.797   5.318
 2496SOL    HW224631   3.800   2.852   5.180
 2497SOL     OW24632   3.385   4.264   7.660
 2497SOL    HW124633   3.436   4.279   7.580
 2497SOL    HW224634   3.389   4.347   7.707
 2498SOL     OW24635   3.602   0.412   6.571
 2498SOL    HW124636   3.637   0.402   6.482
 2498SOL    HW224637   3.519   0.459   6.558
 2499SOL     OW24638   3.804   4.798   7.770
 2499SOL    HW124639   3.821   4.712   7.732
 2499SOL    HW224640   3.889   4.841   7.772
 2500SOL     OW24641   3.014   0.781   6.362
 2500SOL    HW124642   2.951   0.850   6.383
 2500SOL    HW224643   2.979   0.741   6.282
 2501SOL     OW24644   5.695   3.578   6.628
 2501SOL    HW124645   5.677   3.553   6.718
 2501SOL    HW224646   5.705   3.673   6.631
 2502SOL     OW24647   5.033   2.990   6.359
 2502SOL    HW124648   5.057   3.073   6.318
 2502SOL    HW224649   5.081   2.924   6.309
 2503SOL     OW24650   1.896   1.759   6.589
 2503SOL    HW124651   1.967   1.749   6.525
 2503SOL    HW224652   1.822   1.713   6.549
 2504SOL     OW24653   4.812   5.664   0.665
 2504SOL    HW124654   4.808   5.758   0.647
 2504SOL    HW224655   4.836   5.624   0.581
 2505SOL     OW24656   5.568   2.346   6.396
 2505SOL    HW124657   5.596   2.270   6.345
 2505SOL    HW224658   5.517   2.310   6.468
 2506SOL     OW24659   3.245   4.280   0.984
 2506SOL    HW124660   3.164   4.277   0.934
 2506SOL    HW224661   3.312   4.300   0.919
 2507SOL     OW24662   2.522   5.740   7.230
 2507SOL    HW124663   2.561   5.823   7.201
 2507SOL    HW224664   2.550   5.730   7.321
 2508SOL     OW24665   6.069   4.500   6.345
 2508SOL    HW124666   6.120   4.518   6.424
 2508SOL    HW224667   6.132   4.507   6.273
 2509SOL     OW24668   0.908   6.135   5.819
 2509SOL    HW124669   0.973   6.112   5.753
 2509SOL    HW224670   0.824   6.105   5.783
 2510SOL     OW24671   0.529   0.770   6.493
 2510SOL    HW124672   0.605   0.713   6.481
 2510SOL    HW224673   0.552   0.850   6.447
 2511SOL     OW24674   6.285   0.092   2.049
 2511SOL    HW124675   6.235   0.172   2.064
 2511SOL    HW224676   6.366   0.121   2.009
 2512SOL     OW24677   1.573   0.290   6.937
 2512SOL    HW124678   1.601   0.206   6.973
 2512SOL    HW224679   1.498   0.268   6.881
 2513SOL     OW24680   2.653   4.911   6.928
 2513SOL    HW124681   2.656   4.957   6.844
 2513SOL    HW224682   2.566   4.871   6.931
 2514SOL     OW24683   4.793   4.536   0.697
 2514SOL    HW124684   4.736   4.506   0.767
 2514SOL    HW224685   4.858   4.592   0.741
 2515SOL     OW24686   0.998   2.227   1.071
 2515SOL    HW124687   1.015   2.215   1.164
 2515SOL    HW224688   1.078   2.194   1.028
 2516SOL     OW24689   0.250   2.879   1.679
 2516SOL    HW124690   0.177   2.909   1.734
 2516SOL    HW224691   0.258   2.946   1.612
 2517SOL     OW24692   6.308   0.041   7.320
 2517SOL    HW124693   6.314   6.414   7.379
 2517SOL    HW224694   6.286   0.003   7.235
 2518SOL     OW24695   0.226   3.447   5.812
 2518SOL    HW124696   0.302   3.394   5.789
 2518SOL    HW224697   0.201   3.489   5.730
 2519SOL     OW24698   4.080   4.917   6.616
 2519SOL    HW124699   4.154   4.896   6.673
 2519SOL    HW224700   4.014   4.850   6.636
 2520SOL     OW24701   2.481   6.114   5.717
 2520SOL    HW124702   2.537   6.047   5.678
 2520SOL    HW224703   2.415   6.132   5.650
 2521SOL     OW24704   4.381   4.819   7.344
 2521SOL    HW124705   4.440   4.882   7.305
 2521SOL    HW224706   4.377   4.747   7.281
 2522SOL     OW24707   4.473   2.208   2.207
 2522SOL    HW124708   4.427   2.210   2.122
 2522SOL    HW224709   4.496   2.116   2.220
 2523SOL     OW24710   1.187   0.970   5.810
 2523SOL    HW124711   1.155   0.924   5.888
 2523SOL    HW224712   1.108   0.989   5.760
 2524SOL     OW24713   5.338   4.766   1.850
 2524SOL    HW124714   5.303   4.744   1.936
 2524SOL    HW224715   5.280   4.836   1.818
 2525SOL     OW24716   5.281   3.857   5.614
 2525SOL    HW124717   5.314   3.946   5.629
 2525SOL    HW224718   5.310   3.835   5.526
 2526SOL     OW24719   1.240   5.242   1.287
 2526SOL    HW124720   1.171   5.227   1.352
 2526SOL    HW224721   1.280   5.325   1.314
 2527SOL     OW24722   0.980   1.029   5.642
 2527SOL    HW124723   0.885   1.034   5.628
 2527SOL    HW224724   1.014   0.994   5.560
 2528SOL     OW24725   2.671   2.269   1.673
 2528SOL    HW124726   2.656   2.362   1.689
 2528SOL    HW224727   2.622   2.224   1.742
 2529SOL     OW24728   6.230   1.944   5.768
 2529SOL    HW124729   6.264   2.008   5.706
 2529SOL    HW224730   6.293   1.871   5.764
 2530SOL     OW24731   5.784   0.472   2.268
 2530SOL    HW124732   5.815   0.386   2.296
 2530SOL    HW224733   5.820   0.483   2.179
 2531SOL     OW24734   0.631   2.788   7.618
 2531SOL    HW124735   0.629   2.879   7.648
 2531SOL    HW224736   0.724   2.769   7.605
 2532SOL     OW24737   3.616   3.202   0.423
 2532SOL    HW124738   3.662   3.137   0.477
 2532SOL    HW224739   3.681   3.270   0.408
 2533SOL     OW24740   4.635   0.403   7.521
 2533SOL    HW124741   4.654   0.312   7.497
 2533SOL    HW224742   4.589   0.396   7.605
 2534SOL     OW24743   4.363   2.280   7.142
 2534SOL    HW124744   4.304   2.224   7.193
 2534SOL    HW224745   4.448   2.237   7.148
 2535SOL     OW24746   4.334   4.273   2.064
 2535SOL    HW124747   4.305   4.349   2.012
 2535SOL    HW224748   4.369   4.311   2.144
 2536SOL     OW24749   2.500   2.554   5.216
 2536SOL    HW124750   2.583   2.509   5.197
 2536SOL    HW224751   2.526   2.642   5.243
 2537SOL     OW24752   3.192   3.901   0.832
 2537SOL    HW124753   3.116   3.959   0.837
 2537SOL    HW224754   3.158   3.815   0.856
 2538SOL     OW24755   3.877   3.031   0.970
 2538SOL    HW124756   3.783   3.011   0.968
 2538SOL    HW224757   3.905   3.022   0.879
 2539SOL     OW24758   5.528   3.390   1.162
 2539SOL    HW124759   5.564   3.358   1.080
 2539SOL    HW224760   5.601   3.436   1.204
 2540SOL     OW24761   6.083   2.828   1.079
 2540SOL    HW124762   6.053   2.773   1.007
 2540SOL    HW224763   6.004   2.844   1.131
 2541SOL     OW24764   0.343   0.958   1.196
 2541SOL    HW124765   0.373   0.925   1.281
 2541SOL    HW224766   0.321   0.880   1.146
 2542SOL     OW24767   5.955   1.127   0.502
 2542SOL    HW124768   5.965   1.113   0.408
 2542SOL    HW224769   6.005   1.056   0.543
 2543SOL     OW24770   1.929   1.287   6.556
 2543SOL    HW124771   1.972   1.207   6.528
 2543SOL    HW224772   1.995   1.355   6.544
 2544SOL     OW24773   6.145   4.877   7.275
 2544SOL    HW124774   6.141   4.934   7.199
 2544SOL    HW224775   6.207   4.808   7.250
 2545SOL     OW24776   0.150   0.862   7.611
 2545SOL    HW124777   0.214   0.792   7.613
 2545SOL    HW224778   0.076   0.825   7.562
 2546SOL     OW24779   2.465   4.039   6.293
 2546SOL    HW124780   2.504   4.008   6.211
 2546SOL    HW224781   2.539   4.044   6.354
 2547SOL     OW24782   1.564   4.344   6.349
 2547SOL    HW124783   1.576   4.349   6.254
 2547SOL    HW224784   1.601   4.258   6.373
 2548SOL     OW24785   4.589   3.194   0.596
 2548SOL    HW124786   4.681   3.189   0.623
 2548SOL    HW224787   4.548   3.254   0.657
 2549SOL     OW24788   2.399   5.975   0.818
 2549SOL    HW124789   2.372   5.955   0.728
 2549SOL    HW224790   2.383   5.894   0.866
 2550SOL     OW24791   1.172   4.281   1.465
 2550SOL    HW124792   1.178   4.252   1.374
 2550SOL    HW224793   1.215   4.213   1.515
 2551SOL     OW24794   0.538   2.575   6.016
 2551SOL    HW124795   0.621   2.621   6.008
 2551SOL    HW224796   0.537   2.542   6.106
 2552SOL     OW24797   5.008   2.481   5.883
 2552SOL    HW124798   5.020   2.495   5.789
 2552SOL    HW224799   4.966   2.396   5.890
 2553SOL     OW24800   2.669   6.249   0.421
 2553SOL    HW124801   2.603   6.312   0.450
 2553SOL    HW224802   2.752   6.292   0.438
 2554SOL     OW24803   0.705   4.267   0.346
 2554SOL    HW124804   0.668   4.197   0.293
 2554SOL    HW224805   0.768   4.310   0.288
 2555SOL     OW24806   0.562   0.344   6.357
 2555SOL    HW124807   0.600   0.361   6.444
 2555SOL    HW224808   0.475   0.308   6.375
 2556SOL     OW24809   1.449   3.335   0.356
 2556SOL    HW124810   1.377   3.318   0.295
 2556SOL    HW224811   1.408   3.386   0.427
 2557SOL     OW24812   2.596   0.031   2.024
 2557SOL    HW124813   2.559   0.044   2.111
 2557SOL    HW224814   2.690   0.034   2.036
 2558SOL     OW24815   2.119   4.078   0.943
 2558SOL    HW124816   2.086   4.094   0.855
 2558SOL    HW224817   2.127   3.982   0.949
 2559SOL     OW24818   5.400   1.702   0.295
 2559SOL    HW124819   5.316   1.717   0.252
 2559SOL    HW224820   5.442   1.788   0.299
 2560SOL     OW24821   3.677   0.262   1.790
 2560SOL    HW124822   3.674   0.222   1.703
 2560SOL    HW224823   3.682   0.188   1.850
 2561SOL     OW24824   0.369   6.227   1.686
 2561SOL    HW124825   0.454   6.211   1.644
 2561SOL    HW224826   0.308   6.169   1.640
 2562SOL     OW24827   4.440   2.064   1.181
 2562SOL    HW124828   4.494   2.115   1.242
 2562SOL    HW224829   4.481   2.078   1.095
 2563SOL     OW24830   3.311   0.030   7.508
 2563SOL    HW124831   3.355   0.115   7.507
 2563SOL    HW224832   3.336   6.439   7.591
 2564SOL     OW24833   4.859   1.219   0.710
 2564SOL    HW124834   4.895   1.133   0.687
 2564SOL    HW224835   4.878   1.273   0.634
 2565SOL     OW24836   1.754   3.662   6.533
 2565SOL    HW124837   1.795   3.628   6.453
 2565SOL    HW224838   1.752   3.587   6.592
 2566SOL     OW24839   1.739   5.581   7.173
 2566SOL    HW124840   1.730   5.663   7.222
 2566SOL    HW224841   1.651   5.564   7.139
 2567SOL     OW24842   2.652   5.274   7.216
 2567SOL    HW124843   2.689   5.238   7.135
 2567SOL    HW224844   2.558   5.257   7.209
 2568SOL     OW24845   3.391   3.326   0.524
 2568SOL    HW124846   3.421   3.412   0.551
 2568SOL    HW224847   3.470   3.281   0.495
 2569SOL     OW24848   1.463   4.991   7.430
 2569SOL    HW124849   1.461   5.080   7.395
 2569SOL    HW224850   1.395   4.990   7.497
 2570SOL     OW24851   5.093   6.095   0.824
 2570SOL    HW124852   5.122   6.099   0.733
 2570SOL    HW224853   5.012   6.044   0.821
 2571SOL     OW24854   0.619   6.136   7.479
 2571SOL    HW124855   0.559   6.072   7.516
 2571SOL    HW224856   0.706   6.098   7.492
 2572SOL     OW24857   5.783   2.537   6.096
 2572SOL    HW124858   5.727   2.466   6.066
 2572SOL    HW224859   5.782   2.529   6.192
 2573SOL     OW24860   0.165   4.950   6.847
 2573SOL    HW124861   0.203   4.967   6.934
 2573SOL    HW224862   0.200   4.864   6.823
 2574SOL     OW24863   3.994   1.946   7.283
 2574SOL    HW124864   4.019   1.861   7.318
 2574SOL    HW224865   3.899   1.949   7.291
 2575SOL     OW24866   5.373   6.022   1.720
 2575SOL    HW124867   5.420   6.008   1.802
 2575SOL    HW224868   5.282   6.034   1.747
 2576SOL     OW24869   3.282   0.714   6.310
 2576SOL    HW124870   3.192   0.740   6.330
 2576SOL    HW224871   3.292   0.735   6.217
 2577SOL     OW24872   0.457   3.817   6.426
 2577SOL    HW124873   0.411   3.895   6.459
 2577SOL    HW224874   0.550   3.835   6.442
 2578SOL     OW24875   2.571   2.219   6.396
 2578SOL    HW124876   2.504   2.224   6.328
 2578SOL    HW224877   2.537   2.273   6.467
 2579SOL     OW24878   4.661   3.301   6.978
 2579SOL    HW124879   4.577   3.332   7.010
 2579SOL    HW224880   4.643   3.267   6.891
 2580SOL     OW24881   5.532   0.052   0.218
 2580SOL    HW124882   5.575   0.008   0.291
 2580SOL    HW224883   5.482   6.432   0.174
 2581SOL     OW24884   6.242   4.220   5.956
 2581SOL    HW124885   6.150   4.229   5.980
 2581SOL    HW224886   6.275   4.309   5.957
 2582SOL     OW24887   0.891   2.662   2.059
 2582SOL    HW124888   0.973   2.638   2.016
 2582SOL    HW224889   0.869   2.747   2.022
 2583SOL     OW24890   5.956   1.420   2.640
 2583SOL    HW124891   6.004   1.413   2.557
 2583SOL    HW224892   5.870   1.382   2.620
 2584SOL     OW24893   1.827   2.333   1.051
 2584SOL    HW124894   1.922   2.329   1.052
 2584SOL    HW224895   1.798   2.244   1.068
 2585SOL     OW24896   2.380   1.179   7.792
 2585SOL    HW124897   2.442   1.127   7.741
 2585SOL    HW224898   2.309   1.198   7.730
 2586SOL     OW24899   5.274   1.529   2.267
 2586SOL    HW124900   5.369   1.519   2.256
 2586SOL    HW224901   5.252   1.609   2.219
 2587SOL     OW24902   3.302   5.983   5.522
 2587SOL    HW124903   3.232   6.046   5.541
 2587SOL    HW224904   3.266   5.927   5.453
 2588SOL     OW24905   4.016   2.225   0.403
 2588SOL    HW124906   4.065   2.143   0.389
 2588SOL    HW224907   4.074   2.293   0.370
 2589SOL     OW24908   2.787   0.177   1.597
 2589SOL    HW124909   2.715   0.172   1.660
 2589SOL    HW224910   2.758   0.240   1.531
 2590SOL     OW24911   5.679   3.881   0.675
 2590SOL    HW124912   5.630   3.950   0.721
 2590SOL    HW224913   5.730   3.838   0.743
 2591SOL     OW24914   0.931   1.852   6.992
 2591SOL    HW124915   1.009   1.800   6.972
 2591SOL    HW224916   0.858   1.795   6.969
 2592SOL     OW24917   0.706   5.307   7.314
 2592SOL    HW124918   0.761   5.385   7.319
 2592SOL    HW224919   0.767   5.233   7.314
 2593SOL     OW24920   1.168   5.293   7.611
 2593SOL    HW124921   1.090   5.239   7.602
 2593SOL    HW224922   1.186   5.324   7.522
 2594SOL     OW24923   3.877   4.487   0.203
 2594SOL    HW124924   3.786   4.518   0.201
 2594SOL    HW224925   3.906   4.504   0.292
 2595SOL     OW24926   0.665   1.494   6.510
 2595SOL    HW124927   0.647   1.574   6.461
 2595SOL    HW224928   0.725   1.522   6.580
 2596SOL     OW24929   1.535   4.835   6.804
 2596SOL    HW124930   1.612   4.892   6.802
 2596SOL    HW224931   1.477   4.876   6.868
 2597SOL     OW24932   4.097   4.778   0.715
 2597SOL    HW124933   4.135   4.835   0.648
 2597SOL    HW224934   4.004   4.802   0.717
 2598SOL     OW24935   3.067   0.585   0.347
 2598SOL    HW124936   3.041   0.520   0.281
 2598SOL    HW224937   3.045   0.669   0.306
 2599SOL     OW24938   0.026   4.033   7.623
 2599SOL    HW124939   6.416   4.036   7.547
 2599SOL    HW224940   0.048   3.940   7.633
 2600SOL     OW24941   3.945   1.655   6.095
 2600SOL    HW124942   3.948   1.694   6.182
 2600SOL    HW224943   3.999   1.712   6.041
 2601SOL     OW24944   3.153   4.720   7.317
 2601SOL    HW124945   3.091   4.736   7.389
 2601SOL    HW224946   3.212   4.652   7.351
 2602SOL     OW24947   0.868   1.407   1.915
 2602SOL    HW124948   0.929   1.433   1.983
 2602SOL    HW224949   0.882   1.312   1.906
 2603SOL     OW24950   0.911   6.024   6.329
 2603SOL    HW124951   0.916   5.928   6.332
 2603SOL    HW224952   0.881   6.044   6.240
 2604SOL     OW24953   0.990   1.631   7.306
 2604SOL    HW124954   0.986   1.726   7.293
 2604SOL    HW224955   0.910   1.610   7.355
 2605SOL     OW24956   5.902   1.273   6.540
 2605SOL    HW124957   5.835   1.232   6.484
 2605SOL    HW224958   5.975   1.290   6.482
 2606SOL     OW24959   3.162   3.617   1.972
 2606SOL    HW124960   3.244   3.580   1.938
 2606SOL    HW224961   3.114   3.541   2.004
 2607SOL     OW24962   1.969   4.679   2.373
 2607SOL    HW124963   1.938   4.768   2.355
 2607SOL    HW224964   2.030   4.661   2.301
 2608SOL     OW24965   0.895   3.107   1.535
 2608SOL    HW124966   0.944   3.062   1.604
 2608SOL    HW224967   0.816   3.053   1.523
 2609SOL     OW24968   1.707   2.708   1.425
 2609SOL    HW124969   1.735   2.635   1.368
 2609SOL    HW224970   1.640   2.670   1.481
 2610SOL     OW24971   2.166   4.692   0.080
 2610SOL    HW124972   2.228   4.667   0.013
 2610SOL    HW224973   2.130   4.609   0.112
 2611SOL     OW24974   3.459   1.470   1.240
 2611SOL    HW124975   3.483   1.561   1.218
 2611SOL    HW224976   3.542   1.423   1.238
 2612SOL     OW24977   2.141   4.890   1.267
 2612SOL    HW124978   2.193   4.959   1.227
 2612SOL    HW224979   2.054   4.929   1.280
 2613SOL     OW24980   1.080   3.361   1.111
 2613SOL    HW124981   1.068   3.282   1.163
 2613SOL    HW224982   1.174   3.362   1.091
 2614SOL     OW24983   4.920   0.078   1.300
 2614SOL    HW124984   4.913   0.137   1.225
 2614SOL    HW224985   5.014   0.065   1.313
 2615SOL     OW24986   1.723   5.244   7.417
 2615SOL    HW124987   1.789   5.311   7.401
 2615SOL    HW224988   1.708   5.248   7.512
 2616SOL     OW24989   3.696   0.864   0.684
 2616SOL    HW124990   3.607   0.876   0.717
 2616SOL    HW224991   3.686   0.864   0.588
 2617SOL     OW24992   4.125   4.353   6.412
 2617SOL    HW124993   4.082   4.437   6.425
 2617SOL    HW224994   4.199   4.354   6.473
 2618SOL     OW24995   2.616   3.756   5.618
 2618SOL    HW124996   2.579   3.688   5.562
 2618SOL    HW224997   2.687   3.712   5.666
 2619SOL     OW24998   3.115   1.073   6.328
 2619SOL    HW124999   3.151   1.153   6.291
 2619SOL    HW225000   3.144   1.003   6.269
 2620SOL     OW25001   0.148   3.453   1.591
 2620SOL    HW125002   0.095   3.445   1.512
 2620SOL    HW225003   0.130   3.372   1.640
 2621SOL     OW25004   4.865   5.699   5.712
 2621SOL    HW125005   4.771   5.690   5.697
 2621SOL    HW225006   4.890   5.775   5.658
 2622SOL     OW25007   4.239   0.365   6.199
 2622SOL    HW125008   4.291   0.300   6.246
 2622SOL    HW225009   4.244   0.340   6.107
 2623SOL     OW25010   0.550   5.538   6.841
 2623SOL    HW125011   0.556   5.453   6.798
 2623SOL    HW225012   0.622   5.539   6.904
 2624SOL     OW25013   4.913   5.186   6.514
 2624SOL    HW125014   4.946   5.170   6.426
 2624SOL    HW225015   4.984   5.157   6.572
 2625SOL     OW25016   6.358   3.666   0.972
 2625SOL    HW125017   6.448   3.637   0.961
 2625SOL    HW225018   6.346   3.672   1.067
 2626SOL     OW25019   5.529   1.801   7.756
 2626SOL    HW125020   5.452   1.858   7.746
 2626SOL    HW225021   5.582   1.820   7.679
 2627SOL     OW25022   3.609   4.635   0.264
 2627SOL    HW125023   3.592   4.677   0.180
 2627SOL    HW225024   3.637   4.706   0.321
 2628SOL     OW25025   2.131   3.953   7.762
 2628SOL    HW125026   2.215   3.909   7.750
 2628SOL    HW225027   2.106   3.932   0.049
 2629SOL     OW25028   1.354   3.669   7.297
 2629SOL    HW125029   1.431   3.724   7.311
 2629SOL    HW225030   1.288   3.704   7.357
 2630SOL     OW25031   2.047   1.704   0.514
 2630SOL    HW125032   2.033   1.666   0.601
 2630SOL    HW225033   2.140   1.689   0.496
 2631SOL     OW25034   1.342   3.495   0.559
 2631SOL    HW125035   1.331   3.580   0.518
 2631SOL    HW225036   1.271   3.489   0.623
 2632SOL     OW25037   3.969   2.345   0.648
 2632SOL    HW125038   3.980   2.302   0.563
 2632SOL    HW225039   3.900   2.294   0.691
 2633SOL     OW25040   0.658   5.502   2.260
 2633SOL    HW125041   0.618   5.472   2.342
 2633SOL    HW225042   0.592   5.560   2.222
 2634SOL     OW25043   0.048   4.330   2.020
 2634SOL    HW125044   0.044   4.389   2.095
 2634SOL    HW225045   0.119   4.270   2.039
 2635SOL     OW25046   2.003   1.949   5.882
 2635SOL    HW125047   2.080   1.891   5.885
 2635SOL    HW225048   1.930   1.893   5.908
 2636SOL     OW25049   4.753   6.415   0.654
 2636SOL    HW125050   4.670   6.417   0.700
 2636SOL    HW225051   4.816   0.002   0.717
 2637SOL     OW25052   1.323   2.093   7.430
 2637SOL    HW125053   1.415   2.089   7.453
 2637SOL    HW225054   1.290   2.005   7.445
 2638SOL     OW25055   0.594   0.496   7.456
 2638SOL    HW125056   0.634   0.537   7.379
 2638SOL    HW225057   0.505   0.474   7.428
 2639SOL     OW25058   2.763   3.423   6.854
 2639SOL    HW125059   2.812   3.343   6.832
 2639SOL    HW225060   2.814   3.494   6.814
 2640SOL     OW25061   0.740   2.947   6.533
 2640SOL    HW125062   0.740   3.026   6.588
 2640SOL    HW225063   0.759   2.979   6.445
 2641SOL     OW25064   6.168   1.947   0.445
 2641SOL    HW125065   6.241   1.915   0.498
 2641SOL    HW225066   6.200   2.030   0.408
 2642SOL     OW25067   6.003   5.756   6.327
 2642SOL    HW125068   5.999   5.741   6.233
 2642SOL    HW225069   6.067   5.825   6.339
 2643SOL     OW25070   1.926   5.254   6.660
 2643SOL    HW125071   1.945   5.348   6.666
 2643SOL    HW225072   1.959   5.229   6.573
 2644SOL     OW25073   0.029   6.238   5.875
 2644SOL    HW125074   6.420   6.224   5.800
 2644SOL    HW225075   0.113   6.265   5.838
 2645SOL     OW25076   1.975   6.043   1.829
 2645SOL    HW125077   1.983   5.948   1.821
 2645SOL    HW225078   2.059   6.072   1.863
 2646SOL     OW25079   4.389   5.648   0.290
 2646SOL    HW125080   4.323   5.682   0.229
 2646SOL    HW225081   4.339   5.593   0.351
 2647SOL     OW25082   2.838   2.314   7.363
 2647SOL    HW125083   2.823   2.340   7.454
 2647SOL    HW225084   2.848   2.397   7.316
 2648SOL     OW25085   1.916   5.430   0.726
 2648SOL    HW125086   1.969   5.469   0.656
 2648SOL    HW225087   1.894   5.343   0.693
 2649SOL     OW25088   2.604   4.263   5.756
 2649SOL    HW125089   2.518   4.270   5.797
 2649SOL    HW225090   2.651   4.198   5.809
 2650SOL     OW25091   2.992   0.071   6.259
 2650SOL    HW125092   2.908   0.085   6.304
 2650SOL    HW225093   3.031   6.444   6.305
 2651SOL     OW25094   5.861   5.299   7.203
 2651SOL    HW125095   5.856   5.275   7.296
 2651SOL    HW225096   5.781   5.264   7.165
 2652SOL     OW25097   4.291   5.709   2.094
 2652SOL    HW125098   4.327   5.649   2.160
 2652SOL    HW225099   4.255   5.651   2.026
 2653SOL     OW25100   1.121   5.035   5.825
 2653SOL    HW125101   1.134   4.956   5.876
 2653SOL    HW225102   1.209   5.063   5.800
 2654SOL     OW25103   0.287   6.066   0.049
 2654SOL    HW125104   0.261   5.989   7.802
 2654SOL    HW225105   0.329   6.030   0.128
 2655SOL     OW25106   6.252   0.870   6.833
 2655SOL    HW125107   6.254   0.774   6.827
 2655SOL    HW225108   6.159   0.891   6.844
 2656SOL     OW25109   3.222   1.519   7.657
 2656SOL    HW125110   3.241   1.428   7.634
 2656SOL    HW225111   3.134   1.516   7.695
 2657SOL     OW25112   4.568   1.029   0.538
 2657SOL    HW125113   4.527   1.094   0.481
 2657SOL    HW225114   4.575   1.073   0.623
 2658SOL     OW25115   3.423   3.646   5.031
 2658SOL    HW125116   3.444   3.556   5.055
 2658SOL    HW225117   3.402   3.641   4.938
 2659SOL     OW25118   5.324   6.431   1.098
 2659SOL    HW125119   5.260   6.398   1.035
 2659SOL    HW225120   5.398   6.371   1.090
 2660SOL     OW25121   5.295   4.957   1.074
 2660SOL    HW125122   5.284   4.894   1.004
 2660SOL    HW225123   5.260   5.039   1.039
 2661SOL     OW25124   3.050   0.479   6.957
 2661SOL    HW125125   3.138   0.471   6.994
 2661SOL    HW225126   2.993   0.489   7.033
 2662SOL     OW25127   1.555   0.656   1.572
 2662SOL    HW125128   1.560   0.584   1.635
 2662SOL    HW225129   1.522   0.730   1.622
 2663SOL     OW25130   2.026   5.859   0.914
 2663SOL    HW125131   2.005   5.767   0.929
 2663SOL    HW225132   2.043   5.865   0.821
 2664SOL     OW25133   0.601   4.793   7.587
 2664SOL    HW125134   0.562   4.708   7.608
 2664SOL    HW225135   0.625   4.786   7.495
 2665SOL     OW25136   6.265   5.248   7.702
 2665SOL    HW125137   6.326   5.182   7.736
 2665SOL    HW225138   6.272   5.239   7.607
 2666SOL     OW25139   3.613   1.746   0.158
 2666SOL    HW125140   3.590   1.837   0.141
 2666SOL    HW225141   3.546   1.695   0.113
 2667SOL     OW25142   0.013   5.994   6.944
 2667SOL    HW125143   6.440   6.029   7.031
 2667SOL    HW225144   6.381   5.952   6.914
 2668SOL     OW25145   1.471   5.238   7.307
 2668SOL    HW125146   1.560   5.250   7.341
 2668SOL    HW225147   1.481   5.239   7.212
 2669SOL     OW25148   0.594   1.075   1.112
 2669SOL    HW125149   0.578   1.166   1.089
 2669SOL    HW225150   0.507   1.040   1.132
 2670SOL     OW25151   6.432   1.520   6.886
 2670SOL    HW125152   6.349   1.541   6.928
 2670SOL    HW225153   0.005   1.597   6.834
 2671SOL     OW25154   4.066   4.229   0.365
 2671SOL    HW125155   3.983   4.190   0.340
 2671SOL    HW225156   4.098   4.272   0.285
 2672SOL     OW25157   5.675   4.529   7.516
 2672SOL    HW125158   5.749   4.511   7.458
 2672SOL    HW225159   5.612   4.576   7.461
 2673SOL     OW25160   2.036   1.826   2.187
 2673SOL    HW125161   2.126   1.806   2.211
 2673SOL    HW225162   2.020   1.913   2.224
 2674SOL     OW25163   1.088   3.234   1.847
 2674SOL    HW125164   1.075   3.220   1.941
 2674SOL    HW225165   1.071   3.149   1.807
 2675SOL     OW25166   0.777   5.813   1.248
 2675SOL    HW125167   0.818   5.888   1.207
 2675SOL    HW225168   0.824   5.737   1.213
 2676SOL     OW25169   4.286   5.641   7.160
 2676SOL    HW125170   4.214   5.621   7.219
 2676SOL    HW225171   4.350   5.571   7.174
 2677SOL     OW25172   4.888   5.631   7.573
 2677SOL    HW125173   4.899   5.662   7.663
 2677SOL    HW225174   4.975   5.605   7.545
 2678SOL     OW25175   5.020   0.185   6.107
 2678SOL    HW125176   5.044   0.270   6.070
 2678SOL    HW225177   4.963   0.146   6.041
 2679SOL     OW25178   3.596   0.254   0.114
 2679SOL    HW125179   3.603   0.160   0.099
 2679SOL    HW225180   3.686   0.285   0.116
 2680SOL     OW25181   5.870   3.038   7.439
 2680SOL    HW125182   5.790   2.988   7.457
 2680SOL    HW225183   5.870   3.107   7.505
 2681SOL     OW25184   5.689   2.668   1.137
 2681SOL    HW125185   5.612   2.659   1.192
 2681SOL    HW225186   5.654   2.676   1.048
 2682SOL     OW25187   0.115   5.747   5.377
 2682SOL    HW125188   0.194   5.800   5.381
 2682SOL    HW225189   0.082   5.745   5.467
 2683SOL     OW25190   0.092   0.845   6.262
 2683SOL    HW125191   0.156   0.796   6.313
 2683SOL    HW225192   0.122   0.838   6.172
 2684SOL     OW25193   4.720   5.550   6.786
 2684SOL    HW125194   4.790   5.588   6.840
 2684SOL    HW225195   4.748   5.460   6.771
 2685SOL     OW25196   4.467   1.755   5.630
 2685SOL    HW125197   4.539   1.699   5.657
 2685SOL    HW225198   4.507   1.817   5.568
 2686SOL     OW25199   4.770   5.924   0.579
 2686SOL    HW125200   4.700   5.893   0.522
 2686SOL    HW225201   4.784   6.015   0.552
 2687SOL     OW25202   4.902   0.476   1.598
 2687SOL    HW125203   4.925   0.497   1.688
 2687SOL    HW225204   4.987   0.462   1.554
 2688SOL     OW25205   0.163   6.099   5.590
 2688SOL    HW125206   0.203   6.169   5.642
 2688SOL    HW225207   0.069   6.112   5.601
 2689SOL     OW25208   6.212   2.213   1.859
 2689SOL    HW125209   6.178   2.299   1.832
 2689SOL    HW225210   6.196   2.209   1.953
 2690SOL     OW25211   1.382   2.304   1.172
 2690SOL    HW125212   1.417   2.325   1.258
 2690SOL    HW225213   1.395   2.383   1.120
 2691SOL     OW25214   0.846   0.466   1.018
 2691SOL    HW125215   0.894   0.429   1.092
 2691SOL    HW225216   0.879   0.556   1.010
 2692SOL     OW25217   1.356   4.003   6.535
 2692SOL    HW125218   1.419   3.932   6.520
 2692SOL    HW225219   1.286   3.963   6.587
 2693SOL     OW25220   3.645   0.662   6.862
 2693SOL    HW125221   3.617   0.699   6.778
 2693SOL    HW225222   3.639   0.735   6.924
 2694SOL     OW25223   5.039   0.261   0.469
 2694SOL    HW125224   5.038   0.289   0.560
 2694SOL    HW225225   4.952   0.224   0.454
 2695SOL     OW25226   4.461   1.995   6.276
 2695SOL    HW125227   4.452   2.036   6.190
 2695SOL    HW225228   4.478   2.068   6.335
 2696SOL     OW25229   6.082   3.881   1.554
 2696SOL    HW125230   6.121   3.795   1.569
 2696SOL    HW225231   6.107   3.903   1.464
 2697SOL     OW25232   2.957   4.663   7.777
 2697SOL    HW125233   2.969   4.702   7.690
 2697SOL    HW225234   2.982   4.733   0.034
 2698SOL     OW25235   5.155   0.291   7.551
 2698SOL    HW125236   5.241   0.332   7.559
 2698SOL    HW225237   5.119   0.293   7.640
 2699SOL     OW25238   4.637   5.112   0.015
 2699SOL    HW125239   4.555   5.093   0.061
 2699SOL    HW225240   4.665   5.196   0.050
 2700SOL     OW25241   4.796   6.006   6.842
 2700SOL    HW125242   4.742   6.005   6.763
 2700SOL    HW225243   4.749   5.950   6.904
 2701SOL     OW25244   3.682   5.377   6.403
 2701SOL    HW125245   3.647   5.328   6.477
 2701SOL    HW225246   3.731   5.313   6.352
 2702SOL     OW25247   5.814   5.747   0.694
 2702SOL    HW125248   5.821   5.709   0.782
 2702SOL    HW225249   5.900   5.786   0.679
 2703SOL     OW25250   1.207   5.711   1.835
 2703SOL    HW125251   1.182   5.639   1.893
 2703SOL    HW225252   1.166   5.789   1.874
 2704SOL     OW25253   1.219   5.333   6.931
 2704SOL    HW125254   1.174   5.418   6.928
 2704SOL    HW225255   1.171   5.284   6.998
 2705SOL     OW25256   2.080   1.730   6.373
 2705SOL    HW125257   2.166   1.750   6.336
 2705SOL    HW225258   2.018   1.773   6.314
 2706SOL     OW25259   2.076   5.136   5.801
 2706SOL    HW125260   2.006   5.167   5.858
 2706SOL    HW225261   2.037   5.064   5.752
 2707SOL     OW25262   5.286   0.761   7.125
 2707SOL    HW125263   5.230   0.727   7.194
 2707SOL    HW225264   5.261   0.853   7.118
 2708SOL     OW25265   4.004   5.165   6.953
 2708SOL    HW125266   3.990   5.243   7.007
 2708SOL    HW225267   4.076   5.189   6.894
 2709SOL     OW25268   3.967   3.706   6.934
 2709SOL    HW125269   3.965   3.612   6.954
 2709SOL    HW225270   4.021   3.712   6.856
 2710SOL     OW25271   6.134   5.549   5.441
 2710SOL    HW125272   6.197   5.582   5.377
 2710SOL    HW225273   6.140   5.610   5.514
 2711SOL     OW25274   1.271   0.284   5.492
 2711SOL    HW125275   1.330   0.338   5.543
 2711SOL    HW225276   1.290   0.194   5.518
 2712SOL     OW25277   3.249   1.904   0.699
 2712SOL    HW125278   3.280   1.954   0.624
 2712SOL    HW225279   3.299   1.823   0.697
 2713SOL     OW25280   3.156   0.876   0.793
 2713SOL    HW125281   3.073   0.842   0.759
 2713SOL    HW225282   3.173   0.823   0.871
 2714SOL     OW25283   5.054   0.331   7.069
 2714SOL    HW125284   5.133   0.309   7.119
 2714SOL    HW225285   5.012   0.246   7.054
 2715SOL     OW25286   3.577   1.398   0.905
 2715SOL    HW125287   3.603   1.370   0.818
 2715SOL    HW225288   3.557   1.317   0.952
 2716SOL     OW25289   2.066   6.399   6.181
 2716SOL    HW125290   1.971   6.408   6.194
 2716SOL    HW225291   2.096   0.041   6.165
 2717SOL     OW25292   4.593   2.138   0.054
 2717SOL    HW125293   4.646   2.193   7.799
 2717SOL    HW225294   4.598   2.182   0.139
 2718SOL     OW25295   4.690   1.064   1.074
 2718SOL    HW125296   4.717   1.152   1.100
 2718SOL    HW225297   4.770   1.012   1.082
 2719SOL     OW25298   4.252   2.940   1.962
 2719SOL    HW125299   4.223   2.984   2.042
 2719SOL    HW225300   4.178   2.948   1.902
 2720SOL     OW25301   5.198   5.724   1.127
 2720SOL    HW125302   5.221   5.754   1.215
 2720SOL    HW225303   5.109   5.757   1.114
 2721SOL     OW25304   3.550   0.953   1.815
 2721SOL    HW125305   3.541   1.043   1.785
 2721SOL    HW225306   3.513   0.900   1.744
 2722SOL     OW25307   0.828   2.662   1.756
 2722SOL    HW125308   0.811   2.742   1.806
 2722SOL    HW225309   0.910   2.628   1.792
 2723SOL     OW25310   4.011   4.420   1.771
 2723SOL    HW125311   3.986   4.425   1.679
 2723SOL    HW225312   3.952   4.482   1.815
 2724SOL     OW25313   5.914   0.205   0.092
 2724SOL    HW125314   5.930   0.119   0.130
 2724SOL    HW225315   5.825   0.200   0.057
 2725SOL     OW25316   3.321   2.483   7.005
 2725SOL    HW125317   3.251   2.428   7.041
 2725SOL    HW225318   3.347   2.438   6.925
 2726SOL     OW25319   2.142   6.435   0.177
 2726SOL    HW125320   2.141   0.043   0.254
 2726SOL    HW225321   2.235   6.428   0.154
 2727SOL     OW25322   2.913   3.889   6.581
 2727SOL    HW125323   2.954   3.953   6.639
 2727SOL    HW225324   2.974   3.881   6.507
 2728SOL     OW25325   2.905   2.861   2.097
 2728SOL    HW125326   2.983   2.811   2.072
 2728SOL    HW225327   2.845   2.849   2.024
 2729SOL     OW25328   4.320   1.113   1.373
 2729SOL    HW125329   4.386   1.130   1.440
 2729SOL    HW225330   4.351   1.161   1.296
 2730SOL     OW25331   3.757   0.893   1.290
 2730SOL    HW125332   3.825   0.929   1.347
 2730SOL    HW225333   3.770   0.798   1.295
 2731SOL     OW25334   4.765   5.388   7.553
 2731SOL    HW125335   4.818   5.339   7.615
 2731SOL    HW225336   4.805   5.476   7.552
 2732SOL     OW25337   5.566   4.374   0.269
 2732SOL    HW125338   5.512   4.297   0.252
 2732SOL    HW225339   5.647   4.358   0.220
 2733SOL     OW25340   0.643   3.215   0.966
 2733SOL    HW125341   0.732   3.215   0.931
 2733SOL    HW225342   0.654   3.204   1.061
 2734SOL     OW25343   2.958   2.921   6.728
 2734SOL    HW125344   2.923   2.857   6.790
 2734SOL    HW225345   2.953   2.877   6.643
 2735SOL     OW25346   1.834   1.788   5.642
 2735SOL    HW125347   1.800   1.699   5.651
 2735SOL    HW225348   1.771   1.843   5.689
 2736SOL     OW25349   4.943   1.862   0.621
 2736SOL    HW125350   5.039   1.861   0.620
 2736SOL    HW225351   4.920   1.951   0.595
 2737SOL     OW25352   6.354   6.263   6.120
 2737SOL    HW125353   6.324   6.354   6.115
 2737SOL    HW225354   6.394   6.246   6.034
 2738SOL     OW25355   1.717   0.044   5.813
 2738SOL    HW125356   1.661   6.437   5.867
 2738SOL    HW225357   1.764   6.431   5.757
 2739SOL     OW25358   1.167   1.987   6.416
 2739SOL    HW125359   1.194   2.057   6.475
 2739SOL    HW225360   1.173   2.026   6.329
 2740SOL     OW25361   4.107   4.354   6.757
 2740SOL    HW125362   4.069   4.434   6.793
 2740SOL    HW225363   4.034   4.310   6.714
 2741SOL     OW25364   2.062   5.808   7.394
 2741SOL    HW125365   2.033   5.816   7.302
 2741SOL    HW225366   2.154   5.834   7.393
 2742SOL     OW25367   1.829   2.227   0.208
 2742SOL    HW125368   1.756   2.238   0.146
 2742SOL    HW225369   1.828   2.133   0.229
 2743SOL     OW25370   2.636   5.384   0.061
 2743SOL    HW125371   2.687   5.302   0.057
 2743SOL    HW225372   2.640   5.410   0.153
 2744SOL     OW25373   1.766   3.029   6.603
 2744SOL    HW125374   1.725   3.113   6.580
 2744SOL    HW225375   1.839   3.053   6.661
 2745SOL     OW25376   1.804   2.124   7.657
 2745SOL    HW125377   1.877   2.185   7.642
 2745SOL    HW225378   1.750   2.167   7.723
 2746SOL     OW25379   0.903   1.047   7.487
 2746SOL    HW125380   0.813   1.069   7.511
 2746SOL    HW225381   0.908   1.067   7.393
 2747SOL     OW25382   5.613   1.663   1.594
 2747SOL    HW125383   5.587   1.660   1.686
 2747SOL    HW225384   5.544   1.615   1.548
 2748SOL     OW25385   5.264   4.319   6.219
 2748SOL    HW125386   5.185   4.371   6.236
 2748SOL    HW225387   5.233   4.228   6.219
 2749SOL     OW25388   4.538   5.933   5.757
 2749SOL    HW125389   4.566   5.849   5.722
 2749SOL    HW225390   4.452   5.916   5.796
 2750SOL     OW25391   1.785   2.703   1.740
 2750SOL    HW125392   1.717   2.770   1.741
 2750SOL    HW225393   1.774   2.656   1.824
 2751SOL     OW25394   1.128   2.342   0.301
 2751SOL    HW125395   1.038   2.374   0.292
 2751SOL    HW225396   1.144   2.341   0.395
 2752SOL     OW25397   3.214   4.472   0.441
 2752SOL    HW125398   3.160   4.445   0.515
 2752SOL    HW225399   3.189   4.413   0.370
 2753SOL     OW25400   6.091   4.744   1.022
 2753SOL    HW125401   6.132   4.713   1.103
 2753SOL    HW225402   6.163   4.749   0.959
 2754SOL     OW25403   3.614   4.110   1.419
 2754SOL    HW125404   3.596   4.027   1.462
 2754SOL    HW225405   3.550   4.116   1.348
 2755SOL     OW25406   0.845   2.442   0.992
 2755SOL    HW125407   0.837   2.487   1.077
 2755SOL    HW225408   0.900   2.366   1.011
 2756SOL     OW25409   4.864   5.944   0.835
 2756SOL    HW125410   4.788   5.973   0.885
 2756SOL    HW225411   4.833   5.936   0.745
 2757SOL     OW25412   4.443   5.153   1.436
 2757SOL    HW125413   4.473   5.085   1.496
 2757SOL    HW225414   4.523   5.197   1.408
 2758SOL     OW25415   1.713   2.189   7.177
 2758SOL    HW125416   1.809   2.191   7.166
 2758SOL    HW225417   1.693   2.096   7.185
 2759SOL     OW25418   1.519   2.813   5.808
 2759SOL    HW125419   1.576   2.740   5.832
 2759SOL    HW225420   1.503   2.801   5.714
 2760SOL     OW25421   1.800   5.010   7.744
 2760SOL    HW125422   1.764   5.098   7.726
 2760SOL    HW225423   1.757   4.954   7.680
 2761SOL     OW25424   0.448   2.939   0.244
 2761SOL    HW125425   0.539   2.930   0.214
 2761SOL    HW225426   0.395   2.929   0.165
 2762SOL     OW25427   1.297   6.091   0.913
 2762SOL    HW125428   1.382   6.132   0.899
 2762SOL    HW225429   1.264   6.076   0.824
 2763SOL     OW25430   0.533   2.020   6.062
 2763SOL    HW125431   0.447   2.029   6.103
 2763SOL    HW225432   0.530   1.934   6.020
 2764SOL     OW25433   2.228   4.956   7.495
 2764SOL    HW125434   2.272   4.874   7.476
 2764SOL    HW225435   2.173   4.937   7.572
 2765SOL     OW25436   0.853   2.702   0.173
 2765SOL    HW125437   0.797   2.650   0.230
 2765SOL    HW225438   0.805   2.784   0.160
 2766SOL     OW25439   5.475   0.633   1.480
 2766SOL    HW125440   5.448   0.723   1.462
 2766SOL    HW225441   5.521   0.606   1.401
 2767SOL     OW25442   4.532   5.640   1.077
 2767SOL    HW125443   4.539   5.562   1.132
 2767SOL    HW225444   4.441   5.667   1.085
 2768SOL     OW25445   1.292   4.047   1.560
 2768SOL    HW125446   1.288   3.975   1.623
 2768SOL    HW225447   1.305   4.004   1.476
 2769SOL     OW25448   0.658   4.740   0.216
 2769SOL    HW125449   0.668   4.818   0.269
 2769SOL    HW225450   0.564   4.726   0.209
 2770SOL     OW25451   2.993   2.438   0.706
 2770SOL    HW125452   3.072   2.490   0.690
 2770SOL    HW225453   3.025   2.350   0.726
 2771SOL     OW25454   4.333   4.009   7.091
 2771SOL    HW125455   4.403   4.055   7.137
 2771SOL    HW225456   4.291   4.076   7.038
 2772SOL     OW25457   0.334   5.687   1.337
 2772SOL    HW125458   0.253   5.717   1.295
 2772SOL    HW225459   0.354   5.754   1.402
 2773SOL     OW25460   3.321   2.990   2.140
 2773SOL    HW125461   3.299   2.976   2.048
 2773SOL    HW225462   3.406   3.033   2.138
 2774SOL     OW25463   4.565   2.666   1.029
 2774SOL    HW125464   4.642   2.722   1.022
 2774SOL    HW225465   4.520   2.676   0.944
 2775SOL     OW25466   2.803   2.834   5.992
 2775SOL    HW125467   2.754   2.881   5.925
 2775SOL    HW225468   2.774   2.873   6.075
 2776SOL     OW25469   3.357   5.633   5.327
 2776SOL    HW125470   3.289   5.701   5.323
 2776SOL    HW225471   3.321   5.559   5.278
 2777SOL     OW25472   2.093   1.497   6.523
 2777SOL    HW125473   2.102   1.531   6.612
 2777SOL    HW225474   2.097   1.575   6.467
 2778SOL     OW25475   4.088   5.463   1.455
 2778SOL    HW125476   4.145   5.535   1.482
 2778SOL    HW225477   4.125   5.433   1.372
 2779SOL     OW25478   3.411   3.770   0.530
 2779SOL    HW125479   3.489   3.790   0.581
 2779SOL    HW225480   3.442   3.765   0.440
 2780SOL     OW25481   4.562   2.295   5.910
 2780SOL    HW125482   4.555   2.308   5.816
 2780SOL    HW225483   4.518   2.371   5.948
 2781SOL     OW25484   4.536   3.949   6.139
 2781SOL    HW125485   4.552   3.878   6.077
 2781SOL    HW225486   4.462   3.918   6.192
 2782SOL     OW25487   4.728   6.267   2.171
 2782SOL    HW125488   4.781   6.187   2.172
 2782SOL    HW225489   4.717   6.289   2.264
 2783SOL     OW25490   3.031   4.402   0.011
 2783SOL    HW125491   2.988   4.363   7.737
 2783SOL    HW225492   3.011   4.495   0.004
 2784SOL     OW25493   4.070   5.119   6.167
 2784SOL    HW125494   4.113   5.205   6.163
 2784SOL    HW225495   4.111   5.076   6.242
 2785SOL     OW25496   2.650   4.065   6.506
 2785SOL    HW125497   2.641   3.997   6.573
 2785SOL    HW225498   2.742   4.062   6.480
 2786SOL     OW25499   0.325   3.405   6.306
 2786SOL    HW125500   0.357   3.315   6.313
 2786SOL    HW225501   0.285   3.409   6.220
 2787SOL     OW25502   4.820   5.432   7.103
 2787SOL    HW125503   4.763   5.489   7.154
 2787SOL    HW225504   4.861   5.490   7.038
 2788SOL     OW25505   5.011   0.735   6.790
 2788SOL    HW125506   5.012   0.794   6.865
 2788SOL    HW225507   5.090   0.758   6.741
 2789SOL     OW25508   1.957   0.906   5.746
 2789SOL    HW125509   2.035   0.929   5.797
 2789SOL    HW225510   1.970   0.813   5.724
 2790SOL     OW25511   3.603   2.225   1.846
 2790SOL    HW125512   3.564   2.306   1.877
 2790SOL    HW225513   3.667   2.201   1.913
 2791SOL     OW25514   0.609   5.591   1.009
 2791SOL    HW125515   0.668   5.666   1.018
 2791SOL    HW225516   0.587   5.566   1.098
 2792SOL     OW25517   2.475   3.260   0.252
 2792SOL    HW125518   2.494   3.316   0.177
 2792SOL    HW225519   2.506   3.173   0.227
 2793SOL     OW25520   0.736   0.127   7.372
 2793SOL    HW125521   0.697   0.166   7.450
 2793SOL    HW225522   0.681   0.051   7.354
 2794SOL     OW25523   3.786   3.424   0.413
 2794SOL    HW125524   3.815   3.509   0.382
 2794SOL    HW225525   3.747   3.441   0.499
 2795SOL     OW25526   4.996   3.022   7.391
 2795SOL    HW125527   5.062   3.010   7.324
 2795SOL    HW225528   4.963   2.934   7.409
 2796SOL     OW25529   5.644   0.911   6.023
 2796SOL    HW125530   5.558   0.940   5.994
 2796SOL    HW225531   5.659   0.829   5.975
 2797SOL     OW25532   4.595   3.753   6.801
 2797SOL    HW125533   4.603   3.700   6.722
 2797SOL    HW225534   4.572   3.841   6.768
 2798SOL     OW25535   4.810   1.099   6.977
 2798SOL    HW125536   4.744   1.066   6.916
 2798SOL    HW225537   4.760   1.134   7.050
 2799SOL     OW25538   4.128   3.175   0.573
 2799SOL    HW125539   4.127   3.198   0.480
 2799SOL    HW225540   4.202   3.115   0.582
 2800SOL     OW25541   6.061   2.624   0.601
 2800SOL    HW125542   6.097   2.537   0.582
 2800SOL    HW225543   6.108   2.683   0.543
 2801SOL     OW25544   6.398   5.771   6.486
 2801SOL    HW125545   6.321   5.728   6.523
 2801SOL    HW225546   0.024   5.727   6.529
 2802SOL     OW25547   4.357   2.763   4.975
 2802SOL    HW125548   4.444   2.723   4.974
 2802SOL    HW225549   4.374   2.857   4.980
 2803SOL     OW25550   4.450   2.492   6.446
 2803SOL    HW125551   4.439   2.587   6.436
 2803SOL    HW225552   4.388   2.468   6.516
 2804SOL     OW25553   4.324   5.949   1.732
 2804SOL    HW125554   4.256   5.882   1.725
 2804SOL    HW225555   4.309   5.989   1.818
 2805SOL     OW25556   5.992   4.862   0.610
 2805SOL    HW125557   5.979   4.931   0.675
 2805SOL    HW225558   5.970   4.903   0.526
 2806SOL     OW25559   1.322   2.918   0.879
 2806SOL    HW125560   1.411   2.904   0.909
 2806SOL    HW225561   1.275   2.838   0.905
 2807SOL     OW25562   0.384   2.206   6.526
 2807SOL    HW125563   0.462   2.237   6.478
 2807SOL    HW225564   0.381   2.263   6.603
 2808SOL     OW25565   4.415   3.561   0.358
 2808SOL    HW125566   4.442   3.498   0.290
 2808SOL    HW225567   4.323   3.542   0.373
 2809SOL     OW25568   4.826   3.504   6.393
 2809SOL    HW125569   4.753   3.466   6.443
 2809SOL    HW225570   4.891   3.528   6.458
 2810SOL     OW25571   0.738   4.463   0.557
 2810SOL    HW125572   0.750   4.397   0.489
 2810SOL    HW225573   0.816   4.519   0.549
 2811SOL     OW25574   0.204   3.522   7.619
 2811SOL    HW125575   0.283   3.483   7.582
 2811SOL    HW225576   0.146   3.447   7.635
 2812SOL     OW25577   3.693   1.276   0.685
 2812SOL    HW125578   3.751   1.225   0.741
 2812SOL    HW225579   3.750   1.313   0.618
 2813SOL     OW25580   4.261   5.672   1.506
 2813SOL    HW125581   4.215   5.714   1.579
 2813SOL    HW225582   4.286   5.743   1.448
 2814SOL     OW25583   0.415   2.468   6.991
 2814SOL    HW125584   0.360   2.432   7.060
 2814SOL    HW225585   0.380   2.555   6.975
 2815SOL     OW25586   5.257   0.299   1.602
 2815SOL    HW125587   5.217   0.356   1.537
 2815SOL    HW225588   5.344   0.335   1.617
 2816SOL     OW25589   1.147   3.337   6.829
 2816SOL    HW125590   1.238   3.318   6.808
 2816SOL    HW225591   1.100   3.256   6.810
 2817SOL     OW25592   5.333   4.115   2.327
 2817SOL    HW125593   5.357   4.188   2.383
 2817SOL    HW225594   5.366   4.140   2.240
 2818SOL     OW25595   0.243   4.901   0.218
 2818SOL    HW125596   0.262   4.979   0.167
 2818SOL    HW225597   0.265   4.924   0.308
 2819SOL     OW25598   4.049   1.849   0.528
 2819SOL    HW125599   3.977   1.806   0.481
 2819SOL    HW225600   4.091   1.904   0.462
 2820SOL     OW25601   6.023   3.058   6.386
 2820SOL    HW125602   5.979   3.031   6.466
 2820SOL    HW225603   6.022   2.979   6.331
 2821SOL     OW25604   2.996   1.867   1.168
 2821SOL    HW125605   3.060   1.888   1.100
 2821SOL    HW225606   2.968   1.778   1.147
 2822SOL     OW25607   3.909   1.701   0.795
 2822SOL    HW125608   3.988   1.650   0.775
 2822SOL    HW225609   3.869   1.654   0.868
 2823SOL     OW25610   3.163   0.858   7.415
 2823SOL    HW125611   3.091   0.913   7.449
 2823SOL    HW225612   3.241   0.891   7.459
 2824SOL     OW25613   0.314   3.501   1.370
 2824SOL    HW125614   0.406   3.491   1.392
 2824SOL    HW225615   0.267   3.484   1.452
 2825SOL     OW25616   6.046   1.004   6.254
 2825SOL    HW125617   6.089   0.965   6.330
 2825SOL    HW225618   5.957   0.968   6.255
 2826SOL     OW25619   4.331   6.256   0.151
 2826SOL    HW125620   4.282   6.205   0.085
 2826SOL    HW225621   4.405   6.292   0.102
 2827SOL     OW25622   4.411   4.594   2.149
 2827SOL    HW125623   4.437   4.514   2.195
 2827SOL    HW225624   4.328   4.618   2.189
 2828SOL     OW25625   4.798   6.435   7.784
 2828SOL    HW125626   4.704   6.420   7.788
 2828SOL    HW225627   4.809   0.078   0.010
 2829SOL     OW25628   1.366   1.020   0.222
 2829SOL    HW125629   1.274   0.999   0.241
 2829SOL    HW225630   1.415   0.946   0.258
 2830SOL     OW25631   4.093   4.180   1.400
 2830SOL    HW125632   4.101   4.197   1.494
 2830SOL    HW225633   4.128   4.259   1.359
 2831SOL     OW25634   3.050   4.354   1.504
 2831SOL    HW125635   3.027   4.311   1.587
 2831SOL    HW225636   3.044   4.286   1.438
 2832SOL     OW25637   0.884   0.205   0.380
 2832SOL    HW125638   0.965   0.159   0.358
 2832SOL    HW225639   0.824   0.135   0.406
 2833SOL     OW25640   3.505   2.935   5.363
 2833SOL    HW125641   3.491   2.854   5.411
 2833SOL    HW225642   3.593   2.927   5.326
 2834SOL     OW25643   1.483   1.872   0.634
 2834SOL    HW125644   1.473   1.777   0.643
 2834SOL    HW225645   1.419   1.896   0.567
 2835SOL     OW25646   5.988   4.992   6.818
 2835SOL    HW125647   6.041   4.946   6.752
 2835SOL    HW225648   5.905   4.944   6.819
 2836SOL     OW25649   0.609   2.874   6.130
 2836SOL    HW125650   0.537   2.897   6.072
 2836SOL    HW225651   0.667   2.820   6.077
 2837SOL     OW25652   4.417   3.796   7.534
 2837SOL    HW125653   4.489   3.755   7.487
 2837SOL    HW225654   4.375   3.853   7.470
 2838SOL     OW25655   0.242   5.837   7.707
 2838SOL    HW125656   0.245   5.762   7.767
 2838SOL    HW225657   0.190   5.806   7.633
 2839SOL     OW25658   3.430   4.518   0.613
 2839SOL    HW125659   3.348   4.512   0.563
 2839SOL    HW225660   3.423   4.450   0.679
 2840SOL     OW25661   1.254   5.227   0.776
 2840SOL    HW125662   1.242   5.132   0.768
 2840SOL    HW225663   1.228   5.246   0.867
 2841SOL     OW25664   1.556   2.885   6.692
 2841SOL    HW125665   1.636   2.928   6.662
 2841SOL    HW225666   1.567   2.793   6.668
 2842SOL     OW25667   3.570   3.091   0.067
 2842SOL    HW125668   3.556   3.020   0.004
 2842SOL    HW225669   3.654   3.069   0.108
 2843SOL     OW25670   1.218   2.675   0.998
 2843SOL    HW125671   1.167   2.625   1.061
 2843SOL    HW225672   1.308   2.642   1.008
 2844SOL     OW25673   0.557   3.798   1.945
 2844SOL    HW125674   0.490   3.729   1.947
 2844SOL    HW225675   0.612   3.781   2.021
 2845SOL     OW25676   1.449   1.531   6.521
 2845SOL    HW125677   1.415   1.502   6.436
 2845SOL    HW225678   1.448   1.452   6.575
 2846SOL     OW25679   4.641   3.612   7.758
 2846SOL    HW125680   4.675   3.557   0.026
 2846SOL    HW225681   4.581   3.554   7.711
 2847SOL     OW25682   2.645   1.034   5.612
 2847SOL    HW125683   2.661   0.944   5.639
 2847SOL    HW225684   2.599   1.027   5.528
 2848SOL     OW25685   2.790   4.590   7.254
 2848SOL    HW125686   2.770   4.677   7.289
 2848SOL    HW225687   2.707   4.543   7.256
 2849SOL     OW25688   4.764   1.629   0.331
 2849SOL    HW125689   4.684   1.673   0.302
 2849SOL    HW225690   4.735   1.546   0.367
 2850SOL     OW25691   3.141   5.818   5.352
 2850SOL    HW125692   3.077   5.772   5.406
 2850SOL    HW225693   3.090   5.882   5.303
 2851SOL     OW25694   2.609   3.270   0.494
 2851SOL    HW125695   2.559   3.266   0.412
 2851SOL    HW225696   2.701   3.269   0.465
 2852SOL     OW25697   6.299   1.368   7.686
 2852SOL    HW125698   6.233   1.299   7.700
 2852SOL    HW225699   6.280   1.400   7.598
 2853SOL     OW25700   4.119   4.555   7.608
 2853SOL    HW125701   4.120   4.460   7.595
 2853SOL    HW225702   4.028   4.576   7.628
 2854SOL     OW25703   5.824   6.180   5.542
 2854SOL    HW125704   5.822   6.087   5.521
 2854SOL    HW225705   5.754   6.192   5.607
 2855SOL     OW25706   3.199   1.430   6.655
 2855SOL    HW125707   3.247   1.347   6.662
 2855SOL    HW225708   3.164   1.445   6.743
 2856SOL     OW25709   4.648   1.443   6.471
 2856SOL    HW125710   4.708   1.386   6.519
 2856SOL    HW225711   4.694   1.462   6.389
 2857SOL     OW25712   3.053   5.472   7.425
 2857SOL    HW125713   3.021   5.389   7.458
 2857SOL    HW225714   2.992   5.537   7.459
 2858SOL     OW25715   6.272   4.130   6.943
 2858SOL    HW125716   6.275   4.084   6.859
 2858SOL    HW225717   6.182   4.119   6.974
 2859SOL     OW25718   3.431   3.361   6.764
 2859SOL    HW125719   3.382   3.361   6.846
 2859SOL    HW225720   3.510   3.412   6.783
 2860SOL     OW25721   2.708   0.366   1.413
 2860SOL    HW125722   2.662   0.436   1.458
 2860SOL    HW225723   2.646   0.334   1.347
 2861SOL     OW25724   0.787   4.049   0.500
 2861SOL    HW125725   0.763   4.133   0.462
 2861SOL    HW225726   0.831   4.002   0.429
 2862SOL     OW25727   3.711   5.450   7.692
 2862SOL    HW125728   3.803   5.440   7.716
 2862SOL    HW225729   3.706   5.538   7.653
 2863SOL     OW25730   1.701   5.962   0.888
 2863SOL    HW125731   1.694   5.872   0.919
 2863SOL    HW225732   1.738   5.954   0.800
 2864SOL     OW25733   4.226   0.857   1.423
 2864SOL    HW125734   4.299   0.821   1.472
 2864SOL    HW225735   4.255   0.945   1.398
 2865SOL     OW25736   1.625   3.081   7.315
 2865SOL    HW125737   1.536   3.084   7.280
 2865SOL    HW225738   1.621   3.018   7.387
 2866SOL     OW25739   0.617   0.994   6.373
 2866SOL    HW125740   0.616   1.017   6.280
 2866SOL    HW225741   0.643   1.075   6.417
 2867SOL     OW25742   4.930   3.482   5.252
 2867SOL    HW125743   5.011   3.532   5.269
 2867SOL    HW225744   4.875   3.542   5.203
 2868SOL     OW25745   0.918   1.136   1.876
 2868SOL    HW125746   0.932   1.132   1.971
 2868SOL    HW225747   1.005   1.151   1.840
 2869SOL     OW25748   0.893   0.624   1.318
 2869SOL    HW125749   0.914   0.625   1.411
 2869SOL    HW225750   0.927   0.541   1.286
 2870SOL     OW25751   3.077   2.410   6.748
 2870SOL    HW125752   3.145   2.462   6.703
 2870SOL    HW225753   3.058   2.339   6.687
 2871SOL     OW25754   0.917   2.532   0.739
 2871SOL    HW125755   0.888   2.508   0.827
 2871SOL    HW225756   1.010   2.507   0.736
 2872SOL     OW25757   5.800   4.339   1.538
 2872SOL    HW125758   5.892   4.361   1.549
 2872SOL    HW225759   5.755   4.393   1.604
 2873SOL     OW25760   2.610   1.488   1.675
 2873SOL    HW125761   2.691   1.528   1.706
 2873SOL    HW225762   2.552   1.488   1.751
 2874SOL     OW25763   5.349   1.699   6.290
 2874SOL    HW125764   5.256   1.706   6.309
 2874SOL    HW225765   5.354   1.653   6.206
 2875SOL     OW25766   1.271   1.903   1.200
 2875SOL    HW125767   1.251   1.816   1.165
 2875SOL    HW225768   1.243   1.898   1.292
 2876SOL     OW25769   3.631   1.509   6.350
 2876SOL    HW125770   3.645   1.517   6.444
 2876SOL    HW225771   3.608   1.598   6.321
 2877SOL     OW25772   5.847   5.945   2.160
 2877SOL    HW125773   5.929   5.993   2.167
 2877SOL    HW225774   5.822   5.952   2.068
 2878SOL     OW25775   1.558   0.857   6.323
 2878SOL    HW125776   1.593   0.809   6.248
 2878SOL    HW225777   1.493   0.916   6.285
 2879SOL     OW25778   2.191   2.940   0.691
 2879SOL    HW125779   2.175   2.907   0.779
 2879SOL    HW225780   2.136   2.886   0.635
 2880SOL     OW25781   6.389   3.019   6.141
 2880SOL    HW125782   6.362   3.107   6.117
 2880SOL    HW225783   6.318   2.962   6.111
 2881SOL     OW25784   4.327   4.556   6.080
 2881SOL    HW125785   4.384   4.619   6.122
 2881SOL    HW225786   4.358   4.552   5.989
 2882SOL     OW25787   5.602   1.353   1.702
 2882SOL    HW125788   5.532   1.304   1.659
 2882SOL    HW225789   5.628   1.419   1.638
 2883SOL     OW25790   6.308   5.213   7.435
 2883SOL    HW125791   6.376   5.272   7.403
 2883SOL    HW225792   6.245   5.208   7.364
 2884SOL     OW25793   3.034   1.517   0.243
 2884SOL    HW125794   3.128   1.530   0.254
 2884SOL    HW225795   3.011   1.448   0.305
 2885SOL     OW25796   1.001   1.170   2.133
 2885SOL    HW125797   1.049   1.088   2.148
 2885SOL    HW225798   1.067   1.238   2.143
 2886SOL     OW25799   5.149   4.104   1.331
 2886SOL    HW125800   5.062   4.068   1.346
 2886SOL    HW225801   5.190   4.106   1.418
 2887SOL     OW25802   5.056   2.397   6.811
 2887SOL    HW125803   5.010   2.328   6.860
 2887SOL    HW225804   5.078   2.462   6.877
 2888SOL     OW25805   4.668   5.658   1.627
 2888SOL    HW125806   4.759   5.630   1.617
 2888SOL    HW225807   4.656   5.670   1.721
 2889SOL     OW25808   5.766   5.623   7.779
 2889SOL    HW125809   5.675   5.620   7.749
 2889SOL    HW225810   5.788   5.533   7.799
 2890SOL     OW25811   3.479   1.740   6.642
 2890SOL    HW125812   3.546   1.673   6.625
 2890SOL    HW225813   3.527   1.812   6.684
 2891SOL     OW25814   5.526   3.296   0.869
 2891SOL    HW125815   5.615   3.303   0.836
 2891SOL    HW225816   5.474   3.271   0.792
 2892SOL     OW25817   0.585   3.224   6.636
 2892SOL    HW125818   0.581   3.308   6.682
 2892SOL    HW225819   0.608   3.247   6.546
 2893SOL     OW25820   5.162   0.879   0.317
 2893SOL    HW125821   5.179   0.973   0.324
 2893SOL    HW225822   5.235   0.838   0.364
 2894SOL     OW25823   5.136   2.150   1.673
 2894SOL    HW125824   5.159   2.090   1.744
 2894SOL    HW225825   5.150   2.237   1.709
 2895SOL     OW25826   0.144   5.336   7.615
 2895SOL    HW125827   0.112   5.384   7.538
 2895SOL    HW225828   0.139   5.244   7.589
 2896SOL     OW25829   6.400   3.967   0.565
 2896SOL    HW125830   0.023   3.951   0.503
 2896SOL    HW225831   6.387   4.062   0.565
 2897SOL     OW25832   4.647   0.064   6.987
 2897SOL    HW125833   4.670   0.123   6.915
 2897SOL    HW225834   4.652   6.424   6.949
 2898SOL     OW25835   3.545   0.191   6.226
 2898SOL    HW125836   3.523   0.254   6.157
 2898SOL    HW225837   3.613   0.234   6.277
 2899SOL     OW25838   1.740   3.822   5.825
 2899SOL    HW125839   1.738   3.908   5.783
 2899SOL    HW225840   1.736   3.759   5.753
 2900SOL     OW25841   0.781   1.695   5.691
 2900SOL    HW125842   0.798   1.759   5.621
 2900SOL    HW225843   0.861   1.643   5.696
 2901SOL     OW25844   4.182   3.146   1.595
 2901SOL    HW125845   4.155   3.237   1.608
 2901SOL    HW225846   4.276   3.146   1.616
 2902SOL     OW25847   1.445   1.734   0.299
 2902SOL    HW125848   1.496   1.813   0.318
 2902SOL    HW225849   1.359   1.766   0.273
 2903SOL     OW25850   6.242   5.693   2.343
 2903SOL    HW125851   6.152   5.715   2.318
 2903SOL    HW225852   6.237   5.679   2.438
 2904SOL     OW25853   3.275   4.875   0.086
 2904SOL    HW125854   3.295   4.799   0.140
 2904SOL    HW225855   3.327   4.946   0.125
 2905SOL     OW25856   0.597   3.126   5.921
 2905SOL    HW125857   0.527   3.065   5.940
 2905SOL    HW225858   0.674   3.071   5.906
 2906SOL     OW25859   6.172   5.273   0.160
 2906SOL    HW125860   6.204   5.270   0.069
 2906SOL    HW225861   6.228   5.337   0.203
 2907SOL     OW25862   2.678   3.990   7.359
 2907SOL    HW125863   2.644   4.065   7.309
 2907SOL    HW225864   2.732   4.029   7.427
 2908SOL     OW25865   6.193   2.788   0.424
 2908SOL    HW125866   6.272   2.755   0.383
 2908SOL    HW225867   6.222   2.865   0.474
 2909SOL     OW25868   5.285   2.715   6.830
 2909SOL    HW125869   5.237   2.671   6.901
 2909SOL    HW225870   5.217   2.744   6.770
 2910SOL     OW25871   5.131   0.326   1.854
 2910SOL    HW125872   5.189   0.305   1.781
 2910SOL    HW225873   5.186   0.316   1.932
 2911SOL     OW25874   3.369   1.886   7.021
 2911SOL    HW125875   3.456   1.925   7.030
 2911SOL    HW225876   3.318   1.925   7.092
 2912SOL     OW25877   1.620   3.742   1.151
 2912SOL    HW125878   1.707   3.714   1.123
 2912SOL    HW225879   1.636   3.818   1.207
 2913SOL     OW25880   5.232   4.199   6.954
 2913SOL    HW125881   5.144   4.218   6.923
 2913SOL    HW225882   5.244   4.106   6.938
 2914SOL     OW25883   2.497   2.346   6.974
 2914SOL    HW125884   2.476   2.296   7.053
 2914SOL    HW225885   2.581   2.311   6.945
 2915SOL     OW25886   2.976   4.287   6.952
 2915SOL    HW125887   2.923   4.215   6.984
 2915SOL    HW225888   2.984   4.346   7.026
 2916SOL     OW25889   0.613   0.504   6.028
 2916SOL    HW125890   0.686   0.530   6.085
 2916SOL    HW225891   0.636   0.416   5.998
 2917SOL     OW25892   5.713   4.487   7.138
 2917SOL    HW125893   5.745   4.569   7.102
 2917SOL    HW225894   5.770   4.469   7.213
 2918SOL     OW25895   3.578   2.268   7.005
 2918SOL    HW125896   3.538   2.300   6.924
 2918SOL    HW225897   3.649   2.329   7.023
 2919SOL     OW25898   2.245   1.891   1.491
 2919SOL    HW125899   2.294   1.809   1.490
 2919SOL    HW225900   2.303   1.953   1.536
 2920SOL     OW25901   0.237   3.842   0.151
 2920SOL    HW125902   0.279   3.764   0.115
 2920SOL    HW225903   0.249   3.909   0.083
 2921SOL     OW25904   1.054   5.584   6.141
 2921SOL    HW125905   1.034   5.568   6.049
 2921SOL    HW225906   1.146   5.610   6.142
 2922SOL     OW25907   5.229   1.449   0.046
 2922SOL    HW125908   5.199   1.413   0.130
 2922SOL    HW225909   5.222   1.376   7.788
 2923SOL     OW25910   1.519   1.321   0.539
 2923SOL    HW125911   1.475   1.311   0.454
 2923SOL    HW225912   1.490   1.406   0.571
 2924SOL     OW25913   2.592   2.529   1.745
 2924SOL    HW125914   2.612   2.548   1.836
 2924SOL    HW225915   2.496   2.526   1.742
 2925SOL     OW25916   5.399   4.323   6.772
 2925SOL    HW125917   5.349   4.278   6.839
 2925SOL    HW225918   5.484   4.340   6.812
 2926SOL     OW25919   3.453   2.710   5.499
 2926SOL    HW125920   3.416   2.698   5.586
 2926SOL    HW225921   3.496   2.627   5.479
 2927SOL     OW25922   4.924   1.584   0.649
 2927SOL    HW125923   4.991   1.575   0.717
 2927SOL    HW225924   4.926   1.677   0.626
 2928SOL     OW25925   2.082   5.862   0.645
 2928SOL    HW125926   2.143   5.918   0.597
 2928SOL    HW225927   2.134   5.788   0.674
 2929SOL     OW25928   4.114   5.801   0.582
 2929SOL    HW125929   4.033   5.751   0.574
 2929SOL    HW225930   4.126   5.841   0.496
 2930SOL     OW25931   2.169   1.187   6.826
 2930SOL    HW125932   2.238   1.232   6.875
 2930SOL    HW225933   2.211   1.165   6.742
 2931SOL     OW25934   3.366   1.209   6.620
 2931SOL    HW125935   3.441   1.182   6.673
 2931SOL    HW225936   3.403   1.236   6.536
 2932SOL     OW25937   0.250   5.622   0.075
 2932SOL    HW125938   0.338   5.646   0.103
 2932SOL    HW225939   0.249   5.526   0.077
 2933SOL     OW25940   6.059   2.727   5.339
 2933SOL    HW125941   6.030   2.643   5.373
 2933SOL    HW225942   6.114   2.763   5.409
 2934SOL     OW25943   4.374   3.737   7.037
 2934SOL    HW125944   4.347   3.829   7.039
 2934SOL    HW225945   4.469   3.740   7.034
 2935SOL     OW25946   3.193   2.165   6.061
 2935SOL    HW125947   3.166   2.074   6.046
 2935SOL    HW225948   3.191   2.175   6.156
 2936SOL     OW25949   3.910   0.067   6.513
 2936SOL    HW125950   3.983   0.046   6.570
 2936SOL    HW225951   3.933   0.152   6.474
 2937SOL     OW25952   2.541   1.006   0.798
 2937SOL    HW125953   2.591   1.064   0.855
 2937SOL    HW225954   2.451   1.036   0.805
 2938SOL     OW25955   4.178   2.123   7.588
 2938SOL    HW125956   4.176   2.028   7.594
 2938SOL    HW225957   4.196   2.141   7.496
 2939SOL     OW25958   5.998   0.495   6.492
 2939SOL    HW125959   5.906   0.512   6.474
 2939SOL    HW225960   5.998   0.413   6.541
 2940SOL     OW25961   0.500   2.258   0.295
 2940SOL    HW125962   0.576   2.228   0.345
 2940SOL    HW225963   0.528   2.339   0.253
 2941SOL     OW25964   5.011   3.803   5.585
 2941SOL    HW125965   5.103   3.826   5.598
 2941SOL    HW225966   4.978   3.871   5.527
 2942SOL     OW25967   6.230   4.387   2.186
 2942SOL    HW125968   6.307   4.444   2.188
 2942SOL    HW225969   6.167   4.430   2.245
 2943SOL     OW25970   1.006   6.263   0.725
 2943SOL    HW125971   1.075   6.206   0.693
 2943SOL    HW225972   0.927   6.234   0.678
 2944SOL     OW25973   2.941   5.129   6.671
 2944SOL    HW125974   2.916   5.209   6.716
 2944SOL    HW225975   2.988   5.159   6.593
 2945SOL     OW25976   6.273   0.430   0.212
 2945SOL    HW125977   6.330   0.356   0.231
 2945SOL    HW225978   6.287   0.448   0.119
 2946SOL     OW25979   1.198   2.496   7.073
 2946SOL    HW125980   1.131   2.489   7.005
 2946SOL    HW225981   1.235   2.408   7.078
 2947SOL     OW25982   0.307   2.712   6.912
 2947SOL    HW125983   0.218   2.699   6.879
 2947SOL    HW225984   0.354   2.751   6.838
 2948SOL     OW25985   4.885   1.555   7.172
 2948SOL    HW125986   4.870   1.525   7.082
 2948SOL    HW225987   4.799   1.582   7.203
 2949SOL     OW25988   5.259   1.135   0.313
 2949SOL    HW125989   5.309   1.119   0.233
 2949SOL    HW225990   5.197   1.203   0.290
 2950SOL     OW25991   2.230   0.664   0.617
 2950SOL    HW125992   2.221   0.711   0.700
 2950SOL    HW225993   2.311   0.698   0.578
 2951SOL     OW25994   6.088   0.012   0.566
 2951SOL    HW125995   6.179   0.010   0.595
 2951SOL    HW225996   6.071   0.104   0.545
 2952SOL     OW25997   1.273   5.705   0.662
 2952SOL    HW125998   1.365   5.729   0.654
 2952SOL    HW225999   1.244   5.688   0.572
 2953SOL     OW26000   0.191   1.606   6.398
 2953SOL    HW126001   0.267   1.573   6.350
 2953SOL    HW226002   0.149   1.527   6.433
 2954SOL     OW26003   2.919   1.097   4.956
 2954SOL    HW126004   2.833   1.138   4.943
 2954SOL    HW226005   2.899   1.008   4.983
 2955SOL     OW26006   5.876   4.091   7.486
 2955SOL    HW126007   5.917   4.008   7.463
 2955SOL    HW226008   5.896   4.149   7.412
 2956SOL     OW26009   0.634   5.357   0.308
 2956SOL    HW126010   0.623   5.366   0.214
 2956SOL    HW226011   0.582   5.280   0.332
 2957SOL     OW26012   2.487   5.248   5.991
 2957SOL    HW126013   2.545   5.185   5.949
 2957SOL    HW226014   2.482   5.321   5.929
 2958SOL     OW26015   5.915   5.899   1.439
 2958SOL    HW126016   5.840   5.902   1.380
 2958SOL    HW226017   5.893   5.961   1.509
 2959SOL     OW26018   0.357   2.044   1.890
 2959SOL    HW126019   0.299   2.076   1.960
 2959SOL    HW226020   0.375   1.953   1.914
 2960SOL     OW26021   1.978   1.032   6.452
 2960SOL    HW126022   2.014   0.946   6.431
 2960SOL    HW226023   1.947   1.066   6.368
 2961SOL     OW26024   4.058   0.620   7.453
 2961SOL    HW126025   4.041   0.599   7.361
 2961SOL    HW226026   4.142   0.578   7.472
 2962SOL     OW26027   2.151   5.427   6.961
 2962SOL    HW126028   2.214   5.489   6.998
 2962SOL    HW226029   2.196   5.390   6.885
 2963SOL     OW26030   1.314   5.036   6.629
 2963SOL    HW126031   1.271   4.996   6.705
 2963SOL    HW226032   1.346   4.961   6.578
 2964SOL     OW26033   3.107   1.576   6.884
 2964SOL    HW126034   3.135   1.653   6.835
 2964SOL    HW226035   3.159   1.578   6.964
 2965SOL     OW26036   6.420   2.663   0.803
 2965SOL    HW126037   6.406   2.612   0.723
 2965SOL    HW226038   6.359   2.625   0.866
 2966SOL     OW26039   0.434   1.580   0.559
 2966SOL    HW126040   0.508   1.630   0.523
 2966SOL    HW226041   0.425   1.611   0.649
 2967SOL     OW26042   5.425   2.953   6.820
 2967SOL    HW126043   5.479   2.960   6.742
 2967SOL    HW226044   5.379   2.869   6.810
 2968SOL     OW26045   5.053   4.784   0.553
 2968SOL    HW126046   5.112   4.709   0.543
 2968SOL    HW226047   4.999   4.783   0.473
 2969SOL     OW26048   1.660   3.280   6.555
 2969SOL    HW126049   1.709   3.285   6.473
 2969SOL    HW226050   1.705   3.341   6.613
 2970SOL     OW26051   0.871   3.155   5.761
 2970SOL    HW126052   0.856   3.071   5.804
 2970SOL    HW226053   0.936   3.199   5.817
 2971SOL     OW26054   4.252   3.005   7.763
 2971SOL    HW126055   4.261   3.095   7.796
 2971SOL    HW226056   4.283   3.011   7.672
 2972SOL     OW26057   5.535   5.111   1.177
 2972SOL    HW126058   5.563   5.132   1.088
 2972SOL    HW226059   5.489   5.027   1.169
 2973SOL     OW26060   2.198   4.065   6.340
 2973SOL    HW126061   2.188   4.150   6.382
 2973SOL    HW226062   2.292   4.060   6.319
 2974SOL     OW26063   2.413   5.613   6.599
 2974SOL    HW126064   2.395   5.535   6.547
 2974SOL    HW226065   2.329   5.638   6.637
 2975SOL     OW26066   1.747   2.594   1.986
 2975SOL    HW126067   1.834   2.599   2.027
 2975SOL    HW226068   1.729   2.500   1.980
 2976SOL     OW26069   2.617   5.545   5.813
 2976SOL    HW126070   2.538   5.554   5.758
 2976SOL    HW226071   2.682   5.601   5.770
 2977SOL     OW26072   2.474   4.636   0.399
 2977SOL    HW126073   2.383   4.612   0.381
 2977SOL    HW226074   2.519   4.553   0.414
 2978SOL     OW26075   0.641   3.047   7.723
 2978SOL    HW126076   0.703   3.116   7.700
 2978SOL    HW226077   0.555   3.088   7.714
 2979SOL     OW26078   2.896   1.439   1.544
 2979SOL    HW126079   2.907   1.352   1.581
 2979SOL    HW226080   2.879   1.496   1.619
 2980SOL     OW26081   6.173   1.539   1.283
 2980SOL    HW126082   6.185   1.479   1.209
 2980SOL    HW226083   6.262   1.564   1.307
 2981SOL     OW26084   3.260   0.466   0.502
 2981SOL    HW126085   3.330   0.441   0.442
 2981SOL    HW226086   3.200   0.519   0.449
 2982SOL     OW26087   2.457   2.461   6.166
 2982SOL    HW126088   2.539   2.424   6.132
 2982SOL    HW226089   2.442   2.539   6.113
 2983SOL     OW26090   3.285   2.781   0.474
 2983SOL    HW126091   3.358   2.838   0.499
 2983SOL    HW226092   3.302   2.759   0.382
 2984SOL     OW26093   1.155   2.638   7.298
 2984SOL    HW126094   1.066   2.612   7.322
 2984SOL    HW226095   1.176   2.584   7.222
 2985SOL     OW26096   4.382   5.537   6.502
 2985SOL    HW126097   4.377   5.450   6.541
 2985SOL    HW226098   4.472   5.565   6.517
 2986SOL     OW26099   0.157   2.401   0.672
 2986SOL    HW126100   0.212   2.458   0.726
 2986SOL    HW226101   0.220   2.345   0.626
 2987SOL     OW26102   3.428   2.433   0.517
 2987SOL    HW126103   3.403   2.435   0.424
 2987SOL    HW226104   3.521   2.456   0.517
 2988SOL     OW26105   4.594   3.930   1.741
 2988SOL    HW126106   4.503   3.954   1.722
 2988SOL    HW226107   4.592   3.901   1.832
 2989SOL     OW26108   3.630   1.101   7.506
 2989SOL    HW126109   3.644   1.074   7.597
 2989SOL    HW226110   3.716   1.094   7.465
 2990SOL     OW26111   5.898   5.668   0.947
 2990SOL    HW126112   5.961   5.686   1.016
 2990SOL    HW226113   5.817   5.645   0.993
 2991SOL     OW26114   6.083   3.562   7.135
 2991SOL    HW126115   6.160   3.553   7.191
 2991SOL    HW226116   6.116   3.552   7.046
 2992SOL     OW26117   5.646   0.195   0.015
 2992SOL    HW126118   5.613   0.152   0.093
 2992SOL    HW226119   5.601   0.151   7.745
 2993SOL     OW26120   5.197   0.382   6.318
 2993SOL    HW126121   5.139   0.419   6.251
 2993SOL    HW226122   5.202   0.451   6.385
 2994SOL     OW26123   1.485   1.019   1.973
 2994SOL    HW126124   1.457   1.076   2.045
 2994SOL    HW226125   1.551   0.962   2.012
 2995SOL     OW26126   6.100   1.008   0.898
 2995SOL    HW126127   6.139   1.094   0.911
 2995SOL    HW226128   6.172   0.954   0.862
 2996SOL     OW26129   3.096   5.962   0.401
 2996SOL    HW126130   3.048   5.903   0.342
 2996SOL    HW226131   3.094   6.047   0.356
 2997SOL     OW26132   4.904   5.253   1.850
 2997SOL    HW126133   4.965   5.242   1.776
 2997SOL    HW226134   4.916   5.174   1.903
 2998SOL     OW26135   6.078   0.203   5.947
 2998SOL    HW126136   6.018   0.276   5.930
 2998SOL    HW226137   6.091   0.162   5.862
 2999SOL     OW26138   1.701   6.413   0.904
 2999SOL    HW126139   1.785   0.011   0.909
 2999SOL    HW226140   1.670   6.408   0.995
 3000SOL     OW26141   6.363   2.220   7.744
 3000SOL    HW126142   6.389   2.251   7.658
 3000SOL    HW226143   6.389   2.129   7.746
 3001SOL     OW26144   1.134   5.482   0.752
 3001SOL    HW126145   1.193   5.552   0.723
 3001SOL    HW226146   1.185   5.402   0.742
 3002SOL     OW26147   4.199   5.111   0.340
 3002SOL    HW126148   4.218   5.049   0.411
 3002SOL    HW226149   4.110   5.089   0.312
 3003SOL     OW26150   5.946   3.331   1.730
 3003SOL    HW126151   5.876   3.338   1.795
 3003SOL    HW226152   6.026   3.321   1.783
 3004SOL     OW26153   1.019   4.712   1.637
 3004SOL    HW126154   1.007   4.722   1.731
 3004SOL    HW226155   0.983   4.626   1.616
 3005SOL     OW26156   4.850   4.982   0.154
 3005SOL    HW126157   4.776   5.020   0.106
 3005SOL    HW226158   4.890   5.056   0.200
 3006SOL     OW26159   1.439   6.343   5.364
 3006SOL    HW126160   1.414   6.257   5.331
 3006SOL    HW226161   1.477   6.388   5.289
 3007SOL     OW26162   3.969   1.105   6.910
 3007SOL    HW126163   3.933   1.189   6.882
 3007SOL    HW226164   3.917   1.039   6.863
 3008SOL     OW26165   2.856   0.596   0.530
 3008SOL    HW126166   2.937   0.586   0.480
 3008SOL    HW226167   2.788   0.562   0.473
 3009SOL     OW26168   2.945   3.981   7.797
 3009SOL    HW126169   2.875   4.026   0.041
 3009SOL    HW226170   3.022   3.992   0.050
 3010SOL     OW26171   3.218   4.130   7.476
 3010SOL    HW126172   3.269   4.049   7.467
 3010SOL    HW226173   3.257   4.174   7.551
 3011SOL     OW26174   0.389   4.685   0.145
 3011SOL    HW126175   0.361   4.672   0.054
 3011SOL    HW226176   0.337   4.759   0.175
 3012SOL     OW26177   2.282   4.880   0.265
 3012SOL    HW126178   2.252   4.805   0.214
 3012SOL    HW226179   2.293   4.846   0.354
 3013SOL     OW26180   2.246   1.151   1.060
 3013SOL    HW126181   2.255   1.057   1.075
 3013SOL    HW226182   2.299   1.192   1.128
 3014SOL     OW26183   2.936   2.553   6.310
 3014SOL    HW126184   2.890   2.469   6.318
 3014SOL    HW226185   2.926   2.578   6.219
 3015SOL     OW26186   4.637   1.409   0.443
 3015SOL    HW126187   4.586   1.336   0.408
 3015SOL    HW226188   4.572   1.466   0.484
 3016SOL     OW26189   3.521   5.046   7.211
 3016SOL    HW126190   3.612   5.030   7.185
 3016SOL    HW226191   3.501   4.976   7.273
 3017SOL     OW26192   2.362   5.128   0.387
 3017SOL    HW126193   2.456   5.118   0.399
 3017SOL    HW226194   2.335   5.050   0.339
 3018SOL     OW26195   4.414   1.172   6.801
 3018SOL    HW126196   4.414   1.210   6.713
 3018SOL    HW226197   4.489   1.112   6.800
 3019SOL     OW26198   4.654   1.399   1.846
 3019SOL    HW126199   4.726   1.389   1.907
 3019SOL    HW226200   4.579   1.360   1.890
 3020SOL     OW26201   5.440   4.797   7.121
 3020SOL    HW126202   5.426   4.773   7.029
 3020SOL    HW226203   5.383   4.872   7.136
 3021SOL     OW26204   0.095   0.340   7.668
 3021SOL    HW126205   0.141   0.331   7.752
 3021SOL    HW226206   0.012   0.381   7.690
 3022SOL     OW26207   6.258   4.143   2.295
 3022SOL    HW126208   6.321   4.169   2.363
 3022SOL    HW226209   6.243   4.223   2.245
 3023SOL     OW26210   6.092   4.104   1.124
 3023SOL    HW126211   6.032   4.179   1.124
 3023SOL    HW226212   6.119   4.095   1.033
 3024SOL     OW26213   4.735   0.826   6.275
 3024SOL    HW126214   4.747   0.919   6.257
 3024SOL    HW226215   4.669   0.823   6.344
 3025SOL     OW26216   3.816   0.629   1.317
 3025SOL    HW126217   3.820   0.556   1.255
 3025SOL    HW226218   3.766   0.594   1.391
 3026SOL     OW26219   6.420   0.295   0.982
 3026SOL    HW126220   6.336   0.328   1.013
 3026SOL    HW226221   6.413   0.298   0.886
 3027SOL     OW26222   4.510   5.366   7.483
 3027SOL    HW126223   4.603   5.377   7.499
 3027SOL    HW226224   4.466   5.416   7.552
 3028SOL     OW26225   0.769   5.290   6.167
 3028SOL    HW126226   0.757   5.258   6.078
 3028SOL    HW226227   0.697   5.250   6.216
 3029SOL     OW26228   3.360   0.175   1.684
 3029SOL    HW126229   3.333   0.221   1.764
 3029SOL    HW226230   3.421   0.107   1.715
 3030SOL     OW26231   6.346   3.445   0.765
 3030SOL    HW126232   6.356   3.511   0.834
 3030SOL    HW226233   6.410   3.378   0.787
 3031SOL     OW26234   2.922   0.273   1.255
 3031SOL    HW126235   2.885   0.281   1.167
 3031SOL    HW226236   2.855   0.308   1.313
 3032SOL     OW26237   5.729   6.302   7.744
 3032SOL    HW126238   5.824   6.293   7.732
 3032SOL    HW226239   5.696   6.325   7.658
 3033SOL     OW26240   1.488   2.921   7.762
 3033SOL    HW126241   1.427   2.860   0.001
 3033SOL    HW226242   1.563   2.925   0.018
 3034SOL     OW26243   1.931   3.800   1.589
 3034SOL    HW126244   1.853   3.746   1.604
 3034SOL    HW226245   1.932   3.814   1.494
 3035SOL     OW26246   5.764   6.167   0.829
 3035SOL    HW126247   5.850   6.170   0.788
 3035SOL    HW226248   5.781   6.137   0.918
 3036SOL     OW26249   3.554   2.622   5.947
 3036SOL    HW126250   3.525   2.530   5.943
 3036SOL    HW226251   3.500   2.661   6.015
 3037SOL     OW26252   5.314   3.443   0.318
 3037SOL    HW126253   5.248   3.424   0.252
 3037SOL    HW226254   5.377   3.372   0.311
 3038SOL     OW26255   5.607   1.897   1.137
 3038SOL    HW126256   5.611   1.828   1.071
 3038SOL    HW226257   5.698   1.911   1.163
 3039SOL     OW26258   2.659   3.794   7.169
 3039SOL    HW126259   2.657   3.870   7.226
 3039SOL    HW226260   2.696   3.724   7.223
 3040SOL     OW26261   1.579   3.818   7.322
 3040SOL    HW126262   1.579   3.897   7.268
 3040SOL    HW226263   1.649   3.764   7.286
 3041SOL     OW26264   0.532   5.214   7.513
 3041SOL    HW126265   0.500   5.292   7.560
 3041SOL    HW226266   0.599   5.248   7.454
 3042SOL     OW26267   5.230   5.384   6.651
 3042SOL    HW126268   5.170   5.458   6.653
 3042SOL    HW226269   5.299   5.407   6.714
 3043SOL     OW26270   4.065   0.999   6.590
 3043SOL    HW126271   4.046   0.929   6.652
 3043SOL    HW226272   3.988   1.003   6.534
 3044SOL     OW26273   5.621   2.379   1.776
 3044SOL    HW126274   5.603   2.397   1.868
 3044SOL    HW226275   5.581   2.294   1.760
 3045SOL     OW26276   5.179   1.153   0.685
 3045SOL    HW126277   5.183   1.243   0.653
 3045SOL    HW226278   5.104   1.115   0.640
 3046SOL     OW26279   5.536   4.406   1.102
 3046SOL    HW126280   5.605   4.379   1.163
 3046SOL    HW226281   5.457   4.364   1.136
 3047SOL     OW26282   0.382   1.514   7.038
 3047SOL    HW126283   0.312   1.449   7.044
 3047SOL    HW226284   0.336   1.597   7.022
 3048SOL     OW26285   1.641   4.115   7.746
 3048SOL    HW126286   1.662   4.193   7.694
 3048SOL    HW226287   1.617   4.049   7.681
 3049SOL     OW26288   0.005   1.854   1.607
 3049SOL    HW126289   0.011   1.906   1.527
 3049SOL    HW226290   6.435   1.917   1.676
 3050SOL     OW26291   2.210   0.293   6.379
 3050SOL    HW126292   2.268   0.217   6.378
 3050SOL    HW226293   2.208   0.320   6.470
 3051SOL     OW26294   5.350   2.278   2.082
 3051SOL    HW126295   5.256   2.268   2.097
 3051SOL    HW226296   5.377   2.194   2.046
 3052SOL     OW26297   1.521   1.606   0.070
 3052SOL    HW126298   1.561   1.686   0.036
 3052SOL    HW226299   1.492   1.630   0.158
 3053SOL     OW26300   5.528   3.673   0.563
 3053SOL    HW126301   5.582   3.748   0.590
 3053SOL    HW226302   5.494   3.699   0.477
 3054SOL     OW26303   3.654   5.266   7.019
 3054SOL    HW126304   3.559   5.260   7.009
 3054SOL    HW226305   3.683   5.315   6.942
 3055SOL     OW26306   3.407   0.609   1.144
 3055SOL    HW126307   3.465   0.590   1.070
 3055SOL    HW226308   3.326   0.641   1.102
 3056SOL     OW26309   0.749   1.823   7.787
 3056SOL    HW126310   0.707   1.909   7.790
 3056SOL    HW226311   0.691   1.771   7.731
 3057SOL     OW26312   6.084   3.746   0.270
 3057SOL    HW126313   6.065   3.837   0.246
 3057SOL    HW226314   6.149   3.752   0.339
 3058SOL     OW26315   2.504   5.871   6.582
 3058SOL    HW126316   2.468   5.783   6.576
 3058SOL    HW226317   2.449   5.924   6.524
 3059SOL     OW26318   3.603   4.895   6.836
 3059SOL    HW126319   3.523   4.945   6.853
 3059SOL    HW226320   3.670   4.962   6.819
 3060SOL     OW26321   0.391   1.812   5.681
 3060SOL    HW126322   0.330   1.885   5.696
 3060SOL    HW226323   0.361   1.772   5.599
 3061SOL     OW26324   0.146   5.928   0.995
 3061SOL    HW126325   0.065   5.977   0.989
 3061SOL    HW226326   0.192   5.947   0.913
 3062SOL     OW26327   4.611   3.375   6.505
 3062SOL    HW126328   4.569   3.317   6.442
 3062SOL    HW226329   4.538   3.422   6.546
 3063SOL     OW26330   2.062   4.785   7.134
 3063SOL    HW126331   2.060   4.869   7.181
 3063SOL    HW226332   2.039   4.720   7.200
 3064SOL     OW26333   4.548   0.758   0.554
 3064SOL    HW126334   4.555   0.854   0.549
 3064SOL    HW226335   4.546   0.739   0.648
 3065SOL     OW26336   1.276   1.952   0.470
 3065SOL    HW126337   1.208   1.933   0.535
 3065SOL    HW226338   1.230   1.999   0.400
 3066SOL     OW26339   5.760   1.162   6.324
 3066SOL    HW126340   5.755   1.068   6.341
 3066SOL    HW226341   5.784   1.168   6.231
 3067SOL     OW26342   0.957   3.359   1.446
 3067SOL    HW126343   0.952   3.392   1.536
 3067SOL    HW226344   0.940   3.265   1.455
 3068SOL     OW26345   3.942   4.670   1.232
 3068SOL    HW126346   4.024   4.710   1.260
 3068SOL    HW226347   3.968   4.592   1.184
 3069SOL     OW26348   0.414   4.360   5.407
 3069SOL    HW126349   0.368   4.443   5.391
 3069SOL    HW226350   0.382   4.330   5.492
 3070SOL     OW26351   0.598   3.963   7.748
 3070SOL    HW126352   0.555   4.019   7.682
 3070SOL    HW226353   0.574   3.874   7.723
 3071SOL     OW26354   0.586   3.606   7.150
 3071SOL    HW126355   0.531   3.636   7.222
 3071SOL    HW226356   0.530   3.612   7.073
 3072SOL     OW26357   3.681   6.036   0.349
 3072SOL    HW126358   3.610   5.997   0.400
 3072SOL    HW226359   3.738   6.077   0.414
 3073SOL     OW26360   5.823   3.769   2.528
 3073SOL    HW126361   5.888   3.732   2.470
 3073SOL    HW226362   5.855   3.857   2.547
 3074SOL     OW26363   2.261   3.610   5.409
 3074SOL    HW126364   2.352   3.605   5.438
 3074SOL    HW226365   2.238   3.520   5.384
 3075SOL     OW26366   0.575   0.660   7.679
 3075SOL    HW126367   0.600   0.609   7.602
 3075SOL    HW226368   0.624   0.620   7.752
 3076SOL     OW26369   3.970   0.224   7.430
 3076SOL    HW126370   3.997   0.240   7.340
 3076SOL    HW226371   3.930   0.136   7.428
 3077SOL     OW26372   1.436   4.368   1.150
 3077SOL    HW126373   1.415   4.412   1.067
 3077SOL    HW226374   1.470   4.438   1.206
 3078SOL     OW26375   2.440   4.303   7.462
 3078SOL    HW126376   2.351   4.273   7.445
 3078SOL    HW226377   2.476   4.238   7.523
 3079SOL     OW26378   1.072   3.522   7.695
 3079SOL    HW126379   1.073   3.438   7.740
 3079SOL    HW226380   1.095   3.501   7.604
 3080SOL     OW26381   1.884   5.528   6.935
 3080SOL    HW126382   1.975   5.506   6.951
 3080SOL    HW226383   1.850   5.555   7.021
 3081SOL     OW26384   5.455   4.013   1.070
 3081SOL    HW126385   5.369   4.050   1.090
 3081SOL    HW226386   5.440   3.919   1.067
 3082SOL     OW26387   0.507   5.020   7.703
 3082SOL    HW126388   0.539   4.939   7.663
 3082SOL    HW226389   0.520   5.087   7.636
 3083SOL     OW26390   2.712   5.324   0.899
 3083SOL    HW126391   2.702   5.269   0.821
 3083SOL    HW226392   2.625   5.363   0.911
 3084SOL     OW26393   2.682   3.110   6.641
 3084SOL    HW126394   2.739   3.140   6.712
 3084SOL    HW226395   2.737   3.110   6.563
 3085SOL     OW26396   3.240   4.971   0.731
 3085SOL    HW126397   3.245   4.886   0.773
 3085SOL    HW226398   3.272   5.033   0.797
 3086SOL     OW26399   5.943   4.953   7.441
 3086SOL    HW126400   6.022   4.936   7.390
 3086SOL    HW226401   5.874   4.907   7.393
 3087SOL     OW26402   2.774   6.059   7.542
 3087SOL    HW126403   2.834   6.026   7.608
 3087SOL    HW226404   2.819   6.134   7.503
 3088SOL     OW26405   0.368   2.718   1.174
 3088SOL    HW126406   0.290   2.710   1.118
 3088SOL    HW226407   0.354   2.656   1.245
 3089SOL     OW26408   0.625   5.624   0.370
 3089SOL    HW126409   0.610   5.641   0.462
 3089SOL    HW226410   0.629   5.528   0.364
 3090SOL     OW26411   1.170   2.313   5.618
 3090SOL    HW126412   1.241   2.283   5.562
 3090SOL    HW226413   1.179   2.261   5.698
 3091SOL     OW26414   4.391   5.013   6.094
 3091SOL    HW126415   4.454   5.062   6.040
 3091SOL    HW226416   4.368   5.072   6.165
 3092SOL     OW26417   0.002   1.121   6.987
 3092SOL    HW126418   6.441   1.031   7.019
 3092SOL    HW226419   6.362   1.143   6.955
 3093SOL     OW26420   0.945   3.583   0.300
 3093SOL    HW126421   0.940   3.492   0.331
 3093SOL    HW226422   0.952   3.635   0.380
 3094SOL     OW26423   5.514   2.436   7.234
 3094SOL    HW126424   5.534   2.474   7.148
 3094SOL    HW226425   5.530   2.507   7.296
 3095SOL     OW26426   3.121   0.957   7.159
 3095SOL    HW126427   3.135   0.913   7.243
 3095SOL    HW226428   3.156   1.045   7.172
 3096SOL     OW26429   2.810   4.509   0.397
 3096SOL    HW126430   2.849   4.574   0.455
 3096SOL    HW226431   2.797   4.555   0.314
 3097SOL     OW26432   4.843   3.847   2.016
 3097SOL    HW126433   4.748   3.838   2.006
 3097SOL    HW226434   4.854   3.922   2.075
 3098SOL     OW26435   5.810   2.427   1.467
 3098SOL    HW126436   5.825   2.512   1.509
 3098SOL    HW226437   5.843   2.363   1.530
 3099SOL     OW26438   6.184   4.414   1.115
 3099SOL    HW126439   6.091   4.389   1.110
 3099SOL    HW226440   6.215   4.410   1.025
 3100SOL     OW26441   1.715   1.159   6.047
 3100SOL    HW126442   1.622   1.154   6.071
 3100SOL    HW226443   1.718   1.129   5.956
 3101SOL     OW26444   5.512   5.582   6.943
 3101SOL    HW126445   5.431   5.633   6.936
 3101SOL    HW226446   5.581   5.648   6.955
 3102SOL     OW26447   3.429   0.937   0.756
 3102SOL    HW126448   3.339   0.906   0.750
 3102SOL    HW226449   3.455   0.920   0.846
 3103SOL     OW26450   4.732   3.475   0.179
 3103SOL    HW126451   4.762   3.388   0.205
 3103SOL    HW226452   4.800   3.535   0.210
 3104SOL     OW26453   5.446   4.537   0.082
 3104SOL    HW126454   5.484   4.482   0.150
 3104SOL    HW226455   5.396   4.476   0.027
 3105SOL     OW26456   5.259   5.122   6.205
 3105SOL    HW126457   5.265   5.184   6.277
 3105SOL    HW226458   5.339   5.137   6.153
 3106SOL     OW26459   4.259   3.272   0.033
 3106SOL    HW126460   4.338   3.318   0.061
 3106SOL    HW226461   4.236   3.314   7.753
 3107SOL     OW26462   1.565   3.371   6.084
 3107SOL    HW126463   1.572   3.460   6.050
 3107SOL    HW226464   1.521   3.322   6.014
 3108SOL     OW26465   0.134   5.261   7.010
 3108SOL    HW126466   0.040   5.280   7.013
 3108SOL    HW226467   0.173   5.329   7.066
 3109SOL     OW26468   5.437   1.283   0.463
 3109SOL    HW126469   5.511   1.235   0.499
 3109SOL    HW226470   5.380   1.215   0.427
 3110SOL     OW26471   0.494   5.712   0.146
 3110SOL    HW126472   0.554   5.730   0.074
 3110SOL    HW226473   0.550   5.679   0.216
 3111SOL     OW26474   4.311   3.766   1.173
 3111SOL    HW126475   4.301   3.847   1.224
 3111SOL    HW226476   4.221   3.739   1.154
 3112SOL     OW26477   5.494   0.419   1.652
 3112SOL    HW126478   5.554   0.442   1.723
 3112SOL    HW226479   5.497   0.495   1.594
 3113SOL     OW26480   0.442   3.636   6.910
 3113SOL    HW126481   0.459   3.727   6.884
 3113SOL    HW226482   0.491   3.583   6.848
 3114SOL     OW26483   4.590   5.102   7.534
 3114SOL    HW126484   4.630   5.111   7.621
 3114SOL    HW226485   4.556   5.189   7.514
 3115SOL     OW26486   3.128   4.304   0.242
 3115SOL    HW126487   3.143   4.212   0.222
 3115SOL    HW226488   3.100   4.343   0.159
 3116SOL     OW26489   3.359   0.850   6.722
 3116SOL    HW126490   3.286   0.899   6.683
 3116SOL    HW226491   3.337   0.844   6.815
 3117SOL     OW26492   2.555   0.570   1.526
 3117SOL    HW126493   2.600   0.636   1.473
 3117SOL    HW226494   2.462   0.584   1.510
 3118SOL     OW26495   2.603   3.767   7.506
 3118SOL    HW126496   2.656   3.710   7.449
 3118SOL    HW226497   2.620   3.855   7.473
 3119SOL     OW26498   6.299   0.551   0.671
 3119SOL    HW126499   6.314   0.584   0.760
 3119SOL    HW226500   6.205   0.564   0.656
 3120SOL     OW26501   2.897   1.056   1.086
 3120SOL    HW126502   2.904   1.055   1.181
 3120SOL    HW226503   2.987   1.066   1.055
 3121SOL     OW26504   0.857   5.452   2.087
 3121SOL    HW126505   0.803   5.411   2.019
 3121SOL    HW226506   0.795   5.470   2.158
 3122SOL     OW26507   2.749   4.623   0.152
 3122SOL    HW126508   2.818   4.630   0.087
 3122SOL    HW226509   2.674   4.588   0.104
 3123SOL     OW26510   2.812   0.676   7.795
 3123SOL    HW126511   2.789   0.697   7.705
 3123SOL    HW226512   2.730   0.644   0.031
 3124SOL     OW26513   4.999   0.205   5.745
 3124SOL    HW126514   4.951   0.151   5.808
 3124SOL    HW226515   5.013   0.288   5.790
 3125SOL     OW26516   3.397   3.498   1.889
 3125SOL    HW126517   3.446   3.571   1.851
 3125SOL    HW226518   3.463   3.445   1.933
 3126SOL     OW26519   6.017   5.508   0.761
 3126SOL    HW126520   6.102   5.477   0.793
 3126SOL    HW226521   5.988   5.571   0.827
 3127SOL     OW26522   1.557   5.742   0.631
 3127SOL    HW126523   1.567   5.663   0.684
 3127SOL    HW226524   1.641   5.788   0.641
 3128SOL     OW26525   5.074   1.332   0.260
 3128SOL    HW126526   5.002   1.330   0.197
 3128SOL    HW226527   5.031   1.338   0.345
 3129SOL     OW26528   5.505   0.170   7.182
 3129SOL    HW126529   5.493   0.080   7.152
 3129SOL    HW226530   5.582   0.166   7.239
 3130SOL     OW26531   5.074   5.606   6.632
 3130SOL    HW126532   5.087   5.701   6.630
 3130SOL    HW226533   5.053   5.583   6.541
 3131SOL     OW26534   1.238   4.543   1.363
 3131SOL    HW126535   1.213   4.456   1.393
 3131SOL    HW226536   1.205   4.547   1.273
 3132SOL     OW26537   6.265   3.749   7.369
 3132SOL    HW126538   6.304   3.681   7.315
 3132SOL    HW226539   6.259   3.709   7.456
 3133SOL     OW26540   2.774   0.140   6.421
 3133SOL    HW126541   2.747   0.095   6.501
 3133SOL    HW226542   2.820   0.218   6.451
 3134SOL     OW26543   6.204   0.594   6.843
 3134SOL    HW126544   6.132   0.535   6.864
 3134SOL    HW226545   6.264   0.586   6.917
 3135SOL     OW26546   1.982   5.144   1.895
 3135SOL    HW126547   1.950   5.223   1.853
 3135SOL    HW226548   1.907   5.110   1.943
 3136SOL     OW26549   3.371   4.050   0.528
 3136SOL    HW126550   3.365   3.955   0.518
 3136SOL    HW226551   3.402   4.062   0.618
 3137SOL     OW26552   1.871   6.345   5.637
 3137SOL    HW126553   1.942   6.293   5.601
 3137SOL    HW226554   1.826   6.380   5.559
 3138SOL     OW26555   0.396   2.943   5.970
 3138SOL    HW126556   0.336   2.994   6.025
 3138SOL    HW226557   0.354   2.857   5.962
 3139SOL     OW26558   4.332   0.622   6.253
 3139SOL    HW126559   4.310   0.529   6.243
 3139SOL    HW226560   4.306   0.643   6.343
 3140SOL     OW26561   0.675   0.757   5.799
 3140SOL    HW126562   0.602   0.698   5.816
 3140SOL    HW226563   0.635   0.842   5.784
 3141SOL     OW26564   4.880   5.518   2.496
 3141SOL    HW126565   4.802   5.557   2.456
 3141SOL    HW226566   4.870   5.424   2.483
 3142SOL     OW26567   0.140   4.443   6.357
 3142SOL    HW126568   0.069   4.387   6.327
 3142SOL    HW226569   0.188   4.466   6.277
 3143SOL     OW26570   2.733   0.967   7.442
 3143SOL    HW126571   2.819   0.996   7.471
 3143SOL    HW226572   2.718   1.013   7.360
 3144SOL     OW26573   3.335   2.050   0.099
 3144SOL    HW126574   3.306   2.119   0.159
 3144SOL    HW226575   3.430   2.050   0.107
 3145SOL     OW26576   2.469   3.337   1.732
 3145SOL    HW126577   2.453   3.429   1.752
 3145SOL    HW226578   2.385   3.304   1.698
 3146SOL     OW26579   1.249   1.358   6.937
 3146SOL    HW126580   1.184   1.399   6.993
 3146SOL    HW226581   1.314   1.426   6.922
 3147SOL     OW26582   3.599   5.361   1.602
 3147SOL    HW126583   3.681   5.409   1.593
 3147SOL    HW226584   3.598   5.332   1.693
 3148SOL     OW26585   1.154   3.025   7.063
 3148SOL    HW126586   1.161   2.986   6.976
 3148SOL    HW226587   1.243   3.054   7.084
 3149SOL     OW26588   1.643   1.416   1.588
 3149SOL    HW126589   1.649   1.379   1.676
 3149SOL    HW226590   1.574   1.483   1.595
 3150SOL     OW26591   5.358   0.823   6.258
 3150SOL    HW126592   5.301   0.878   6.204
 3150SOL    HW226593   5.365   0.741   6.210
 3151SOL     OW26594   4.442   0.093   6.565
 3151SOL    HW126595   4.519   0.148   6.577
 3151SOL    HW226596   4.371   0.142   6.606
 3152SOL     OW26597   3.233   1.860   7.277
 3152SOL    HW126598   3.182   1.941   7.284
 3152SOL    HW226599   3.245   1.831   7.367
 3153SOL     OW26600   5.676   1.839   7.527
 3153SOL    HW126601   5.630   1.835   7.443
 3153SOL    HW226602   5.704   1.748   7.542
 3154SOL     OW26603   4.376   2.756   6.374
 3154SOL    HW126604   4.330   2.709   6.304
 3154SOL    HW226605   4.307   2.805   6.419
 3155SOL     OW26606   6.332   3.968   5.971
 3155SOL    HW126607   6.292   4.055   5.961
 3155SOL    HW226608   6.415   3.974   5.925
 3156SOL     OW26609   2.570   3.527   0.588
 3156SOL    HW126610   2.484   3.541   0.547
 3156SOL    HW226611   2.588   3.434   0.572
 3157SOL     OW26612   3.619   5.034   5.885
 3157SOL    HW126613   3.657   4.961   5.835
 3157SOL    HW226614   3.541   4.997   5.925
 3158SOL     OW26615   1.584   4.048   7.177
 3158SOL    HW126616   1.623   4.112   7.236
 3158SOL    HW226617   1.501   4.088   7.150
 3159SOL     OW26618   4.440   0.225   0.826
 3159SOL    HW126619   4.491   0.268   0.758
 3159SOL    HW226620   4.468   0.134   0.824
 3160SOL     OW26621   5.825   1.493   5.439
 3160SOL    HW126622   5.787   1.414   5.476
 3160SOL    HW226623   5.817   1.559   5.508
 3161SOL     OW26624   3.144   2.566   5.888
 3161SOL    HW126625   3.069   2.580   5.946
 3161SOL    HW226626   3.144   2.472   5.870
 3162SOL     OW26627   2.712   5.112   7.432
 3162SOL    HW126628   2.702   5.176   7.361
 3162SOL    HW226629   2.627   5.111   7.475
 3163SOL     OW26630   2.142   0.911   2.181
 3163SOL    HW126631   2.061   0.910   2.231
 3163SOL    HW226632   2.170   1.002   2.183
 3164SOL     OW26633   4.386   4.552   7.720
 3164SOL    HW126634   4.304   4.572   7.675
 3164SOL    HW226635   4.360   4.497   7.793
 3165SOL     OW26636   5.862   3.020   0.087
 3165SOL    HW126637   5.944   3.064   0.061
 3165SOL    HW226638   5.854   2.948   0.024
 3166SOL     OW26639   2.141   0.006   6.798
 3166SOL    HW126640   2.154   6.418   6.710
 3166SOL    HW226641   2.086   0.083   6.784
 3167SOL     OW26642   6.218   6.362   5.399
 3167SOL    HW126643   6.283   6.395   5.461
 3167SOL    HW226644   6.234   6.267   5.397
 3168SOL     OW26645   1.673   6.261   1.423
 3168SOL    HW126646   1.654   6.218   1.506
 3168SOL    HW226647   1.671   6.355   1.444
 3169SOL     OW26648   3.473   3.385   5.095
 3169SOL    HW126649   3.468   3.330   5.173
 3169SOL    HW226650   3.501   3.326   5.026
 3170SOL     OW26651   1.437   0.457   5.617
 3170SOL    HW126652   1.431   0.524   5.549
 3170SOL    HW226653   1.531   0.438   5.624
 3171SOL     OW26654   5.085   1.981   7.010
 3171SOL    HW126655   5.085   1.908   7.071
 3171SOL    HW226656   5.171   2.021   7.019
 3172SOL     OW26657   5.215   2.909   5.209
 3172SOL    HW126658   5.222   2.814   5.206
 3172SOL    HW226659   5.134   2.926   5.257
 3173SOL     OW26660   1.282   6.160   6.741
 3173SOL    HW126661   1.303   6.096   6.809
 3173SOL    HW226662   1.187   6.166   6.742
 3174SOL     OW26663   2.535   3.379   0.018
 3174SOL    HW126664   2.588   3.447   7.779
 3174SOL    HW226665   2.508   3.322   7.749
 3175SOL     OW26666   5.472   3.911   7.012
 3175SOL    HW126667   5.542   3.940   6.953
 3175SOL    HW226668   5.393   3.913   6.958
 3176SOL     OW26669   1.089   6.096   0.210
 3176SOL    HW126670   1.143   6.080   0.133
 3176SOL    HW226671   1.145   6.149   0.267
 3177SOL     OW26672   6.206   0.810   1.254
 3177SOL    HW126673   6.225   0.787   1.345
 3177SOL    HW226674   6.213   0.906   1.251
 3178SOL     OW26675   0.602   1.380   6.921
 3178SOL    HW126676   0.533   1.419   6.975
 3178SOL    HW226677   0.565   1.377   6.833
 3179SOL     OW26678   5.211   2.730   1.373
 3179SOL    HW126679   5.199   2.670   1.447
 3179SOL    HW226680   5.228   2.815   1.412
 3180SOL     OW26681   0.122   4.497   6.922
 3180SOL    HW126682   0.133   4.487   7.016
 3180SOL    HW226683   0.116   4.407   6.889
 3181SOL     OW26684   4.094   2.058   0.979
 3181SOL    HW126685   4.141   2.130   0.937
 3181SOL    HW226686   4.044   2.017   0.908
 3182SOL     OW26687   0.944   1.909   6.631
 3182SOL    HW126688   0.963   1.941   6.543
 3182SOL    HW226689   0.850   1.890   6.630
 3183SOL     OW26690   1.099   2.822   0.235
 3183SOL    HW126691   1.030   2.770   0.196
 3183SOL    HW226692   1.058   2.863   0.311
 3184SOL     OW26693   4.051   4.908   7.726
 3184SOL    HW126694   4.074   4.885   7.636
 3184SOL    HW226695   4.133   4.900   7.775
 3185SOL     OW26696   1.931   5.909   7.149
 3185SOL    HW126697   1.996   5.861   7.098
 3185SOL    HW226698   1.972   5.993   7.168
 3186SOL     OW26699   4.092   5.365   6.532
 3186SOL    HW126700   4.177   5.337   6.564
 3186SOL    HW226701   4.112   5.426   6.461
 3187SOL     OW26702   4.418   5.075   0.185
 3187SOL    HW126703   4.486   5.086   0.252
 3187SOL    HW226704   4.336   5.091   0.231
 3188SOL     OW26705   0.191   5.690   0.738
 3188SOL    HW126706   0.214   5.780   0.760
 3188SOL    HW226707   0.098   5.683   0.761
 3189SOL     OW26708   4.863   3.179   0.648
 3189SOL    HW126709   4.949   3.191   0.687
 3189SOL    HW226710   4.880   3.133   0.566
 3190SOL     OW26711   5.472   5.031   7.693
 3190SOL    HW126712   5.496   5.006   7.604
 3190SOL    HW226713   5.551   5.011   7.745
 3191SOL     OW26714   4.659   5.632   7.211
 3191SOL    HW126715   4.659   5.706   7.151
 3191SOL    HW226716   4.666   5.672   7.298
 3192SOL     OW26717   0.435   4.452   1.352
 3192SOL    HW126718   0.489   4.519   1.310
 3192SOL    HW226719   0.480   4.370   1.331
 3193SOL     OW26720   3.221   1.483   5.562
 3193SOL    HW126721   3.156   1.501   5.494
 3193SOL    HW226722   3.231   1.388   5.561
 3194SOL     OW26723   0.545   4.194   1.333
 3194SOL    HW126724   0.458   4.175   1.368
 3194SOL    HW226725   0.559   4.126   1.267
 3195SOL     OW26726   1.044   1.095   7.721
 3195SOL    HW126727   0.996   1.095   7.638
 3195SOL    HW226728   1.041   1.004   7.750
 3196SOL     OW26729   2.685   2.691   5.689
 3196SOL    HW126730   2.594   2.673   5.667
 3196SOL    HW226731   2.683   2.775   5.734
 3197SOL     OW26732   2.888   0.232   7.502
 3197SOL    HW126733   2.806   0.252   7.457
 3197SOL    HW226734   2.931   0.166   7.446
 3198SOL     OW26735   3.223   3.191   0.697
 3198SOL    HW126736   3.280   3.224   0.767
 3198SOL    HW226737   3.265   3.219   0.616
 3199SOL     OW26738   2.433   4.709   0.781
 3199SOL    HW126739   2.359   4.696   0.840
 3199SOL    HW226740   2.448   4.624   0.741
 3200SOL     OW26741   0.166   1.663   2.271
 3200SOL    HW126742   0.179   1.745   2.224
 3200SOL    HW226743   0.081   1.631   2.240
 3201SOL     OW26744   3.302   1.584   0.268
 3201SOL    HW126745   3.291   1.679   0.270
 3201SOL    HW226746   3.359   1.568   0.193
 3202SOL     OW26747   5.299   5.494   0.446
 3202SOL    HW126748   5.308   5.483   0.541
 3202SOL    HW226749   5.377   5.453   0.409
 3203SOL     OW26750   4.836   2.013   0.964
 3203SOL    HW126751   4.878   2.070   0.899
 3203SOL    HW226752   4.873   2.040   1.048
 3204SOL     OW26753   3.949   4.139   6.967
 3204SOL    HW126754   3.890   4.213   6.954
 3204SOL    HW226755   4.037   4.178   6.966
 3205SOL     OW26756   1.833   3.207   1.555
 3205SOL    HW126757   1.797   3.119   1.544
 3205SOL    HW226758   1.859   3.210   1.648
 3206SOL     OW26759   3.205   0.922   1.237
 3206SOL    HW126760   3.299   0.915   1.254
 3206SOL    HW226761   3.198   0.975   1.158
 3207SOL     OW26762   0.930   5.110   6.937
 3207SOL    HW126763   0.860   5.058   6.977
 3207SOL    HW226764   0.969   5.157   7.010
 3208SOL     OW26765   1.095   5.464   0.023
 3208SOL    HW126766   1.120   5.414   7.748
 3208SOL    HW226767   1.089   5.398   0.093
 3209SOL     OW26768   2.780   0.503   0.834
 3209SOL    HW126769   2.731   0.579   0.802
 3209SOL    HW226770   2.792   0.448   0.756
 3210SOL     OW26771   6.351   1.061   0.509
 3210SOL    HW126772   6.264   1.032   0.539
 3210SOL    HW226773   6.367   1.141   0.559
 3211SOL     OW26774   1.003   2.452   1.481
 3211SOL    HW126775   1.073   2.397   1.517
 3211SOL    HW226776   1.039   2.540   1.478
 3212SOL     OW26777   2.945   5.250   7.527
 3212SOL    HW126778   2.973   5.225   7.615
 3212SOL    HW226779   2.870   5.194   7.508
 3213SOL     OW26780   4.513   4.147   7.248
 3213SOL    HW126781   4.586   4.126   7.305
 3213SOL    HW226782   4.490   4.237   7.271
 3214SOL     OW26783   4.945   0.128   6.687
 3214SOL    HW126784   5.011   0.190   6.657
 3214SOL    HW226785   4.915   0.164   6.771
 3215SOL     OW26786   3.137   6.135   6.241
 3215SOL    HW126787   3.077   6.060   6.245
 3215SOL    HW226788   3.115   6.187   6.319
 3216SOL     OW26789   4.089   3.601   0.610
 3216SOL    HW126790   4.108   3.576   0.519
 3216SOL    HW226791   4.168   3.644   0.641
 3217SOL     OW26792   4.580   5.131   0.390
 3217SOL    HW126793   4.625   5.215   0.396
 3217SOL    HW226794   4.561   5.107   0.481
 3218SOL     OW26795   0.197   3.471   0.476
 3218SOL    HW126796   0.254   3.522   0.534
 3218SOL    HW226797   0.109   3.502   0.496
 3219SOL     OW26798   3.799   0.492   5.638
 3219SOL    HW126799   3.859   0.476   5.566
 3219SOL    HW226800   3.803   0.586   5.653
 3220SOL     OW26801   0.850   4.448   7.499
 3220SOL    HW126802   0.881   4.513   7.562
 3220SOL    HW226803   0.821   4.375   7.554
 3221SOL     OW26804   5.026   5.070   0.569
 3221SOL    HW126805   5.102   5.113   0.609
 3221SOL    HW226806   5.050   4.977   0.567
 3222SOL     OW26807   5.332   3.721   5.849
 3222SOL    HW126808   5.317   3.629   5.828
 3222SOL    HW226809   5.305   3.768   5.770
 3223SOL     OW26810   5.584   2.952   1.584
 3223SOL    HW126811   5.531   3.025   1.550
 3223SOL    HW226812   5.527   2.875   1.573
 3224SOL     OW26813   1.608   6.148   6.116
 3224SOL    HW126814   1.582   6.234   6.083
 3224SOL    HW226815   1.629   6.097   6.038
 3225SOL     OW26816   2.975   1.789   0.280
 3225SOL    HW126817   2.912   1.814   0.348
 3225SOL    HW226818   2.975   1.693   0.283
 3226SOL     OW26819   5.694   1.559   5.210
 3226SOL    HW126820   5.746   1.558   5.291
 3226SOL    HW226821   5.692   1.468   5.181
 3227SOL     OW26822   5.690   2.157   5.110
 3227SOL    HW126823   5.731   2.078   5.074
 3227SOL    HW226824   5.712   2.156   5.203
 3228SOL     OW26825   3.134   3.864   2.081
 3228SOL    HW126826   3.137   3.777   2.041
 3228SOL    HW226827   3.203   3.861   2.148
 3229SOL     OW26828   1.996   2.747   0.593
 3229SOL    HW126829   1.918   2.728   0.541
 3229SOL    HW226830   1.962   2.766   0.681
 3230SOL     OW26831   1.059   1.561   6.532
 3230SOL    HW126832   0.980   1.543   6.583
 3230SOL    HW226833   1.110   1.622   6.586
 3231SOL     OW26834   4.041   3.317   6.523
 3231SOL    HW126835   4.077   3.331   6.610
 3231SOL    HW226836   4.068   3.394   6.473
 3232SOL     OW26837   1.405   1.369   6.009
 3232SOL    HW126838   1.479   1.414   5.970
 3232SOL    HW226839   1.412   1.279   5.980
 3233SOL     OW26840   4.705   1.831   7.478
 3233SOL    HW126841   4.718   1.803   7.569
 3233SOL    HW226842   4.789   1.813   7.436
 3234SOL     OW26843   1.994   0.975   6.885
 3234SOL    HW126844   2.056   1.047   6.871
 3234SOL    HW226845   1.935   0.980   6.809
 3235SOL     OW26846   2.607   1.962   6.785
 3235SOL    HW126847   2.658   1.883   6.800
 3235SOL    HW226848   2.518   1.939   6.813
 3236SOL     OW26849   2.802   0.463   6.285
 3236SOL    HW126850   2.719   0.486   6.328
 3236SOL    HW226851   2.853   0.420   6.353
 3237SOL     OW26852   5.306   3.327   1.676
 3237SOL    HW126853   5.247   3.267   1.720
 3237SOL    HW226854   5.329   3.392   1.742
 3238SOL     OW26855   2.075   4.895   0.533
 3238SOL    HW126856   2.091   4.988   0.546
 3238SOL    HW226857   2.161   4.854   0.540
 3239SOL     OW26858   0.864   4.905   0.909
 3239SOL    HW126859   0.910   4.849   0.972
 3239SOL    HW226860   0.907   4.887   0.825
 3240SOL     OW26861   5.225   3.709   0.073
 3240SOL    HW126862   5.195   3.618   0.074
 3240SOL    HW226863   5.145   3.760   0.072
 3241SOL     OW26864   5.885   4.617   0.553
 3241SOL    HW126865   5.921   4.607   0.465
 3241SOL    HW226866   5.920   4.700   0.584
 3242SOL     OW26867   2.471   0.776   7.238
 3242SOL    HW126868   2.397   0.769   7.178
 3242SOL    HW226869   2.463   0.863   7.276
 3243SOL     OW26870   1.196   3.746   1.190
 3243SOL    HW126871   1.253   3.695   1.134
 3243SOL    HW226872   1.166   3.684   1.257
 3244SOL     OW26873   3.564   6.121   5.981
 3244SOL    HW126874   3.507   6.144   6.055
 3244SOL    HW226875   3.530   6.172   5.908
 3245SOL     OW26876   2.570   6.361   1.637
 3245SOL    HW126877   2.579   6.298   1.708
 3245SOL    HW226878   2.574   6.446   1.680
 3246SOL     OW26879   4.874   5.578   0.411
 3246SOL    HW126880   4.844   5.648   0.353
 3246SOL    HW226881   4.949   5.540   0.366
 3247SOL     OW26882   5.997   4.652   1.438
 3247SOL    HW126883   5.923   4.687   1.487
 3247SOL    HW226884   6.022   4.573   1.485
 3248SOL     OW26885   1.929   4.534   0.641
 3248SOL    HW126886   1.964   4.471   0.578
 3248SOL    HW226887   1.976   4.517   0.722
 3249SOL     OW26888   0.720   1.343   7.317
 3249SOL    HW126889   0.627   1.324   7.325
 3249SOL    HW226890   0.733   1.424   7.366
 3250SOL     OW26891   1.161   2.391   7.674
 3250SOL    HW126892   1.109   2.312   7.659
 3250SOL    HW226893   1.099   2.454   7.711
 3251SOL     OW26894   4.317   6.243   0.815
 3251SOL    HW126895   4.248   6.308   0.809
 3251SOL    HW226896   4.290   6.185   0.887
 3252SOL     OW26897   2.639   5.100   1.746
 3252SOL    HW126898   2.550   5.096   1.781
 3252SOL    HW226899   2.642   5.183   1.699
 3253SOL     OW26900   6.075   4.636   7.438
 3253SOL    HW126901   6.131   4.631   7.516
 3253SOL    HW226902   6.099   4.718   7.396
 3254SOL     OW26903   2.137   0.158   0.396
 3254SOL    HW126904   2.228   0.183   0.411
 3254SOL    HW226905   2.091   0.241   0.384
 3255SOL     OW26906   0.989   3.943   0.652
 3255SOL    HW126907   1.004   3.863   0.603
 3255SOL    HW226908   0.917   3.987   0.606
 3256SOL     OW26909   5.905   2.501   1.217
 3256SOL    HW126910   5.836   2.559   1.183
 3256SOL    HW226911   5.874   2.476   1.304
 3257SOL     OW26912   6.196   2.492   7.518
 3257SOL    HW126913   6.153   2.578   7.524
 3257SOL    HW226914   6.129   2.430   7.547
 3258SOL     OW26915   3.731   2.911   2.164
 3258SOL    HW126916   3.670   2.985   2.162
 3258SOL    HW226917   3.709   2.863   2.244
 3259SOL     OW26918   3.039   3.767   7.096
 3259SOL    HW126919   3.087   3.848   7.080
 3259SOL    HW226920   2.966   3.770   7.035
 3260SOL     OW26921   1.995   5.262   7.127
 3260SOL    HW126922   2.062   5.307   7.075
 3260SOL    HW226923   2.041   5.187   7.165
 3261SOL     OW26924   0.366   3.627   0.631
 3261SOL    HW126925   0.450   3.630   0.679
 3261SOL    HW226926   0.316   3.700   0.668
 3262SOL     OW26927   0.943   1.628   1.394
 3262SOL    HW126928   0.993   1.601   1.472
 3262SOL    HW226929   0.949   1.553   1.335
 3263SOL     OW26930   1.750   4.829   1.444
 3263SOL    HW126931   1.667   4.868   1.471
 3263SOL    HW226932   1.736   4.735   1.450
 3264SOL     OW26933   0.278   3.072   1.453
 3264SOL    HW126934   0.280   3.045   1.361
 3264SOL    HW226935   0.186   3.084   1.473
 3265SOL     OW26936   6.124   0.701   7.570
 3265SOL    HW126937   6.095   0.773   7.514
 3265SOL    HW226938   6.101   0.622   7.520
 3266SOL     OW26939   1.857   4.334   6.939
 3266SOL    HW126940   1.827   4.334   7.030
 3266SOL    HW226941   1.816   4.256   6.901
 3267SOL     OW26942   4.804   6.186   0.503
 3267SOL    HW126943   4.885   6.214   0.460
 3267SOL    HW226944   4.779   6.261   0.556
 3268SOL     OW26945   0.901   2.740   7.585
 3268SOL    HW126946   0.932   2.680   7.652
 3268SOL    HW226947   0.962   2.813   7.588
 3269SOL     OW26948   3.062   5.921   0.915
 3269SOL    HW126949   3.094   5.837   0.884
 3269SOL    HW226950   3.054   5.975   0.837
 3270SOL     OW26951   0.707   0.886   0.954
 3270SOL    HW126952   0.673   0.954   1.011
 3270SOL    HW226953   0.634   0.863   0.897
 3271SOL     OW26954   5.308   2.106   6.571
 3271SOL    HW126955   5.271   2.105   6.483
 3271SOL    HW226956   5.295   2.196   6.601
 3272SOL     OW26957   4.524   6.391   7.793
 3272SOL    HW126958   4.464   0.012   7.764
 3272SOL    HW226959   4.522   6.326   7.723
 3273SOL     OW26960   2.755   0.251   0.203
 3273SOL    HW126961   2.767   0.217   0.115
 3273SOL    HW226962   2.822   0.208   0.255
 3274SOL     OW26963   2.115   0.295   1.378
 3274SOL    HW126964   2.041   0.308   1.436
 3274SOL    HW226965   2.104   0.361   1.309
 3275SOL     OW26966   1.958   0.113   7.377
 3275SOL    HW126967   2.015   0.155   7.312
 3275SOL    HW226968   1.871   0.148   7.359
 3276SOL     OW26969   4.891   1.117   7.738
 3276SOL    HW126970   4.890   1.192   7.797
 3276SOL    HW226971   4.942   1.050   7.784
 3277SOL     OW26972   3.002   2.600   5.150
 3277SOL    HW126973   3.051   2.635   5.076
 3277SOL    HW226974   3.067   2.588   5.219
 3278SOL     OW26975   4.990   3.806   5.133
 3278SOL    HW126976   4.908   3.757   5.126
 3278SOL    HW226977   5.046   3.752   5.188
 3279SOL     OW26978   2.488   1.966   7.518
 3279SOL    HW126979   2.579   1.978   7.545
 3279SOL    HW226980   2.459   2.054   7.492
 3280SOL     OW26981   0.111   1.820   5.940
 3280SOL    HW126982   0.059   1.785   5.867
 3280SOL    HW226983   0.055   1.809   6.017
 3281SOL     OW26984   2.835   2.688   6.832
 3281SOL    HW126985   2.847   2.599   6.864
 3281SOL    HW226986   2.839   2.681   6.737
 3282SOL     OW26987   3.865   1.521   0.333
 3282SOL    HW126988   3.823   1.599   0.371
 3282SOL    HW226989   3.869   1.459   0.405
 3283SOL     OW26990   5.315   2.659   7.444
 3283SOL    HW126991   5.314   2.728   7.510
 3283SOL    HW226992   5.408   2.650   7.421
 3284SOL     OW26993   2.282   1.559   0.698
 3284SOL    HW126994   2.357   1.614   0.718
 3284SOL    HW226995   2.292   1.483   0.755
 3285SOL     OW26996   4.820   3.440   0.538
 3285SOL    HW126997   4.837   3.355   0.578
 3285SOL    HW226998   4.907   3.481   0.533
 3286SOL     OW26999   1.784   5.513   1.391
 3286SOL    HW127000   1.812   5.588   1.443
 3286SOL    HW227001   1.695   5.534   1.363
 3287SOL     OW27002   5.840   1.284   1.094
 3287SOL    HW127003   5.889   1.345   1.040
 3287SOL    HW227004   5.759   1.268   1.045
 3288SOL     OW27005   1.896   1.490   1.645
 3288SOL    HW127006   1.806   1.471   1.618
 3288SOL    HW227007   1.907   1.441   1.726
 3289SOL     OW27008   5.343   2.259   1.239
 3289SOL    HW127009   5.428   2.283   1.276
 3289SOL    HW227010   5.312   2.338   1.195
 3290SOL     OW27011   1.636   2.267   0.018
 3290SOL    HW127012   1.542   2.250   0.015
 3290SOL    HW227013   1.647   2.355   7.784
 3291SOL     OW27014   2.354   0.641   6.299
 3291SOL    HW127015   2.268   0.609   6.270
 3291SOL    HW227016   2.363   0.727   6.258
 3292SOL     OW27017   3.741   0.472   0.771
 3292SOL    HW127018   3.812   0.408   0.777
 3292SOL    HW227019   3.756   0.516   0.687
 3293SOL     OW27020   4.497   1.691   0.271
 3293SOL    HW127021   4.488   1.756   0.202
 3293SOL    HW227022   4.465   1.610   0.232
 3294SOL     OW27023   4.567   3.852   2.001
 3294SOL    HW127024   4.507   3.917   2.037
 3294SOL    HW227025   4.549   3.773   2.050
 3295SOL     OW27026   5.692   1.199   0.571
 3295SOL    HW127027   5.778   1.166   0.547
 3295SOL    HW227028   5.699   1.294   0.565
 3296SOL     OW27029   2.965   1.690   7.433
 3296SOL    HW127030   3.051   1.649   7.445
 3296SOL    HW227031   2.981   1.784   7.445
 3297SOL     OW27032   1.592   1.245   1.334
 3297SOL    HW127033   1.626   1.223   1.247
 3297SOL    HW227034   1.670   1.257   1.388
 3298SOL     OW27035   3.644   2.038   7.545
 3298SOL    HW127036   3.585   2.013   7.616
 3298SOL    HW227037   3.704   2.102   7.585
 3299SOL     OW27038   0.383   2.292   0.552
 3299SOL    HW127039   0.409   2.253   0.469
 3299SOL    HW227040   0.416   2.382   0.548
 3300SOL     OW27041   1.091   0.832   6.022
 3300SOL    HW127042   1.000   0.846   6.045
 3300SOL    HW227043   1.131   0.794   6.100
 3301SOL     OW27044   1.468   0.966   6.878
 3301SOL    HW127045   1.375   0.947   6.888
 3301SOL    HW227046   1.479   0.985   6.784
 3302SOL     OW27047   6.142   0.081   5.708
 3302SOL    HW127048   6.228   0.046   5.682
 3302SOL    HW227049   6.080   0.040   5.648
 3303SOL     OW27050   2.143   3.613   1.119
 3303SOL    HW127051   2.213   3.549   1.116
 3303SOL    HW227052   2.160   3.664   1.199
 3304SOL     OW27053   2.427   2.658   0.387
 3304SOL    HW127054   2.455   2.748   0.403
 3304SOL    HW227055   2.332   2.663   0.380
 3305SOL     OW27056   0.052   4.505   2.230
 3305SOL    HW127057   0.052   4.600   2.220
 3305SOL    HW227058   0.122   4.488   2.292
 3306SOL     OW27059   1.823   3.144   2.262
 3306SOL    HW127060   1.843   3.082   2.192
 3306SOL    HW227061   1.839   3.096   2.343
 3307SOL     OW27062   1.733   5.808   6.056
 3307SOL    HW127063   1.656   5.754   6.073
 3307SOL    HW227064   1.701   5.882   6.005
 3308SOL     OW27065   0.149   0.333   0.518
 3308SOL    HW127066   0.137   0.383   0.437
 3308SOL    HW227067   0.191   0.252   0.490
 3309SOL     OW27068   2.726   1.718   6.823
 3309SOL    HW127069   2.748   1.705   6.731
 3309SOL    HW227070   2.752   1.637   6.866
 3310SOL     OW27071   4.407   2.073   0.486
 3310SOL    HW127072   4.417   2.047   0.578
 3310SOL    HW227073   4.414   2.168   0.487
 3311SOL     OW27074   2.854   5.197   7.036
 3311SOL    HW127075   2.910   5.249   7.095
 3311SOL    HW227076   2.872   5.106   7.061
 3312SOL     OW27077   3.379   0.056   0.328
 3312SOL    HW127078   3.390   6.409   0.335
 3312SOL    HW227079   3.433   0.092   0.398
 3313SOL     OW27080   2.208   0.848   0.133
 3313SOL    HW127081   2.258   0.839   0.051
 3313SOL    HW227082   2.117   0.850   0.104
 3314SOL     OW27083   2.824   1.781   7.077
 3314SOL    HW127084   2.849   1.691   7.097
 3314SOL    HW227085   2.778   1.775   6.993
 3315SOL     OW27086   0.277   5.449   0.837
 3315SOL    HW127087   0.246   5.536   0.812
 3315SOL    HW227088   0.370   5.449   0.814
 3316SOL     OW27089   0.589   1.638   7.176
 3316SOL    HW127090   0.531   1.708   7.207
 3316SOL    HW227091   0.530   1.573   7.137
 3317SOL     OW27092   4.403   0.704   7.658
 3317SOL    HW127093   4.443   0.647   7.724
 3317SOL    HW227094   4.355   0.643   7.602
 3318SOL     OW27095   5.101   2.599   6.999
 3318SOL    HW127096   5.103   2.615   7.093
 3318SOL    HW227097   5.020   2.641   6.969
 3319SOL     OW27098   2.114   4.418   7.229
 3319SOL    HW127099   2.018   4.421   7.221
 3319SOL    HW227100   2.145   4.414   7.139
 3320SOL     OW27101   0.369   0.702   6.923
 3320SOL    HW127102   0.417   0.754   6.858
 3320SOL    HW227103   0.435   0.646   6.962
 3321SOL     OW27104   1.258   3.048   0.269
 3321SOL    HW127105   1.210   2.969   0.243
 3321SOL    HW227106   1.329   3.016   0.324
 3322SOL     OW27107   5.542   4.291   7.276
 3322SOL    HW127108   5.599   4.346   7.223
 3322SOL    HW227109   5.469   4.349   7.301
 3323SOL     OW27110   0.045   5.173   1.031
 3323SOL    HW127111   6.399   5.186   1.046
 3323SOL    HW227112   0.061   5.083   1.056
 3324SOL     OW27113   2.096   2.353   5.377
 3324SOL    HW127114   2.095   2.272   5.326
 3324SOL    HW227115   2.021   2.346   5.436
 3325SOL     OW27116   3.353   2.679   5.758
 3325SOL    HW127117   3.280   2.636   5.802
 3325SOL    HW227118   3.430   2.657   5.811
 3326SOL     OW27119   4.756   3.335   7.612
 3326SOL    HW127120   4.782   3.408   7.556
 3326SOL    HW227121   4.819   3.336   7.684
 3327SOL     OW27122   3.843   1.378   7.413
 3327SOL    HW127123   3.859   1.284   7.412
 3327SOL    HW227124   3.904   1.414   7.349
 3328SOL     OW27125   5.528   2.679   0.904
 3328SOL    HW127126   5.451   2.732   0.925
 3328SOL    HW227127   5.495   2.590   0.897
 3329SOL     OW27128   1.312   2.914   6.573
 3329SOL    HW127129   1.291   2.823   6.550
 3329SOL    HW227130   1.399   2.909   6.613
 3330SOL     OW27131   0.709   3.301   6.111
 3330SOL    HW127132   0.671   3.244   6.045
 3330SOL    HW227133   0.783   3.343   6.067
 3331SOL     OW27134   1.301   0.457   0.708
 3331SOL    HW127135   1.277   0.381   0.760
 3331SOL    HW227136   1.218   0.504   0.696
 3332SOL     OW27137   2.549   4.506   0.001
 3332SOL    HW127138   2.457   4.516   7.776
 3332SOL    HW227139   2.597   4.492   7.722
 3333SOL     OW27140   3.924   5.697   0.913
 3333SOL    HW127141   3.930   5.661   1.001
 3333SOL    HW227142   3.936   5.622   0.855
 3334SOL     OW27143   5.911   4.865   1.264
 3334SOL    HW127144   5.940   4.791   1.316
 3334SOL    HW227145   5.859   4.826   1.194
 3335SOL     OW27146   2.481   4.060   1.617
 3335SOL    HW127147   2.558   4.094   1.570
 3335SOL    HW227148   2.483   3.966   1.601
 3336SOL     OW27149   3.871   4.762   7.406
 3336SOL    HW127150   3.840   4.759   7.316
 3336SOL    HW227151   3.964   4.782   7.398
 3337SOL     OW27152   3.371   3.836   6.167
 3337SOL    HW127153   3.283   3.873   6.165
 3337SOL    HW227154   3.401   3.840   6.076
 3338SOL     OW27155   3.500   3.776   0.280
 3338SOL    HW127156   3.536   3.804   0.196
 3338SOL    HW227157   3.459   3.691   0.261
 3339SOL     OW27158   5.670   3.671   0.192
 3339SOL    HW127159   5.732   3.666   0.265
 3339SOL    HW227160   5.585   3.681   0.233
 3340SOL     OW27161   1.582   1.977   0.293
 3340SOL    HW127162   1.556   2.049   0.351
 3340SOL    HW227163   1.678   1.975   0.299
 3341SOL     OW27164   4.940   6.169   6.500
 3341SOL    HW127165   4.931   6.235   6.432
 3341SOL    HW227166   4.884   6.199   6.572
 3342SOL     OW27167   6.238   1.090   1.237
 3342SOL    HW127168   6.256   1.161   1.300
 3342SOL    HW227169   6.323   1.073   1.196
 3343SOL     OW27170   4.882   5.498   1.275
 3343SOL    HW127171   4.977   5.503   1.264
 3343SOL    HW227172   4.869   5.444   1.353
 3344SOL     OW27173   5.035   0.517   2.487
 3344SOL    HW127174   5.001   0.497   2.399
 3344SOL    HW227175   5.086   0.597   2.474
 3345SOL     OW27176   1.449   2.536   1.030
 3345SOL    HW127177   1.468   2.483   0.952
 3345SOL    HW227178   1.529   2.584   1.047
 3346SOL     OW27179   1.721   5.827   7.300
 3346SOL    HW127180   1.738   5.858   7.388
 3346SOL    HW227181   1.795   5.859   7.248
 3347SOL     OW27182   0.905   4.743   2.397
 3347SOL    HW127183   0.926   4.663   2.444
 3347SOL    HW227184   0.913   4.719   2.305
 3348SOL     OW27185   0.939   2.626   6.142
 3348SOL    HW127186   0.928   2.531   6.143
 3348SOL    HW227187   0.867   2.658   6.087
 3349SOL     OW27188   5.581   4.466   1.993
 3349SOL    HW127189   5.592   4.374   1.968
 3349SOL    HW227190   5.497   4.469   2.038
 3350SOL     OW27191   1.223   1.837   0.169
 3350SOL    HW127192   1.257   1.873   0.087
 3350SOL    HW227193   1.182   1.911   0.213
 3351SOL     OW27194   1.759   3.760   0.447
 3351SOL    HW127195   1.848   3.730   0.463
 3351SOL    HW227196   1.711   3.737   0.527
 3352SOL     OW27197   3.150   0.389   7.451
 3352SOL    HW127198   3.116   0.319   7.395
 3352SOL    HW227199   3.097   0.383   7.531
 3353SOL     OW27200   1.981   1.374   0.026
 3353SOL    HW127201   1.945   1.448   7.780
 3353SOL    HW227202   1.957   1.391   0.117
 3354SOL     OW27203   1.325   4.732   0.470
 3354SOL    HW127204   1.392   4.779   0.520
 3354SOL    HW227205   1.268   4.801   0.437
 3355SOL     OW27206   0.261   1.613   0.351
 3355SOL    HW127207   0.172   1.622   0.384
 3355SOL    HW227208   0.313   1.591   0.428
 3356SOL     OW27209   0.057   1.648   7.451
 3356SOL    HW127210   0.072   1.598   7.531
 3356SOL    HW227211   0.130   1.624   7.394
 3357SOL     OW27212   5.650   1.374   7.104
 3357SOL    HW127213   5.658   1.382   7.199
 3357SOL    HW227214   5.702   1.447   7.070
 3358SOL     OW27215   1.727   5.243   2.440
 3358SOL    HW127216   1.763   5.323   2.478
 3358SOL    HW227217   1.804   5.191   2.416
 3359SOL     OW27218   0.531   0.984   5.758
 3359SOL    HW127219   0.488   1.042   5.821
 3359SOL    HW227220   0.460   0.930   5.723
 3360SOL     OW27221   4.463   1.211   0.360
 3360SOL    HW127222   4.468   1.155   0.283
 3360SOL    HW227223   4.377   1.253   0.354
 3361SOL     OW27224   1.364   2.238   7.795
 3361SOL    HW127225   1.336   2.147   7.784
 3361SOL    HW227226   1.299   2.289   7.747
 3362SOL     OW27227   0.805   0.093   0.974
 3362SOL    HW127228   0.737   0.025   0.971
 3362SOL    HW227229   0.767   0.167   0.926
 3363SOL     OW27230   5.117   0.064   1.579
 3363SOL    HW127231   5.139   0.039   1.489
 3363SOL    HW227232   5.158   0.150   1.591
 3364SOL     OW27233   5.750   1.837   0.546
 3364SOL    HW127234   5.673   1.781   0.553
 3364SOL    HW227235   5.747   1.871   0.456
 3365SOL     OW27236   4.836   3.767   7.634
 3365SOL    HW127237   4.895   3.777   7.710
 3365SOL    HW227238   4.767   3.709   7.666
 3366SOL     OW27239   2.545   4.838   0.997
 3366SOL    HW127240   2.491   4.786   1.057
 3366SOL    HW227241   2.533   4.797   0.912
 3367SOL     OW27242   5.452   5.093   5.825
 3367SOL    HW127243   5.511   5.129   5.758
 3367SOL    HW227244   5.376   5.061   5.775
 3368SOL     OW27245   5.332   1.959   7.661
 3368SOL    HW127246   5.263   1.920   7.607
 3368SOL    HW227247   5.354   2.040   7.615
 3369SOL     OW27248   4.802   3.217   0.252
 3369SOL    HW127249   4.857   3.173   0.317
 3369SOL    HW227250   4.713   3.188   0.274
 3370SOL     OW27251   3.265   2.995   6.672
 3370SOL    HW127252   3.208   2.981   6.748
 3370SOL    HW227253   3.208   3.033   6.606
 3371SOL     OW27254   3.038   1.311   1.261
 3371SOL    HW127255   2.956   1.360   1.260
 3371SOL    HW227256   3.015   1.226   1.297
 3372SOL     OW27257   3.799   0.063   0.493
 3372SOL    HW127258   3.852   6.432   0.488
 3372SOL    HW227259   3.826   0.115   0.417
 3373SOL     OW27260   0.022   0.301   6.837
 3373SOL    HW127261   0.051   0.393   6.837
 3373SOL    HW227262   0.103   0.251   6.846
 3374SOL     OW27263   5.066   6.000   6.778
 3374SOL    HW127264   5.072   5.959   6.691
 3374SOL    HW227265   4.972   6.004   6.796
 3375SOL     OW27266   2.087   0.519   0.903
 3375SOL    HW127267   2.088   0.480   0.816
 3375SOL    HW227268   2.112   0.610   0.889
 3376SOL     OW27269   4.257   3.457   0.902
 3376SOL    HW127270   4.180   3.416   0.861
 3376SOL    HW227271   4.253   3.430   0.993
 3377SOL     OW27272   4.684   0.140   7.426
 3377SOL    HW127273   4.776   0.163   7.413
 3377SOL    HW227274   4.682   0.045   7.424
 3378SOL     OW27275   0.932   1.079   7.211
 3378SOL    HW127276   1.023   1.066   7.183
 3378SOL    HW227277   0.906   1.160   7.167
 3379SOL     OW27278   1.696   3.646   1.624
 3379SOL    HW127279   1.694   3.688   1.711
 3379SOL    HW227280   1.615   3.675   1.582
 3380SOL     OW27281   3.811   6.258   1.727
 3380SOL    HW127282   3.844   6.322   1.790
 3380SOL    HW227283   3.748   6.307   1.673
 3381SOL     OW27284   1.771   3.411   1.162
 3381SOL    HW127285   1.796   3.495   1.125
 3381SOL    HW227286   1.766   3.426   1.257
 3382SOL     OW27287   5.803   0.025   0.584
 3382SOL    HW127288   5.742   6.427   0.526
 3382SOL    HW227289   5.889   0.010   0.545
 3383SOL     OW27290   0.980   3.446   1.699
 3383SOL    HW127291   1.047   3.513   1.687
 3383SOL    HW227292   1.019   3.384   1.760
 3384SOL     OW27293   4.087   0.111   0.012
 3384SOL    HW127294   4.024   0.183   0.018
 3384SOL    HW227295   4.107   0.090   0.103
 3385SOL     OW27296   1.741   5.081   2.008
 3385SOL    HW127297   1.695   5.045   2.083
 3385SOL    HW227298   1.685   5.059   1.933
 3386SOL     OW27299   5.470   5.959   0.470
 3386SOL    HW127300   5.480   6.004   0.554
 3386SOL    HW227301   5.555   5.918   0.455
 3387SOL     OW27302   1.670   0.584   5.809
 3387SOL    HW127303   1.628   0.519   5.865
 3387SOL    HW227304   1.689   0.538   5.728
 3388SOL     OW27305   5.921   5.231   6.063
 3388SOL    HW127306   5.917   5.282   5.983
 3388SOL    HW227307   5.981   5.159   6.043
 3389SOL     OW27308   4.971   2.629   6.107
 3389SOL    HW127309   4.897   2.682   6.079
 3389SOL    HW227310   4.997   2.581   6.028
 3390SOL     OW27311   0.114   5.238   0.774
 3390SOL    HW127312   0.165   5.317   0.788
 3390SOL    HW227313   0.077   5.217   0.860
 3391SOL     OW27314   1.742   1.527   5.637
 3391SOL    HW127315   1.772   1.439   5.661
 3391SOL    HW227316   1.762   1.535   5.544
 3392SOL     OW27317   3.870   4.134   7.476
 3392SOL    HW127318   3.885   4.086   7.394
 3392SOL    HW227319   3.794   4.091   7.516
 3393SOL     OW27320   0.195   2.643   5.577
 3393SOL    HW127321   0.100   2.636   5.572
 3393SOL    HW227322   0.212   2.737   5.573
 3394SOL     OW27323   3.177   6.062   7.722
 3394SOL    HW127324   3.261   6.087   7.762
 3394SOL    HW227325   3.200   5.989   7.664
 3395SOL     OW27326   6.374   1.579   2.165
 3395SOL    HW127327   6.329   1.496   2.182
 3395SOL    HW227328   6.380   1.584   2.070
 3396SOL     OW27329   1.268   1.266   1.117
 3396SOL    HW127330   1.315   1.186   1.093
 3396SOL    HW227331   1.179   1.251   1.086
 3397SOL     OW27332   2.861   2.759   0.392
 3397SOL    HW127333   2.846   2.762   0.297
 3397SOL    HW227334   2.866   2.666   0.413
 3398SOL     OW27335   0.095   1.512   0.703
 3398SOL    HW127336   0.052   1.531   0.787
 3398SOL    HW227337   0.188   1.512   0.723
 3399SOL     OW27338   1.760   1.295   7.596
 3399SOL    HW127339   1.668   1.269   7.586
 3399SOL    HW227340   1.797   1.229   7.654
 3400SOL     OW27341   5.464   4.795   0.718
 3400SOL    HW127342   5.539   4.745   0.752
 3400SOL    HW227343   5.397   4.787   0.786
 3401SOL     OW27344   6.103   2.318   1.168
 3401SOL    HW127345   6.039   2.383   1.195
 3401SOL    HW227346   6.091   2.310   1.074
 3402SOL     OW27347   5.611   1.670   6.371
 3402SOL    HW127348   5.516   1.680   6.372
 3402SOL    HW227349   5.626   1.575   6.365
 3403SOL     OW27350   5.178   2.304   6.156
 3403SOL    HW127351   5.237   2.353   6.099
 3403SOL    HW227352   5.127   2.249   6.096
 3404SOL     OW27353   5.196   2.365   1.841
 3404SOL    HW127354   5.155   2.408   1.916
 3404SOL    HW227355   5.281   2.335   1.874
 3405SOL     OW27356   3.773   1.801   1.841
 3405SOL    HW127357   3.850   1.752   1.867
 3405SOL    HW227358   3.745   1.846   1.922
 3406SOL     OW27359   2.034   1.278   7.230
 3406SOL    HW127360   2.030   1.316   7.142
 3406SOL    HW227361   1.943   1.257   7.251
 3407SOL     OW27362   4.956   3.880   0.926
 3407SOL    HW127363   5.021   3.937   0.968
 3407SOL    HW227364   4.916   3.832   0.998
 3408SOL     OW27365   3.534   0.289   0.766
 3408SOL    HW127366   3.612   0.345   0.774
 3408SOL    HW227367   3.461   0.351   0.767
 3409SOL     OW27368   2.165   5.917   1.144
 3409SOL    HW127369   2.114   5.903   1.064
 3409SOL    HW227370   2.118   5.869   1.212
 3410SOL     OW27371   1.010   4.741   6.837
 3410SOL    HW127372   1.032   4.654   6.803
 3410SOL    HW227373   0.921   4.758   6.804
 3411SOL     OW27374   0.427   1.821   0.272
 3411SOL    HW127375   0.360   1.755   0.288
 3411SOL    HW227376   0.505   1.788   0.317
 3412SOL     OW27377   6.390   4.252   1.230
 3412SOL    HW127378   0.002   4.310   1.182
 3412SOL    HW227379   6.303   4.284   1.208
 3413SOL     OW27380   2.702   2.183   7.160
 3413SOL    HW127381   2.609   2.171   7.182
 3413SOL    HW227382   2.740   2.221   7.239
 3414SOL     OW27383   2.733   1.581   0.922
 3414SOL    HW127384   2.707   1.529   0.846
 3414SOL    HW227385   2.739   1.671   0.888
 3415SOL     OW27386   4.218   6.352   6.990
 3415SOL    HW127387   4.286   6.402   7.035
 3415SOL    HW227388   4.258   6.326   6.907
 3416SOL     OW27389   1.343   4.300   0.203
 3416SOL    HW127390   1.337   4.394   0.223
 3416SOL    HW227391   1.437   4.280   0.211
 3417SOL     OW27392   6.057   2.154   6.733
 3417SOL    HW127393   6.019   2.120   6.652
 3417SOL    HW227394   6.149   2.129   6.728
 3418SOL     OW27395   5.983   4.613   0.295
 3418SOL    HW127396   6.061   4.563   0.270
 3418SOL    HW227397   5.934   4.623   0.214
 3419SOL     OW27398   0.494   4.910   1.449
 3419SOL    HW127399   0.399   4.904   1.442
 3419SOL    HW227400   0.522   4.938   1.362
 3420SOL     OW27401   1.346   6.411   0.872
 3420SOL    HW127402   1.304   6.424   0.957
 3420SOL    HW227403   1.415   6.347   0.888
 3421SOL     OW27404   1.990   2.645   7.350
 3421SOL    HW127405   1.913   2.701   7.336
 3421SOL    HW227406   1.956   2.556   7.351
 3422SOL     OW27407   1.528   3.932   1.778
 3422SOL    HW127408   1.589   3.865   1.808
 3422SOL    HW227409   1.449   3.883   1.753
 3423SOL     OW27410   0.718   4.424   6.308
 3423SOL    HW127411   0.746   4.360   6.373
 3423SOL    HW227412   0.797   4.476   6.290
 3424SOL     OW27413   0.976   5.057   0.458
 3424SOL    HW127414   0.965   5.152   0.452
 3424SOL    HW227415   1.065   5.042   0.429
 3425SOL     OW27416   2.935   3.993   0.927
 3425SOL    HW127417   2.956   3.953   1.011
 3425SOL    HW227418   2.883   3.927   0.881
 3426SOL     OW27419   2.358   1.124   6.479
 3426SOL    HW127420   2.426   1.059   6.495
 3426SOL    HW227421   2.405   1.204   6.459
 3427SOL     OW27422   0.250   4.667   7.692
 3427SOL    HW127423   0.329   4.619   7.667
 3427SOL    HW227424   0.179   4.623   7.645
 3428SOL     OW27425   4.188   4.645   5.592
 3428SOL    HW127426   4.241   4.577   5.633
 3428SOL    HW227427   4.135   4.681   5.664
 3429SOL     OW27428   0.111   5.717   7.496
 3429SOL    HW127429   0.040   5.656   7.514
 3429SOL    HW227430   0.184   5.662   7.469
 3430SOL     OW27431   3.810   3.807   6.245
 3430SOL    HW127432   3.782   3.869   6.178
 3430SOL    HW227433   3.736   3.747   6.255
 3431SOL     OW27434   3.527   5.830   7.263
 3431SOL    HW127435   3.550   5.743   7.294
 3431SOL    HW227436   3.438   5.821   7.230
 3432SOL     OW27437   5.707   1.078   2.026
 3432SOL    HW127438   5.623   1.119   2.043
 3432SOL    HW227439   5.771   1.137   2.066
 3433SOL     OW27440   2.199   3.767   1.335
 3433SOL    HW127441   2.263   3.830   1.301
 3433SOL    HW227442   2.249   3.711   1.395
 3434SOL     OW27443   6.259   4.799   0.591
 3434SOL    HW127444   6.164   4.813   0.597
 3434SOL    HW227445   6.289   4.863   0.527
 3435SOL     OW27446   3.137   4.965   7.176
 3435SOL    HW127447   3.050   4.951   7.138
 3435SOL    HW227448   3.155   4.884   7.224
 3436SOL     OW27449   5.859   2.456   0.860
 3436SOL    HW127450   5.938   2.403   0.873
 3436SOL    HW227451   5.887   2.546   0.877
 3437SOL     OW27452   2.694   6.393   6.041
 3437SOL    HW127453   2.629   6.361   5.978
 3437SOL    HW227454   2.709   6.318   6.100
 3438SOL     OW27455   0.720   3.867   6.477
 3438SOL    HW127456   0.752   3.881   6.566
 3438SOL    HW227457   0.799   3.857   6.424
 3439SOL     OW27458   0.353   4.811   1.182
 3439SOL    HW127459   0.292   4.855   1.123
 3439SOL    HW227460   0.315   4.823   1.269
 3440SOL     OW27461   1.894   3.225   0.578
 3440SOL    HW127462   1.823   3.206   0.639
 3440SOL    HW227463   1.973   3.221   0.632
 3441SOL     OW27464   3.209   4.472   1.776
 3441SOL    HW127465   3.270   4.507   1.841
 3441SOL    HW227466   3.129   4.524   1.787
 3442SOL     OW27467   2.539   5.904   2.363
 3442SOL    HW127468   2.608   5.968   2.348
 3442SOL    HW227469   2.458   5.951   2.346
 3443SOL     OW27470   0.236   1.759   7.010
 3443SOL    HW127471   0.275   1.790   6.929
 3443SOL    HW227472   0.148   1.798   7.011
 3444SOL     OW27473   2.783   1.701   7.714
 3444SOL    HW127474   2.746   1.684   7.628
 3444SOL    HW227475   2.846   1.630   7.728
 3445SOL     OW27476   2.408   1.024   7.342
 3445SOL    HW127477   2.454   1.099   7.379
 3445SOL    HW227478   2.317   1.038   7.368
 3446SOL     OW27479   0.616   4.060   0.900
 3446SOL    HW127480   0.587   4.045   0.810
 3446SOL    HW227481   0.700   4.014   0.906
 3447SOL     OW27482   1.101   2.297   6.363
 3447SOL    HW127483   1.136   2.381   6.335
 3447SOL    HW227484   1.158   2.269   6.434
 3448SOL     OW27485   0.244   2.476   7.632
 3448SOL    HW127486   0.307   2.537   7.670
 3448SOL    HW227487   0.257   2.394   7.681
 3449SOL     OW27488   2.557   1.390   1.036
 3449SOL    HW127489   2.606   1.314   1.007
 3449SOL    HW227490   2.616   1.464   1.022
 3450SOL     OW27491   1.107   6.085   5.637
 3450SOL    HW127492   1.062   6.125   5.562
 3450SOL    HW227493   1.104   5.991   5.618
 3451SOL     OW27494   5.466   2.519   6.772
 3451SOL    HW127495   5.410   2.596   6.778
 3451SOL    HW227496   5.413   2.453   6.728
 3452SOL     OW27497   3.612   0.066   7.281
 3452SOL    HW127498   3.605   0.162   7.285
 3452SOL    HW227499   3.564   0.042   7.201
 3453SOL     OW27500   1.779   4.749   6.150
 3453SOL    HW127501   1.781   4.838   6.187
 3453SOL    HW227502   1.726   4.699   6.212
 3454SOL     OW27503   3.299   2.942   5.819
 3454SOL    HW127504   3.319   2.850   5.802
 3454SOL    HW227505   3.357   2.991   5.761
 3455SOL     OW27506   0.372   6.288   7.188
 3455SOL    HW127507   0.308   6.337   7.239
 3455SOL    HW227508   0.344   6.197   7.195
 3456SOL     OW27509   1.319   4.526   7.371
 3456SOL    HW127510   1.235   4.481   7.374
 3456SOL    HW227511   1.312   4.584   7.295
 3457SOL     OW27512   1.637   0.036   7.037
 3457SOL    HW127513   1.642   6.396   7.076
 3457SOL    HW227514   1.724   0.073   7.049
 3458SOL     OW27515   2.266   4.111   6.666
 3458SOL    HW127516   2.339   4.149   6.619
 3458SOL    HW227517   2.293   4.021   6.684
 3459SOL     OW27518   3.542   3.030   6.952
 3459SOL    HW127519   3.556   2.939   6.925
 3459SOL    HW227520   3.469   3.026   7.012
 3460SOL     OW27521   3.162   1.071   1.013
 3460SOL    HW127522   3.205   1.156   1.027
 3460SOL    HW227523   3.178   1.051   0.921
 3461SOL     OW27524   5.338   5.233   0.025
 3461SOL    HW127525   5.292   5.183   0.092
 3461SOL    HW227526   5.383   5.167   7.775
 3462SOL     OW27527   5.411   1.525   1.466
 3462SOL    HW127528   5.347   1.593   1.447
 3462SOL    HW227529   5.373   1.445   1.429
 3463SOL     OW27530   3.873   1.052   0.460
 3463SOL    HW127531   3.800   1.000   0.428
 3463SOL    HW227532   3.913   0.998   0.528
 3464SOL     OW27533   1.426   4.001   5.900
 3464SOL    HW127534   1.470   4.085   5.904
 3464SOL    HW227535   1.441   3.970   5.810
 3465SOL     OW27536   4.668   0.256   6.559
 3465SOL    HW127537   4.741   0.317   6.546
 3465SOL    HW227538   4.686   0.183   6.500
 3466SOL     OW27539   0.288   5.984   6.941
 3466SOL    HW127540   0.303   5.997   7.034
 3466SOL    HW227541   0.193   5.992   6.930
 3467SOL     OW27542   1.865   2.413   6.274
 3467SOL    HW127543   1.798   2.435   6.210
 3467SOL    HW227544   1.938   2.472   6.255
 3468SOL     OW27545   1.262   0.827   6.631
 3468SOL    HW127546   1.308   0.744   6.616
 3468SOL    HW227547   1.325   0.895   6.604
 3469SOL     OW27548   1.339   5.968   7.469
 3469SOL    HW127549   1.379   6.037   7.416
 3469SOL    HW227550   1.391   5.968   7.550
 3470SOL     OW27551   2.266   0.772   6.532
 3470SOL    HW127552   2.188   0.799   6.483
 3470SOL    HW227553   2.317   0.720   6.470
 3471SOL     OW27554   3.325   2.807   1.225
 3471SOL    HW127555   3.415   2.790   1.251
 3471SOL    HW227556   3.331   2.868   1.152
 3472SOL     OW27557   4.470   3.396   0.742
 3472SOL    HW127558   4.446   3.443   0.662
 3472SOL    HW227559   4.394   3.405   0.799
 3473SOL     OW27560   2.741   1.793   6.180
 3473SOL    HW127561   2.735   1.843   6.261
 3473SOL    HW227562   2.833   1.771   6.171
 3474SOL     OW27563   2.527   2.171   5.719
 3474SOL    HW127564   2.551   2.215   5.638
 3474SOL    HW227565   2.571   2.086   5.715
 3475SOL     OW27566   5.179   0.555   2.158
 3475SOL    HW127567   5.091   0.527   2.186
 3475SOL    HW227568   5.221   0.475   2.128
 3476SOL     OW27569   5.831   2.595   2.328
 3476SOL    HW127570   5.852   2.506   2.300
 3476SOL    HW227571   5.903   2.620   2.386
 3477SOL     OW27572   2.598   6.010   0.530
 3477SOL    HW127573   2.503   6.012   0.539
 3477SOL    HW227574   2.620   6.092   0.487
 3478SOL     OW27575   2.852   1.589   1.761
 3478SOL    HW127576   2.852   1.584   1.857
 3478SOL    HW227577   2.860   1.682   1.743
 3479SOL     OW27578   5.368   5.877   7.322
 3479SOL    HW127579   5.274   5.895   7.324
 3479SOL    HW227580   5.378   5.794   7.368
 3480SOL     OW27581   3.021   5.454   0.767
 3480SOL    HW127582   3.079   5.408   0.706
 3480SOL    HW227583   3.017   5.397   0.844
 3481SOL     OW27584   6.389   2.523   0.569
 3481SOL    HW127585   6.315   2.463   0.561
 3481SOL    HW227586   0.013   2.468   0.600
 3482SOL     OW27587   2.161   2.875   0.956
 3482SOL    HW127588   2.173   2.968   0.975
 3482SOL    HW227589   2.212   2.830   1.023
 3483SOL     OW27590   1.949   0.398   1.610
 3483SOL    HW127591   2.016   0.397   1.678
 3483SOL    HW227592   1.974   0.471   1.553
 3484SOL     OW27593   4.409   2.711   1.253
 3484SOL    HW127594   4.470   2.691   1.183
 3484SOL    HW227595   4.415   2.636   1.313
 3485SOL     OW27596   2.322   2.250   6.790
 3485SOL    HW127597   2.379   2.298   6.850
 3485SOL    HW227598   2.285   2.180   6.844
 3486SOL     OW27599   6.079   4.602   6.929
 3486SOL    HW127600   6.042   4.596   6.841
 3486SOL    HW227601   6.172   4.623   6.914
 3487SOL     OW27602   2.319   2.476   7.431
 3487SOL    HW127603   2.411   2.497   7.444
 3487SOL    HW227604   2.272   2.546   7.476
 3488SOL     OW27605   4.273   3.109   6.106
 3488SOL    HW127606   4.189   3.096   6.061
 3488SOL    HW227607   4.251   3.110   6.199
 3489SOL     OW27608   0.477   1.907   7.449
 3489SOL    HW127609   0.432   1.862   7.377
 3489SOL    HW227610   0.561   1.934   7.412
 3490SOL     OW27611   6.276   3.251   6.072
 3490SOL    HW127612   6.214   3.280   6.004
 3490SOL    HW227613   6.246   3.294   6.152
 3491SOL     OW27614   1.244   2.114   1.014
 3491SOL    HW127615   1.291   2.181   1.063
 3491SOL    HW227616   1.246   2.037   1.071
 3492SOL     OW27617   6.013   3.393   0.807
 3492SOL    HW127618   6.097   3.373   0.765
 3492SOL    HW227619   6.031   3.472   0.858
 3493SOL     OW27620   4.989   1.200   6.365
 3493SOL    HW127621   5.080   1.228   6.358
 3493SOL    HW227622   4.952   1.255   6.434
 3494SOL     OW27623   4.226   1.921   0.105
 3494SOL    HW127624   4.301   1.928   0.046
 3494SOL    HW227625   4.185   1.838   0.083
 3495SOL     OW27626   6.050   3.326   6.762
 3495SOL    HW127627   6.069   3.232   6.762
 3495SOL    HW227628   5.975   3.336   6.704
 3496SOL     OW27629   1.645   5.111   0.683
 3496SOL    HW127630   1.729   5.137   0.646
 3496SOL    HW227631   1.666   5.072   0.767
 3497SOL     OW27632   3.497   2.206   1.586
 3497SOL    HW127633   3.540   2.216   1.671
 3497SOL    HW227634   3.547   2.264   1.528
 3498SOL     OW27635   5.728   1.186   6.927
 3498SOL    HW127636   5.703   1.253   6.990
 3498SOL    HW227637   5.741   1.107   6.979
 3499SOL     OW27638   4.342   4.859   1.814
 3499SOL    HW127639   4.403   4.840   1.885
 3499SOL    HW227640   4.263   4.810   1.836
 3500SOL     OW27641   0.893   2.308   6.704
 3500SOL    HW127642   0.913   2.234   6.762
 3500SOL    HW227643   0.885   2.269   6.617
 3501SOL     OW27644   5.891   3.253   7.610
 3501SOL    HW127645   5.836   3.321   7.650
 3501SOL    HW227646   5.951   3.227   7.680
 3502SOL     OW27647   5.497   2.143   1.744
 3502SOL    HW127648   5.490   2.071   1.681
 3502SOL    HW227649   5.466   2.106   1.826
 3503SOL     OW27650   0.064   5.111   2.667
 3503SOL    HW127651   0.003   5.182   2.687
 3503SOL    HW227652   0.054   5.096   2.573
 3504SOL     OW27653   4.878   3.421   5.759
 3504SOL    HW127654   4.950   3.450   5.704
 3504SOL    HW227655   4.804   3.477   5.733
 3505SOL     OW27656   4.667   2.227   0.313
 3505SOL    HW127657   4.751   2.268   0.333
 3505SOL    HW227658   4.676   2.137   0.346
 3506SOL     OW27659   1.653   1.609   1.872
 3506SOL    HW127660   1.726   1.633   1.929
 3506SOL    HW227661   1.664   1.515   1.857
 3507SOL     OW27662   5.843   0.433   0.259
 3507SOL    HW127663   5.924   0.468   0.295
 3507SOL    HW227664   5.871   0.358   0.207
 3508SOL     OW27665   4.962   4.760   6.504
 3508SOL    HW127666   4.901   4.740   6.433
 3508SOL    HW227667   5.009   4.678   6.519
 3509SOL     OW27668   1.882   5.197   0.583
 3509SOL    HW127669   1.852   5.222   0.496
 3509SOL    HW227670   1.976   5.182   0.573
 3510SOL     OW27671   0.795   2.079   0.965
 3510SOL    HW127672   0.863   2.134   1.004
 3510SOL    HW227673   0.775   2.121   0.882
 3511SOL     OW27674   4.444   5.776   7.606
 3511SOL    HW127675   4.417   5.818   7.687
 3511SOL    HW227676   4.430   5.682   7.622
 3512SOL     OW27677   1.796   3.051   0.925
 3512SOL    HW127678   1.758   3.115   0.864
 3512SOL    HW227679   1.850   3.104   0.983
 3513SOL     OW27680   3.168   4.500   5.641
 3513SOL    HW127681   3.243   4.529   5.588
 3513SOL    HW227682   3.093   4.545   5.601
 3514SOL     OW27683   1.596   5.163   1.176
 3514SOL    HW127684   1.650   5.183   1.100
 3514SOL    HW227685   1.563   5.247   1.206
 3515SOL     OW27686   3.292   5.182   7.254
 3515SOL    HW127687   3.227   5.117   7.227
 3515SOL    HW227688   3.375   5.145   7.225
 3516SOL     OW27689   5.228   4.545   6.753
 3516SOL    HW127690   5.184   4.541   6.668
 3516SOL    HW227691   5.284   4.467   6.755
 3517SOL     OW27692   4.152   2.692   1.153
 3517SOL    HW127693   4.242   2.706   1.182
 3517SOL    HW227694   4.116   2.781   1.146
 3518SOL     OW27695   0.202   1.155   6.782
 3518SOL    HW127696   0.129   1.203   6.744
 3518SOL    HW227697   0.165   1.114   6.860
 3519SOL     OW27698   4.217   0.984   6.882
 3519SOL    HW127699   4.281   1.054   6.868
 3519SOL    HW227700   4.134   1.029   6.895
 3520SOL     OW27701   3.460   1.257   7.361
 3520SOL    HW127702   3.524   1.197   7.399
 3520SOL    HW227703   3.511   1.334   7.336
 3521SOL     OW27704   3.038   5.549   1.253
 3521SOL    HW127705   3.051   5.472   1.309
 3521SOL    HW227706   3.127   5.578   1.232
 3522SOL     OW27707   4.851   5.969   7.725
 3522SOL    HW127708   4.762   5.988   7.754
 3522SOL    HW227709   4.870   5.882   7.761
 3523SOL     OW27710   5.526   6.242   1.102
 3523SOL    HW127711   5.473   6.162   1.111
 3523SOL    HW227712   5.611   6.211   1.072
 3524SOL     OW27713   4.070   1.016   0.089
 3524SOL    HW127714   4.029   1.076   0.150
 3524SOL    HW227715   4.123   0.958   0.144
 3525SOL     OW27716   2.602   6.232   0.157
 3525SOL    HW127717   2.624   6.233   0.250
 3525SOL    HW227718   2.614   6.140   0.131
 3526SOL     OW27719   5.814   4.735   1.027
 3526SOL    HW127720   5.780   4.721   0.939
 3526SOL    HW227721   5.909   4.730   1.017
 3527SOL     OW27722   4.171   1.153   7.224
 3527SOL    HW127723   4.176   1.227   7.165
 3527SOL    HW227724   4.086   1.114   7.207
 3528SOL     OW27725   3.562   1.770   6.285
 3528SOL    HW127726   3.587   1.790   6.195
 3528SOL    HW227727   3.530   1.854   6.320
 3529SOL     OW27728   4.166   3.226   0.284
 3529SOL    HW127729   4.191   3.251   0.195
 3529SOL    HW227730   4.216   3.147   0.303
 3530SOL     OW27731   6.016   6.375   1.344
 3530SOL    HW127732   6.029   6.304   1.281
 3530SOL    HW227733   6.067   6.448   1.308
 3531SOL     OW27734   3.383   2.023   6.372
 3531SOL    HW127735   3.328   2.100   6.360
 3531SOL    HW227736   3.322   1.949   6.376
 3532SOL     OW27737   3.981   0.753   6.378
 3532SOL    HW127738   4.066   0.716   6.401
 3532SOL    HW227739   3.981   0.756   6.283
 3533SOL     OW27740   4.449   2.305   0.844
 3533SOL    HW127741   4.484   2.220   0.869
 3533SOL    HW227742   4.355   2.290   0.832
 3534SOL     OW27743   3.478   1.460   7.063
 3534SOL    HW127744   3.403   1.519   7.075
 3534SOL    HW227745   3.522   1.460   7.148
 3535SOL     OW27746   3.097   2.195   0.780
 3535SOL    HW127747   3.116   2.187   0.873
 3535SOL    HW227748   3.182   2.197   0.738
 3536SOL     OW27749   1.652   3.998   0.338
 3536SOL    HW127750   1.678   3.927   0.396
 3536SOL    HW227751   1.708   3.990   0.262
 3537SOL     OW27752   3.557   1.373   7.678
 3537SOL    HW127753   3.610   1.354   7.600
 3537SOL    HW227754   3.474   1.327   7.662
 3538SOL     OW27755   4.906   0.285   2.557
 3538SOL    HW127756   4.941   0.373   2.544
 3538SOL    HW227757   4.968   0.242   2.616
 3539SOL     OW27758   3.798   4.637   5.851
 3539SOL    HW127759   3.749   4.703   5.802
 3539SOL    HW227760   3.889   4.661   5.840
 3540SOL     OW27761   2.374   4.765   7.302
 3540SOL    HW127762   2.360   4.850   7.259
 3540SOL    HW227763   2.381   4.703   7.230
 3541SOL     OW27764   2.279   5.784   1.425
 3541SOL    HW127765   2.267   5.810   1.517
 3541SOL    HW227766   2.190   5.774   1.392
 3542SOL     OW27767   4.159   1.849   7.594
 3542SOL    HW127768   4.119   1.801   7.522
 3542SOL    HW227769   4.147   1.792   7.670
 3543SOL     OW27770   5.999   3.993   0.186
 3543SOL    HW127771   5.912   3.975   0.152
 3543SOL    HW227772   6.001   4.087   0.199
 3544SOL     OW27773   2.188   0.948   5.884
 3544SOL    HW127774   2.225   1.031   5.915
 3544SOL    HW227775   2.255   0.913   5.825
 3545SOL     OW27776   0.984   2.355   1.898
 3545SOL    HW127777   1.033   2.437   1.887
 3545SOL    HW227778   1.041   2.301   1.953
 3546SOL     OW27779   5.756   0.431   6.884
 3546SOL    HW127780   5.743   0.353   6.830
 3546SOL    HW227781   5.850   0.432   6.903
 3547SOL     OW27782   0.828   1.802   0.256
 3547SOL    HW127783   0.903   1.742   0.258
 3547SOL    HW227784   0.805   1.808   0.163
 3548SOL     OW27785   4.590   5.662   5.707
 3548SOL    HW127786   4.503   5.662   5.747
 3548SOL    HW227787   4.615   5.569   5.703
 3549SOL     OW27788   0.292   2.401   5.657
 3549SOL    HW127789   0.283   2.347   5.578
 3549SOL    HW227790   0.275   2.490   5.627
 3550SOL     OW27791   5.710   1.957   5.598
 3550SOL    HW127792   5.778   2.014   5.633
 3550SOL    HW227793   5.664   1.924   5.676
 3551SOL     OW27794   3.349   0.533   6.515
 3551SOL    HW127795   3.340   0.584   6.434
 3551SOL    HW227796   3.277   0.563   6.570
 3552SOL     OW27797   2.391   1.048   0.500
 3552SOL    HW127798   2.362   1.060   0.410
 3552SOL    HW227799   2.431   1.132   0.524
 3553SOL     OW27800   0.026   1.105   6.217
 3553SOL    HW127801   0.115   1.138   6.213
 3553SOL    HW227802   0.035   1.015   6.248
 3554SOL     OW27803   3.367   2.734   0.215
 3554SOL    HW127804   3.451   2.778   0.228
 3554SOL    HW227805   3.336   2.766   0.130
 3555SOL     OW27806   6.185   3.384   0.111
 3555SOL    HW127807   6.264   3.431   0.139
 3555SOL    HW227808   6.124   3.454   0.085
 3556SOL     OW27809   2.412   3.860   0.960
 3556SOL    HW127810   2.472   3.809   0.907
 3556SOL    HW227811   2.324   3.832   0.932
 3557SOL     OW27812   3.410   0.987   0.347
 3557SOL    HW127813   3.315   0.979   0.355
 3557SOL    HW227814   3.435   1.049   0.416
 3558SOL     OW27815   5.369   1.287   1.122
 3558SOL    HW127816   5.344   1.298   1.213
 3558SOL    HW227817   5.308   1.343   1.073
 3559SOL     OW27818   3.608   2.025   0.128
 3559SOL    HW127819   3.684   2.004   0.073
 3559SOL    HW227820   3.645   2.074   0.202
 3560SOL     OW27821   4.219   4.773   0.287
 3560SOL    HW127822   4.307   4.737   0.299
 3560SOL    HW227823   4.218   4.804   0.196
 3561SOL     OW27824   1.173   5.297   1.028
 3561SOL    HW127825   1.201   5.279   1.118
 3561SOL    HW227826   1.081   5.270   1.026
 3562SOL     OW27827   3.545   4.747   0.025
 3562SOL    HW127828   3.635   4.775   0.003
 3562SOL    HW227829   3.490   4.817   7.792
 3563SOL     OW27830   2.639   5.077   0.400
 3563SOL    HW127831   2.694   5.121   0.335
 3563SOL    HW227832   2.647   4.984   0.379
 3564SOL     OW27833   2.476   0.196   6.628
 3564SOL    HW127834   2.391   0.236   6.645
 3564SOL    HW227835   2.540   0.262   6.654
 3565SOL     OW27836   3.092   3.636   5.640
 3565SOL    HW127837   3.075   3.666   5.551
 3565SOL    HW227838   3.161   3.571   5.631
 3566SOL     OW27839   1.401   5.279   6.726
 3566SOL    HW127840   1.381   5.193   6.689
 3566SOL    HW227841   1.338   5.290   6.798
 3567SOL     OW27842   0.956   4.176   1.145
 3567SOL    HW127843   0.947   4.081   1.135
 3567SOL    HW227844   1.048   4.189   1.166
 3568SOL     OW27845   3.611   4.661   6.701
 3568SOL    HW127846   3.615   4.736   6.759
 3568SOL    HW227847   3.525   4.667   6.660
 3569SOL     OW27848   2.283   5.295   6.729
 3569SOL    HW127849   2.275   5.332   6.641
 3569SOL    HW227850   2.238   5.211   6.724
 3570SOL     OW27851   1.216   2.663   6.532
 3570SOL    HW127852   1.223   2.589   6.592
 3570SOL    HW227853   1.126   2.693   6.542
 3571SOL     OW27854   2.895   4.346   7.577
 3571SOL    HW127855   2.818   4.401   7.563
 3571SOL    HW227856   2.957   4.372   7.509
 3572SOL     OW27857   3.280   5.716   7.180
 3572SOL    HW127858   3.281   5.710   7.085
 3572SOL    HW227859   3.285   5.625   7.209
 3573SOL     OW27860   0.606   5.527   6.390
 3573SOL    HW127861   0.569   5.440   6.377
 3573SOL    HW227862   0.559   5.562   6.465
 3574SOL     OW27863   5.757   5.254   1.283
 3574SOL    HW127864   5.771   5.230   1.374
 3574SOL    HW227865   5.683   5.200   1.255
 3575SOL     OW27866   3.314   3.381   7.010
 3575SOL    HW127867   3.322   3.315   7.080
 3575SOL    HW227868   3.304   3.464   7.057
 3576SOL     OW27869   1.739   6.153   7.753
 3576SOL    HW127870   1.730   6.205   7.673
 3576SOL    HW227871   1.806   6.197   0.001
 3577SOL     OW27872   3.503   5.686   0.182
 3577SOL    HW127873   3.596   5.704   0.166
 3577SOL    HW227874   3.482   5.613   0.124
 3578SOL     OW27875   5.616   0.287   1.235
 3578SOL    HW127876   5.681   0.285   1.305
 3578SOL    HW227877   5.659   0.245   1.160
 3579SOL     OW27878   4.725   2.687   1.876
 3579SOL    HW127879   4.691   2.756   1.934
 3579SOL    HW227880   4.815   2.672   1.906
 3580SOL     OW27881   1.209   1.645   1.123
 3580SOL    HW127882   1.222   1.628   1.217
 3580SOL    HW227883   1.164   1.567   1.091
 3581SOL     OW27884   4.504   0.369   7.759
 3581SOL    HW127885   4.463   0.283   7.765
 3581SOL    HW227886   4.546   0.382   0.041
 3582SOL     OW27887   1.341   6.418   6.661
 3582SOL    HW127888   1.319   6.329   6.688
 3582SOL    HW227889   1.297   6.428   6.576
 3583SOL     OW27890   3.023   1.262   7.353
 3583SOL    HW127891   3.110   1.244   7.317
 3583SOL    HW227892   2.970   1.285   7.276
 3584SOL     OW27893   0.344   1.447   0.151
 3584SOL    HW127894   0.317   1.508   0.219
 3584SOL    HW227895   0.349   1.362   0.194
 3585SOL     OW27896   5.723   5.520   0.415
 3585SOL    HW127897   5.657   5.462   0.378
 3585SOL    HW227898   5.740   5.584   0.346
 3586SOL     OW27899   1.913   5.434   7.324
 3586SOL    HW127900   1.946   5.370   7.260
 3586SOL    HW227901   1.852   5.488   7.274
 3587SOL     OW27902   6.353   3.921   0.841
 3587SOL    HW127903   6.382   3.915   0.750
 3587SOL    HW227904   6.355   3.831   0.873
 3588SOL     OW27905   0.039   2.923   1.866
 3588SOL    HW127906   0.041   2.827   1.868
 3588SOL    HW227907   0.062   2.949   1.956
 3589SOL     OW27908   4.681   4.697   0.497
 3589SOL    HW127909   4.754   4.724   0.442
 3589SOL    HW227910   4.718   4.635   0.559
 3590SOL     OW27911   5.646   2.939   0.247
 3590SOL    HW127912   5.669   2.857   0.291
 3590SOL    HW227913   5.729   2.972   0.213
 3591SOL     OW27914   0.316   6.019   7.214
 3591SOL    HW127915   0.244   6.001   7.273
 3591SOL    HW227916   0.392   5.976   7.255
 3592SOL     OW27917   3.545   0.168   0.519
 3592SOL    HW127918   3.634   0.134   0.514
 3592SOL    HW227919   3.536   0.203   0.608
 3593SOL     OW27920   4.981   4.568   1.759
 3593SOL    HW127921   5.009   4.641   1.815
 3593SOL    HW227922   5.020   4.491   1.800
 3594SOL     OW27923   4.308   2.971   0.601
 3594SOL    HW127924   4.374   2.988   0.668
 3594SOL    HW227925   4.280   2.881   0.616
 3595SOL     OW27926   0.222   6.388   1.839
 3595SOL    HW127927   0.235   6.343   1.923
 3595SOL    HW227928   0.279   6.342   1.778
 3596SOL     OW27929   1.183   4.009   0.211
 3596SOL    HW127930   1.246   4.002   0.138
 3596SOL    HW227931   1.238   4.013   0.289
 3597SOL     OW27932   5.752   2.431   5.636
 3597SOL    HW127933   5.822   2.490   5.660
 3597SOL    HW227934   5.797   2.357   5.594
 3598SOL     OW27935   3.866   5.670   0.564
 3598SOL    HW127936   3.844   5.624   0.484
 3598SOL    HW227937   3.883   5.601   0.628
 3599SOL     OW27938   6.204   1.593   0.019
 3599SOL    HW127939   6.234   1.516   7.772
 3599SOL    HW227940   6.249   1.585   0.104
 3600SOL     OW27941   4.570   1.567   6.874
 3600SOL    HW127942   4.581   1.644   6.928
 3600SOL    HW227943   4.572   1.600   6.784
 3601SOL     OW27944   1.799   4.640   7.033
 3601SOL    HW127945   1.870   4.630   6.970
 3601SOL    HW227946   1.796   4.735   7.050
 3602SOL     OW27947   1.447   2.569   2.206
 3602SOL    HW127948   1.408   2.624   2.138
 3602SOL    HW227949   1.448   2.481   2.168
 3603SOL     OW27950   1.607   0.495   0.397
 3603SOL    HW127951   1.671   0.425   0.406
 3603SOL    HW227952   1.648   0.571   0.438
 3604SOL     OW27953   4.420   1.054   0.146
 3604SOL    HW127954   4.425   1.032   0.053
 3604SOL    HW227955   4.352   0.997   0.181
 3605SOL     OW27956   1.654   1.922   7.196
 3605SOL    HW127957   1.624   1.894   7.282
 3605SOL    HW227958   1.716   1.853   7.169
 3606SOL     OW27959   1.889   4.797   0.710
 3606SOL    HW127960   1.945   4.841   0.647
 3606SOL    HW227961   1.895   4.704   0.687
 3607SOL     OW27962   6.367   5.806   7.728
 3607SOL    HW127963   6.366   5.730   7.670
 3607SOL    HW227964   6.396   5.879   7.672
 3608SOL     OW27965   5.633   2.100   6.288
 3608SOL    HW127966   5.684   2.031   6.330
 3608SOL    HW227967   5.556   2.056   6.253
 3609SOL     OW27968   1.060   4.844   7.531
 3609SOL    HW127969   1.035   4.763   7.576
 3609SOL    HW227970   1.017   4.838   7.445
 3610SOL     OW27971   1.545   0.561   0.784
 3610SOL    HW127972   1.463   0.520   0.758
 3610SOL    HW227973   1.535   0.653   0.761
 3611SOL     OW27974   3.389   4.393   7.018
 3611SOL    HW127975   3.476   4.404   7.055
 3611SOL    HW227976   3.344   4.475   7.035
 3612SOL     OW27977   0.511   4.284   1.012
 3612SOL    HW127978   0.558   4.211   0.972
 3612SOL    HW227979   0.573   4.357   1.009
 3613SOL     OW27980   5.633   4.676   7.745
 3613SOL    HW127981   5.574   4.625   7.800
 3613SOL    HW227982   5.649   4.621   7.669
 3614SOL     OW27983   6.036   0.857   7.129
 3614SOL    HW127984   6.067   0.768   7.141
 3614SOL    HW227985   6.024   0.867   7.035
 3615SOL     OW27986   5.630   5.497   6.314
 3615SOL    HW127987   5.618   5.485   6.220
 3615SOL    HW227988   5.725   5.505   6.326
 3616SOL     OW27989   5.449   2.021   6.797
 3616SOL    HW127990   5.400   2.051   6.721
 3616SOL    HW227991   5.529   2.075   6.796
 3617SOL     OW27992   1.177   0.976   6.841
 3617SOL    HW127993   1.202   0.919   6.769
 3617SOL    HW227994   1.161   1.061   6.800
 3618SOL     OW27995   5.428   2.731   1.581
 3618SOL    HW127996   5.445   2.638   1.569
 3618SOL    HW227997   5.420   2.742   1.676
 3619SOL     OW27998   1.088   5.840   0.824
 3619SOL    HW127999   1.143   5.782   0.773
 3619SOL    HW228000   1.105   5.927   0.789
 3620SOL     OW28001   2.113   2.932   7.616
 3620SOL    HW128002   2.163   2.947   7.696
 3620SOL    HW228003   2.021   2.931   7.645
 3621SOL     OW28004   3.308   5.949   1.458
 3621SOL    HW128005   3.241   5.968   1.523
 3621SOL    HW228006   3.267   5.970   1.374
 3622SOL     OW28007   5.674   5.596   7.347
 3622SOL    HW128008   5.659   5.676   7.399
 3622SOL    HW228009   5.663   5.525   7.410
 3623SOL     OW28010   2.884   2.432   6.936
 3623SOL    HW128011   2.834   2.352   6.923
 3623SOL    HW228012   2.959   2.424   6.876
 3624SOL     OW28013   4.295   6.165   1.564
 3624SOL    HW128014   4.384   6.177   1.532
 3624SOL    HW228015   4.302   6.096   1.630
 3625SOL     OW28016   3.058   0.240   5.876
 3625SOL    HW128017   3.148   0.212   5.897
 3625SOL    HW228018   3.007   0.159   5.880
 3626SOL     OW28019   1.497   4.370   7.224
 3626SOL    HW128020   1.522   4.430   7.153
 3626SOL    HW228021   1.449   4.425   7.286
 3627SOL     OW28022   3.842   4.103   0.281
 3627SOL    HW128023   3.802   4.111   0.194
 3627SOL    HW228024   3.797   4.029   0.321
 3628SOL     OW28025   2.220   2.680   6.840
 3628SOL    HW128026   2.168   2.637   6.772
 3628SOL    HW228027   2.167   2.756   6.865
 3629SOL     OW28028   2.438   2.635   5.591
 3629SOL    HW128029   2.378   2.701   5.556
 3629SOL    HW228030   2.424   2.558   5.536
 3630SOL     OW28031   2.393   0.227   0.441
 3630SOL    HW128032   2.428   0.244   0.354
 3630SOL    HW228033   2.443   0.284   0.500
 3631SOL     OW28034   4.600   5.216   2.357
 3631SOL    HW128035   4.531   5.157   2.387
 3631SOL    HW228036   4.561   5.263   2.283
 3632SOL     OW28037   2.152   1.596   5.251
 3632SOL    HW128038   2.082   1.543   5.213
 3632SOL    HW228039   2.115   1.628   5.334
 3633SOL     OW28040   0.103   5.798   1.237
 3633SOL    HW128041   0.041   5.867   1.263
 3633SOL    HW228042   0.125   5.819   1.147
 3634SOL     OW28043   5.993   2.207   5.197
 3634SOL    HW128044   6.059   2.236   5.260
 3634SOL    HW228045   5.948   2.286   5.170
 3635SOL     OW28046   0.131   4.472   7.196
 3635SOL    HW128047   0.052   4.489   7.247
 3635SOL    HW228048   0.164   4.389   7.229
 3636SOL     OW28049   5.841   3.078   5.978
 3636SOL    HW128050   5.866   3.145   5.914
 3636SOL    HW228051   5.899   3.004   5.958
 3637SOL     OW28052   2.196   5.233   0.040
 3637SOL    HW128053   2.263   5.273   7.787
 3637SOL    HW228054   2.119   5.289   0.028
 3638SOL     OW28055   3.404   6.169   6.201
 3638SOL    HW128056   3.436   6.123   6.279
 3638SOL    HW228057   3.309   6.157   6.204
 3639SOL     OW28058   4.679   4.172   7.037
 3639SOL    HW128059   4.616   4.153   7.105
 3639SOL    HW228060   4.758   4.198   7.083
 3640SOL     OW28061   3.038   1.485   2.042
 3640SOL    HW128062   3.079   1.549   2.100
 3640SOL    HW228063   2.944   1.505   2.047
 3641SOL     OW28064   2.375   0.630   5.898
 3641SOL    HW128065   2.421   0.638   5.815
 3641SOL    HW228066   2.424   0.686   5.958
 3642SOL     OW28067   3.695   3.584   0.106
 3642SOL    HW128068   3.759   3.594   0.177
 3642SOL    HW228069   3.673   3.674   0.081
 3643SOL     OW28070   5.614   3.086   7.201
 3643SOL    HW128071   5.690   3.144   7.200
 3643SOL    HW228072   5.539   3.145   7.204
 3644SOL     OW28073   0.145   0.139   1.261
 3644SOL    HW128074   0.215   0.081   1.290
 3644SOL    HW228075   0.161   0.151   1.167
 3645SOL     OW28076   3.798   0.951   1.026
 3645SOL    HW128077   3.713   0.921   0.993
 3645SOL    HW228078   3.791   0.942   1.121
 3646SOL     OW28079   4.571   4.559   7.009
 3646SOL    HW128080   4.643   4.529   7.065
 3646SOL    HW228081   4.571   4.654   7.019
 3647SOL     OW28082   1.219   0.182   7.256
 3647SOL    HW128083   1.157   0.112   7.275
 3647SOL    HW228084   1.164   0.255   7.228
 3648SOL     OW28085   6.086   0.826   0.330
 3648SOL    HW128086   6.112   0.853   0.418
 3648SOL    HW228087   6.058   0.907   0.287
 3649SOL     OW28088   5.379   4.300   1.751
 3649SOL    HW128089   5.402   4.390   1.727
 3649SOL    HW228090   5.445   4.275   1.816
 3650SOL     OW28091   5.688   4.499   5.984
 3650SOL    HW128092   5.718   4.413   5.954
 3650SOL    HW228093   5.679   4.490   6.078
 3651SOL     OW28094   6.173   5.720   5.649
 3651SOL    HW128095   6.226   5.799   5.639
 3651SOL    HW228096   6.160   5.712   5.744
 3652SOL     OW28097   0.444   0.048   0.252
 3652SOL    HW128098   0.450   6.409   0.211
 3652SOL    HW228099   0.512   0.099   0.210
 3653SOL     OW28100   5.862   3.696   7.226
 3653SOL    HW128101   5.785   3.665   7.178
 3653SOL    HW228102   5.934   3.642   7.193
 3654SOL     OW28103   2.305   0.519   5.601
 3654SOL    HW128104   2.387   0.552   5.637
 3654SOL    HW228105   2.264   0.595   5.561
 3655SOL     OW28106   0.381   5.183   6.542
 3655SOL    HW128107   0.341   5.112   6.491
 3655SOL    HW228108   0.316   5.203   6.609
 3656SOL     OW28109   1.585   5.598   6.352
 3656SOL    HW128110   1.571   5.616   6.259
 3656SOL    HW228111   1.653   5.531   6.353
 3657SOL     OW28112   5.577   1.261   0.050
 3657SOL    HW128113   5.547   1.331   0.109
 3657SOL    HW228114   5.522   1.186   0.073
 3658SOL     OW28115   4.251   0.464   0.053
 3658SOL    HW128116   4.316   0.437   7.791
 3658SOL    HW228117   4.173   0.487   0.002
 3659SOL     OW28118   4.226   4.245   6.974
 3659SOL    HW128119   4.318   4.269   6.964
 3659SOL    HW228120   4.183   4.283   6.897
 3660SOL     OW28121   4.639   3.504   0.932
 3660SOL    HW128122   4.591   3.448   0.872
 3660SOL    HW228123   4.580   3.514   1.007
 3661SOL     OW28124   1.141   5.742   1.563
 3661SOL    HW128125   1.182   5.726   1.648
 3661SOL    HW228126   1.055   5.778   1.584
 3662SOL     OW28127   4.473   4.766   6.179
 3662SOL    HW128128   4.492   4.772   6.273
 3662SOL    HW228129   4.440   4.853   6.156
 3663SOL     OW28130   2.172   5.680   6.687
 3663SOL    HW128131   2.092   5.628   6.678
 3663SOL    HW228132   2.143   5.771   6.683
 3664SOL     OW28133   2.094   2.365   1.791
 3664SOL    HW128134   2.037   2.414   1.732
 3664SOL    HW228135   2.043   2.356   1.871
 3665SOL     OW28136   2.192   2.728   6.448
 3665SOL    HW128137   2.143   2.686   6.518
 3665SOL    HW228138   2.275   2.680   6.443
 3666SOL     OW28139   2.759   3.775   6.383
 3666SOL    HW128140   2.770   3.846   6.320
 3666SOL    HW228141   2.799   3.807   6.463
 3667SOL     OW28142   6.431   0.197   0.228
 3667SOL    HW128143   6.364   0.146   0.183
 3667SOL    HW228144   0.008   0.144   0.304
 3668SOL     OW28145   0.853   1.520   6.717
 3668SOL    HW128146   0.852   1.428   6.743
 3668SOL    HW228147   0.827   1.568   6.795
 3669SOL     OW28148   1.304   5.525   6.639
 3669SOL    HW128149   1.219   5.493   6.607
 3669SOL    HW228150   1.351   5.445   6.663
 3670SOL     OW28151   4.674   1.797   0.629
 3670SOL    HW128152   4.768   1.814   0.632
 3670SOL    HW228153   4.664   1.712   0.672
 3671SOL     OW28154   1.492   3.210   6.994
 3671SOL    HW128155   1.455   3.226   7.080
 3671SOL    HW228156   1.484   3.115   6.982
 3672SOL     OW28157   0.885   1.284   5.309
 3672SOL    HW128158   0.814   1.321   5.362
 3672SOL    HW228159   0.945   1.357   5.294
 3673SOL     OW28160   6.027   1.096   5.886
 3673SOL    HW128161   6.103   1.094   5.944
 3673SOL    HW228162   6.039   1.020   5.828
 3674SOL     OW28163   1.044   3.702   0.541
 3674SOL    HW128164   1.061   3.633   0.605
 3674SOL    HW228165   1.128   3.717   0.498
 3675SOL     OW28166   3.107   4.938   5.883
 3675SOL    HW128167   3.038   4.901   5.828
 3675SOL    HW228168   3.073   5.024   5.908
 3676SOL     OW28169   3.657   0.872   0.413
 3676SOL    HW128170   3.646   0.778   0.397
 3676SOL    HW228171   3.576   0.912   0.383
 3677SOL     OW28172   1.912   2.968   2.454
 3677SOL    HW128173   1.993   2.963   2.402
 3677SOL    HW228174   1.900   2.879   2.488
 3678SOL     OW28175   3.182   2.549   7.762
 3678SOL    HW128176   3.206   2.476   7.705
 3678SOL    HW228177   3.185   2.512   0.047
 3679SOL     OW28178   0.519   0.270   0.466
 3679SOL    HW128179   0.512   0.359   0.500
 3679SOL    HW228180   0.432   0.232   0.482
 3680SOL     OW28181   4.224   3.316   5.510
 3680SOL    HW128182   4.216   3.286   5.600
 3680SOL    HW228183   4.148   3.372   5.495
 3681SOL     OW28184   2.185   0.219   7.691
 3681SOL    HW128185   2.212   0.275   7.763
 3681SOL    HW228186   2.249   0.148   7.690
 3682SOL     OW28187   1.223   4.203   1.209
 3682SOL    HW128188   1.276   4.124   1.200
 3682SOL    HW228189   1.281   4.275   1.185
 3683SOL     OW28190   5.598   1.238   0.969
 3683SOL    HW128191   5.513   1.257   1.010
 3683SOL    HW228192   5.579   1.170   0.905
 3684SOL     OW28193   5.222   5.846   0.435
 3684SOL    HW128194   5.312   5.880   0.441
 3684SOL    HW228195   5.233   5.751   0.440
 3685SOL     OW28196   5.718   5.853   0.462
 3685SOL    HW128197   5.742   5.798   0.537
 3685SOL    HW228198   5.738   5.799   0.385
 3686SOL     OW28199   3.758   1.707   5.815
 3686SOL    HW128200   3.700   1.662   5.753
 3686SOL    HW228201   3.838   1.655   5.816
 3687SOL     OW28202   0.638   6.152   0.803
 3687SOL    HW128203   0.614   6.060   0.819
 3687SOL    HW228204   0.688   6.150   0.721
 3688SOL     OW28205   2.840   3.426   7.510
 3688SOL    HW128206   2.794   3.463   7.586
 3688SOL    HW228207   2.932   3.424   7.536
 3689SOL     OW28208   3.451   0.649   1.407
 3689SOL    HW128209   3.523   0.594   1.436
 3689SOL    HW228210   3.432   0.620   1.318
 3690SOL     OW28211   5.761   5.911   5.534
 3690SOL    HW128212   5.675   5.936   5.501
 3690SOL    HW228213   5.741   5.862   5.614
 3691SOL     OW28214   4.717   1.907   0.133
 3691SOL    HW128215   4.702   1.909   0.228
 3691SOL    HW228216   4.667   1.981   0.099
 3692SOL     OW28217   1.014   6.142   6.756
 3692SOL    HW128218   0.956   6.153   6.681
 3692SOL    HW228219   0.997   6.053   6.787
 3693SOL     OW28220   1.853   1.425   0.269
 3693SOL    HW128221   1.848   1.369   0.346
 3693SOL    HW228222   1.844   1.514   0.303
 3694SOL     OW28223   4.106   4.726   1.904
 3694SOL    HW128224   4.028   4.690   1.861
 3694SOL    HW228225   4.080   4.737   1.996
 3695SOL     OW28226   3.841   3.648   1.582
 3695SOL    HW128227   3.793   3.715   1.630
 3695SOL    HW228228   3.924   3.639   1.628
 3696SOL     OW28229   3.481   1.983   1.890
 3696SOL    HW128230   3.509   2.073   1.873
 3696SOL    HW228231   3.545   1.950   1.953
 3697SOL     OW28232   1.564   2.628   6.620
 3697SOL    HW128233   1.518   2.571   6.681
 3697SOL    HW228234   1.627   2.570   6.577
 3698SOL     OW28235   0.761   4.796   6.722
 3698SOL    HW128236   0.760   4.852   6.644
 3698SOL    HW228237   0.678   4.815   6.766
 3699SOL     OW28238   1.919   2.819   0.842
 3699SOL    HW128239   1.868   2.897   0.867
 3699SOL    HW228240   1.999   2.825   0.894
 3700SOL     OW28241   1.464   2.374   0.809
 3700SOL    HW128242   1.379   2.409   0.781
 3700SOL    HW228243   1.457   2.280   0.796
 3701SOL     OW28244   6.411   5.646   5.870
 3701SOL    HW128245   0.003   5.640   5.957
 3701SOL    HW228246   6.321   5.672   5.886
 3702SOL     OW28247   1.742   4.770   1.768
 3702SOL    HW128248   1.669   4.713   1.743
 3702SOL    HW228249   1.820   4.725   1.734
 3703SOL     OW28250   5.650   1.835   5.212
 3703SOL    HW128251   5.661   1.741   5.203
 3703SOL    HW228252   5.737   1.871   5.196
 3704SOL     OW28253   5.979   0.885   6.864
 3704SOL    HW128254   5.905   0.831   6.837
 3704SOL    HW228255   5.962   0.971   6.825
 3705SOL     OW28256   0.664   2.673   1.537
 3705SOL    HW128257   0.596   2.615   1.570
 3705SOL    HW228258   0.731   2.673   1.604
 3706SOL     OW28259   2.808   3.995   6.237
 3706SOL    HW128260   2.843   4.076   6.276
 3706SOL    HW228261   2.840   3.996   6.147
 3707SOL     OW28262   3.181   4.197   6.458
 3707SOL    HW128263   3.236   4.275   6.451
 3707SOL    HW228264   3.237   4.126   6.429
 3708SOL     OW28265   1.974   4.632   1.704
 3708SOL    HW128266   2.005   4.552   1.662
 3708SOL    HW228267   1.997   4.622   1.796
 3709SOL     OW28268   3.440   5.034   5.139
 3709SOL    HW128269   3.481   4.949   5.119
 3709SOL    HW228270   3.364   5.011   5.192
 3710SOL     OW28271   0.659   3.257   7.027
 3710SOL    HW128272   0.726   3.324   7.017
 3710SOL    HW228273   0.576   3.305   7.026
 3711SOL     OW28274   5.774   2.516   6.461
 3711SOL    HW128275   5.848   2.455   6.453
 3711SOL    HW228276   5.698   2.464   6.433
 3712SOL     OW28277   4.206   0.648   6.497
 3712SOL    HW128278   4.185   0.569   6.547
 3712SOL    HW228279   4.254   0.703   6.559
 3713SOL     OW28280   2.999   0.537   0.996
 3713SOL    HW128281   2.925   0.536   0.935
 3713SOL    HW228282   3.055   0.465   0.967
 3714SOL     OW28283   0.192   1.839   6.533
 3714SOL    HW128284   0.192   1.754   6.490
 3714SOL    HW228285   0.146   1.896   6.471
 3715SOL     OW28286   4.261   5.434   1.231
 3715SOL    HW128287   4.245   5.520   1.192
 3715SOL    HW228288   4.356   5.429   1.238
 3716SOL     OW28289   3.361   1.857   5.893
 3716SOL    HW128290   3.273   1.879   5.924
 3716SOL    HW228291   3.352   1.772   5.852
 3717SOL     OW28292   5.213   5.520   1.704
 3717SOL    HW128293   5.229   5.601   1.753
 3717SOL    HW228294   5.264   5.453   1.750
 3718SOL     OW28295   4.266   3.922   7.342
 3718SOL    HW128296   4.205   3.850   7.333
 3718SOL    HW228297   4.287   3.947   7.252
 3719SOL     OW28298   3.911   0.908   7.685
 3719SOL    HW128299   3.974   0.916   7.613
 3719SOL    HW228300   3.962   0.928   7.763
 3720SOL     OW28301   6.018   1.505   0.345
 3720SOL    HW128302   6.022   1.590   0.391
 3720SOL    HW228303   5.927   1.500   0.314
 3721SOL     OW28304   3.293   2.799   7.754
 3721SOL    HW128305   3.260   2.844   7.676
 3721SOL    HW228306   3.255   2.712   7.751
 3722SOL     OW28307   3.428   4.497   0.005
 3722SOL    HW128308   3.465   4.585   0.000
 3722SOL    HW228309   3.356   4.504   0.067
 3723SOL     OW28310   2.975   5.416   7.162
 3723SOL    HW128311   3.014   5.431   7.248
 3723SOL    HW228312   2.893   5.465   7.164
 3724SOL     OW28313   5.795   5.867   6.090
 3724SOL    HW128314   5.868   5.806   6.083
 3724SOL    HW228315   5.718   5.817   6.063
 3725SOL     OW28316   4.888   1.004   1.481
 3725SOL    HW128317   4.803   1.008   1.439
 3725SOL    HW228318   4.899   0.912   1.505
 3726SOL     OW28319   3.081   1.051   7.772
 3726SOL    HW128320   3.132   1.115   0.020
 3726SOL    HW228321   3.126   0.968   7.787
 3727SOL     OW28322   3.081   6.410   6.872
 3727SOL    HW128323   3.013   0.026   6.893
 3727SOL    HW228324   3.123   6.446   6.793
 3728SOL     OW28325   2.995   1.330   0.438
 3728SOL    HW128326   2.989   1.383   0.518
 3728SOL    HW228327   3.075   1.278   0.450
 3729SOL     OW28328   1.761   2.786   7.299
 3729SOL    HW128329   1.700   2.722   7.262
 3729SOL    HW228330   1.713   2.826   7.371
 3730SOL     OW28331   1.940   6.362   1.128
 3730SOL    HW128332   1.870   6.297   1.129
 3730SOL    HW228333   2.017   6.315   1.161
 3731SOL     OW28334   1.113   2.518   1.191
 3731SOL    HW128335   1.140   2.427   1.204
 3731SOL    HW228336   1.018   2.517   1.205
 3732SOL     OW28337   2.457   1.316   0.534
 3732SOL    HW128338   2.366   1.326   0.506
 3732SOL    HW228339   2.508   1.353   0.462
 3733SOL     OW28340   1.933   0.689   0.661
 3733SOL    HW128341   1.961   0.749   0.730
 3733SOL    HW228342   2.012   0.670   0.611
 3734SOL     OW28343   1.069   5.919   1.978
 3734SOL    HW128344   1.013   5.995   1.989
 3734SOL    HW228345   1.012   5.844   1.997
 3735SOL     OW28346   1.789   0.023   1.921
 3735SOL    HW128347   1.823   0.019   2.010
 3735SOL    HW228348   1.784   6.379   1.893
 3736SOL     OW28349   3.187   2.576   1.239
 3736SOL    HW128350   3.231   2.659   1.223
 3736SOL    HW228351   3.239   2.534   1.307
 3737SOL     OW28352   4.030   1.703   7.401
 3737SOL    HW128353   3.975   1.669   7.471
 3737SOL    HW228354   4.032   1.633   7.336
 3738SOL     OW28355   6.354   1.284   5.613
 3738SOL    HW128356   6.437   1.268   5.568
 3738SOL    HW228357   6.358   1.227   5.690
 3739SOL     OW28358   2.382   5.054   0.936
 3739SOL    HW128359   2.349   5.067   1.024
 3739SOL    HW228360   2.446   4.983   0.944
 3740SOL     OW28361   2.345   3.538   2.062
 3740SOL    HW128362   2.386   3.511   2.144
 3740SOL    HW228363   2.251   3.540   2.081
 3741SOL     OW28364   2.820   5.411   0.576
 3741SOL    HW128365   2.877   5.438   0.649
 3741SOL    HW228366   2.785   5.326   0.604
 3742SOL     OW28367   0.777   0.263   6.192
 3742SOL    HW128368   0.703   0.295   6.244
 3742SOL    HW228369   0.744   0.258   6.103
 3743SOL     OW28370   4.475   1.983   7.464
 3743SOL    HW128371   4.499   2.075   7.470
 3743SOL    HW228372   4.558   1.936   7.461
 3744SOL     OW28373   1.694   1.636   6.453
 3744SOL    HW128374   1.662   1.655   6.365
 3744SOL    HW228375   1.615   1.612   6.502
 3745SOL     OW28376   4.379   4.123   0.061
 3745SOL    HW128377   4.446   4.094   0.123
 3745SOL    HW228378   4.301   4.074   0.085
 3746SOL     OW28379   6.245   5.481   7.276
 3746SOL    HW128380   6.187   5.517   7.344
 3746SOL    HW228381   6.203   5.400   7.248
 3747SOL     OW28382   2.191   4.216   7.696
 3747SOL    HW128383   2.159   4.127   7.711
 3747SOL    HW228384   2.187   4.226   7.601
 3748SOL     OW28385   5.955   1.146   6.780
 3748SOL    HW128386   5.943   1.184   6.693
 3748SOL    HW228387   5.876   1.169   6.828
 3749SOL     OW28388   3.102   3.489   7.593
 3749SOL    HW128389   3.141   3.451   7.672
 3749SOL    HW228390   3.074   3.577   7.619
 3750SOL     OW28391   2.269   5.405   6.461
 3750SOL    HW128392   2.203   5.470   6.435
 3750SOL    HW228393   2.322   5.393   6.383
 3751SOL     OW28394   6.175   4.861   6.659
 3751SOL    HW128395   6.229   4.861   6.579
 3751SOL    HW228396   6.236   4.887   6.728
 3752SOL     OW28397   2.562   5.290   6.770
 3752SOL    HW128398   2.467   5.287   6.762
 3752SOL    HW228399   2.591   5.202   6.745
 3753SOL     OW28400   0.481   0.846   0.798
 3753SOL    HW128401   0.512   0.846   0.707
 3753SOL    HW228402   0.402   0.791   0.796
 3754SOL     OW28403   3.529   3.240   1.305
 3754SOL    HW128404   3.615   3.216   1.340
 3754SOL    HW228405   3.467   3.190   1.358
 3755SOL     OW28406   1.198   0.674   6.230
 3755SOL    HW128407   1.290   0.645   6.227
 3755SOL    HW228408   1.149   0.595   6.254
 3756SOL     OW28409   5.983   5.725   2.258
 3756SOL    HW128410   5.941   5.809   2.237
 3756SOL    HW228411   5.914   5.660   2.246
 3757SOL     OW28412   2.266   6.209   0.868
 3757SOL    HW128413   2.178   6.187   0.897
 3757SOL    HW228414   2.312   6.125   0.866
 3758SOL     OW28415   2.353   0.778   6.786
 3758SOL    HW128416   2.311   0.789   6.701
 3758SOL    HW228417   2.395   0.862   6.804
 3759SOL     OW28418   1.142   1.387   0.327
 3759SOL    HW128419   1.095   1.338   0.260
 3759SOL    HW228420   1.233   1.359   0.318
 3760SOL     OW28421   5.236   3.129   1.171
 3760SOL    HW128422   5.240   3.222   1.189
 3760SOL    HW228423   5.316   3.110   1.122
 3761SOL     OW28424   0.922   3.241   0.912
 3761SOL    HW128425   0.998   3.187   0.889
 3761SOL    HW228426   0.952   3.294   0.986
 3762SOL     OW28427   6.303   0.231   7.045
 3762SOL    HW128428   6.370   0.203   7.107
 3762SOL    HW228429   6.352   0.266   6.971
 3763SOL     OW28430   4.843   4.659   1.279
 3763SOL    HW128431   4.897   4.671   1.201
 3763SOL    HW228432   4.866   4.733   1.336
 3764SOL     OW28433   6.094   2.103   6.212
 3764SOL    HW128434   6.076   2.082   6.304
 3764SOL    HW228435   6.008   2.122   6.174
 3765SOL     OW28436   3.933   3.136   5.606
 3765SOL    HW128437   3.891   3.219   5.587
 3765SOL    HW228438   3.861   3.073   5.612
 3766SOL     OW28439   0.899   1.288   5.696
 3766SOL    HW128440   0.950   1.207   5.694
 3766SOL    HW228441   0.811   1.261   5.669
 3767SOL     OW28442   6.328   2.080   6.743
 3767SOL    HW128443   6.355   2.031   6.820
 3767SOL    HW228444   6.368   2.167   6.754
 3768SOL     OW28445   6.069   4.491   5.959
 3768SOL    HW128446   6.134   4.505   6.028
 3768SOL    HW228447   6.029   4.406   5.980
 3769SOL     OW28448   3.627   0.571   6.144
 3769SOL    HW128449   3.566   0.507   6.106
 3769SOL    HW228450   3.671   0.610   6.069
 3770SOL     OW28451   0.408   6.398   6.942
 3770SOL    HW128452   0.397   6.355   7.026
 3770SOL    HW228453   0.492   6.444   6.949
 3771SOL     OW28454   2.380   5.988   0.042
 3771SOL    HW128455   2.363   6.054   7.778
 3771SOL    HW228456   2.475   5.979   0.043
 3772SOL     OW28457   5.523   4.355   6.274
 3772SOL    HW128458   5.429   4.349   6.261
 3772SOL    HW228459   5.560   4.294   6.210
 3773SOL     OW28460   1.355   4.840   0.021
 3773SOL    HW128461   1.333   4.902   7.755
 3773SOL    HW228462   1.276   4.835   0.076
 3774SOL     OW28463   5.176   6.420   1.328
 3774SOL    HW128464   5.234   6.436   1.253
 3774SOL    HW228465   5.162   6.325   1.328
 3775SOL     OW28466   1.708   2.494   0.858
 3775SOL    HW128467   1.757   2.432   0.912
 3775SOL    HW228468   1.634   2.443   0.825
 3776SOL     OW28469   4.454   2.799   7.497
 3776SOL    HW128470   4.374   2.748   7.500
 3776SOL    HW228471   4.425   2.890   7.506
 3777SOL     OW28472   4.330   2.046   5.344
 3777SOL    HW128473   4.262   1.978   5.341
 3777SOL    HW228474   4.305   2.108   5.277
 3778SOL     OW28475   2.046   0.825   5.035
 3778SOL    HW128476   2.122   0.837   4.978
 3778SOL    HW228477   2.077   0.768   5.105
 3779SOL     OW28478   2.441   4.002   0.234
 3779SOL    HW128479   2.485   3.953   0.164
 3779SOL    HW228480   2.501   3.996   0.309
 3780SOL     OW28481   1.174   4.322   6.932
 3780SOL    HW128482   1.123   4.367   6.999
 3780SOL    HW228483   1.174   4.382   6.857
 3781SOL     OW28484   2.566   1.637   1.288
 3781SOL    HW128485   2.502   1.658   1.219
 3781SOL    HW228486   2.618   1.717   1.298
 3782SOL     OW28487   2.481   1.593   5.486
 3782SOL    HW128488   2.441   1.596   5.574
 3782SOL    HW228489   2.548   1.662   5.488
 3783SOL     OW28490   2.810   0.817   0.973
 3783SOL    HW128491   2.833   0.907   1.000
 3783SOL    HW228492   2.838   0.812   0.882
 3784SOL     OW28493   6.158   5.883   7.232
 3784SOL    HW128494   6.178   5.819   7.163
 3784SOL    HW228495   6.065   5.904   7.218
 3785SOL     OW28496   3.239   5.459   6.461
 3785SOL    HW128497   3.244   5.482   6.554
 3785SOL    HW228498   3.325   5.483   6.426
 3786SOL     OW28499   3.237   4.852   5.587
 3786SOL    HW128500   3.301   4.817   5.649
 3786SOL    HW228501   3.162   4.878   5.641
 3787SOL     OW28502   5.355   1.875   5.953
 3787SOL    HW128503   5.376   1.914   6.038
 3787SOL    HW228504   5.260   1.874   5.951
 3788SOL     OW28505   2.699   2.098   2.256
 3788SOL    HW128506   2.610   2.085   2.223
 3788SOL    HW228507   2.688   2.135   2.343
 3789SOL     OW28508   1.830   4.762   2.025
 3789SOL    HW128509   1.909   4.710   2.009
 3789SOL    HW228510   1.794   4.778   1.938
 3790SOL     OW28511   4.633   3.630   0.513
 3790SOL    HW128512   4.563   3.603   0.454
 3790SOL    HW228513   4.694   3.557   0.515
 3791SOL     OW28514   2.677   4.405   6.729
 3791SOL    HW128515   2.587   4.436   6.738
 3791SOL    HW228516   2.678   4.322   6.776
 3792SOL     OW28517   3.321   4.651   0.247
 3792SOL    HW128518   3.413   4.637   0.270
 3792SOL    HW228519   3.273   4.602   0.313
 3793SOL     OW28520   0.914   0.319   0.633
 3793SOL    HW128521   0.901   0.292   0.542
 3793SOL    HW228522   0.955   0.243   0.675
 3794SOL     OW28523   4.263   1.805   6.241
 3794SOL    HW128524   4.313   1.727   6.264
 3794SOL    HW228525   4.323   1.878   6.261
 3795SOL     OW28526   1.412   2.110   0.779
 3795SOL    HW128527   1.434   2.023   0.744
 3795SOL    HW228528   1.349   2.092   0.849
 3796SOL     OW28529   5.844   4.712   7.046
 3796SOL    HW128530   5.815   4.763   6.970
 3796SOL    HW228531   5.930   4.680   7.021
 3797SOL     OW28532   2.319   1.373   0.895
 3797SOL    HW128533   2.278   1.296   0.934
 3797SOL    HW228534   2.404   1.380   0.939
 3798SOL     OW28535   2.021   2.858   1.717
 3798SOL    HW128536   1.950   2.796   1.703
 3798SOL    HW228537   1.994   2.910   1.793
 3799SOL     OW28538   4.246   4.911   0.523
 3799SOL    HW128539   4.241   4.855   0.445
 3799SOL    HW228540   4.328   4.885   0.565
 3800SOL     OW28541   1.672   5.257   7.686
 3800SOL    HW128542   1.715   5.341   7.703
 3800SOL    HW228543   1.580   5.272   7.707
 3801SOL     OW28544   0.704   2.206   0.729
 3801SOL    HW128545   0.675   2.287   0.770
 3801SOL    HW228546   0.625   2.151   0.728
 3802SOL     OW28547   5.830   2.650   7.069
 3802SOL    HW128548   5.739   2.629   7.049
 3802SOL    HW228549   5.868   2.567   7.100
 3803SOL     OW28550   3.209   3.804   6.692
 3803SOL    HW128551   3.301   3.824   6.709
 3803SOL    HW228552   3.165   3.889   6.694
 3804SOL     OW28553   0.915   3.387   7.007
 3804SOL    HW128554   0.900   3.481   7.020
 3804SOL    HW228555   0.990   3.383   6.947
 3805SOL     OW28556   4.477   4.320   6.922
 3805SOL    HW128557   4.505   4.409   6.940
 3805SOL    HW228558   4.554   4.266   6.942
 3806SOL     OW28559   4.884   1.542   5.889
 3806SOL    HW128560   4.815   1.491   5.932
 3806SOL    HW228561   4.936   1.578   5.961
 3807SOL     OW28562   4.554   5.435   0.658
 3807SOL    HW128563   4.475   5.382   0.673
 3807SOL    HW228564   4.533   5.520   0.697
 3808SOL     OW28565   4.149   2.676   0.369
 3808SOL    HW128566   4.055   2.677   0.354
 3808SOL    HW228567   4.185   2.723   0.293
 3809SOL     OW28568   3.685   3.853   7.362
 3809SOL    HW128569   3.635   3.776   7.389
 3809SOL    HW228570   3.751   3.819   7.302
 3810SOL     OW28571   0.907   6.440   0.130
 3810SOL    HW128572   0.976   0.022   0.189
 3810SOL    HW228573   0.889   0.068   0.073
 3811SOL     OW28574   4.806   5.139   0.732
 3811SOL    HW128575   4.818   5.233   0.743
 3811SOL    HW228576   4.874   5.112   0.671
 3812SOL     OW28577   5.707   4.939   0.005
 3812SOL    HW128578   5.677   4.849   7.795
 3812SOL    HW228579   5.799   4.938   7.781
 3813SOL     OW28580   5.149   0.675   7.348
 3813SOL    HW128581   5.107   0.590   7.333
 3813SOL    HW228582   5.075   0.735   7.363
 3814SOL     OW28583   5.635   4.607   0.412
 3814SOL    HW128584   5.616   4.527   0.364
 3814SOL    HW228585   5.716   4.588   0.460
 3815SOL     OW28586   2.301   0.673   1.500
 3815SOL    HW128587   2.275   0.680   1.591
 3815SOL    HW228588   2.287   0.760   1.463
 3816SOL     OW28589   6.269   4.826   0.047
 3816SOL    HW128590   6.215   4.883   0.102
 3816SOL    HW228591   6.334   4.789   0.106
 3817SOL     OW28592   3.760   4.771   7.159
 3817SOL    HW128593   3.770   4.859   7.121
 3817SOL    HW228594   3.669   4.748   7.142
 3818SOL     OW28595   3.918   4.453   7.208
 3818SOL    HW128596   3.987   4.387   7.218
 3818SOL    HW228597   3.965   4.533   7.185
 3819SOL     OW28598   1.505   0.625   6.846
 3819SOL    HW128599   1.459   0.619   6.762
 3819SOL    HW228600   1.457   0.566   6.904
 3820SOL     OW28601   0.500   3.901   6.836
 3820SOL    HW128602   0.546   3.951   6.769
 3820SOL    HW228603   0.414   3.944   6.842
 3821SOL     OW28604   3.721   3.828   6.619
 3821SOL    HW128605   3.784   3.847   6.550
 3821SOL    HW228606   3.761   3.864   6.698
 3822SOL     OW28607   5.621   6.337   0.424
 3822SOL    HW128608   5.638   6.275   0.354
 3822SOL    HW228609   5.547   6.301   0.472
 3823SOL     OW28610   1.869   2.401   7.370
 3823SOL    HW128611   1.886   2.343   7.295
 3823SOL    HW228612   1.776   2.388   7.389
 3824SOL     OW28613   2.814   5.210   0.234
 3824SOL    HW128614   2.910   5.212   0.241
 3824SOL    HW228615   2.786   5.294   0.269
 3825SOL     OW28616   5.144   5.428   0.013
 3825SOL    HW128617   5.219   5.367   0.017
 3825SOL    HW228618   5.126   5.449   0.105
 3826SOL     OW28619   5.056   3.401   1.418
 3826SOL    HW128620   5.077   3.453   1.496
 3826SOL    HW228621   5.137   3.401   1.367
 3827SOL     OW28622   0.458   3.415   0.916
 3827SOL    HW128623   0.528   3.351   0.929
 3827SOL    HW228624   0.396   3.399   0.987
 3828SOL     OW28625   0.266   5.437   7.179
 3828SOL    HW128626   0.291   5.513   7.126
 3828SOL    HW228627   0.341   5.378   7.172
 3829SOL     OW28628   1.255   4.300   7.741
 3829SOL    HW128629   1.289   4.280   0.026
 3829SOL    HW228630   1.323   4.353   7.700
 3830SOL     OW28631   0.101   3.206   1.195
 3830SOL    HW128632   0.143   3.121   1.181
 3830SOL    HW228633   0.019   3.200   1.148
 3831SOL     OW28634   1.509   5.994   7.693
 3831SOL    HW128635   1.472   5.976   7.779
 3831SOL    HW228636   1.583   6.051   7.709
 3832SOL     OW28637   5.232   0.431   0.940
 3832SOL    HW128638   5.287   0.506   0.961
 3832SOL    HW228639   5.275   0.356   0.982
 3833SOL     OW28640   2.574   0.707   6.625
 3833SOL    HW128641   2.637   0.677   6.690
 3833SOL    HW228642   2.494   0.723   6.675
 3834SOL     OW28643   5.627   5.362   7.497
 3834SOL    HW128644   5.705   5.308   7.487
 3834SOL    HW228645   5.609   5.362   7.591
 3835SOL     OW28646   5.854   5.213   7.463
 3835SOL    HW128647   5.883   5.122   7.460
 3835SOL    HW228648   5.912   5.255   7.526
 3836SOL     OW28649   3.803   2.473   0.928
 3836SOL    HW128650   3.898   2.478   0.930
 3836SOL    HW228651   3.784   2.385   0.894
 3837SOL     OW28652   1.087   4.283   6.550
 3837SOL    HW128653   1.103   4.339   6.626
 3837SOL    HW228654   1.153   4.310   6.486
 3838SOL     OW28655   4.715   2.278   1.201
 3838SOL    HW128656   4.682   2.248   1.286
 3838SOL    HW228657   4.641   2.324   1.162
 3839SOL     OW28658   6.203   2.509   6.760
 3839SOL    HW128659   6.195   2.598   6.796
 3839SOL    HW228660   6.125   2.464   6.793
 3840SOL     OW28661   1.059   0.060   7.562
 3840SOL    HW128662   1.028   0.052   7.472
 3840SOL    HW228663   1.152   0.040   7.557
 3841SOL     OW28664   3.655   0.190   1.276
 3841SOL    HW128665   3.671   0.173   1.369
 3841SOL    HW228666   3.562   0.172   1.264
 3842SOL     OW28667   0.015   3.029   1.523
 3842SOL    HW128668   6.368   3.044   1.518
 3842SOL    HW228669   0.030   2.955   1.464
 3843SOL     OW28670   2.864   5.701   6.457
 3843SOL    HW128671   2.816   5.723   6.536
 3843SOL    HW228672   2.796   5.683   6.392
 3844SOL     OW28673   1.873   4.349   0.264
 3844SOL    HW128674   1.793   4.304   0.238
 3844SOL    HW228675   1.844   4.434   0.297
 3845SOL     OW28676   5.562   5.378   7.766
 3845SOL    HW128677   5.528   5.466   7.752
 3845SOL    HW228678   5.487   5.329   7.802
 3846SOL     OW28679   5.642   0.495   1.884
 3846SOL    HW128680   5.723   0.513   1.932
 3846SOL    HW228681   5.579   0.468   1.951
 3847SOL     OW28682   6.410   4.277   0.436
 3847SOL    HW128683   6.411   4.231   0.352
 3847SOL    HW228684   0.048   4.261   0.474
 3848SOL     OW28685   4.056   3.397   1.360
 3848SOL    HW128686   3.988   3.463   1.346
 3848SOL    HW228687   4.074   3.400   1.454
 3849SOL     OW28688   5.079   4.515   6.523
 3849SOL    HW128689   5.013   4.464   6.569
 3849SOL    HW228690   5.071   4.490   6.431
 3850SOL     OW28691   0.332   2.135   1.407
 3850SOL    HW128692   0.398   2.204   1.418
 3850SOL    HW228693   0.350   2.073   1.477
 3851SOL     OW28694   4.984   1.918   6.762
 3851SOL    HW128695   5.023   1.943   6.846
 3851SOL    HW228696   4.897   1.957   6.764
 3852SOL     OW28697   4.311   3.035   1.034
 3852SOL    HW128698   4.342   3.088   1.107
 3852SOL    HW228699   4.227   3.000   1.064
 3853SOL     OW28700   2.421   2.061   1.610
 3853SOL    HW128701   2.493   2.080   1.550
 3853SOL    HW228702   2.451   2.095   1.694
 3854SOL     OW28703   2.572   4.281   6.066
 3854SOL    HW128704   2.632   4.213   6.035
 3854SOL    HW228705   2.494   4.270   6.011
 3855SOL     OW28706   2.650   4.479   7.552
 3855SOL    HW128707   2.627   4.568   7.525
 3855SOL    HW228708   2.584   4.423   7.511
 3856SOL     OW28709   4.450   5.306   6.980
 3856SOL    HW128710   4.526   5.248   6.995
 3856SOL    HW228711   4.436   5.349   7.064
 3857SOL     OW28712   6.028   4.261   0.218
 3857SOL    HW128713   6.072   4.328   0.166
 3857SOL    HW228714   6.068   4.268   0.305
 3858SOL     OW28715   4.328   0.417   0.996
 3858SOL    HW128716   4.234   0.400   1.003
 3858SOL    HW228717   4.360   0.352   0.934
 3859SOL     OW28718   1.623   5.591   6.807
 3859SOL    HW128719   1.628   5.522   6.741
 3859SOL    HW228720   1.713   5.600   6.839
 3860SOL     OW28721   2.219   1.122   6.241
 3860SOL    HW128722   2.123   1.120   6.247
 3860SOL    HW228723   2.248   1.130   6.332
 3861SOL     OW28724   3.408   0.296   7.501
 3861SOL    HW128725   3.327   0.342   7.479
 3861SOL    HW228726   3.468   0.318   7.429
 3862SOL     OW28727   5.980   6.388   0.162
 3862SOL    HW128728   5.978   6.356   0.072
 3862SOL    HW228729   5.957   6.311   0.215
 3863SOL     OW28730   0.288   5.907   0.488
 3863SOL    HW128731   0.199   5.875   0.473
 3863SOL    HW228732   0.288   5.936   0.579
 3864SOL     OW28733   1.544   3.405   1.918
 3864SOL    HW128734   1.567   3.363   2.000
 3864SOL    HW228735   1.628   3.429   1.879
 3865SOL     OW28736   4.262   0.443   0.569
 3865SOL    HW128737   4.289   0.476   0.483
 3865SOL    HW228738   4.270   0.519   0.627
 3866SOL     OW28739   0.418   6.092   5.822
 3866SOL    HW128740   0.358   6.162   5.796
 3866SOL    HW228741   0.361   6.024   5.859
 3867SOL     OW28742   1.413   5.769   6.700
 3867SOL    HW128743   1.367   5.691   6.668
 3867SOL    HW228744   1.497   5.735   6.731
 3868SOL     OW28745   2.441   0.153   5.409
 3868SOL    HW128746   2.409   0.064   5.399
 3868SOL    HW228747   2.405   0.200   5.334
 3869SOL     OW28748   4.116   4.012   0.531
 3869SOL    HW128749   4.047   4.001   0.596
 3869SOL    HW228750   4.091   4.090   0.482
 3870SOL     OW28751   6.203   3.316   1.413
 3870SOL    HW128752   6.189   3.221   1.418
 3870SOL    HW228753   6.214   3.343   1.504
 3871SOL     OW28754   2.384   1.738   6.499
 3871SOL    HW128755   2.317   1.779   6.553
 3871SOL    HW228756   2.368   1.771   6.411
 3872SOL     OW28757   4.440   0.631   1.132
 3872SOL    HW128758   4.404   0.563   1.075
 3872SOL    HW228759   4.430   0.712   1.082
 3873SOL     OW28760   2.964   5.921   6.252
 3873SOL    HW128761   2.961   5.841   6.305
 3873SOL    HW228762   2.880   5.922   6.207
 3874SOL     OW28763   0.659   1.219   6.543
 3874SOL    HW128764   0.648   1.313   6.528
 3874SOL    HW228765   0.577   1.191   6.585
 3875SOL     OW28766   5.694   5.937   1.289
 3875SOL    HW128767   5.635   5.894   1.226
 3875SOL    HW228768   5.642   6.009   1.325
 3876SOL     OW28769   6.389   1.879   7.360
 3876SOL    HW128770   6.432   1.803   7.400
 3876SOL    HW228771   6.443   1.954   7.385
 3877SOL     OW28772   6.420   1.931   6.965
 3877SOL    HW128773   6.433   2.011   7.016
 3877SOL    HW228774   6.352   1.883   7.013
 3878SOL     OW28775   6.305   3.675   1.246
 3878SOL    HW128776   6.286   3.620   1.322
 3878SOL    HW228777   6.253   3.754   1.260
 3879SOL     OW28778   0.896   5.576   1.172
 3879SOL    HW128779   0.912   5.567   1.079
 3879SOL    HW228780   0.861   5.491   1.199
 3880SOL     OW28781   3.724   6.142   0.757
 3880SOL    HW128782   3.818   6.159   0.749
 3880SOL    HW228783   3.714   6.050   0.734
 3881SOL     OW28784   5.208   3.311   6.639
 3881SOL    HW128785   5.297   3.328   6.668
 3881SOL    HW228786   5.154   3.367   6.695
 3882SOL     OW28787   2.128   0.818   7.317
 3882SOL    HW128788   2.131   0.909   7.345
 3882SOL    HW228789   2.175   0.816   7.234
 3883SOL     OW28790   0.552   1.234   0.772
 3883SOL    HW128791   0.644   1.220   0.751
 3883SOL    HW228792   0.546   1.326   0.798
 3884SOL     OW28793   0.742   0.710   5.529
 3884SOL    HW128794   0.838   0.705   5.521
 3884SOL    HW228795   0.727   0.722   5.623
 3885SOL     OW28796   1.734   2.954   1.539
 3885SOL    HW128797   1.742   2.865   1.504
 3885SOL    HW228798   1.688   2.943   1.622
 3886SOL     OW28799   5.988   5.514   0.492
 3886SOL    HW128800   5.896   5.506   0.467
 3886SOL    HW228801   5.986   5.518   0.588
 3887SOL     OW28802   0.972   0.719   4.706
 3887SOL    HW128803   1.051   0.769   4.689
 3887SOL    HW228804   0.908   0.784   4.737
 3888SOL     OW28805   6.153   5.027   7.038
 3888SOL    HW128806   6.081   5.023   6.974
 3888SOL    HW228807   6.229   4.994   6.990
 3889SOL     OW28808   4.947   4.208   6.245
 3889SOL    HW128809   4.878   4.143   6.261
 3889SOL    HW228810   5.027   4.155   6.239
 3890SOL     OW28811   3.476   4.146   6.792
 3890SOL    HW128812   3.388   4.168   6.823
 3890SOL    HW228813   3.511   4.228   6.760
 3891SOL     OW28814   4.215   0.517   6.922
 3891SOL    HW128815   4.270   0.466   6.982
 3891SOL    HW228816   4.129   0.475   6.927
 3892SOL     OW28817   0.100   2.952   2.136
 3892SOL    HW128818   0.107   2.859   2.158
 3892SOL    HW228819   0.126   2.999   2.215
 3893SOL     OW28820   0.807   4.280   6.532
 3893SOL    HW128821   0.902   4.267   6.536
 3893SOL    HW228822   0.791   4.360   6.582
 3894SOL     OW28823   1.844   4.208   6.593
 3894SOL    HW128824   1.859   4.147   6.666
 3894SOL    HW228825   1.773   4.169   6.543
 3895SOL     OW28826   5.084   1.764   6.341
 3895SOL    HW128827   5.117   1.782   6.430
 3895SOL    HW228828   5.020   1.834   6.325
 3896SOL     OW28829   4.714   3.081   0.902
 3896SOL    HW128830   4.757   2.998   0.925
 3896SOL    HW228831   4.765   3.116   0.830
 3897SOL     OW28832   6.298   4.005   6.248
 3897SOL    HW128833   6.297   3.984   6.155
 3897SOL    HW228834   6.386   3.980   6.278
 3898SOL     OW28835   0.690   5.011   6.488
 3898SOL    HW128836   0.731   5.055   6.562
 3898SOL    HW228837   0.649   5.081   6.438
 3899SOL     OW28838   2.232   6.154   7.377
 3899SOL    HW128839   2.266   6.065   7.370
 3899SOL    HW228840   2.160   6.158   7.314
 3900SOL     OW28841   6.115   0.229   7.695
 3900SOL    HW128842   6.168   0.150   7.704
 3900SOL    HW228843   6.049   0.221   7.764
 3901SOL     OW28844   1.351   4.907   1.844
 3901SOL    HW128845   1.269   4.956   1.854
 3901SOL    HW228846   1.330   4.819   1.874
 3902SOL     OW28847   5.308   0.565   0.692
 3902SOL    HW128848   5.277   0.511   0.765
 3902SOL    HW228849   5.403   0.561   0.697
 3903SOL     OW28850   1.119   3.441   7.436
 3903SOL    HW128851   1.097   3.508   7.372
 3903SOL    HW228852   1.045   3.380   7.433
 3904SOL     OW28853   2.123   0.414   0.641
 3904SOL    HW128854   2.179   0.491   0.630
 3904SOL    HW228855   2.078   0.404   0.557
 3905SOL     OW28856   5.608   5.016   0.670
 3905SOL    HW128857   5.552   4.942   0.692
 3905SOL    HW228858   5.656   4.987   0.592
 3906SOL     OW28859   3.140   2.758   2.012
 3906SOL    HW128860   3.184   2.831   1.968
 3906SOL    HW228861   3.189   2.680   1.984
 3907SOL     OW28862   0.466   4.214   7.358
 3907SOL    HW128863   0.386   4.246   7.317
 3907SOL    HW228864   0.533   4.220   7.290
 3908SOL     OW28865   4.583   2.516   6.207
 3908SOL    HW128866   4.545   2.500   6.293
 3908SOL    HW228867   4.512   2.501   6.146
 3909SOL     OW28868   0.803   2.048   2.123
 3909SOL    HW128869   0.838   2.035   2.211
 3909SOL    HW228870   0.739   1.978   2.112
 3910SOL     OW28871   3.479   3.963   1.199
 3910SOL    HW128872   3.572   3.972   1.178
 3910SOL    HW228873   3.460   3.869   1.188
 3911SOL     OW28874   4.309   3.692   0.760
 3911SOL    HW128875   4.405   3.699   0.765
 3911SOL    HW228876   4.287   3.622   0.822
 3912SOL     OW28877   1.665   4.714   6.577
 3912SOL    HW128878   1.612   4.735   6.654
 3912SOL    HW228879   1.712   4.634   6.600
 3913SOL     OW28880   1.875   3.583   6.290
 3913SOL    HW128881   1.834   3.636   6.222
 3913SOL    HW228882   1.969   3.601   6.282
 3914SOL     OW28883   1.116   4.857   0.155
 3914SOL    HW128884   1.055   4.790   0.187
 3914SOL    HW228885   1.060   4.923   0.115
 3915SOL     OW28886   3.824   1.018   7.132
 3915SOL    HW128887   3.875   1.048   7.056
 3915SOL    HW228888   3.749   0.973   7.095
 3916SOL     OW28889   2.693   2.341   6.074
 3916SOL    HW128890   2.752   2.314   6.004
 3916SOL    HW228891   2.743   2.326   6.154
 3917SOL     OW28892   0.803   5.320   1.181
 3917SOL    HW128893   0.854   5.250   1.141
 3917SOL    HW228894   0.715   5.285   1.188
 3918SOL     OW28895   3.723   0.387   6.329
 3918SOL    HW128896   3.701   0.453   6.263
 3918SOL    HW228897   3.818   0.376   6.321
 3919SOL     OW28898   0.950   0.811   6.865
 3919SOL    HW128899   0.893   0.830   6.940
 3919SOL    HW228900   1.019   0.877   6.871
 3920SOL     OW28901   4.196   0.651   5.991
 3920SOL    HW128902   4.280   0.691   6.014
 3920SOL    HW228903   4.190   0.575   6.048
 3921SOL     OW28904   5.332   2.606   0.544
 3921SOL    HW128905   5.286   2.656   0.612
 3921SOL    HW228906   5.272   2.535   0.522
 3922SOL     OW28907   5.202   3.432   7.253
 3922SOL    HW128908   5.226   3.485   7.329
 3922SOL    HW228909   5.118   3.393   7.276
 3923SOL     OW28910   0.883   2.871   0.834
 3923SOL    HW128911   0.801   2.863   0.786
 3923SOL    HW228912   0.951   2.867   0.766
 3924SOL     OW28913   5.701   5.838   6.540
 3924SOL    HW128914   5.746   5.873   6.463
 3924SOL    HW228915   5.694   5.913   6.600
 3925SOL     OW28916   3.377   0.973   7.546
 3925SOL    HW128917   3.464   1.008   7.525
 3925SOL    HW228918   3.394   0.884   7.575
 3926SOL     OW28919   5.350   3.070   6.307
 3926SOL    HW128920   5.430   3.043   6.353
 3926SOL    HW228921   5.352   3.020   6.226
 3927SOL     OW28922   5.558   5.441   6.050
 3927SOL    HW128923   5.540   5.351   6.076
 3927SOL    HW228924   5.504   5.455   5.973
 3928SOL     OW28925   3.637   5.155   7.798
 3928SOL    HW128926   3.623   5.172   7.705
 3928SOL    HW228927   3.730   5.136   0.003
 3929SOL     OW28928   4.647   1.644   7.263
 3929SOL    HW128929   4.590   1.569   7.280
 3929SOL    HW228930   4.630   1.703   7.337
 3930SOL     OW28931   0.762   4.490   6.999
 3930SOL    HW128932   0.692   4.526   6.944
 3930SOL    HW228933   0.733   4.504   7.088
 3931SOL     OW28934   0.200   6.443   7.330
 3931SOL    HW128935   0.153   0.055   7.272
 3931SOL    HW228936   0.145   6.436   7.407
 3932SOL     OW28937   1.739   1.593   0.641
 3932SOL    HW128938   1.825   1.563   0.670
 3932SOL    HW228939   1.751   1.615   0.549
 3933SOL     OW28940   1.514   2.588   1.582
 3933SOL    HW128941   1.475   2.666   1.623
 3933SOL    HW228942   1.529   2.528   1.654
 3934SOL     OW28943   0.605   6.359   0.974
 3934SOL    HW128944   0.511   6.365   0.990
 3934SOL    HW228945   0.613   6.290   0.908
 3935SOL     OW28946   1.913   4.032   6.797
 3935SOL    HW128947   1.941   3.952   6.752
 3935SOL    HW228948   1.855   4.001   6.866
 3936SOL     OW28949   1.509   4.907   5.940
 3936SOL    HW128950   1.586   4.949   5.902
 3936SOL    HW228951   1.508   4.819   5.902
 3937SOL     OW28952   3.262   2.184   1.015
 3937SOL    HW128953   3.283   2.181   1.108
 3937SOL    HW228954   3.317   2.254   0.980
 3938SOL     OW28955   4.322   0.780   7.310
 3938SOL    HW128956   4.280   0.758   7.227
 3938SOL    HW228957   4.383   0.708   7.326
 3939SOL     OW28958   4.297   3.906   2.350
 3939SOL    HW128959   4.343   3.945   2.276
 3939SOL    HW228960   4.252   3.830   2.313
 3940SOL     OW28961   3.083   5.781   6.619
 3940SOL    HW128962   3.072   5.713   6.684
 3940SOL    HW228963   3.012   5.765   6.556
 3941SOL     OW28964   5.785   5.552   2.212
 3941SOL    HW128965   5.772   5.507   2.296
 3941SOL    HW228966   5.724   5.509   2.153
 3942SOL     OW28967   1.765   5.727   0.194
 3942SOL    HW128968   1.817   5.659   0.237
 3942SOL    HW228969   1.675   5.695   0.198
 3943SOL     OW28970   3.901   5.196   5.417
 3943SOL    HW128971   3.989   5.234   5.427
 3943SOL    HW228972   3.885   5.152   5.500
 3944SOL     OW28973   3.547   2.057   0.771
 3944SOL    HW128974   3.474   2.115   0.747
 3944SOL    HW228975   3.508   1.993   0.830
 3945SOL     OW28976   1.719   3.147   7.632
 3945SOL    HW128977   1.627   3.127   7.649
 3945SOL    HW228978   1.719   3.237   7.600
 3946SOL     OW28979   0.332   3.083   6.618
 3946SOL    HW128980   0.285   3.107   6.538
 3946SOL    HW228981   0.413   3.134   6.614
 3947SOL     OW28982   3.685   1.507   6.886
 3947SOL    HW128983   3.613   1.497   6.949
 3947SOL    HW228984   3.754   1.552   6.935
 3948SOL     OW28985   5.269   0.993   6.457
 3948SOL    HW128986   5.307   0.937   6.389
 3948SOL    HW228987   5.279   1.082   6.423
 3949SOL     OW28988   3.068   6.111   7.177
 3949SOL    HW128989   3.091   6.063   7.097
 3949SOL    HW228990   3.088   6.050   7.248
 3950SOL     OW28991   2.400   0.177   7.371
 3950SOL    HW128992   2.339   0.250   7.385
 3950SOL    HW228993   2.348   0.099   7.390
 3951SOL     OW28994   1.384   3.995   0.901
 3951SOL    HW128995   1.299   3.954   0.916
 3951SOL    HW228996   1.414   4.021   0.988
 3952SOL     OW28997   0.992   0.771   6.585
 3952SOL    HW128998   0.957   0.781   6.674
 3952SOL    HW228999   1.087   0.780   6.596
 3953SOL     OW29000   1.757   3.445   1.429
 3953SOL    HW129001   1.749   3.515   1.494
 3953SOL    HW229002   1.792   3.371   1.478
 3954SOL     OW29003   2.887   0.527   7.173
 3954SOL    HW129004   2.822   0.592   7.147
 3954SOL    HW229005   2.927   0.564   7.252
 3955SOL     OW29006   2.334   6.094   6.495
 3955SOL    HW129007   2.318   6.151   6.420
 3955SOL    HW229008   2.247   6.062   6.520
 3956SOL     OW29009   2.274   0.395   0.080
 3956SOL    HW129010   2.268   0.467   0.144
 3956SOL    HW229011   2.344   0.340   0.113
 3957SOL     OW29012   2.519   3.545   5.475
 3957SOL    HW129013   2.548   3.505   5.393
 3957SOL    HW229014   2.560   3.492   5.543
 3958SOL     OW29015   2.286   2.745   1.430
 3958SOL    HW129016   2.377   2.739   1.461
 3958SOL    HW229017   2.238   2.686   1.488
 3959SOL     OW29018   0.716   6.284   0.004
 3959SOL    HW129019   0.768   6.205   7.792
 3959SOL    HW229020   0.776   6.343   0.049
 3960SOL     OW29021   5.222   3.914   1.770
 3960SOL    HW129022   5.133   3.878   1.764
 3960SOL    HW229023   5.231   3.941   1.861
 3961SOL     OW29024   4.958   3.736   7.383
 3961SOL    HW129025   5.033   3.794   7.381
 3961SOL    HW229026   4.914   3.755   7.466
 3962SOL     OW29027   1.771   0.664   6.802
 3962SOL    HW129028   1.678   0.652   6.821
 3962SOL    HW229029   1.772   0.713   6.720
 3963SOL     OW29030   1.484   0.562   0.157
 3963SOL    HW129031   1.517   0.512   0.231
 3963SOL    HW229032   1.393   0.535   0.148
 3964SOL     OW29033   4.916   5.010   5.807
 3964SOL    HW129034   4.878   4.940   5.861
 3964SOL    HW229035   4.852   5.081   5.812
 3965SOL     OW29036   4.961   3.608   0.258
 3965SOL    HW129037   4.988   3.605   0.350
 3965SOL    HW229038   5.024   3.553   0.212
 3966SOL     OW29039   0.935   1.425   1.209
 3966SOL    HW129040   0.972   1.437   1.122
 3966SOL    HW229041   0.916   1.331   1.214
 3967SOL     OW29042   5.428   4.985   0.293
 3967SOL    HW129043   5.518   5.019   0.288
 3967SOL    HW229044   5.434   4.910   0.352
 3968SOL     OW29045   5.523   1.943   0.338
 3968SOL    HW129046   5.508   2.015   0.399
 3968SOL    HW229047   5.611   1.958   0.304
 3969SOL     OW29048   1.050   1.452   0.956
 3969SOL    HW129049   1.102   1.474   0.879
 3969SOL    HW229050   1.043   1.357   0.955
 3970SOL     OW29051   0.153   3.203   0.413
 3970SOL    HW129052   0.236   3.160   0.435
 3970SOL    HW229053   0.169   3.296   0.429
 3971SOL     OW29054   2.545   0.778   6.048
 3971SOL    HW129055   2.496   0.829   6.113
 3971SOL    HW229056   2.632   0.817   6.047
 3972SOL     OW29057   0.797   3.671   1.111
 3972SOL    HW129058   0.790   3.594   1.167
 3972SOL    HW229059   0.710   3.680   1.072
 3973SOL     OW29060   4.793   1.691   1.255
 3973SOL    HW129061   4.787   1.653   1.343
 3973SOL    HW229062   4.712   1.740   1.245
 3974SOL     OW29063   0.453   2.734   1.791
 3974SOL    HW129064   0.380   2.785   1.757
 3974SOL    HW229065   0.523   2.799   1.804
 3975SOL     OW29066   4.561   5.020   7.260
 3975SOL    HW129067   4.584   5.048   7.349
 3975SOL    HW229068   4.602   5.086   7.204
 3976SOL     OW29069   4.731   4.021   7.637
 3976SOL    HW129070   4.760   3.932   7.622
 3976SOL    HW229071   4.765   4.043   7.724
 3977SOL     OW29072   5.130   5.935   7.679
 3977SOL    HW129073   5.035   5.945   7.678
 3977SOL    HW229074   5.158   5.981   7.759
 3978SOL     OW29075   3.772   2.513   1.211
 3978SOL    HW129076   3.775   2.499   1.116
 3978SOL    HW229077   3.861   2.496   1.240
 3979SOL     OW29078   3.705   2.483   6.303
 3979SOL    HW129079   3.655   2.532   6.367
 3979SOL    HW229080   3.731   2.403   6.348
 3980SOL     OW29081   0.114   1.445   7.629
 3980SOL    HW129082   0.034   1.416   7.673
 3980SOL    HW229083   0.125   1.384   7.557
 3981SOL     OW29084   6.341   5.460   0.278
 3981SOL    HW129085   6.373   5.535   0.228
 3981SOL    HW229086   6.420   5.418   0.312
 3982SOL     OW29087   4.796   1.011   1.863
 3982SOL    HW129088   4.855   1.072   1.817
 3982SOL    HW229089   4.709   1.051   1.855
 3983SOL     OW29090   4.294   5.131   7.658
 3983SOL    HW129091   4.247   5.127   7.575
 3983SOL    HW229092   4.351   5.054   7.658
 3984SOL     OW29093   5.873   1.850   6.110
 3984SOL    HW129094   5.905   1.889   6.029
 3984SOL    HW229095   5.788   1.812   6.087
 3985SOL     OW29096   4.412   0.041   7.123
 3985SOL    HW129097   4.423   0.117   7.179
 3985SOL    HW229098   4.493   0.037   7.072
 3986SOL     OW29099   4.225   3.125   6.383
 3986SOL    HW129100   4.164   3.187   6.424
 3986SOL    HW229101   4.203   3.041   6.423
 3987SOL     OW29102   1.909   5.628   5.925
 3987SOL    HW129103   1.857   5.706   5.944
 3987SOL    HW229104   1.916   5.627   5.829
 3988SOL     OW29105   0.167   3.544   5.559
 3988SOL    HW129106   0.249   3.530   5.513
 3988SOL    HW229107   0.104   3.489   5.514
 3989SOL     OW29108   4.644   5.645   6.541
 3989SOL    HW129109   4.666   5.628   6.633
 3989SOL    HW229110   4.686   5.574   6.493
 3990SOL     OW29111   1.935   5.098   1.028
 3990SOL    HW129112   1.905   5.058   1.109
 3990SOL    HW229113   1.867   5.161   1.005
 3991SOL     OW29114   1.890   3.272   0.315
 3991SOL    HW129115   1.977   3.242   0.288
 3991SOL    HW229116   1.889   3.260   0.410
 3992SOL     OW29117   0.600   1.808   5.859
 3992SOL    HW129118   0.519   1.806   5.807
 3992SOL    HW229119   0.666   1.769   5.802
 3993SOL     OW29120   2.959   4.870   1.522
 3993SOL    HW129121   2.864   4.866   1.531
 3993SOL    HW229122   2.983   4.784   1.489
 3994SOL     OW29123   2.113   3.731   1.788
 3994SOL    HW129124   2.065   3.760   1.710
 3994SOL    HW229125   2.045   3.701   1.848
 3995SOL     OW29126   0.623   2.315   6.438
 3995SOL    HW129127   0.703   2.263   6.428
 3995SOL    HW229128   0.640   2.373   6.512
 3996SOL     OW29129   5.888   5.524   6.403
 3996SOL    HW129130   5.854   5.538   6.492
 3996SOL    HW229131   5.930   5.607   6.381
 3997SOL     OW29132   0.928   5.510   1.768
 3997SOL    HW129133   0.865   5.581   1.776
 3997SOL    HW229134   0.995   5.529   1.833
 3998SOL     OW29135   3.965   0.963   1.453
 3998SOL    HW129136   4.054   0.927   1.453
 3998SOL    HW229137   3.933   0.947   1.542
 3999SOL     OW29138   5.585   0.215   6.286
 3999SOL    HW129139   5.608   0.304   6.260
 3999SOL    HW229140   5.502   0.197   6.242
 4000SOL     OW29141   3.741   1.767   0.402
 4000SOL    HW129142   3.698   1.755   0.318
 4000SOL    HW229143   3.704   1.847   0.437
 4001SOL     OW29144   2.346   5.548   7.550
 4001SOL    HW129145   2.297   5.593   7.619
 4001SOL    HW229146   2.417   5.609   7.527
 4002SOL     OW29147   2.693   4.910   1.563
 4002SOL    HW129148   2.678   4.971   1.635
 4002SOL    HW229149   2.637   4.943   1.492
 4003SOL     OW29150   6.039   5.012   1.042
 4003SOL    HW129151   6.065   4.920   1.029
 4003SOL    HW229152   5.984   5.010   1.120
 4004SOL     OW29153   1.942   4.821   0.304
 4004SOL    HW129154   1.985   4.851   0.384
 4004SOL    HW229155   2.014   4.808   0.242
 4005SOL     OW29156   0.830   1.436   1.646
 4005SOL    HW129157   0.915   1.476   1.626
 4005SOL    HW229158   0.831   1.423   1.741
 4006SOL     OW29159   2.427   1.920   1.979
 4006SOL    HW129160   2.373   1.841   1.980
 4006SOL    HW229161   2.415   1.957   2.067
 4007SOL     OW29162   1.762   5.265   0.340
 4007SOL    HW129163   1.769   5.180   0.296
 4007SOL    HW229164   1.675   5.297   0.318
 4008SOL     OW29165   2.071   5.558   6.349
 4008SOL    HW129166   2.091   5.569   6.256
 4008SOL    HW229167   2.069   5.648   6.384
 4009SOL     OW29168   0.774   4.215   7.632
 4009SOL    HW129169   0.770   4.142   7.570
 4009SOL    HW229170   0.836   4.186   7.699
 4010SOL     OW29171   5.334   0.750   7.538
 4010SOL    HW129172   5.407   0.769   7.479
 4010SOL    HW229173   5.264   0.720   7.481
 4011SOL     OW29174   0.313   2.082   5.509
 4011SOL    HW129175   0.263   2.064   5.589
 4011SOL    HW229176   0.264   2.152   5.465
 4012SOL     OW29177   2.113   2.974   2.265
 4012SOL    HW129178   2.124   3.065   2.237
 4012SOL    HW229179   2.090   2.926   2.186
 4013SOL     OW29180   6.239   6.161   0.017
 4013SOL    HW129181   6.275   6.173   0.104
 4013SOL    HW229182   6.194   6.076   0.020
 4014SOL     OW29183   2.027   0.703   6.908
 4014SOL    HW129184   1.939   0.675   6.882
 4014SOL    HW229185   2.028   0.797   6.892
 4015SOL     OW29186   2.528   4.444   1.185
 4015SOL    HW129187   2.437   4.416   1.197
 4015SOL    HW229188   2.566   4.378   1.127
 4016SOL     OW29189   4.478   1.450   7.374
 4016SOL    HW129190   4.405   1.390   7.387
 4016SOL    HW229191   4.441   1.537   7.391
 4017SOL     OW29192   2.983   4.258   0.888
 4017SOL    HW129193   2.904   4.301   0.923
 4017SOL    HW229194   2.965   4.164   0.896
 4018SOL     OW29195   5.206   1.034   7.136
 4018SOL    HW129196   5.178   1.092   7.207
 4018SOL    HW229197   5.278   1.080   7.094
 4019SOL     OW29198   5.157   1.252   7.320
 4019SOL    HW129199   5.087   1.253   7.385
 4019SOL    HW229200   5.232   1.292   7.364
 4020SOL     OW29201   5.055   3.587   0.517
 4020SOL    HW129202   5.041   3.663   0.574
 4020SOL    HW229203   5.148   3.568   0.526
 4021SOL     OW29204   3.550   0.423   7.024
 4021SOL    HW129205   3.563   0.343   6.975
 4021SOL    HW229206   3.584   0.492   6.967
 4022SOL     OW29207   4.126   6.432   1.184
 4022SOL    HW129208   4.092   6.377   1.254
 4022SOL    HW229209   4.214   0.007   1.213
 4023SOL     OW29210   3.212   0.929   5.861
 4023SOL    HW129211   3.170   1.012   5.840
 4023SOL    HW229212   3.180   0.869   5.793
 4024SOL     OW29213   3.386   5.065   6.588
 4024SOL    HW129214   3.333   5.002   6.541
 4024SOL    HW229215   3.367   5.049   6.681
 4025SOL     OW29216   3.197   3.740   5.871
 4025SOL    HW129217   3.161   3.699   5.792
 4025SOL    HW229218   3.124   3.744   5.932
 4026SOL     OW29219   4.763   2.591   1.415
 4026SOL    HW129220   4.700   2.592   1.487
 4026SOL    HW229221   4.825   2.523   1.439
 4027SOL     OW29222   2.307   1.984   6.014
 4027SOL    HW129223   2.347   1.922   5.953
 4027SOL    HW229224   2.363   2.062   6.010
 4028SOL     OW29225   0.816   5.155   6.686
 4028SOL    HW129226   0.842   5.140   6.777
 4028SOL    HW229227   0.899   5.162   6.638
 4029SOL     OW29228   2.036   2.858   2.034
 4029SOL    HW129229   2.025   2.764   2.044
 4029SOL    HW229230   1.952   2.889   2.001
 4030SOL     OW29231   4.220   5.982   6.538
 4030SOL    HW129232   4.305   5.939   6.525
 4030SOL    HW229233   4.221   6.010   6.630
 4031SOL     OW29234   2.637   1.436   0.706
 4031SOL    HW129235   2.712   1.376   0.704
 4031SOL    HW229236   2.568   1.390   0.658
 4032SOL     OW29237   5.259   3.795   7.176
 4032SOL    HW129238   5.327   3.855   7.143
 4032SOL    HW229239   5.226   3.837   7.255
 4033SOL     OW29240   4.999   0.947   6.481
 4033SOL    HW129241   4.973   1.027   6.434
 4033SOL    HW229242   5.094   0.953   6.488
 4034SOL     OW29243   1.124   4.281   5.393
 4034SOL    HW129244   1.054   4.342   5.418
 4034SOL    HW229245   1.188   4.335   5.348
 4035SOL     OW29246   0.983   4.123   6.892
 4035SOL    HW129247   1.016   4.043   6.933
 4035SOL    HW229248   1.056   4.184   6.895
 4036SOL     OW29249   3.420   0.997   5.585
 4036SOL    HW129250   3.505   0.963   5.557
 4036SOL    HW229251   3.360   0.923   5.576
 4037SOL     OW29252   2.118   1.421   1.222
 4037SOL    HW129253   2.105   1.417   1.317
 4037SOL    HW229254   2.207   1.389   1.209
 4038SOL     OW29255   2.284   0.576   4.846
 4038SOL    HW129256   2.340   0.543   4.916
 4038SOL    HW229257   2.206   0.522   4.851
 4039SOL     OW29258   2.955   0.310   6.759
 4039SOL    HW129259   2.933   0.237   6.817
 4039SOL    HW229260   2.998   0.374   6.816
 4040SOL     OW29261   2.515   6.079   2.088
 4040SOL    HW129262   2.593   6.075   2.143
 4040SOL    HW229263   2.442   6.072   2.149
 4041SOL     OW29264   3.420   4.037   0.797
 4041SOL    HW129265   3.336   3.993   0.811
 4041SOL    HW229266   3.482   3.986   0.849
 4042SOL     OW29267   3.514   5.895   7.634
 4042SOL    HW129268   3.425   5.880   7.602
 4042SOL    HW229269   3.507   5.972   7.690
 4043SOL     OW29270   1.977   5.588   0.936
 4043SOL    HW129271   1.955   5.535   0.860
 4043SOL    HW229272   2.058   5.550   0.970
 4044SOL     OW29273   1.852   2.922   7.715
 4044SOL    HW129274   1.808   2.924   7.801
 4044SOL    HW229275   1.816   2.998   7.669
 4045SOL     OW29276   5.221   5.993   6.995
 4045SOL    HW129277   5.173   6.003   6.913
 4045SOL    HW229278   5.292   6.057   6.988
 4046SOL     OW29279   5.149   5.471   1.218
 4046SOL    HW129280   5.121   5.420   1.142
 4046SOL    HW229281   5.181   5.553   1.181
 4047SOL     OW29282   1.604   4.448   6.092
 4047SOL    HW129283   1.550   4.459   6.014
 4047SOL    HW229284   1.609   4.536   6.131
 4048SOL     OW29285   4.401   1.258   1.158
 4048SOL    HW129286   4.357   1.202   1.094
 4048SOL    HW229287   4.427   1.335   1.107
 4049SOL     OW29288   4.577   0.636   6.868
 4049SOL    HW129289   4.605   0.569   6.930
 4049SOL    HW229290   4.548   0.709   6.922
 4050SOL     OW29291   1.159   1.753   6.697
 4050SOL    HW129292   1.157   1.735   6.791
 4050SOL    HW229293   1.086   1.814   6.683
 4051SOL     OW29294   2.943   1.361   5.887
 4051SOL    HW129295   2.863   1.322   5.853
 4051SOL    HW229296   2.927   1.373   5.980
 4052SOL     OW29297   2.240   3.274   7.262
 4052SOL    HW129298   2.283   3.346   7.308
 4052SOL    HW229299   2.306   3.240   7.202
 4053SOL     OW29300   1.345   3.344   1.047
 4053SOL    HW129301   1.366   3.437   1.043
 4053SOL    HW229302   1.425   3.302   1.078
 4054SOL     OW29303   1.462   5.310   0.627
 4054SOL    HW129304   1.528   5.240   0.635
 4054SOL    HW229305   1.389   5.280   0.681
 4055SOL     OW29306   3.246   1.248   0.537
 4055SOL    HW129307   3.333   1.209   0.544
 4055SOL    HW229308   3.261   1.342   0.540
 4056SOL     OW29309   1.007   0.096   0.781
 4056SOL    HW129310   1.018   0.005   0.753
 4056SOL    HW229311   0.945   0.091   0.854
 4057SOL     OW29312   5.576   3.103   6.027
 4057SOL    HW129313   5.562   3.182   5.975
 4057SOL    HW229314   5.670   3.087   6.021
 4058SOL     OW29315   6.000   5.518   6.756
 4058SOL    HW129316   6.001   5.423   6.746
 4058SOL    HW229317   5.915   5.545   6.721
 4059SOL     OW29318   4.820   4.929   6.184
 4059SOL    HW129319   4.802   4.851   6.235
 4059SOL    HW229320   4.827   4.897   6.094
 4060SOL     OW29321   0.917   4.848   7.300
 4060SOL    HW129322   0.829   4.811   7.300
 4060SOL    HW229323   0.962   4.805   7.228
 4061SOL     OW29324   5.709   0.663   0.182
 4061SOL    HW129325   5.764   0.692   0.109
 4061SOL    HW229326   5.750   0.582   0.213
 4062SOL     OW29327   3.317   5.292   1.613
 4062SOL    HW129328   3.412   5.301   1.607
 4062SOL    HW229329   3.303   5.209   1.658
 4063SOL     OW29330   4.045   4.611   6.471
 4063SOL    HW129331   3.994   4.638   6.548
 4063SOL    HW229332   4.004   4.658   6.398
 4064SOL     OW29333   0.335   3.225   0.733
 4064SOL    HW129334   0.386   3.302   0.756
 4064SOL    HW229335   0.364   3.202   0.645
 4065SOL     OW29336   0.486   5.176   0.881
 4065SOL    HW129337   0.517   5.257   0.840
 4065SOL    HW229338   0.427   5.206   0.951
 4066SOL     OW29339   3.807   4.215   1.590
 4066SOL    HW129340   3.837   4.302   1.561
 4066SOL    HW229341   3.728   4.199   1.540
 4067SOL     OW29342   1.556   4.624   1.237
 4067SOL    HW129343   1.592   4.604   1.323
 4067SOL    HW229344   1.529   4.716   1.244
 4068SOL     OW29345   6.163   1.314   0.214
 4068SOL    HW129346   6.107   1.382   0.250
 4068SOL    HW229347   6.249   1.354   0.209
 4069SOL     OW29348   0.446   0.287   0.878
 4069SOL    HW129349   0.406   0.342   0.810
 4069SOL    HW229350   0.539   0.287   0.857
 4070SOL     OW29351   3.194   1.954   7.690
 4070SOL    HW129352   3.252   1.995   7.755
 4070SOL    HW229353   3.121   1.920   7.742
 4071SOL     OW29354   2.117   1.665   7.533
 4071SOL    HW129355   2.029   1.683   7.500
 4071SOL    HW229356   2.138   1.578   7.499
 4072SOL     OW29357   3.507   5.602   5.709
 4072SOL    HW129358   3.539   5.602   5.619
 4072SOL    HW229359   3.548   5.679   5.749
 4073SOL     OW29360   1.351   3.916   1.331
 4073SOL    HW129361   1.294   3.857   1.282
 4073SOL    HW229362   1.408   3.955   1.265
 4074SOL     OW29363   2.574   0.935   6.458
 4074SOL    HW129364   2.574   0.857   6.515
 4074SOL    HW229365   2.667   0.956   6.447
 4075SOL     OW29366   0.165   3.668   6.975
 4075SOL    HW129367   0.122   3.675   6.889
 4075SOL    HW229368   0.258   3.656   6.955
 4076SOL     OW29369   3.586   3.524   1.304
 4076SOL    HW129370   3.554   3.554   1.389
 4076SOL    HW229371   3.566   3.430   1.302
 4077SOL     OW29372   6.093   0.855   5.752
 4077SOL    HW129373   6.102   0.852   5.657
 4077SOL    HW229374   6.035   0.782   5.773
 4078SOL     OW29375   0.179   5.517   1.973
 4078SOL    HW129376   0.144   5.565   1.898
 4078SOL    HW229377   0.196   5.585   2.038
 4079SOL     OW29378   1.381   0.581   6.600
 4079SOL    HW129379   1.467   0.553   6.568
 4079SOL    HW229380   1.320   0.520   6.560
 4080SOL     OW29381   6.324   4.833   6.423
 4080SOL    HW129382   6.246   4.845   6.370
 4080SOL    HW229383   6.397   4.857   6.365
 4081SOL     OW29384   5.726   2.430   6.724
 4081SOL    HW129385   5.747   2.470   6.639
 4081SOL    HW229386   5.641   2.467   6.748
 4082SOL     OW29387   6.368   3.733   0.033
 4082SOL    HW129388   6.333   3.813   0.070
 4082SOL    HW229389   6.376   3.673   0.107
 4083SOL     OW29390   0.330   4.328   6.516
 4083SOL    HW129391   0.399   4.392   6.498
 4083SOL    HW229392   0.256   4.358   6.464
 4084SOL     OW29393   5.886   5.733   7.557
 4084SOL    HW129394   5.862   5.699   7.643
 4084SOL    HW229395   5.806   5.775   7.524
 4085SOL     OW29396   6.266   2.545   0.997
 4085SOL    HW129397   6.207   2.596   1.053
 4085SOL    HW229398   6.338   2.519   1.054
 4086SOL     OW29399   3.846   6.430   7.403
 4086SOL    HW129400   3.878   6.359   7.347
 4086SOL    HW229401   3.763   0.009   7.364
 4087SOL     OW29402   5.553   3.665   6.011
 4087SOL    HW129403   5.474   3.691   5.964
 4087SOL    HW229404   5.528   3.585   6.057
 4088SOL     OW29405   4.067   4.281   7.600
 4088SOL    HW129406   4.144   4.245   7.556
 4088SOL    HW229407   3.993   4.232   7.565
 4089SOL     OW29408   3.735   2.954   5.618
 4089SOL    HW129409   3.737   2.870   5.664
 4089SOL    HW229410   3.645   2.985   5.629
 4090SOL     OW29411   6.285   2.644   6.402
 4090SOL    HW129412   6.343   2.675   6.332
 4090SOL    HW229413   6.306   2.699   6.477
 4091SOL     OW29414   5.725   4.689   2.064
 4091SOL    HW129415   5.676   4.608   2.055
 4091SOL    HW229416   5.685   4.749   2.001
 4092SOL     OW29417   4.377   2.534   7.261
 4092SOL    HW129418   4.351   2.456   7.211
 4092SOL    HW229419   4.464   2.513   7.294
 4093SOL     OW29420   3.590   4.383   6.704
 4093SOL    HW129421   3.618   4.357   6.616
 4093SOL    HW229422   3.595   4.479   6.703
 4094SOL     OW29423   3.649   6.437   0.037
 4094SOL    HW129424   3.658   6.354   0.083
 4094SOL    HW229425   3.724   6.441   7.781
 4095SOL     OW29426   5.179   3.275   7.543
 4095SOL    HW129427   5.111   3.289   7.477
 4095SOL    HW229428   5.136   3.225   7.612
 4096SOL     OW29429   5.786   2.451   7.473
 4096SOL    HW129430   5.873   2.414   7.488
 4096SOL    HW229431   5.736   2.378   7.436
 4097SOL     OW29432   4.064   0.306   2.122
 4097SOL    HW129433   3.994   0.241   2.128
 4097SOL    HW229434   4.048   0.364   2.197
 4098SOL     OW29435   4.907   4.047   2.193
 4098SOL    HW129436   4.966   4.031   2.266
 4098SOL    HW229437   4.955   4.108   2.136
 4099SOL     OW29438   2.978   3.001   7.419
 4099SOL    HW129439   2.916   3.031   7.485
 4099SOL    HW229440   2.964   3.060   7.345
 4100SOL     OW29441   4.837   3.980   1.622
 4100SOL    HW129442   4.892   3.918   1.671
 4100SOL    HW229443   4.748   3.964   1.654
 4101SOL     OW29444   5.161   6.101   0.551
 4101SOL    HW129445   5.113   6.151   0.485
 4101SOL    HW229446   5.170   6.014   0.512
 4102SOL     OW29447   4.944   0.226   7.397
 4102SOL    HW129448   4.934   0.307   7.346
 4102SOL    HW229449   5.016   0.244   7.458
 4103SOL     OW29450   0.970   3.831   2.045
 4103SOL    HW129451   0.965   3.916   2.001
 4103SOL    HW229452   1.030   3.780   1.991
 4104SOL     OW29453   6.072   5.922   7.495
 4104SOL    HW129454   6.114   5.901   7.412
 4104SOL    HW229455   6.007   5.853   7.507
 4105SOL     OW29456   4.459   5.852   6.508
 4105SOL    HW129457   4.516   5.776   6.520
 4105SOL    HW229458   4.490   5.893   6.427
 4106SOL     OW29459   5.566   2.439   2.029
 4106SOL    HW129460   5.568   2.521   2.079
 4106SOL    HW229461   5.483   2.398   2.053
 4107SOL     OW29462   5.593   2.998   6.409
 4107SOL    HW129463   5.611   3.063   6.477
 4107SOL    HW229464   5.622   2.915   6.447
 4108SOL     OW29465   5.846   0.311   1.394
 4108SOL    HW129466   5.859   0.405   1.409
 4108SOL    HW229467   5.864   0.271   1.479
 4109SOL     OW29468   4.059   1.243   1.193
 4109SOL    HW129469   4.129   1.187   1.227
 4109SOL    HW229470   3.990   1.238   1.259
 4110SOL     OW29471   0.960   3.061   6.078
 4110SOL    HW129472   0.995   3.137   6.032
 4110SOL    HW229473   0.907   3.016   6.012
 4111SOL     OW29474   3.838   4.852   0.774
 4111SOL    HW129475   3.760   4.807   0.739
 4111SOL    HW229476   3.834   4.835   0.868
 4112SOL     OW29477   0.013   5.049   2.406
 4112SOL    HW129478   0.093   5.014   2.366
 4112SOL    HW229479   6.390   4.999   2.366
 4113SOL     OW29480   5.015   4.731   1.080
 4113SOL    HW129481   5.110   4.721   1.076
 4113SOL    HW229482   4.987   4.728   0.988
 4114SOL     OW29483   3.184   0.732   1.028
 4114SOL    HW129484   3.161   0.781   1.107
 4114SOL    HW229485   3.115   0.666   1.020
 4115SOL     OW29486   0.980   5.092   7.603
 4115SOL    HW129487   0.995   5.001   7.582
 4115SOL    HW229488   0.971   5.094   7.699
 4116SOL     OW29489   0.073   2.879   0.671
 4116SOL    HW129490   6.446   2.919   0.627
 4116SOL    HW229491   0.039   2.798   0.708
 4117SOL     OW29492   5.163   3.748   2.412
 4117SOL    HW129493   5.135   3.657   2.416
 4117SOL    HW229494   5.134   3.779   2.326
 4118SOL     OW29495   0.316   0.379   7.505
 4118SOL    HW129496   0.356   0.293   7.497
 4118SOL    HW229497   0.239   0.365   7.560
 4119SOL     OW29498   0.452   1.934   6.477
 4119SOL    HW129499   0.366   1.894   6.481
 4119SOL    HW229500   0.435   2.028   6.482
 4120SOL     OW29501   3.689   4.821   0.451
 4120SOL    HW129502   3.784   4.808   0.449
 4120SOL    HW229503   3.662   4.791   0.538
 4121SOL     OW29504   3.689   6.171   0.112
 4121SOL    HW129505   3.694   6.124   0.195
 4121SOL    HW229506   3.773   6.154   0.069
 4122SOL     OW29507   1.398   2.909   6.028
 4122SOL    HW129508   1.340   2.981   6.000
 4122SOL    HW229509   1.441   2.882   5.947
 4123SOL     OW29510   4.878   1.365   0.067
 4123SOL    HW129511   4.786   1.380   0.048
 4123SOL    HW229512   4.920   1.449   0.050
 4124SOL     OW29513   1.894   2.314   5.566
 4124SOL    HW129514   1.905   2.221   5.588
 4124SOL    HW229515   1.823   2.344   5.623
 4125SOL     OW29516   1.016   5.637   6.714
 4125SOL    HW129517   1.057   5.691   6.647
 4125SOL    HW229518   1.014   5.549   6.675
 4126SOL     OW29519   4.978   4.038   0.439
 4126SOL    HW129520   4.977   4.080   0.525
 4126SOL    HW229521   4.909   3.972   0.444
 4127SOL     OW29522   4.645   0.997   1.356
 4127SOL    HW129523   4.637   1.035   1.269
 4127SOL    HW229524   4.636   0.902   1.342
 4128SOL     OW29525   5.392   2.176   7.497
 4128SOL    HW129526   5.478   2.204   7.463
 4128SOL    HW229527   5.343   2.258   7.506
 4129SOL     OW29528   4.893   4.767   0.330
 4129SOL    HW129529   4.928   4.702   0.269
 4129SOL    HW229530   4.874   4.844   0.275
 4130SOL     OW29531   1.644   2.980   1.274
 4130SOL    HW129532   1.680   2.897   1.243
 4130SOL    HW229533   1.672   2.984   1.366
 4131SOL     OW29534   0.298   5.706   5.708
 4131SOL    HW129535   0.206   5.715   5.682
 4131SOL    HW229536   0.319   5.614   5.689
 4132SOL     OW29537   5.529   5.428   0.903
 4132SOL    HW129538   5.535   5.336   0.928
 4132SOL    HW229539   5.584   5.436   0.825
 4133SOL     OW29540   2.379   1.322   1.235
 4133SOL    HW129541   2.423   1.323   1.320
 4133SOL    HW229542   2.446   1.353   1.173
 4134SOL     OW29543   5.492   6.342   7.140
 4134SOL    HW129544   5.484   6.281   7.066
 4134SOL    HW229545   5.565   6.308   7.192
 4135SOL     OW29546   0.955   0.358   1.250
 4135SOL    HW129547   0.930   0.326   1.337
 4135SOL    HW229548   0.994   0.282   1.207
 4136SOL     OW29549   3.678   1.547   6.617
 4136SOL    HW129550   3.669   1.536   6.712
 4136SOL    HW229551   3.764   1.511   6.597
 4137SOL     OW29552   6.262   1.497   7.447
 4137SOL    HW129553   6.182   1.549   7.454
 4137SOL    HW229554   6.331   1.563   7.435
 4138SOL     OW29555   3.377   4.496   1.350
 4138SOL    HW129556   3.456   4.496   1.296
 4138SOL    HW229557   3.373   4.584   1.387
 4139SOL     OW29558   5.457   3.069   1.019
 4139SOL    HW129559   5.546   3.045   1.045
 4139SOL    HW229560   5.468   3.147   0.964
 4140SOL     OW29561   2.804   1.884   0.474
 4140SOL    HW129562   2.778   1.974   0.454
 4140SOL    HW229563   2.860   1.892   0.552
 4141SOL     OW29564   4.206   1.157   7.689
 4141SOL    HW129565   4.283   1.100   7.681
 4141SOL    HW229566   4.148   1.111   7.749
 4142SOL     OW29567   0.827   1.423   0.022
 4142SOL    HW129568   0.847   1.507   7.784
 4142SOL    HW229569   0.744   1.396   7.785
 4143SOL     OW29570   5.309   2.623   2.060
 4143SOL    HW129571   5.300   2.676   2.139
 4143SOL    HW229572   5.235   2.562   2.064
 4144SOL     OW29573   6.379   1.143   5.840
 4144SOL    HW129574   0.019   1.124   5.872
 4144SOL    HW229575   6.322   1.127   5.916
 4145SOL     OW29576   1.199   2.074   6.158
 4145SOL    HW129577   1.191   2.024   6.077
 4145SOL    HW229578   1.225   2.162   6.130
 4146SOL     OW29579   0.274   4.752   2.473
 4146SOL    HW129580   0.256   4.820   2.408
 4146SOL    HW229581   0.244   4.790   2.556
 4147SOL     OW29582   1.955   5.112   2.359
 4147SOL    HW129583   1.976   5.045   2.294
 4147SOL    HW229584   2.038   5.129   2.404
 4148SOL     OW29585   2.098   4.265   6.512
 4148SOL    HW129586   2.008   4.244   6.538
 4148SOL    HW229587   2.152   4.217   6.574
 4149SOL     OW29588   1.749   5.011   6.840
 4149SOL    HW129589   1.763   4.967   6.924
 4149SOL    HW229590   1.758   5.104   6.860
 4150SOL     OW29591   5.211   4.807   7.409
 4150SOL    HW129592   5.123   4.816   7.446
 4150SOL    HW229593   5.264   4.771   7.480
 4151SOL     OW29594   2.766   2.479   5.218
 4151SOL    HW129595   2.768   2.498   5.311
 4151SOL    HW229596   2.844   2.523   5.183
 4152SOL     OW29597   2.737   1.097   7.194
 4152SOL    HW129598   2.786   1.178   7.181
 4152SOL    HW229599   2.782   1.032   7.140
 4153SOL     OW29600   3.607   6.293   0.557
 4153SOL    HW129601   3.648   6.243   0.627
 4153SOL    HW229602   3.672   6.357   0.530
 4154SOL     OW29603   2.560   4.535   5.967
 4154SOL    HW129604   2.467   4.531   5.944
 4154SOL    HW229605   2.579   4.449   6.005
 4155SOL     OW29606   3.287   1.612   6.484
 4155SOL    HW129607   3.358   1.656   6.530
 4155SOL    HW229608   3.256   1.546   6.546
 4156SOL     OW29609   0.505   4.295   7.609
 4156SOL    HW129610   0.499   4.267   7.518
 4156SOL    HW229611   0.595   4.272   7.635
 4157SOL     OW29612   3.138   4.033   0.189
 4157SOL    HW129613   3.148   3.969   0.259
 4157SOL    HW229614   3.225   4.039   0.149
 4158SOL     OW29615   1.127   5.794   6.522
 4158SOL    HW129616   1.152   5.886   6.536
 4158SOL    HW229617   1.202   5.756   6.476
 4159SOL     OW29618   4.483   5.891   2.036
 4159SOL    HW129619   4.436   5.974   2.021
 4159SOL    HW229620   4.415   5.830   2.062
 4160SOL     OW29621   0.189   3.202   0.090
 4160SOL    HW129622   0.200   3.287   0.134
 4160SOL    HW229623   0.162   3.142   0.160
 4161SOL     OW29624   4.191   0.217   0.695
 4161SOL    HW129625   4.267   0.212   0.752
 4161SOL    HW229626   4.205   0.295   0.641
 4162SOL     OW29627   3.519   5.293   5.168
 4162SOL    HW129628   3.433   5.336   5.173
 4162SOL    HW229629   3.499   5.203   5.143
 4163SOL     OW29630   3.186   3.584   6.536
 4163SOL    HW129631   3.189   3.660   6.594
 4163SOL    HW229632   3.095   3.580   6.506
 4164SOL     OW29633   5.611   5.192   7.141
 4164SOL    HW129634   5.545   5.206   7.208
 4164SOL    HW229635   5.601   5.099   7.117
 4165SOL     OW29636   0.509   5.005   6.137
 4165SOL    HW129637   0.509   5.057   6.056
 4165SOL    HW229638   0.446   4.935   6.120
 4166SOL     OW29639   6.136   4.022   7.628
 4166SOL    HW129640   6.192   4.017   7.550
 4166SOL    HW229641   6.085   4.101   7.615
 4167SOL     OW29642   3.269   1.518   0.532
 4167SOL    HW129643   3.321   1.578   0.585
 4167SOL    HW229644   3.290   1.542   0.442
 4168SOL     OW29645   6.341   2.101   6.101
 4168SOL    HW129646   6.356   2.006   6.097
 4168SOL    HW229647   6.254   2.110   6.139
 4169SOL     OW29648   5.661   2.359   1.043
 4169SOL    HW129649   5.695   2.270   1.040
 4169SOL    HW229650   5.727   2.411   0.998
 4170SOL     OW29651   3.113   5.375   6.926
 4170SOL    HW129652   3.081   5.396   7.014
 4170SOL    HW229653   3.034   5.360   6.874
 4171SOL     OW29654   0.773   5.481   7.666
 4171SOL    HW129655   0.835   5.545   7.701
 4171SOL    HW229656   0.733   5.525   7.591
 4172SOL     OW29657   2.779   3.297   5.995
 4172SOL    HW129658   2.738   3.253   5.920
 4172SOL    HW229659   2.706   3.338   6.042
 4173SOL     OW29660   5.029   4.689   6.888
 4173SOL    HW129661   5.051   4.684   6.982
 4173SOL    HW229662   5.094   4.633   6.846
 4174SOL     OW29663   5.916   3.309   6.323
 4174SOL    HW129664   5.825   3.299   6.296
 4174SOL    HW229665   5.948   3.219   6.332
 4175SOL     OW29666   3.952   0.083   1.682
 4175SOL    HW129667   4.038   0.046   1.662
 4175SOL    HW229668   3.933   0.054   1.771
 4176SOL     OW29669   4.545   3.161   0.332
 4176SOL    HW129670   4.471   3.101   0.323
 4176SOL    HW229671   4.558   3.171   0.426
 4177SOL     OW29672   5.899   1.955   5.167
 4177SOL    HW129673   5.923   2.048   5.177
 4177SOL    HW229674   5.980   1.908   5.184
 4178SOL     OW29675   3.366   5.326   6.118
 4178SOL    HW129676   3.353   5.238   6.153
 4178SOL    HW229677   3.278   5.360   6.104
 4179SOL     OW29678   5.415   0.622   0.993
 4179SOL    HW129679   5.378   0.703   1.027
 4179SOL    HW229680   5.510   0.637   0.993
 4180SOL     OW29681   4.147   3.193   5.754
 4180SOL    HW129682   4.115   3.177   5.843
 4180SOL    HW229683   4.072   3.174   5.698
 4181SOL     OW29684   2.386   2.321   2.032
 4181SOL    HW129685   2.299   2.318   2.072
 4181SOL    HW229686   2.404   2.414   2.022
 4182SOL     OW29687   4.981   3.832   6.875
 4182SOL    HW129688   4.964   3.776   6.950
 4182SOL    HW229689   4.911   3.898   6.878
 4183SOL     OW29690   5.552   3.331   7.433
 4183SOL    HW129691   5.492   3.301   7.365
 4183SOL    HW229692   5.563   3.425   7.415
 4184SOL     OW29693   5.056   0.794   0.925
 4184SOL    HW129694   5.084   0.797   0.833
 4184SOL    HW229695   5.138   0.798   0.974
 4185SOL     OW29696   0.665   5.788   6.305
 4185SOL    HW129697   0.632   5.702   6.333
 4185SOL    HW229698   0.760   5.781   6.314
 4186SOL     OW29699   6.279   4.278   1.650
 4186SOL    HW129700   6.291   4.335   1.726
 4186SOL    HW229701   6.219   4.210   1.680
 4187SOL     OW29702   1.954   4.041   7.409
 4187SOL    HW129703   1.875   4.092   7.396
 4187SOL    HW229704   1.932   3.979   7.479
 4188SOL     OW29705   4.072   4.997   2.114
 4188SOL    HW129706   4.040   4.907   2.122
 4188SOL    HW229707   4.164   4.991   2.141
 4189SOL     OW29708   6.099   1.575   0.700
 4189SOL    HW129709   6.062   1.632   0.633
 4189SOL    HW229710   6.111   1.491   0.655
 4190SOL     OW29711   3.940   5.512   5.422
 4190SOL    HW129712   3.864   5.472   5.381
 4190SOL    HW229713   3.905   5.588   5.468
 4191SOL     OW29714   5.865   3.747   0.887
 4191SOL    HW129715   5.941   3.698   0.919
 4191SOL    HW229716   5.794   3.721   0.946
 4192SOL     OW29717   2.503   2.150   1.853
 4192SOL    HW129718   2.467   2.217   1.912
 4192SOL    HW229719   2.486   2.067   1.898
 4193SOL     OW29720   2.850   3.669   6.737
 4193SOL    HW129721   2.883   3.738   6.679
 4193SOL    HW229722   2.824   3.715   6.817
 4194SOL     OW29723   4.335   3.578   7.248
 4194SOL    HW129724   4.346   3.632   7.170
 4194SOL    HW229725   4.254   3.609   7.288
 4195SOL     OW29726   2.515   0.985   1.326
 4195SOL    HW129727   2.563   0.902   1.323
 4195SOL    HW229728   2.581   1.050   1.350
 4196SOL     OW29729   2.252   4.423   1.210
 4196SOL    HW129730   2.186   4.361   1.179
 4196SOL    HW229731   2.203   4.503   1.230
 4197SOL     OW29732   0.784   2.279   1.489
 4197SOL    HW129733   0.864   2.326   1.464
 4197SOL    HW229734   0.767   2.306   1.580
 4198SOL     OW29735   3.816   0.764   5.671
 4198SOL    HW129736   3.758   0.797   5.603
 4198SOL    HW229737   3.883   0.831   5.680
 4199SOL     OW29738   5.065   1.660   1.212
 4199SOL    HW129739   4.972   1.669   1.236
 4199SOL    HW229740   5.112   1.670   1.295
 4200SOL     OW29741   6.369   3.518   0.505
 4200SOL    HW129742   6.358   3.493   0.597
 4200SOL    HW229743   6.321   3.601   0.496
 4201SOL     OW29744   5.110   6.338   0.949
 4201SOL    HW129745   5.036   6.326   1.009
 4201SOL    HW229746   5.111   6.258   0.896
 4202SOL     OW29747   1.459   0.483   7.096
 4202SOL    HW129748   1.501   0.409   7.051
 4202SOL    HW229749   1.530   0.545   7.111
 4203SOL     OW29750   5.699   0.670   5.893
 4203SOL    HW129751   5.787   0.673   5.856
 4203SOL    HW229752   5.689   0.579   5.922
 4204SOL     OW29753   0.901   3.588   6.221
 4204SOL    HW129754   0.887   3.534   6.298
 4204SOL    HW229755   0.899   3.527   6.147
 4205SOL     OW29756   2.823   2.300   6.317
 4205SOL    HW129757   2.889   2.247   6.361
 4205SOL    HW229758   2.740   2.270   6.354
 4206SOL     OW29759   4.729   4.939   1.837
 4206SOL    HW129760   4.803   4.981   1.880
 4206SOL    HW229761   4.670   4.913   1.908
 4207SOL     OW29762   1.930   3.828   1.310
 4207SOL    HW129763   2.025   3.818   1.321
 4207SOL    HW229764   1.910   3.773   1.234
 4208SOL     OW29765   3.056   6.296   0.946
 4208SOL    HW129766   3.032   6.267   0.858
 4208SOL    HW229767   3.049   6.391   0.943
 4209SOL     OW29768   5.620   4.609   6.321
 4209SOL    HW129769   5.588   4.519   6.315
 4209SOL    HW229770   5.567   4.648   6.390
 4210SOL     OW29771   3.722   0.040   1.053
 4210SOL    HW129772   3.709   0.090   1.133
 4210SOL    HW229773   3.642   0.053   1.003
 4211SOL     OW29774   3.843   0.382   1.195
 4211SOL    HW129775   3.909   0.367   1.262
 4211SOL    HW229776   3.775   0.318   1.214
 4212SOL     OW29777   2.991   0.695   6.798
 4212SOL    HW129778   3.023   0.629   6.860
 4212SOL    HW229779   3.024   0.666   6.714
 4213SOL     OW29780   2.582   5.165   6.242
 4213SOL    HW129781   2.564   5.179   6.150
 4213SOL    HW229782   2.542   5.240   6.287
 4214SOL     OW29783   4.465   3.543   1.139
 4214SOL    HW129784   4.418   3.625   1.152
 4214SOL    HW229785   4.398   3.475   1.149
 4215SOL     OW29786   5.796   3.726   7.501
 4215SOL    HW129787   5.813   3.697   7.411
 4215SOL    HW229788   5.707   3.758   7.499
 4216SOL     OW29789   5.706   1.572   7.586
 4216SOL    HW129790   5.627   1.546   7.633
 4216SOL    HW229791   5.775   1.566   7.652
 4217SOL     OW29792   5.848   3.356   6.586
 4217SOL    HW129793   5.876   3.351   6.494
 4217SOL    HW229794   5.800   3.439   6.591
 4218SOL     OW29795   1.748   2.464   6.516
 4218SOL    HW129796   1.803   2.452   6.593
 4218SOL    HW229797   1.802   2.436   6.443
 4219SOL     OW29798   4.163   5.218   0.907
 4219SOL    HW129799   4.116   5.275   0.968
 4219SOL    HW229800   4.095   5.168   0.863
 4220SOL     OW29801   2.973   5.769   7.019
 4220SOL    HW129802   3.041   5.832   6.995
 4220SOL    HW229803   2.974   5.705   6.948
 4221SOL     OW29804   4.860   2.635   1.162
 4221SOL    HW129805   4.854   2.551   1.118
 4221SOL    HW229806   4.822   2.619   1.249
 4222SOL     OW29807   3.413   3.822   7.009
 4222SOL    HW129808   3.487   3.879   7.030
 4222SOL    HW229809   3.421   3.808   6.914
 4223SOL     OW29810   1.227   5.358   7.344
 4223SOL    HW129811   1.312   5.315   7.340
 4223SOL    HW229812   1.240   5.441   7.300
 4224SOL     OW29813   6.347   4.270   7.692
 4224SOL    HW129814   6.407   4.314   7.752
 4224SOL    HW229815   6.387   4.185   7.676
 4225SOL     OW29816   3.849   6.333   6.119
 4225SOL    HW129817   3.874   6.250   6.079
 4225SOL    HW229818   3.824   6.310   6.209
 4226SOL     OW29819   2.138   0.212   6.127
 4226SOL    HW129820   2.160   0.248   6.213
 4226SOL    HW229821   2.223   0.188   6.088
 4227SOL     OW29822   3.607   2.961   0.954
 4227SOL    HW129823   3.512   2.955   0.967
 4227SOL    HW229824   3.631   2.877   0.916
 4228SOL     OW29825   5.333   4.299   0.500
 4228SOL    HW129826   5.411   4.325   0.450
 4228SOL    HW229827   5.306   4.217   0.459
 4229SOL     OW29828   3.359   3.836   7.757
 4229SOL    HW129829   3.357   3.923   7.797
 4229SOL    HW229830   3.291   3.787   0.000
 4230SOL     OW29831   5.075   4.183   7.443
 4230SOL    HW129832   5.116   4.228   7.369
 4230SOL    HW229833   5.012   4.247   7.478
 4231SOL     OW29834   1.338   4.569   0.241
 4231SOL    HW129835   1.428   4.586   0.214
 4231SOL    HW229836   1.325   4.624   0.319
 4232SOL     OW29837   2.285   5.611   0.213
 4232SOL    HW129838   2.257   5.523   0.240
 4232SOL    HW229839   2.262   5.616   0.120
 4233SOL     OW29840   5.879   2.659   1.597
 4233SOL    HW129841   5.974   2.648   1.600
 4233SOL    HW229842   5.866   2.743   1.553
 4234SOL     OW29843   4.645   4.592   1.460
 4234SOL    HW129844   4.678   4.638   1.537
 4234SOL    HW229845   4.709   4.611   1.391
 4235SOL     OW29846   2.296   2.809   1.744
 4235SOL    HW129847   2.301   2.714   1.756
 4235SOL    HW229848   2.202   2.827   1.742
 4236SOL     OW29849   2.153   0.795   0.853
 4236SOL    HW129850   2.167   0.877   0.805
 4236SOL    HW229851   2.173   0.818   0.944
 4237SOL     OW29852   0.255   0.921   7.059
 4237SOL    HW129853   0.298   0.846   7.020
 4237SOL    HW229854   0.162   0.897   7.062
 4238SOL     OW29855   1.211   3.768   6.382
 4238SOL    HW129856   1.285   3.810   6.339
 4238SOL    HW229857   1.239   3.756   6.472
 4239SOL     OW29858   5.069   1.902   1.560
 4239SOL    HW129859   5.093   1.989   1.592
 4239SOL    HW229860   4.974   1.903   1.555
 4240SOL     OW29861   4.745   4.510   0.193
 4240SOL    HW129862   4.836   4.527   0.167
 4240SOL    HW229863   4.693   4.570   0.138
 4241SOL     OW29864   5.714   2.106   7.620
 4241SOL    HW129865   5.709   2.013   7.600
 4241SOL    HW229866   5.697   2.149   7.537
 4242SOL     OW29867   1.143   1.145   6.261
 4242SOL    HW129868   1.148   1.198   6.340
 4242SOL    HW229869   1.107   1.061   6.290
 4243SOL     OW29870   2.784   5.310   1.352
 4243SOL    HW129871   2.769   5.380   1.290
 4243SOL    HW229872   2.829   5.242   1.302
 4244SOL     OW29873   4.567   2.166   1.409
 4244SOL    HW129874   4.492   2.197   1.459
 4244SOL    HW229875   4.584   2.078   1.444
 4245SOL     OW29876   2.139   3.212   0.708
 4245SOL    HW129877   2.157   3.214   0.802
 4245SOL    HW229878   2.162   3.123   0.682
 4246SOL     OW29879   3.434   4.070   5.515
 4246SOL    HW129880   3.365   4.125   5.554
 4246SOL    HW229881   3.483   4.037   5.590
 4247SOL     OW29882   3.957   4.047   7.222
 4247SOL    HW129883   3.934   4.070   7.132
 4247SOL    HW229884   4.020   4.113   7.249
 4248SOL     OW29885   3.677   2.709   0.842
 4248SOL    HW129886   3.702   2.720   0.750
 4248SOL    HW229887   3.729   2.634   0.872
 4249SOL     OW29888   4.024   0.528   7.719
 4249SOL    HW129889   3.986   0.595   7.777
 4249SOL    HW229890   4.020   0.567   7.632
 4250SOL     OW29891   3.891   0.311   0.026
 4250SOL    HW129892   3.943   0.389   0.006
 4250SOL    HW229893   3.836   0.299   7.751
 4251SOL     OW29894   1.757   5.183   1.634
 4251SOL    HW129895   1.713   5.119   1.690
 4251SOL    HW229896   1.802   5.241   1.694
 4252SOL     OW29897   3.884   5.162   5.781
 4252SOL    HW129898   3.894   5.076   5.740
 4252SOL    HW229899   3.812   5.152   5.843
 4253SOL     OW29900   3.798   2.612   6.085
 4253SOL    HW129901   3.769   2.568   6.165
 4253SOL    HW229902   3.718   2.622   6.033
 4254SOL     OW29903   1.047   1.646   0.274
 4254SOL    HW129904   1.082   1.560   0.298
 4254SOL    HW229905   1.125   1.699   0.254
 4255SOL     OW29906   0.341   4.426   1.612
 4255SOL    HW129907   0.363   4.337   1.641
 4255SOL    HW229908   0.379   4.433   1.525
 4256SOL     OW29909   2.367   3.820   0.622
 4256SOL    HW129910   2.436   3.796   0.683
 4256SOL    HW229911   2.361   3.747   0.561
 4257SOL     OW29912   0.004   0.545   7.307
 4257SOL    HW129913   6.431   0.463   7.351
 4257SOL    HW229914   6.438   0.613   7.373
 4258SOL     OW29915   0.402   1.700   0.815
 4258SOL    HW129916   0.380   1.786   0.779
 4258SOL    HW229917   0.412   1.714   0.909
 4259SOL     OW29918   4.858   4.385   7.482
 4259SOL    HW129919   4.778   4.410   7.530
 4259SOL    HW229920   4.887   4.467   7.442
 4260SOL     OW29921   6.130   0.322   2.100
 4260SOL    HW129922   6.077   0.372   2.038
 4260SOL    HW229923   6.160   0.386   2.164
 4261SOL     OW29924   1.936   1.116   7.750
 4261SOL    HW129925   2.009   1.125   7.689
 4261SOL    HW229926   1.939   1.195   0.001
 4262SOL     OW29927   4.531   1.155   1.551
 4262SOL    HW129928   4.533   1.119   1.639
 4262SOL    HW229929   4.575   1.089   1.497
 4263SOL     OW29930   1.394   6.019   6.532
 4263SOL    HW129931   1.366   6.069   6.609
 4263SOL    HW229932   1.412   5.931   6.565
 4264SOL     OW29933   4.408   3.492   6.642
 4264SOL    HW129934   4.370   3.573   6.608
 4264SOL    HW229935   4.386   3.492   6.735
 4265SOL     OW29936   4.470   5.271   6.218
 4265SOL    HW129937   4.506   5.256   6.131
 4265SOL    HW229938   4.538   5.241   6.278
 4266SOL     OW29939   2.950   0.349   6.488
 4266SOL    HW129940   2.967   0.329   6.580
 4266SOL    HW229941   3.030   0.324   6.442
 4267SOL     OW29942   0.718   0.316   0.835
 4267SOL    HW129943   0.768   0.322   0.754
 4267SOL    HW229944   0.762   0.376   0.895
 4268SOL     OW29945   4.488   4.069   1.455
 4268SOL    HW129946   4.419   4.057   1.389
 4268SOL    HW229947   4.444   4.051   1.538
 4269SOL     OW29948   1.624   6.329   1.152
 4269SOL    HW129949   1.622   6.332   1.248
 4269SOL    HW229950   1.664   6.244   1.132
 4270SOL     OW29951   3.306   6.009   2.067
 4270SOL    HW129952   3.332   5.944   2.132
 4270SOL    HW229953   3.211   6.016   2.076
 4271SOL     OW29954   2.205   2.502   0.762
 4271SOL    HW129955   2.201   2.433   0.696
 4271SOL    HW229956   2.152   2.573   0.726
 4272SOL     OW29957   4.674   1.595   5.721
 4272SOL    HW129958   4.760   1.596   5.762
 4272SOL    HW229959   4.651   1.502   5.715
 4273SOL     OW29960   0.264   4.043   6.866
 4273SOL    HW129961   0.278   4.048   6.961
 4273SOL    HW229962   0.200   4.112   6.847
 4274SOL     OW29963   5.605   3.670   5.265
 4274SOL    HW129964   5.635   3.607   5.200
 4274SOL    HW229965   5.621   3.626   5.349
 4275SOL     OW29966   4.318   3.963   0.700
 4275SOL    HW129967   4.304   3.873   0.731
 4275SOL    HW229968   4.246   3.978   0.638
 4276SOL     OW29969   1.763   5.705   6.539
 4276SOL    HW129970   1.791   5.773   6.478
 4276SOL    HW229971   1.683   5.670   6.501
 4277SOL     OW29972   0.777   3.439   1.258
 4277SOL    HW129973   0.852   3.422   1.315
 4277SOL    HW229974   0.748   3.353   1.229
 4278SOL     OW29975   4.549   0.300   1.281
 4278SOL    HW129976   4.608   0.301   1.356
 4278SOL    HW229977   4.489   0.373   1.298
 4279SOL     OW29978   3.944   6.368   6.978
 4279SOL    HW129979   4.040   6.368   6.983
 4279SOL    HW229980   3.916   6.324   7.058
 4280SOL     OW29981   3.376   4.079   0.064
 4280SOL    HW129982   3.421   4.116   0.140
 4280SOL    HW229983   3.382   4.147   7.800
 4281SOL     OW29984   0.619   6.395   5.965
 4281SOL    HW129985   0.542   6.426   5.917
 4281SOL    HW229986   0.691   6.447   5.932
 4282SOL     OW29987   3.757   5.921   1.346
 4282SOL    HW129988   3.725   5.832   1.360
 4282SOL    HW229989   3.842   5.911   1.305
 4283SOL     OW29990   3.597   5.232   6.617
 4283SOL    HW129991   3.517   5.181   6.602
 4283SOL    HW229992   3.654   5.173   6.667
 4284SOL     OW29993   2.747   1.829   0.802
 4284SOL    HW129994   2.834   1.850   0.768
 4284SOL    HW229995   2.707   1.914   0.821
 4285SOL     OW29996   5.981   2.705   0.857
 4285SOL    HW129997   6.022   2.684   0.773
 4285SOL    HW229998   5.927   2.783   0.839
 4286SOL     OW29999   5.997   3.779   7.675
 4286SOL    HW130000   5.924   3.765   7.614
 4286SOL    HW230001   6.028   3.867   7.656
 4287SOL     OW30002   5.212   1.581   6.891
 4287SOL    HW130003   5.306   1.576   6.906
 4287SOL    HW230004   5.174   1.531   6.964
 4288SOL     OW30005   0.949   3.167   7.174
 4288SOL    HW130006   1.020   3.116   7.134
 4288SOL    HW230007   0.936   3.241   7.115
 4289SOL     OW30008   3.905   0.200   0.284
 4289SOL    HW130009   3.899   0.247   0.201
 4289SOL    HW230010   3.994   0.166   0.287
 4290SOL     OW30011   4.830   2.979   6.943
 4290SOL    HW130012   4.808   3.006   6.854
 4290SOL    HW230013   4.900   3.039   6.970
 4291SOL     OW30014   0.625   4.342   1.866
 4291SOL    HW130015   0.539   4.301   1.857
 4291SOL    HW230016   0.638   4.352   1.960
 4292SOL     OW30017   4.378   2.486   6.029
 4292SOL    HW130018   4.317   2.543   6.077
 4292SOL    HW230019   4.368   2.512   5.938
 4293SOL     OW30020   4.611   3.731   5.981
 4293SOL    HW130021   4.552   3.693   5.915
 4293SOL    HW230022   4.692   3.748   5.933
 4294SOL     OW30023   3.410   5.245   1.240
 4294SOL    HW130024   3.364   5.172   1.283
 4294SOL    HW230025   3.342   5.288   1.188
 4295SOL     OW30026   4.129   5.966   1.453
 4295SOL    HW130027   4.194   6.033   1.473
 4295SOL    HW230028   4.049   5.997   1.496
 4296SOL     OW30029   6.177   3.046   1.511
 4296SOL    HW130030   6.086   3.075   1.511
 4296SOL    HW230031   6.198   3.032   1.603
 4297SOL     OW30032   4.959   0.532   1.862
 4297SOL    HW130033   5.023   0.461   1.870
 4297SOL    HW230034   4.903   0.523   1.939
 4298SOL     OW30035   2.656   5.322   1.590
 4298SOL    HW130036   2.650   5.417   1.600
 4298SOL    HW230037   2.696   5.311   1.503
 4299SOL     OW30038   5.479   4.542   2.331
 4299SOL    HW130039   5.472   4.636   2.313
 4299SOL    HW230040   5.433   4.501   2.257
 4300SOL     OW30041   4.331   4.001   1.684
 4300SOL    HW130042   4.277   3.933   1.725
 4300SOL    HW230043   4.274   4.077   1.680
 4301SOL     OW30044   0.718   5.117   0.091
 4301SOL    HW130045   0.677   5.060   0.025
 4301SOL    HW230046   0.681   5.204   0.074
 4302SOL     OW30047   1.331   5.709   6.373
 4302SOL    HW130048   1.417   5.671   6.393
 4302SOL    HW230049   1.318   5.690   6.280
 4303SOL     OW30050   2.560   2.548   1.274
 4303SOL    HW130051   2.562   2.556   1.179
 4303SOL    HW230052   2.488   2.488   1.292
 4304SOL     OW30053   3.718   0.135   1.543
 4304SOL    HW130054   3.805   0.123   1.582
 4304SOL    HW230055   3.682   0.046   1.536
 4305SOL     OW30056   3.629   3.319   5.712
 4305SOL    HW130057   3.552   3.310   5.655
 4305SOL    HW230058   3.701   3.335   5.651
 4306SOL     OW30059   1.403   3.614   1.050
 4306SOL    HW130060   1.412   3.646   0.960
 4306SOL    HW230061   1.478   3.651   1.096
 4307SOL     OW30062   0.877   0.929   0.411
 4307SOL    HW130063   0.813   0.870   0.372
 4307SOL    HW230064   0.839   1.016   0.399
 4308SOL     OW30065   3.624   6.160   1.277
 4308SOL    HW130066   3.663   6.177   1.192
 4308SOL    HW230067   3.660   6.075   1.304
 4309SOL     OW30068   4.211   2.407   0.328
 4309SOL    HW130069   4.294   2.385   0.370
 4309SOL    HW230070   4.197   2.500   0.350
 4310SOL     OW30071   3.958   0.731   6.671
 4310SOL    HW130072   3.972   0.725   6.576
 4310SOL    HW230073   3.920   0.646   6.694
 4311SOL     OW30074   6.426   2.334   6.744
 4311SOL    HW130075   0.029   2.349   6.664
 4311SOL    HW230076   6.358   2.402   6.743
 4312SOL     OW30077   0.061   2.721   7.710
 4312SOL    HW130078   0.070   2.628   7.730
 4312SOL    HW230079   6.418   2.741   7.729
 4313SOL     OW30080   5.751   4.845   6.822
 4313SOL    HW130081   5.691   4.920   6.811
 4313SOL    HW230082   5.711   4.775   6.770
 4314SOL     OW30083   4.045   3.371   0.752
 4314SOL    HW130084   4.062   3.293   0.699
 4314SOL    HW230085   4.053   3.444   0.691
 4315SOL     OW30086   5.699   0.657   1.009
 4315SOL    HW130087   5.744   0.596   0.949
 4315SOL    HW230088   5.757   0.733   1.013
 4316SOL     OW30089   0.863   3.460   6.459
 4316SOL    HW130090   0.860   3.517   6.535
 4316SOL    HW230091   0.907   3.381   6.490
 4317SOL     OW30092   5.196   5.055   0.182
 4317SOL    HW130093   5.188   4.996   0.107
 4317SOL    HW230094   5.275   5.024   0.228
 4318SOL     OW30095   5.800   1.998   0.771
 4318SOL    HW130096   5.779   2.085   0.736
 4318SOL    HW230097   5.780   1.938   0.699
 4319SOL     OW30098   4.456   0.239   7.303
 4319SOL    HW130099   4.537   0.208   7.342
 4319SOL    HW230100   4.391   0.231   7.373
 4320SOL     OW30101   4.011   2.380   7.551
 4320SOL    HW130102   3.987   2.454   7.607
 4320SOL    HW230103   4.096   2.351   7.584
 4321SOL     OW30104   3.513   3.358   0.125
 4321SOL    HW130105   3.589   3.416   0.114
 4321SOL    HW230106   3.545   3.272   0.097
 4322SOL     OW30107   2.216   4.568   0.376
 4322SOL    HW130108   2.167   4.522   0.444
 4322SOL    HW230109   2.187   4.527   0.294
 4323SOL     OW30110   3.244   6.159   5.841
 4323SOL    HW130111   3.210   6.218   5.909
 4323SOL    HW230112   3.327   6.198   5.815
 4324SOL     OW30113   2.767   2.871   0.627
 4324SOL    HW130114   2.841   2.859   0.687
 4324SOL    HW230115   2.800   2.837   0.544
 4325SOL     OW30116   1.805   5.430   6.413
 4325SOL    HW130117   1.881   5.486   6.424
 4325SOL    HW230118   1.768   5.421   6.501
 4326SOL     OW30119   6.133   5.240   7.212
 4326SOL    HW130120   6.147   5.168   7.150
 4326SOL    HW230121   6.040   5.261   7.203
 4327SOL     OW30122   4.467   3.903   5.734
 4327SOL    HW130123   4.383   3.906   5.689
 4327SOL    HW230124   4.478   3.812   5.759
 4328SOL     OW30125   4.732   5.048   0.982
 4328SOL    HW130126   4.816   5.042   1.028
 4328SOL    HW230127   4.753   5.088   0.898
 4329SOL     OW30128   6.074   5.656   6.981
 4329SOL    HW130129   6.050   5.606   6.902
 4329SOL    HW230130   6.006   5.634   7.045
 4330SOL     OW30131   4.905   1.370   0.481
 4330SOL    HW130132   4.921   1.448   0.536
 4330SOL    HW230133   4.811   1.375   0.460
 4331SOL     OW30134   5.014   4.583   0.131
 4331SOL    HW130135   5.042   4.501   0.091
 4331SOL    HW230136   5.094   4.620   0.169
 4332SOL     OW30137   2.550   3.665   6.525
 4332SOL    HW130138   2.548   3.738   6.587
 4332SOL    HW230139   2.618   3.689   6.462
 4333SOL     OW30140   1.601   1.512   5.879
 4333SOL    HW130141   1.592   1.600   5.915
 4333SOL    HW230142   1.647   1.525   5.796
 4334SOL     OW30143   0.065   4.531   0.372
 4334SOL    HW130144   0.145   4.498   0.331
 4334SOL    HW230145   0.015   4.453   0.395
 4335SOL     OW30146   2.781   3.948   1.667
 4335SOL    HW130147   2.803   3.876   1.608
 4335SOL    HW230148   2.766   4.023   1.610
 4336SOL     OW30149   1.045   6.174   0.992
 4336SOL    HW130150   1.019   6.222   0.913
 4336SOL    HW230151   1.136   6.149   0.975
 4337SOL     OW30152   0.157   0.529   0.311
 4337SOL    HW130153   0.142   0.572   0.395
 4337SOL    HW230154   0.106   0.581   0.248
 4338SOL     OW30155   0.847   2.539   1.249
 4338SOL    HW130156   0.773   2.600   1.253
 4338SOL    HW230157   0.861   2.513   1.340
 4339SOL     OW30158   2.594   3.877   6.702
 4339SOL    HW130159   2.645   3.869   6.782
 4339SOL    HW230160   2.503   3.879   6.732
 4340SOL     OW30161   0.877   0.175   7.734
 4340SOL    HW130162   0.929   0.138   7.662
 4340SOL    HW230163   0.799   0.209   7.691
 4341SOL     OW30164   1.713   2.639   6.954
 4341SOL    HW130165   1.677   2.628   7.042
 4341SOL    HW230166   1.750   2.728   6.954
 4342SOL     OW30167   4.832   1.269   6.593
 4342SOL    HW130168   4.889   1.283   6.669
 4342SOL    HW230169   4.805   1.177   6.601
 4343SOL     OW30170   0.624   2.644   7.371
 4343SOL    HW130171   0.601   2.706   7.303
 4343SOL    HW230172   0.606   2.691   7.453
 4344SOL     OW30173   5.402   1.186   1.601
 4344SOL    HW130174   5.339   1.161   1.669
 4344SOL    HW230175   5.471   1.120   1.606
 4345SOL     OW30176   2.147   4.160   6.904
 4345SOL    HW130177   2.058   4.127   6.889
 4345SOL    HW230178   2.193   4.143   6.822
 4346SOL     OW30179   5.467   0.778   0.189
 4346SOL    HW130180   5.422   0.728   0.121
 4346SOL    HW230181   5.554   0.740   0.194
 4347SOL     OW30182   2.868   4.975   7.741
 4347SOL    HW130183   2.774   4.962   7.734
 4347SOL    HW230184   2.892   4.938   0.023
 4348SOL     OW30185   2.735   6.205   6.238
 4348SOL    HW130186   2.806   6.167   6.185
 4348SOL    HW230187   2.772   6.212   6.326
 4349SOL     OW30188   4.947   2.123   0.517
 4349SOL    HW130189   4.926   2.205   0.473
 4349SOL    HW230190   4.988   2.069   0.448
 4350SOL     OW30191   2.337   2.207   7.455
 4350SOL    HW130192   2.328   2.301   7.438
 4350SOL    HW230193   2.346   2.201   7.550
 4351SOL     OW30194   5.704   4.658   0.779
 4351SOL    HW130195   5.665   4.573   0.795
 4351SOL    HW230196   5.760   4.645   0.702
 4352SOL     OW30197   2.047   0.588   1.443
 4352SOL    HW130198   2.044   0.576   1.348
 4352SOL    HW230199   2.139   0.609   1.461
 4353SOL     OW30200   6.408   1.567   0.931
 4353SOL    HW130201   6.355   1.510   0.986
 4353SOL    HW230202   6.350   1.640   0.909
 4354SOL     OW30203   4.796   3.025   6.673
 4354SOL    HW130204   4.886   3.055   6.660
 4354SOL    HW230205   4.784   2.956   6.608
 4355SOL     OW30206   2.531   3.773   1.650
 4355SOL    HW130207   2.598   3.813   1.704
 4355SOL    HW230208   2.479   3.721   1.711
 4356SOL     OW30209   3.988   6.176   0.730
 4356SOL    HW130210   4.034   6.100   0.765
 4356SOL    HW230211   4.041   6.251   0.758
 4357SOL     OW30212   3.012   3.742   7.643
 4357SOL    HW130213   3.004   3.773   7.553
 4357SOL    HW230214   2.988   3.817   7.697
 4358SOL     OW30215   2.801   6.042   0.714
 4358SOL    HW130216   2.737   6.028   0.645
 4358SOL    HW230217   2.750   6.062   0.792
 4359SOL     OW30218   2.867   2.707   6.546
 4359SOL    HW130219   2.780   2.726   6.511
 4359SOL    HW230220   2.910   2.655   6.478
 4360SOL     OW30221   3.762   0.827   1.928
 4360SOL    HW130222   3.780   0.883   2.005
 4360SOL    HW230223   3.677   0.858   1.896
 4361SOL     OW30224   5.725   0.538   6.424
 4361SOL    HW130225   5.688   0.517   6.339
 4361SOL    HW230226   5.691   0.625   6.444
 4362SOL     OW30227   0.909   0.625   7.469
 4362SOL    HW130228   0.878   0.634   7.559
 4362SOL    HW230229   0.974   0.554   7.473
 4363SOL     OW30230   6.125   3.387   1.156
 4363SOL    HW130231   6.196   3.340   1.113
 4363SOL    HW230232   6.140   3.375   1.249
 4364SOL     OW30233   3.609   2.538   7.640
 4364SOL    HW130234   3.623   2.475   7.570
 4364SOL    HW230235   3.540   2.596   7.607
 4365SOL     OW30236   1.608   2.348   7.455
 4365SOL    HW130237   1.517   2.373   7.441
 4365SOL    HW230238   1.608   2.252   7.456
 4366SOL     OW30239   5.175   2.941   7.186
 4366SOL    HW130240   5.264   2.932   7.153
 4366SOL    HW230241   5.147   2.851   7.204
 4367SOL     OW30242   2.674   0.353   6.754
 4367SOL    HW130243   2.766   0.330   6.741
 4367SOL    HW230244   2.676   0.446   6.778
 4368SOL     OW30245   3.678   4.382   5.842
 4368SOL    HW130246   3.714   4.469   5.857
 4368SOL    HW230247   3.746   4.322   5.874
 4369SOL     OW30248   2.998   4.446   7.164
 4369SOL    HW130249   3.037   4.418   7.247
 4369SOL    HW230250   2.926   4.502   7.189
 4370SOL     OW30251   3.376   1.601   5.770
 4370SOL    HW130252   3.463   1.596   5.731
 4370SOL    HW230253   3.316   1.568   5.703
 4371SOL     OW30254   2.785   3.075   7.588
 4371SOL    HW130255   2.782   3.070   7.683
 4371SOL    HW230256   2.694   3.061   7.560
 4372SOL     OW30257   2.842   6.221   2.038
 4372SOL    HW130258   2.870   6.312   2.038
 4372SOL    HW230259   2.781   6.214   1.965
 4373SOL     OW30260   1.636   0.736   6.087
 4373SOL    HW130261   1.609   0.786   6.010
 4373SOL    HW230262   1.727   0.710   6.068
 4374SOL     OW30263   3.172   1.931   0.972
 4374SOL    HW130264   3.208   2.018   0.987
 4374SOL    HW230265   3.194   1.911   0.881
 4375SOL     OW30266   5.894   1.910   1.163
 4375SOL    HW130267   5.907   1.816   1.156
 4375SOL    HW230268   5.962   1.939   1.225
 4376SOL     OW30269   2.635   3.692   0.370
 4376SOL    HW130270   2.644   3.638   0.448
 4376SOL    HW230271   2.549   3.671   0.335
 4377SOL     OW30272   0.071   1.370   1.262
 4377SOL    HW130273   0.044   1.461   1.268
 4377SOL    HW230274   0.013   1.323   1.321
 4378SOL     OW30275   2.575   0.725   0.761
 4378SOL    HW130276   2.546   0.726   0.669
 4378SOL    HW230277   2.579   0.818   0.785
 4379SOL     OW30278   5.187   0.910   1.570
 4379SOL    HW130279   5.190   0.979   1.636
 4379SOL    HW230280   5.271   0.918   1.524
 4380SOL     OW30281   1.314   1.724   5.946
 4380SOL    HW130282   1.276   1.812   5.942
 4380SOL    HW230283   1.408   1.739   5.957
 4381SOL     OW30284   3.850   5.514   6.578
 4381SOL    HW130285   3.795   5.477   6.509
 4381SOL    HW230286   3.933   5.466   6.572
 4382SOL     OW30287   0.226   0.403   6.091
 4382SOL    HW130288   0.214   0.481   6.037
 4382SOL    HW230289   0.292   0.429   6.156
 4383SOL     OW30290   5.039   5.094   7.590
 4383SOL    HW130291   4.989   5.151   7.648
 4383SOL    HW230292   5.097   5.045   7.648
 4384SOL     OW30293   0.238   0.416   7.244
 4384SOL    HW130294   0.271   0.402   7.333
 4384SOL    HW230295   0.162   0.473   7.256
 4385SOL     OW30296   2.356   0.470   1.179
 4385SOL    HW130297   2.413   0.400   1.210
 4385SOL    HW230298   2.409   0.518   1.115
 4386SOL     OW30299   4.858   5.253   2.426
 4386SOL    HW130300   4.900   5.189   2.369
 4386SOL    HW230301   4.764   5.242   2.409
 4387SOL     OW30302   4.959   5.383   1.014
 4387SOL    HW130303   4.905   5.393   0.936
 4387SOL    HW230304   4.903   5.413   1.086
 4388SOL     OW30305   1.999   4.861   1.562
 4388SOL    HW130306   1.913   4.865   1.520
 4388SOL    HW230307   1.998   4.780   1.613
 4389SOL     OW30308   4.614   0.988   6.821
 4389SOL    HW130309   4.567   0.936   6.886
 4389SOL    HW230310   4.660   0.923   6.767
 4390SOL     OW30311   0.202   6.061   1.548
 4390SOL    HW130312   0.120   6.014   1.563
 4390SOL    HW230313   0.266   5.992   1.531
 4391SOL     OW30314   2.603   1.424   0.332
 4391SOL    HW130315   2.580   1.418   0.239
 4391SOL    HW230316   2.609   1.518   0.350
 4392SOL     OW30317   4.388   0.503   6.713
 4392SOL    HW130318   4.464   0.548   6.751
 4392SOL    HW230319   4.319   0.515   6.779
 4393SOL     OW30320   1.694   2.824   2.126
 4393SOL    HW130321   1.693   2.742   2.076
 4393SOL    HW230322   1.730   2.889   2.065
 4394SOL     OW30323   0.928   1.009   0.829
 4394SOL    HW130324   0.855   0.958   0.865
 4394SOL    HW230325   0.969   0.950   0.765
 4395SOL     OW30326   2.076   0.535   7.733
 4395SOL    HW130327   2.142   0.481   7.777
 4395SOL    HW230328   2.122   0.573   7.658
 4396SOL     OW30329   2.535   0.813   0.240
 4396SOL    HW130330   2.459   0.852   0.196
 4396SOL    HW230331   2.554   0.734   0.191
 4397SOL     OW30332   3.484   6.114   1.608
 4397SOL    HW130333   3.443   6.078   1.686
 4397SOL    HW230334   3.441   6.069   1.535
 4398SOL     OW30335   3.144   3.165   0.363
 4398SOL    HW130336   3.109   3.087   0.406
 4398SOL    HW230337   3.235   3.142   0.344
 4399SOL     OW30338   0.329   1.591   7.725
 4399SOL    HW130339   0.259   1.543   7.681
 4399SOL    HW230340   0.341   1.546   0.006
 4400SOL     OW30341   4.340   2.944   1.377
 4400SOL    HW130342   4.368   2.871   1.323
 4400SOL    HW230343   4.290   2.904   1.448
 4401SOL     OW30344   0.938   4.668   2.144
 4401SOL    HW130345   0.926   4.576   2.121
 4401SOL    HW230346   0.966   4.709   2.062
 4402SOL     OW30347   6.347   6.052   0.930
 4402SOL    HW130348   6.305   5.966   0.928
 4402SOL    HW230349   6.274   6.114   0.936
 4403SOL     OW30350   0.861   6.052   1.150
 4403SOL    HW130351   0.922   6.093   1.088
 4403SOL    HW230352   0.796   6.119   1.168
 4404SOL     OW30353   2.969   0.441   7.672
 4404SOL    HW130354   2.902   0.508   7.685
 4404SOL    HW230355   2.925   0.372   7.622
 4405SOL     OW30356   2.810   2.468   1.357
 4405SOL    HW130357   2.718   2.489   1.338
 4405SOL    HW230358   2.822   2.494   1.448
 4406SOL     OW30359   1.502   5.638   0.235
 4406SOL    HW130360   1.417   5.639   0.192
 4406SOL    HW230361   1.497   5.707   0.301
 4407SOL     OW30362   0.735   3.769   2.167
 4407SOL    HW130363   0.707   3.839   2.226
 4407SOL    HW230364   0.819   3.798   2.133
 4408SOL     OW30365   3.795   1.189   1.758
 4408SOL    HW130366   3.700   1.190   1.762
 4408SOL    HW230367   3.818   1.099   1.737
 4409SOL     OW30368   0.217   3.454   0.199
 4409SOL    HW130369   0.273   3.515   0.152
 4409SOL    HW230370   0.238   3.469   0.291
 4410SOL     OW30371   5.854   2.869   1.219
 4410SOL    HW130372   5.796   2.797   1.195
 4410SOL    HW230373   5.846   2.877   1.314
 4411SOL     OW30374   3.942   4.460   2.550
 4411SOL    HW130375   3.965   4.534   2.493
 4411SOL    HW230376   3.869   4.493   2.602
 4412SOL     OW30377   1.970   1.547   1.031
 4412SOL    HW130378   1.885   1.504   1.027
 4412SOL    HW230379   2.021   1.494   1.091
 4413SOL     OW30380   5.477   6.114   6.983
 4413SOL    HW130381   5.526   6.056   7.041
 4413SOL    HW230382   5.474   6.068   6.899
 4414SOL     OW30383   0.042   4.524   7.551
 4414SOL    HW130384   6.433   4.497   7.479
 4414SOL    HW230385   0.100   4.449   7.565
 4415SOL     OW30386   0.401   1.525   2.240
 4415SOL    HW130387   0.319   1.570   2.258
 4415SOL    HW230388   0.378   1.458   2.176
 4416SOL     OW30389   3.775   0.548   7.323
 4416SOL    HW130390   3.791   0.607   7.397
 4416SOL    HW230391   3.855   0.553   7.271
 4417SOL     OW30392   5.675   3.681   1.072
 4417SOL    HW130393   5.689   3.640   1.158
 4417SOL    HW230394   5.581   3.701   1.070
 4418SOL     OW30395   2.089   0.505   1.181
 4418SOL    HW130396   2.184   0.500   1.188
 4418SOL    HW230397   2.072   0.507   1.087
 4419SOL     OW30398   2.141   3.802   0.923
 4419SOL    HW130399   2.146   3.734   0.989
 4419SOL    HW230400   2.066   3.778   0.868
 4420SOL     OW30401   1.661   3.678   0.692
 4420SOL    HW130402   1.651   3.586   0.667
 4420SOL    HW230403   1.577   3.701   0.732
 4421SOL     OW30404   4.071   2.956   1.143
 4421SOL    HW130405   4.057   3.011   1.220
 4421SOL    HW230406   4.000   2.981   1.083
 4422SOL     OW30407   6.102   1.175   7.705
 4422SOL    HW130408   6.128   1.085   7.724
 4422SOL    HW230409   6.031   1.193   7.767
 4423SOL     OW30410   1.186   4.999   1.140
 4423SOL    HW130411   1.264   4.974   1.090
 4423SOL    HW230412   1.218   5.067   1.201
 4424SOL     OW30413   4.651   6.239   6.944
 4424SOL    HW130414   4.670   6.215   7.034
 4424SOL    HW230415   4.703   6.178   6.891
 4425SOL     OW30416   4.122   4.181   1.681
 4425SOL    HW130417   4.093   4.263   1.723
 4425SOL    HW230418   4.052   4.119   1.700
 4426SOL     OW30419   4.987   3.068   1.072
 4426SOL    HW130420   5.073   3.071   1.114
 4426SOL    HW230421   4.978   3.154   1.031
 4427SOL     OW30422   4.334   3.144   6.814
 4427SOL    HW130423   4.420   3.169   6.780
 4427SOL    HW230424   4.275   3.214   6.784
 4428SOL     OW30425   5.281   5.853   6.326
 4428SOL    HW130426   5.291   5.836   6.232
 4428SOL    HW230427   5.346   5.797   6.368
 4429SOL     OW30428   6.074   0.904   7.394
 4429SOL    HW130429   6.032   0.986   7.417
 4429SOL    HW230430   6.049   0.888   7.303
 4430SOL     OW30431   2.677   1.395   5.456
 4430SOL    HW130432   2.595   1.444   5.449
 4430SOL    HW230433   2.732   1.449   5.514
 4431SOL     OW30434   1.735   2.485   1.264
 4431SOL    HW130435   1.770   2.425   1.198
 4431SOL    HW230436   1.665   2.435   1.306
 4432SOL     OW30437   6.141   0.147   6.430
 4432SOL    HW130438   6.226   0.152   6.474
 4432SOL    HW230439   6.081   0.191   6.491
 4433SOL     OW30440   0.609   3.342   0.243
 4433SOL    HW130441   0.584   3.368   0.154
 4433SOL    HW230442   0.578   3.413   0.299
 4434SOL     OW30443   3.517   4.307   7.424
 4434SOL    HW130444   3.605   4.343   7.431
 4434SOL    HW230445   3.527   4.233   7.364
 4435SOL     OW30446   5.858   0.051   7.112
 4435SOL    HW130447   5.804   0.081   7.185
 4435SOL    HW230448   5.924   0.119   7.101
 4436SOL     OW30449   4.701   2.291   6.720
 4436SOL    HW130450   4.696   2.362   6.785
 4436SOL    HW230451   4.766   2.321   6.657
 4437SOL     OW30452   1.582   0.166   6.458
 4437SOL    HW130453   1.657   0.145   6.514
 4437SOL    HW230454   1.610   0.244   6.409
 4438SOL     OW30455   4.764   4.721   1.669
 4438SOL    HW130456   4.759   4.798   1.725
 4438SOL    HW230457   4.843   4.676   1.697
 4439SOL     OW30458   0.264   5.024   7.094
 4439SOL    HW130459   0.221   5.104   7.064
 4439SOL    HW230460   0.287   5.041   7.185
 4440SOL     OW30461   5.133   3.448   0.096
 4440SOL    HW130462   5.053   3.405   0.066
 4440SOL    HW230463   5.204   3.390   0.068
 4441SOL     OW30464   1.749   6.354   7.564
 4441SOL    HW130465   1.665   6.398   7.551
 4441SOL    HW230466   1.808   6.422   7.595
 4442SOL     OW30467   0.659   5.353   1.917
 4442SOL    HW130468   0.581   5.300   1.937
 4442SOL    HW230469   0.624   5.433   1.879
 4443SOL     OW30470   1.108   0.324   7.753
 4443SOL    HW130471   1.166   0.250   7.772
 4443SOL    HW230472   1.020   0.287   7.760
 4444SOL     OW30473   3.847   1.625   0.075
 4444SOL    HW130474   3.768   1.677   0.090
 4444SOL    HW230475   3.859   1.575   0.157
 4445SOL     OW30476   5.529   3.325   5.860
 4445SOL    HW130477   5.594   3.342   5.792
 4445SOL    HW230478   5.449   3.364   5.827
 4446SOL     OW30479   1.746   6.016   0.208
 4446SOL    HW130480   1.750   5.920   0.211
 4446SOL    HW230481   1.738   6.036   0.114
 4447SOL     OW30482   4.984   0.675   0.299
 4447SOL    HW130483   5.031   0.621   0.234
 4447SOL    HW230484   5.041   0.751   0.311
 4448SOL     OW30485   1.241   6.275   0.364
 4448SOL    HW130486   1.315   6.265   0.304
 4448SOL    HW230487   1.281   6.299   0.448
 4449SOL     OW30488   2.767   5.469   2.229
 4449SOL    HW130489   2.836   5.499   2.290
 4449SOL    HW230490   2.703   5.539   2.229
 4450SOL     OW30491   3.519   6.267   7.369
 4450SOL    HW130492   3.557   6.352   7.346
 4450SOL    HW230493   3.436   6.287   7.411
 4451SOL     OW30494   5.347   0.213   6.162
 4451SOL    HW130495   5.324   0.257   6.080
 4451SOL    HW230496   5.295   0.259   6.229
 4452SOL     OW30497   0.095   5.066   1.902
 4452SOL    HW130498   0.154   5.058   1.977
 4452SOL    HW230499   0.070   5.158   1.901
 4453SOL     OW30500   1.882   1.236   1.368
 4453SOL    HW130501   1.954   1.283   1.410
 4453SOL    HW230502   1.916   1.214   1.281
 4454SOL     OW30503   0.374   1.208   0.289
 4454SOL    HW130504   0.400   1.179   0.377
 4454SOL    HW230505   0.447   1.185   0.233
 4455SOL     OW30506   4.500   0.557   7.332
 4455SOL    HW130507   4.557   0.516   7.396
 4455SOL    HW230508   4.532   0.527   7.247
 4456SOL     OW30509   3.012   3.093   0.838
 4456SOL    HW130510   2.994   3.000   0.823
 4456SOL    HW230511   3.081   3.114   0.775
 4457SOL     OW30512   4.038   5.008   1.170
 4457SOL    HW130513   4.067   4.958   1.094
 4457SOL    HW230514   4.109   5.071   1.186
 4458SOL     OW30515   4.714   1.898   6.526
 4458SOL    HW130516   4.793   1.906   6.474
 4458SOL    HW230517   4.663   1.977   6.506
 4459SOL     OW30518   5.446   3.585   7.722
 4459SOL    HW130519   5.524   3.538   7.753
 4459SOL    HW230520   5.407   3.621   7.802
 4460SOL     OW30521   3.406   5.609   0.809
 4460SOL    HW130522   3.492   5.641   0.833
 4460SOL    HW230523   3.423   5.534   0.753
 4461SOL     OW30524   6.001   3.768   1.887
 4461SOL    HW130525   5.927   3.735   1.837
 4461SOL    HW230526   6.063   3.695   1.890
 4462SOL     OW30527   1.976   0.210   6.707
 4462SOL    HW130528   1.917   0.279   6.737
 4462SOL    HW230529   1.919   0.149   6.660
 4463SOL     OW30530   2.411   5.329   7.702
 4463SOL    HW130531   2.396   5.406   7.647
 4463SOL    HW230532   2.486   5.353   7.757
 4464SOL     OW30533   4.961   4.241   0.255
 4464SOL    HW130534   4.935   4.312   0.315
 4464SOL    HW230535   4.974   4.166   0.313
 4465SOL     OW30536   0.391   2.815   6.668
 4465SOL    HW130537   0.368   2.907   6.655
 4465SOL    HW230538   0.348   2.770   6.596
 4466SOL     OW30539   0.916   3.344   0.658
 4466SOL    HW130540   0.902   3.303   0.743
 4466SOL    HW230541   0.839   3.400   0.646
 4467SOL     OW30542   5.699   2.120   5.878
 4467SOL    HW130543   5.769   2.129   5.813
 4467SOL    HW230544   5.676   2.027   5.876
 4468SOL     OW30545   5.632   3.051   1.836
 4468SOL    HW130546   5.542   3.043   1.869
 4468SOL    HW230547   5.629   3.009   1.750
 4469SOL     OW30548   0.568   6.184   6.557
 4469SOL    HW130549   0.543   6.121   6.490
 4469SOL    HW230550   0.488   6.200   6.606
 4470SOL     OW30551   1.332   0.133   6.160
 4470SOL    HW130552   1.299   0.082   6.086
 4470SOL    HW230553   1.410   0.086   6.189
 4471SOL     OW30554   2.365   6.342   1.228
 4471SOL    HW130555   2.307   6.411   1.196
 4471SOL    HW230556   2.421   6.385   1.292
 4472SOL     OW30557   1.792   1.212   7.332
 4472SOL    HW130558   1.732   1.138   7.337
 4472SOL    HW230559   1.785   1.255   7.417
 4473SOL     OW30560   6.410   2.654   1.474
 4473SOL    HW130561   6.435   2.716   1.405
 4473SOL    HW230562   0.044   2.636   1.520
 4474SOL     OW30563   2.443   5.134   7.509
 4474SOL    HW130564   2.434   5.193   7.584
 4474SOL    HW230565   2.369   5.073   7.518
 4475SOL     OW30566   5.468   1.039   1.197
 4475SOL    HW130567   5.559   1.048   1.167
 4475SOL    HW230568   5.426   1.121   1.170
 4476SOL     OW30569   5.165   4.731   1.464
 4476SOL    HW130570   5.237   4.741   1.402
 4476SOL    HW230571   5.146   4.637   1.463
 4477SOL     OW30572   1.384   1.611   7.424
 4477SOL    HW130573   1.367   1.580   7.513
 4477SOL    HW230574   1.408   1.532   7.375
 4478SOL     OW30575   6.345   5.567   7.590
 4478SOL    HW130576   6.354   5.482   7.632
 4478SOL    HW230577   6.257   5.567   7.552
 4479SOL     OW30578   4.828   3.753   5.790
 4479SOL    HW130579   4.769   3.687   5.753
 4479SOL    HW230580   4.894   3.767   5.722
 4480SOL     OW30581   1.918   0.879   1.194
 4480SOL    HW130582   1.885   0.794   1.164
 4480SOL    HW230583   1.870   0.895   1.276
 4481SOL     OW30584   5.016   1.422   5.177
 4481SOL    HW130585   5.004   1.334   5.140
 4481SOL    HW230586   4.957   1.424   5.253
 4482SOL     OW30587   0.361   5.639   7.024
 4482SOL    HW130588   0.417   5.611   6.951
 4482SOL    HW230589   0.283   5.675   6.982
 4483SOL     OW30590   4.133   5.755   1.733
 4483SOL    HW130591   4.157   5.684   1.794
 4483SOL    HW230592   4.038   5.754   1.731
 4484SOL     OW30593   5.711   1.303   2.549
 4484SOL    HW130594   5.631   1.327   2.596
 4484SOL    HW230595   5.704   1.209   2.535
 4485SOL     OW30596   2.844   6.142   5.704
 4485SOL    HW130597   2.929   6.141   5.661
 4485SOL    HW230598   2.809   6.230   5.689
 4486SOL     OW30599   4.693   2.747   6.115
 4486SOL    HW130600   4.661   2.816   6.172
 4486SOL    HW230601   4.655   2.667   6.151
 4487SOL     OW30602   3.552   6.153   7.023
 4487SOL    HW130603   3.638   6.128   6.989
 4487SOL    HW230604   3.553   6.123   7.113
 4488SOL     OW30605   0.955   3.318   0.390
 4488SOL    HW130606   0.952   3.324   0.486
 4488SOL    HW230607   0.888   3.253   0.368
 4489SOL     OW30608   6.382   0.759   7.471
 4489SOL    HW130609   6.365   0.840   7.423
 4489SOL    HW230610   6.300   0.742   7.518
 4490SOL     OW30611   0.569   5.987   1.307
 4490SOL    HW130612   0.599   6.065   1.261
 4490SOL    HW230613   0.639   5.922   1.291
 4491SOL     OW30614   5.530   1.769   7.297
 4491SOL    HW130615   5.464   1.838   7.302
 4491SOL    HW230616   5.482   1.691   7.270
 4492SOL     OW30617   2.419   0.379   0.835
 4492SOL    HW130618   2.447   0.457   0.883
 4492SOL    HW230619   2.454   0.390   0.747
 4493SOL     OW30620   2.427   2.176   7.183
 4493SOL    HW130621   2.360   2.137   7.128
 4493SOL    HW230622   2.386   2.184   7.269
 4494SOL     OW30623   2.137   5.795   7.028
 4494SOL    HW130624   2.172   5.867   6.976
 4494SOL    HW230625   2.207   5.729   7.027
 4495SOL     OW30626   2.221   0.660   1.756
 4495SOL    HW130627   2.230   0.682   1.849
 4495SOL    HW230628   2.198   0.567   1.756
 4496SOL     OW30629   3.437   4.568   5.570
 4496SOL    HW130630   3.451   4.635   5.638
 4496SOL    HW230631   3.515   4.514   5.574
 4497SOL     OW30632   2.818   2.448   0.918
 4497SOL    HW130633   2.880   2.456   0.845
 4497SOL    HW230634   2.864   2.487   0.993
 4498SOL     OW30635   0.478   2.544   0.516
 4498SOL    HW130636   0.425   2.604   0.464
 4498SOL    HW230637   0.563   2.541   0.471
 4499SOL     OW30638   4.921   4.238   1.562
 4499SOL    HW130639   4.909   4.147   1.588
 4499SOL    HW230640   4.857   4.252   1.492
 4500SOL     OW30641   2.810   3.669   1.137
 4500SOL    HW130642   2.831   3.591   1.086
 4500SOL    HW230643   2.888   3.724   1.131
 4501SOL     OW30644   5.349   2.442   5.991
 4501SOL    HW130645   5.326   2.464   5.901
 4501SOL    HW230646   5.386   2.522   6.027
 4502SOL     OW30647   1.937   2.056   5.641
 4502SOL    HW130648   1.907   1.974   5.601
 4502SOL    HW230649   1.965   2.031   5.729
 4503SOL     OW30650   4.196   6.108   7.765
 4503SOL    HW130651   4.101   6.121   7.766
 4503SOL    HW230652   4.216   6.090   7.673
 4504SOL     OW30653   0.985   6.400   5.736
 4504SOL    HW130654   0.971   6.313   5.774
 4504SOL    HW230655   0.921   0.008   5.780
 4505SOL     OW30656   1.815   2.265   1.535
 4505SOL    HW130657   1.843   2.206   1.465
 4505SOL    HW230658   1.723   2.241   1.551
 4506SOL     OW30659   2.354   3.746   7.375
 4506SOL    HW130660   2.348   3.651   7.375
 4506SOL    HW230661   2.424   3.766   7.437
 4507SOL     OW30662   0.626   1.846   2.106
 4507SOL    HW130663   0.543   1.826   2.063
 4507SOL    HW230664   0.639   1.774   2.167
 4508SOL     OW30665   3.054   3.691   1.367
 4508SOL    HW130666   3.091   3.613   1.408
 4508SOL    HW230667   2.973   3.707   1.415
 4509SOL     OW30668   6.251   5.591   1.835
 4509SOL    HW130669   6.250   5.511   1.887
 4509SOL    HW230670   6.184   5.646   1.874
 4510SOL     OW30671   3.884   1.445   1.738
 4510SOL    HW130672   3.855   1.354   1.747
 4510SOL    HW230673   3.836   1.478   1.662
 4511SOL     OW30674   0.975   5.272   5.857
 4511SOL    HW130675   0.885   5.251   5.882
 4511SOL    HW230676   1.017   5.187   5.844
 4512SOL     OW30677   2.681   5.428   0.339
 4512SOL    HW130678   2.733   5.429   0.420
 4512SOL    HW230679   2.596   5.463   0.364
 4513SOL     OW30680   0.248   5.124   5.966
 4513SOL    HW130681   0.236   5.030   5.981
 4513SOL    HW230682   0.340   5.133   5.940
 4514SOL     OW30683   2.585   1.455   5.774
 4514SOL    HW130684   2.655   1.503   5.730
 4514SOL    HW230685   2.507   1.510   5.764
 4515SOL     OW30686   2.038   4.856   0.937
 4515SOL    HW130687   1.983   4.835   0.861
 4515SOL    HW230688   2.001   4.938   0.971
 4516SOL     OW30689   2.934   2.556   1.138
 4516SOL    HW130690   3.028   2.561   1.159
 4516SOL    HW230691   2.894   2.516   1.215
 4517SOL     OW30692   4.513   1.902   2.658
 4517SOL    HW130693   4.582   1.966   2.642
 4517SOL    HW230694   4.512   1.891   2.754
 4518SOL     OW30695   5.048   3.134   7.029
 4518SOL    HW130696   5.129   3.159   6.984
 4518SOL    HW230697   5.075   3.069   7.094
 4519SOL     OW30698   6.416   1.749   5.727
 4519SOL    HW130699   6.411   1.655   5.740
 4519SOL    HW230700   0.002   1.760   5.638
 4520SOL     OW30701   2.318   4.991   7.152
 4520SOL    HW130702   2.358   5.075   7.174
 4520SOL    HW230703   2.226   5.001   7.176
 4521SOL     OW30704   6.121   3.065   6.774
 4521SOL    HW130705   6.214   3.044   6.768
 4521SOL    HW230706   6.096   3.038   6.862
 4522SOL     OW30707   6.000   4.058   0.605
 4522SOL    HW130708   6.050   4.117   0.548
 4522SOL    HW230709   5.908   4.079   0.586
 4523SOL     OW30710   0.263   4.492   2.409
 4523SOL    HW130711   0.271   4.582   2.439
 4523SOL    HW230712   0.351   4.456   2.417
 4524SOL     OW30713   4.642   1.958   0.395
 4524SOL    HW130714   4.662   1.893   0.463
 4524SOL    HW230715   4.553   1.988   0.416
 4525SOL     OW30716   3.044   5.183   7.783
 4525SOL    HW130717   2.984   5.109   7.773
 4525SOL    HW230718   3.058   5.189   0.075
 4526SOL     OW30719   4.281   2.321   1.248
 4526SOL    HW130720   4.286   2.226   1.243
 4526SOL    HW230721   4.352   2.353   1.192
 4527SOL     OW30722   6.310   4.014   7.411
 4527SOL    HW130723   6.296   3.922   7.390
 4527SOL    HW230724   6.341   4.053   7.329
 4528SOL     OW30725   5.561   4.433   0.835
 4528SOL    HW130726   5.474   4.462   0.806
 4528SOL    HW230727   5.552   4.421   0.929
 4529SOL     OW30728   1.388   2.104   6.815
 4529SOL    HW130729   1.399   2.032   6.877
 4529SOL    HW230730   1.478   2.129   6.791
 4530SOL     OW30731   2.392   2.686   6.030
 4530SOL    HW130732   2.420   2.751   5.966
 4530SOL    HW230733   2.347   2.737   6.098
 4531SOL     OW30734   6.301   4.440   1.866
 4531SOL    HW130735   6.369   4.395   1.916
 4531SOL    HW230736   6.289   4.523   1.911
 4532SOL     OW30737   3.472   4.287   6.224
 4532SOL    HW130738   3.553   4.238   6.239
 4532SOL    HW230739   3.447   4.320   6.310
 4533SOL     OW30740   2.774   1.295   7.482
 4533SOL    HW130741   2.864   1.298   7.449
 4533SOL    HW230742   2.784   1.314   7.576
 4534SOL     OW30743   1.777   5.509   7.700
 4534SOL    HW130744   1.849   5.542   7.647
 4534SOL    HW230745   1.710   5.578   7.695
 4535SOL     OW30746   6.067   4.355   6.707
 4535SOL    HW130747   6.050   4.446   6.682
 4535SOL    HW230748   6.158   4.340   6.682
 4536SOL     OW30749   4.258   2.425   6.637
 4536SOL    HW130750   4.294   2.389   6.718
 4536SOL    HW230751   4.233   2.349   6.585
 4537SOL     OW30752   3.604   5.074   0.381
 4537SOL    HW130753   3.630   4.985   0.404
 4537SOL    HW230754   3.535   5.063   0.316
 4538SOL     OW30755   3.503   4.765   5.138
 4538SOL    HW130756   3.476   4.690   5.191
 4538SOL    HW230757   3.580   4.735   5.090
 4539SOL     OW30758   3.938   5.040   0.297
 4539SOL    HW130759   3.926   4.951   0.330
 4539SOL    HW230760   3.909   5.096   0.369
 4540SOL     OW30761   3.998   5.411   7.080
 4540SOL    HW130762   4.023   5.478   7.016
 4540SOL    HW230763   4.025   5.448   7.165
 4541SOL     OW30764   2.776   3.673   0.127
 4541SOL    HW130765   2.742   3.675   0.217
 4541SOL    HW230766   2.853   3.617   0.131
 4542SOL     OW30767   1.654   2.154   6.765
 4542SOL    HW130768   1.718   2.105   6.714
 4542SOL    HW230769   1.706   2.202   6.829
 4543SOL     OW30770   0.002   0.992   1.492
 4543SOL    HW130771   0.084   0.974   1.537
 4543SOL    HW230772   6.382   0.976   1.557
 4544SOL     OW30773   3.924   3.513   0.953
 4544SOL    HW130774   3.873   3.457   1.012
 4544SOL    HW230775   3.963   3.452   0.891
 4545SOL     OW30776   3.782   2.456   7.068
 4545SOL    HW130777   3.843   2.409   7.124
 4545SOL    HW230778   3.745   2.524   7.125
 4546SOL     OW30779   5.096   2.848   7.754
 4546SOL    HW130780   5.051   2.766   7.736
 4546SOL    HW230781   5.180   2.840   7.710
 4547SOL     OW30782   0.323   0.022   7.760
 4547SOL    HW130783   0.390   6.427   7.708
 4547SOL    HW230784   0.361   0.105   7.786
 4548SOL     OW30785   2.078   2.564   6.635
 4548SOL    HW130786   1.997   2.544   6.682
 4548SOL    HW230787   2.110   2.478   6.607
 4549SOL     OW30788   2.398   5.906   1.913
 4549SOL    HW130789   2.401   5.819   1.952
 4549SOL    HW230790   2.453   5.960   1.969
 4550SOL     OW30791   2.366   3.820   7.786
 4550SOL    HW130792   2.346   3.760   0.055
 4550SOL    HW230793   2.461   3.832   7.791
 4551SOL     OW30794   4.281   0.274   1.464
 4551SOL    HW130795   4.340   0.226   1.523
 4551SOL    HW230796   4.329   0.354   1.443
 4552SOL     OW30797   3.555   5.631   1.111
 4552SOL    HW130798   3.582   5.677   1.031
 4552SOL    HW230799   3.619   5.659   1.177
 4553SOL     OW30800   0.666   4.231   7.175
 4553SOL    HW130801   0.743   4.176   7.190
 4553SOL    HW230802   0.655   4.231   7.080
 4554SOL     OW30803   4.105   3.547   6.390
 4554SOL    HW130804   4.069   3.634   6.410
 4554SOL    HW230805   4.184   3.565   6.340
 4555SOL     OW30806   2.561   5.717   7.511
 4555SOL    HW130807   2.551   5.811   7.523
 4555SOL    HW230808   2.601   5.686   7.593
 4556SOL     OW30809   1.259   1.984   7.735
 4556SOL    HW130810   1.283   1.936   7.656
 4556SOL    HW230811   1.163   1.991   7.731
 4557SOL     OW30812   0.512   2.339   1.449
 4557SOL    HW130813   0.509   2.392   1.529
 4557SOL    HW230814   0.604   2.314   1.440
 4558SOL     OW30815   1.686   0.082   1.448
 4558SOL    HW130816   1.682   0.159   1.504
 4558SOL    HW230817   1.734   0.112   1.370
 4559SOL     OW30818   3.369   2.171   7.166
 4559SOL    HW130819   3.441   2.199   7.109
 4559SOL    HW230820   3.293   2.220   7.135
 4560SOL     OW30821   6.018   1.620   7.481
 4560SOL    HW130822   5.984   1.703   7.446
 4560SOL    HW230823   5.988   1.618   7.571
 4561SOL     OW30824   5.899   0.207   1.641
 4561SOL    HW130825   5.901   0.251   1.726
 4561SOL    HW230826   5.891   0.114   1.662
 4562SOL     OW30827   1.204   2.271   1.563
 4562SOL    HW130828   1.271   2.206   1.543
 4562SOL    HW230829   1.221   2.296   1.653
 4563SOL     OW30830   0.991   5.882   6.836
 4563SOL    HW130831   0.951   5.863   6.922
 4563SOL    HW230832   0.979   5.801   6.786
 4564SOL     OW30833   4.937   2.999   5.946
 4564SOL    HW130834   4.902   2.914   5.918
 4564SOL    HW230835   4.879   3.027   6.017
 4565SOL     OW30836   2.294   0.608   0.246
 4565SOL    HW130837   2.276   0.607   0.340
 4565SOL    HW230838   2.256   0.691   0.216
 4566SOL     OW30839   5.520   4.785   1.515
 4566SOL    HW130840   5.488   4.869   1.548
 4566SOL    HW230841   5.484   4.779   1.426
 4567SOL     OW30842   2.593   4.178   7.176
 4567SOL    HW130843   2.590   4.272   7.196
 4567SOL    HW230844   2.503   4.156   7.151
 4568SOL     OW30845   5.791   5.717   0.234
 4568SOL    HW130846   5.774   5.689   0.144
 4568SOL    HW230847   5.864   5.778   0.227
 4569SOL     OW30848   2.122   6.201   2.158
 4569SOL    HW130849   2.148   6.184   2.067
 4569SOL    HW230850   2.034   6.165   2.166
 4570SOL     OW30851   3.112   4.376   7.404
 4570SOL    HW130852   3.191   4.429   7.394
 4570SOL    HW230853   3.143   4.289   7.427
 4571SOL     OW30854   0.029   4.636   0.629
 4571SOL    HW130855   6.398   4.687   0.613
 4571SOL    HW230856   0.057   4.605   0.543
 4572SOL     OW30857   6.447   0.285   6.174
 4572SOL    HW130858   0.001   0.310   6.267
 4572SOL    HW230859   0.078   0.324   6.137
 4573SOL     OW30860   4.724   4.208   1.367
 4573SOL    HW130861   4.776   4.132   1.342
 4573SOL    HW230862   4.640   4.172   1.395
 4574SOL     OW30863   0.707   2.188   0.448
 4574SOL    HW130864   0.710   2.210   0.541
 4574SOL    HW230865   0.766   2.113   0.439
 4575SOL     OW30866   5.113   2.198   1.392
 4575SOL    HW130867   5.197   2.209   1.347
 4575SOL    HW230868   5.137   2.176   1.482
 4576SOL     OW30869   3.395   6.351   0.723
 4576SOL    HW130870   3.370   6.260   0.734
 4576SOL    HW230871   3.467   6.349   0.661
 4577SOL     OW30872   6.076   0.549   0.359
 4577SOL    HW130873   6.149   0.508   0.312
 4577SOL    HW230874   6.081   0.642   0.338
 4578SOL     OW30875   5.966   0.825   1.507
 4578SOL    HW130876   5.903   0.895   1.488
 4578SOL    HW230877   5.925   0.746   1.474
 4579SOL     OW30878   5.802   5.262   2.031
 4579SOL    HW130879   5.732   5.324   2.050
 4579SOL    HW230880   5.878   5.317   2.010
 4580SOL     OW30881   5.213   1.904   0.550
 4580SOL    HW130882   5.178   1.930   0.465
 4580SOL    HW230883   5.273   1.974   0.575
 4581SOL     OW30884   1.939   1.864   6.189
 4581SOL    HW130885   1.883   1.848   6.113
 4581SOL    HW230886   1.982   1.947   6.171
 4582SOL     OW30887   4.803   0.674   0.947
 4582SOL    HW130888   4.809   0.668   1.043
 4582SOL    HW230889   4.884   0.717   0.921
 4583SOL     OW30890   5.259   5.720   0.857
 4583SOL    HW130891   5.249   5.714   0.952
 4583SOL    HW230892   5.186   5.774   0.829
 4584SOL     OW30893   3.616   1.993   7.054
 4584SOL    HW130894   3.664   1.975   7.135
 4584SOL    HW230895   3.621   2.088   7.043
 4585SOL     OW30896   3.364   5.149   7.521
 4585SOL    HW130897   3.333   5.161   7.431
 4585SOL    HW230898   3.456   5.175   7.518
 4586SOL     OW30899   5.376   1.370   6.574
 4586SOL    HW130900   5.454   1.356   6.628
 4586SOL    HW230901   5.357   1.463   6.583
 4587SOL     OW30902   2.389   5.228   7.259
 4587SOL    HW130903   2.326   5.299   7.273
 4587SOL    HW230904   2.411   5.198   7.347
 4588SOL     OW30905   3.680   6.054   7.302
 4588SOL    HW130906   3.622   5.978   7.298
 4588SOL    HW230907   3.625   6.125   7.336
 4589SOL     OW30908   5.787   1.904   6.745
 4589SOL    HW130909   5.709   1.849   6.747
 4589SOL    HW230910   5.754   1.993   6.760
 4590SOL     OW30911   5.536   5.835   1.091
 4590SOL    HW130912   5.463   5.893   1.114
 4590SOL    HW230913   5.536   5.834   0.996
 4591SOL     OW30914   2.214   6.430   7.416
 4591SOL    HW130915   2.121   0.003   7.407
 4591SOL    HW230916   2.219   6.336   7.404
 4592SOL     OW30917   1.914   3.708   0.792
 4592SOL    HW130918   1.820   3.707   0.770
 4592SOL    HW230919   1.958   3.687   0.710
 4593SOL     OW30920   4.423   2.087   6.021
 4593SOL    HW130921   4.486   2.147   5.980
 4593SOL    HW230922   4.401   2.025   5.952
 4594SOL     OW30923   3.669   5.684   7.559
 4594SOL    HW130924   3.620   5.761   7.589
 4594SOL    HW230925   3.616   5.649   7.487
 4595SOL     OW30926   1.264   1.614   1.388
 4595SOL    HW130927   1.296   1.524   1.394
 4595SOL    HW230928   1.249   1.640   1.479
 4596SOL     OW30929   4.604   2.612   1.641
 4596SOL    HW130930   4.642   2.639   1.724
 4596SOL    HW230931   4.510   2.607   1.657
 4597SOL     OW30932   6.107   4.479   0.065
 4597SOL    HW130933   6.028   4.529   0.045
 4597SOL    HW230934   6.169   4.503   7.799
 4598SOL     OW30935   4.444   3.798   0.008
 4598SOL    HW130936   4.432   3.820   7.719
 4598SOL    HW230937   4.517   3.736   0.009
 4599SOL     OW30938   4.949   6.325   7.585
 4599SOL    HW130939   4.896   6.372   7.649
 4599SOL    HW230940   5.028   6.299   7.634
 4600SOL     OW30941   2.929   2.641   7.693
 4600SOL    HW130942   2.932   2.678   7.605
 4600SOL    HW230943   3.019   2.613   7.710
 4601SOL     OW30944   4.686   1.575   0.819
 4601SOL    HW130945   4.752   1.533   0.763
 4601SOL    HW230946   4.737   1.628   0.880
 4602SOL     OW30947   5.051   2.127   5.996
 4602SOL    HW130948   5.048   2.032   5.983
 4602SOL    HW230949   4.972   2.159   5.952
 4603SOL     OW30950   6.048   2.737   7.565
 4603SOL    HW130951   5.965   2.765   7.603
 4603SOL    HW230952   6.066   2.800   7.496
 4604SOL     OW30953   5.020   1.626   6.112
 4604SOL    HW130954   5.060   1.539   6.117
 4604SOL    HW230955   5.045   1.668   6.195
 4605SOL     OW30956   1.209   2.495   0.772
 4605SOL    HW130957   1.205   2.553   0.848
 4605SOL    HW230958   1.210   2.554   0.697
 4606SOL     OW30959   4.959   2.756   5.652
 4606SOL    HW130960   4.979   2.663   5.643
 4606SOL    HW230961   4.919   2.764   5.739
 4607SOL     OW30962   3.278   4.730   0.965
 4607SOL    HW130963   3.256   4.738   1.058
 4607SOL    HW230964   3.372   4.714   0.964
 4608SOL     OW30965   1.402   1.109   5.930
 4608SOL    HW130966   1.403   1.072   6.019
 4608SOL    HW230967   1.338   1.057   5.883
 4609SOL     OW30968   1.816   1.671   0.385
 4609SOL    HW130969   1.795   1.749   0.334
 4609SOL    HW230970   1.901   1.690   0.424
 4610SOL     OW30971   4.688   5.187   7.075
 4610SOL    HW130972   4.727   5.273   7.091
 4610SOL    HW230973   4.749   5.142   7.018
 4611SOL     OW30974   6.363   1.243   1.451
 4611SOL    HW130975   6.390   1.152   1.452
 4611SOL    HW230976   6.393   1.278   1.535
 4612SOL     OW30977   0.927   5.681   7.791
 4612SOL    HW130978   0.989   5.610   0.005
 4612SOL    HW230979   0.899   5.709   0.075
 4613SOL     OW30980   5.766   0.043   6.140
 4613SOL    HW130981   5.719   0.101   6.200
 4613SOL    HW230982   5.845   0.018   6.188
 4614SOL     OW30983   5.365   5.625   7.446
 4614SOL    HW130984   5.379   5.576   7.365
 4614SOL    HW230985   5.279   5.595   7.477
 4615SOL     OW30986   3.076   3.230   7.011
 4615SOL    HW130987   3.137   3.189   7.073
 4615SOL    HW230988   3.127   3.302   6.972
 4616SOL     OW30989   6.108   1.632   1.784
 4616SOL    HW130990   6.030   1.622   1.730
 4616SOL    HW230991   6.181   1.628   1.722
 4617SOL     OW30992   4.907   3.268   6.276
 4617SOL    HW130993   4.996   3.267   6.312
 4617SOL    HW230994   4.866   3.345   6.316
 4618SOL     OW30995   4.527   6.178   7.613
 4618SOL    HW130996   4.557   6.118   7.681
 4618SOL    HW230997   4.453   6.133   7.572
 4619SOL     OW30998   1.289   3.731   0.433
 4619SOL    HW130999   1.282   3.696   0.344
 4619SOL    HW231000   1.325   3.819   0.421
 4620SOL     OW31001   0.605   5.001   1.212
 4620SOL    HW131002   0.580   5.094   1.213
 4620SOL    HW231003   0.585   4.972   1.123
 4621SOL     OW31004   0.781   1.175   0.322
 4621SOL    HW131005   0.741   1.249   0.369
 4621SOL    HW231006   0.851   1.214   0.270
 4622SOL     OW31007   3.397   6.365   7.746
 4622SOL    HW131008   3.479   6.405   7.776
 4622SOL    HW231009   3.410   6.271   7.759
 4623SOL     OW31010   3.157   4.435   1.191
 4623SOL    HW131011   3.228   4.457   1.251
 4623SOL    HW231012   3.201   4.389   1.118
 4624SOL     OW31013   1.647   0.880   0.049
 4624SOL    HW131014   1.619   0.808   7.795
 4624SOL    HW231015   1.608   0.859   0.135
 4625SOL     OW31016   0.350   0.122   6.630
 4625SOL    HW131017   0.325   0.147   6.719
 4625SOL    HW231018   0.445   0.118   6.633
 4626SOL     OW31019   5.763   0.021   5.686
 4626SOL    HW131020   5.843   0.002   5.637
 4626SOL    HW231021   5.693   0.017   5.621
 4627SOL     OW31022   2.311   0.387   7.053
 4627SOL    HW131023   2.279   0.441   6.980
 4627SOL    HW231024   2.377   0.330   7.013
 4628SOL     OW31025   3.402   0.805   1.630
 4628SOL    HW131026   3.421   0.754   1.550
 4628SOL    HW231027   3.354   0.881   1.598
 4629SOL     OW31028   5.112   0.113   6.347
 4629SOL    HW131029   5.087   0.135   6.258
 4629SOL    HW231030   5.130   0.197   6.389
 4630SOL     OW31031   0.744   4.531   6.627
 4630SOL    HW131032   0.655   4.521   6.593
 4630SOL    HW231033   0.737   4.604   6.689
 4631SOL     OW31034   6.302   4.778   0.861
 4631SOL    HW131035   6.398   4.777   0.866
 4631SOL    HW231036   6.283   4.786   0.768
 4632SOL     OW31037   2.979   0.161   0.329
 4632SOL    HW131038   3.002   0.209   0.408
 4632SOL    HW231039   3.052   0.176   0.269
 4633SOL     OW31040   5.289   3.448   0.935
 4633SOL    HW131041   5.299   3.527   0.883
 4633SOL    HW231042   5.373   3.403   0.927
 4634SOL     OW31043   1.011   5.025   5.398
 4634SOL    HW131044   1.093   4.997   5.358
 4634SOL    HW231045   0.960   5.060   5.325
 4635SOL     OW31046   0.656   3.971   2.337
 4635SOL    HW131047   0.575   4.022   2.344
 4635SOL    HW231048   0.697   3.981   2.423
 4636SOL     OW31049   3.085   1.488   6.317
 4636SOL    HW131050   3.147   1.524   6.380
 4636SOL    HW231051   3.133   1.418   6.273
 4637SOL     OW31052   4.596   5.587   0.122
 4637SOL    HW131053   4.660   5.655   0.144
 4637SOL    HW231054   4.524   5.602   0.184
 4638SOL     OW31055   2.672   0.480   0.347
 4638SOL    HW131056   2.705   0.398   0.311
 4638SOL    HW231057   2.635   0.527   0.272
 4639SOL     OW31058   3.094   5.204   0.255
 4639SOL    HW131059   3.173   5.258   0.249
 4639SOL    HW231060   3.105   5.154   0.336
 4640SOL     OW31061   4.536   6.149   5.925
 4640SOL    HW131062   4.604   6.214   5.904
 4640SOL    HW231063   4.547   6.082   5.858
 4641SOL     OW31064   3.953   4.437   6.104
 4641SOL    HW131065   3.921   4.429   6.014
 4641SOL    HW231066   4.000   4.520   6.106
 4642SOL     OW31067   6.383   0.595   7.051
 4642SOL    HW131068   6.421   0.572   7.135
 4642SOL    HW231069   0.006   0.580   6.988
 4643SOL     OW31070   5.212   2.404   0.135
 4643SOL    HW131071   5.275   2.436   0.071
 4643SOL    HW231072   5.265   2.368   0.206
 4644SOL     OW31073   0.549   3.918   7.262
 4644SOL    HW131074   0.606   3.960   7.326
 4644SOL    HW231075   0.521   3.836   7.304
 4645SOL     OW31076   2.575   3.413   6.149
 4645SOL    HW131077   2.481   3.407   6.132
 4645SOL    HW231078   2.588   3.361   6.229
 4646SOL     OW31079   6.025   2.902   5.838
 4646SOL    HW131080   5.965   2.934   5.772
 4646SOL    HW231081   6.081   2.839   5.792
 4647SOL     OW31082   6.025   1.924   0.912
 4647SOL    HW131083   5.951   1.945   0.856
 4647SOL    HW231084   5.987   1.915   1.000
 4648SOL     OW31085   3.115   4.127   0.599
 4648SOL    HW131086   3.125   4.220   0.616
 4648SOL    HW231087   3.200   4.099   0.566
 4649SOL     OW31088   3.963   4.545   6.892
 4649SOL    HW131089   3.888   4.496   6.926
 4649SOL    HW231090   4.002   4.586   6.969
 4650SOL     OW31091   2.535   0.258   1.233
 4650SOL    HW131092   2.536   0.228   1.142
 4650SOL    HW231093   2.519   0.178   1.285
 4651SOL     OW31094   4.958   3.402   6.017
 4651SOL    HW131095   4.930   3.408   5.926
 4651SOL    HW231096   4.903   3.333   6.055
 4652SOL     OW31097   5.472   3.416   6.106
 4652SOL    HW131098   5.379   3.392   6.112
 4652SOL    HW231099   5.499   3.382   6.020
 4653SOL     OW31100   3.621   0.601   0.380
 4653SOL    HW131101   3.696   0.567   0.429
 4653SOL    HW231102   3.560   0.527   0.376
 4654SOL     OW31103   2.458   5.563   0.427
 4654SOL    HW131104   2.401   5.588   0.355
 4654SOL    HW231105   2.516   5.638   0.439
 4655SOL     OW31106   0.185   5.207   6.739
 4655SOL    HW131107   0.179   5.244   6.827
 4655SOL    HW231108   0.174   5.113   6.752
 4656SOL     OW31109   0.892   4.314   1.808
 4656SOL    HW131110   0.798   4.327   1.819
 4656SOL    HW231111   0.914   4.363   1.729
 4657SOL     OW31112   2.550   5.020   1.354
 4657SOL    HW131113   2.612   4.981   1.292
 4657SOL    HW231114   2.539   5.110   1.323
 4658SOL     OW31115   5.917   3.528   5.655
 4658SOL    HW131116   5.837   3.475   5.660
 4658SOL    HW231117   5.978   3.474   5.605
 4659SOL     OW31118   2.064   3.847   6.415
 4659SOL    HW131119   2.115   3.926   6.398
 4659SOL    HW231120   2.051   3.847   6.510
 4660SOL     OW31121   0.073   6.188   6.744
 4660SOL    HW131122   0.055   6.131   6.820
 4660SOL    HW231123   0.036   6.140   6.670
 4661SOL     OW31124   5.729   0.148   7.341
 4661SOL    HW131125   5.713   0.080   7.406
 4661SOL    HW231126   5.759   0.223   7.392
 4662SOL     OW31127   4.138   1.839   5.991
 4662SOL    HW131128   4.182   1.829   6.076
 4662SOL    HW231129   4.208   1.862   5.930
 4663SOL     OW31130   5.975   1.477   0.922
 4663SOL    HW131131   5.886   1.468   0.890
 4663SOL    HW231132   6.024   1.513   0.848
 4664SOL     OW31133   4.686   5.380   0.422
 4664SOL    HW131134   4.636   5.399   0.501
 4664SOL    HW231135   4.756   5.446   0.421
 4665SOL     OW31136   0.535   0.847   6.752
 4665SOL    HW131137   0.525   0.814   6.663
 4665SOL    HW231138   0.624   0.823   6.776
 4666SOL     OW31139   3.263   4.887   6.407
 4666SOL    HW131140   3.176   4.913   6.377
 4666SOL    HW231141   3.282   4.807   6.357
 4667SOL     OW31142   2.613   2.760   6.449
 4667SOL    HW131143   2.546   2.695   6.429
 4667SOL    HW231144   2.584   2.801   6.530
 4668SOL     OW31145   4.330   1.930   5.810
 4668SOL    HW131146   4.321   1.997   5.742
 4668SOL    HW231147   4.378   1.859   5.767
 4669SOL     OW31148   1.517   2.375   1.400
 4669SOL    HW131149   1.501   2.453   1.454
 4669SOL    HW231150   1.528   2.304   1.464
 4670SOL     OW31151   3.166   0.333   0.918
 4670SOL    HW131152   3.192   0.323   1.010
 4670SOL    HW231153   3.122   0.251   0.897
 4671SOL     OW31154   6.129   4.077   0.851
 4671SOL    HW131155   6.207   4.022   0.848
 4671SOL    HW231156   6.089   4.068   0.764
 4672SOL     OW31157   1.763   1.275   6.998
 4672SOL    HW131158   1.746   1.262   6.905
 4672SOL    HW231159   1.728   1.196   7.040
 4673SOL     OW31160   2.976   2.482   2.234
 4673SOL    HW131161   3.009   2.403   2.276
 4673SOL    HW231162   2.984   2.550   2.301
 4674SOL     OW31163   0.367   2.564   0.771
 4674SOL    HW131164   0.409   2.570   0.685
 4674SOL    HW231165   0.384   2.649   0.812
 4675SOL     OW31166   1.746   3.299   6.954
 4675SOL    HW131167   1.657   3.266   6.962
 4675SOL    HW231168   1.790   3.269   7.033
 4676SOL     OW31169   4.720   4.429   6.061
 4676SOL    HW131170   4.698   4.427   6.154
 4676SOL    HW231171   4.787   4.497   6.054
 4677SOL     OW31172   5.264   4.055   6.609
 4677SOL    HW131173   5.177   4.038   6.571
 4677SOL    HW231174   5.268   4.151   6.617
 4678SOL     OW31175   6.376   1.506   0.228
 4678SOL    HW131176   0.014   1.483   0.193
 4678SOL    HW231177   6.394   1.546   0.313
 4679SOL     OW31178   0.321   2.103   1.051
 4679SOL    HW131179   0.407   2.077   1.085
 4679SOL    HW231180   0.340   2.144   0.967
 4680SOL     OW31181   0.902   2.128   0.087
 4680SOL    HW131182   0.813   2.100   0.067
 4680SOL    HW231183   0.941   2.148   0.002
 4681SOL     OW31184   1.174   2.545   6.287
 4681SOL    HW131185   1.198   2.598   6.363
 4681SOL    HW231186   1.098   2.589   6.249
 4682SOL     OW31187   2.870   0.128   6.943
 4682SOL    HW131188   2.836   0.191   7.008
 4682SOL    HW231189   2.815   0.051   6.955
 4683SOL     OW31190   3.596   5.601   5.449
 4683SOL    HW131191   3.636   5.531   5.397
 4683SOL    HW231192   3.515   5.622   5.402
 4684SOL     OW31193   4.003   1.497   7.216
 4684SOL    HW131194   4.080   1.452   7.182
 4684SOL    HW231195   3.965   1.541   7.140
 4685SOL     OW31196   4.277   2.951   6.993
 4685SOL    HW131197   4.304   3.015   6.928
 4685SOL    HW231198   4.181   2.945   6.984
 4686SOL     OW31199   2.992   1.926   1.438
 4686SOL    HW131200   2.995   1.899   1.346
 4686SOL    HW231201   3.033   2.013   1.438
 4687SOL     OW31202   0.116   0.185   7.145
 4687SOL    HW131203   0.158   0.174   7.060
 4687SOL    HW231204   0.155   0.264   7.182
 4688SOL     OW31205   1.935   5.539   6.667
 4688SOL    HW131206   1.875   5.602   6.627
 4688SOL    HW231207   1.914   5.542   6.761
 4689SOL     OW31208   3.928   6.214   6.746
 4689SOL    HW131209   3.922   6.270   6.823
 4689SOL    HW231210   3.981   6.264   6.685
 4690SOL     OW31211   3.786   4.286   0.491
 4690SOL    HW131212   3.703   4.326   0.463
 4690SOL    HW231213   3.803   4.217   0.427
 4691SOL     OW31214   5.870   0.519   7.172
 4691SOL    HW131215   5.959   0.554   7.166
 4691SOL    HW231216   5.882   0.425   7.187
 4692SOL     OW31217   2.470   2.198   5.981
 4692SOL    HW131218   2.490   2.190   5.888
 4692SOL    HW231219   2.547   2.242   6.018
 4693SOL     OW31220   4.123   0.646   0.998
 4693SOL    HW131221   4.091   0.558   0.980
 4693SOL    HW231222   4.127   0.651   1.094
 4694SOL     OW31223   2.790   2.414   7.618
 4694SOL    HW131224   2.807   2.354   7.691
 4694SOL    HW231225   2.832   2.496   7.645
 4695SOL     OW31226   6.003   1.733   0.500
 4695SOL    HW131227   6.054   1.809   0.471
 4695SOL    HW231228   5.917   1.769   0.521
 4696SOL     OW31229   4.546   0.722   0.827
 4696SOL    HW131230   4.632   0.694   0.857
 4696SOL    HW231231   4.519   0.789   0.891
 4697SOL     OW31232   3.697   4.284   6.475
 4697SOL    HW131233   3.726   4.359   6.425
 4697SOL    HW231234   3.691   4.213   6.411
 4698SOL     OW31235   2.903   3.187   7.222
 4698SOL    HW131236   2.866   3.273   7.243
 4698SOL    HW231237   2.955   3.202   7.143
 4699SOL     OW31238   2.308   1.815   6.240
 4699SOL    HW131239   2.292   1.888   6.181
 4699SOL    HW231240   2.377   1.764   6.197
 4700SOL     OW31241   6.241   3.647   1.548
 4700SOL    HW131242   6.318   3.703   1.542
 4700SOL    HW231243   6.268   3.577   1.608
 4701SOL     OW31244   1.973   4.213   1.392
 4701SOL    HW131245   1.981   4.236   1.299
 4701SOL    HW231246   2.043   4.150   1.407
 4702SOL     OW31247   6.063   3.314   7.403
 4702SOL    HW131248   5.998   3.298   7.471
 4702SOL    HW231249   6.140   3.346   7.451
 4703SOL     OW31250   6.440   4.132   0.205
 4703SOL    HW131251   6.373   4.083   0.156
 4703SOL    HW231252   0.042   4.065   0.252
 4704SOL     OW31253   5.182   2.089   6.327
 4704SOL    HW131254   5.179   2.166   6.270
 4704SOL    HW231255   5.095   2.051   6.321
 4705SOL     OW31256   3.398   5.967   6.870
 4705SOL    HW131257   3.382   5.996   6.780
 4705SOL    HW231258   3.454   6.036   6.907
 4706SOL     OW31259   1.731   5.459   6.038
 4706SOL    HW131260   1.801   5.516   6.007
 4706SOL    HW231261   1.660   5.519   6.063
 4707SOL     OW31262   5.620   0.563   1.260
 4707SOL    HW131263   5.607   0.470   1.245
 4707SOL    HW231264   5.645   0.598   1.174
 4708SOL     OW31265   1.082   4.434   0.713
 4708SOL    HW131266   1.090   4.345   0.677
 4708SOL    HW231267   1.035   4.423   0.795
 4709SOL     OW31268   3.806   3.018   0.183
 4709SOL    HW131269   3.844   3.104   0.196
 4709SOL    HW231270   3.871   2.971   0.130
 4710SOL     OW31271   3.948   6.115   5.990
 4710SOL    HW131272   4.024   6.103   5.933
 4710SOL    HW231273   3.899   6.034   5.982
 4711SOL     OW31274   0.796   0.433   6.854
 4711SOL    HW131275   0.826   0.343   6.868
 4711SOL    HW231276   0.874   0.486   6.868
 4712SOL     OW31277   3.330   3.370   1.654
 4712SOL    HW131278   3.335   3.276   1.671
 4712SOL    HW231279   3.339   3.411   1.740
 4713SOL     OW31280   0.268   4.492   6.125
 4713SOL    HW131281   0.306   4.414   6.083
 4713SOL    HW231282   0.238   4.546   6.052
 4714SOL     OW31283   3.155   2.406   1.559
 4714SOL    HW131284   3.232   2.456   1.530
 4714SOL    HW231285   3.117   2.460   1.629
 4715SOL     OW31286   0.549   6.233   0.423
 4715SOL    HW131287   0.473   6.251   0.477
 4715SOL    HW231288   0.516   6.233   0.333
 4716SOL     OW31289   5.336   2.072   7.052
 4716SOL    HW131290   5.390   2.048   6.977
 4716SOL    HW231291   5.373   2.021   7.125
 4717SOL     OW31292   3.469   3.878   6.726
 4717SOL    HW131293   3.554   3.854   6.689
 4717SOL    HW231294   3.475   3.972   6.742
 4718SOL     OW31295   2.743   1.973   7.638
 4718SOL    HW131296   2.731   2.024   7.718
 4718SOL    HW231297   2.755   1.883   7.668
 4719SOL     OW31298   4.930   3.289   0.019
 4719SOL    HW131299   4.956   3.212   7.770
 4719SOL    HW231300   4.884   3.252   0.095
 4720SOL     OW31301   2.666   3.054   7.187
 4720SOL    HW131302   2.688   2.976   7.137
 4720SOL    HW231303   2.750   3.098   7.200
 4721SOL     OW31304   1.197   3.164   0.874
 4721SOL    HW131305   1.243   3.223   0.933
 4721SOL    HW231306   1.232   3.077   0.895
 4722SOL     OW31307   0.599   5.916   5.493
 4722SOL    HW131308   0.506   5.893   5.496
 4722SOL    HW231309   0.603   5.996   5.440
 4723SOL     OW31310   4.041   0.392   5.870
 4723SOL    HW131311   4.125   0.358   5.902
 4723SOL    HW231312   4.065   0.464   5.812
 4724SOL     OW31313   2.355   4.997   0.021
 4724SOL    HW131314   2.339   4.957   0.107
 4724SOL    HW231315   2.301   5.075   0.021
 4725SOL     OW31316   4.270   2.801   0.154
 4725SOL    HW131317   4.277   2.714   0.114
 4725SOL    HW231318   4.272   2.862   0.080
 4726SOL     OW31319   0.986   0.034   7.305
 4726SOL    HW131320   0.963   6.405   7.253
 4726SOL    HW231321   0.902   0.077   7.323
 4727SOL     OW31322   5.089   2.988   0.186
 4727SOL    HW131323   5.179   3.022   0.193
 4727SOL    HW231324   5.086   2.948   0.100
 4728SOL     OW31325   0.809   4.292   1.357
 4728SOL    HW131326   0.853   4.262   1.277
 4728SOL    HW231327   0.717   4.270   1.343
 4729SOL     OW31328   0.166   4.859   2.699
 4729SOL    HW131329   0.088   4.815   2.734
 4729SOL    HW231330   0.141   4.952   2.697
 4730SOL     OW31331   5.331   4.437   1.438
 4730SOL    HW131332   5.380   4.480   1.509
 4730SOL    HW231333   5.239   4.442   1.466
 4731SOL     OW31334   1.825   0.974   6.668
 4731SOL    HW131335   1.880   0.997   6.593
 4731SOL    HW231336   1.765   0.907   6.633
 4732SOL     OW31337   5.258   0.971   7.698
 4732SOL    HW131338   5.179   0.942   7.743
 4732SOL    HW231339   5.281   0.898   7.640
 4733SOL     OW31340   0.130   4.793   0.842
 4733SOL    HW131341   0.124   4.735   0.766
 4733SOL    HW231342   0.185   4.865   0.813
 4734SOL     OW31343   1.949   4.885   5.698
 4734SOL    HW131344   1.935   4.842   5.783
 4734SOL    HW231345   1.895   4.835   5.637
 4735SOL     OW31346   3.535   3.653   7.462
 4735SOL    HW131347   3.458   3.601   7.437
 4735SOL    HW231348   3.581   3.599   7.527
 4736SOL     OW31349   4.573   4.785   6.442
 4736SOL    HW131350   4.577   4.732   6.522
 4736SOL    HW231351   4.653   4.761   6.394
 4737SOL     OW31352   2.963   2.827   0.823
 4737SOL    HW131353   3.048   2.786   0.841
 4737SOL    HW231354   2.913   2.814   0.903
 4738SOL     OW31355   1.492   4.905   1.524
 4738SOL    HW131356   1.420   4.843   1.539
 4738SOL    HW231357   1.507   4.945   1.609
 4739SOL     OW31358   2.543   0.076   5.659
 4739SOL    HW131359   2.524   0.112   5.572
 4739SOL    HW231360   2.633   0.044   5.652
 4740SOL     OW31361   1.583   2.882   0.939
 4740SOL    HW131362   1.617   2.813   0.996
 4740SOL    HW231363   1.652   2.948   0.937
 4741SOL     OW31364   4.158   0.783   0.522
 4741SOL    HW131365   4.212   0.746   0.592
 4741SOL    HW231366   4.090   0.832   0.568
 4742SOL     OW31367   6.023   5.157   0.517
 4742SOL    HW131368   6.099   5.214   0.522
 4742SOL    HW231369   6.006   5.132   0.608
 4743SOL     OW31370   3.005   4.866   0.152
 4743SOL    HW131371   3.098   4.880   0.138
 4743SOL    HW231372   2.994   4.869   0.247
 4744SOL     OW31373   4.139   2.867   6.471
 4744SOL    HW131374   4.063   2.893   6.420
 4744SOL    HW231375   4.108   2.797   6.529
 4745SOL     OW31376   0.066   3.829   7.174
 4745SOL    HW131377   0.001   3.763   7.198
 4745SOL    HW231378   0.113   3.790   7.101
 4746SOL     OW31379   2.706   5.161   0.654
 4746SOL    HW131380   2.752   5.086   0.692
 4746SOL    HW231381   2.684   5.134   0.565
 4747SOL     OW31382   3.207   3.598   1.149
 4747SOL    HW131383   3.158   3.629   1.225
 4747SOL    HW231384   3.230   3.507   1.170
 4748SOL     OW31385   1.756   5.254   6.216
 4748SOL    HW131386   1.771   5.305   6.296
 4748SOL    HW231387   1.731   5.318   6.150
 4749SOL     OW31388   4.042   2.476   1.279
 4749SOL    HW131389   4.117   2.415   1.282
 4749SOL    HW231390   4.080   2.559   1.250
 4750SOL     OW31391   3.034   4.062   7.274
 4750SOL    HW131392   3.098   4.044   7.205
 4750SOL    HW231393   3.087   4.097   7.346
 4751SOL     OW31394   4.303   3.888   6.292
 4751SOL    HW131395   4.249   3.929   6.225
 4751SOL    HW231396   4.302   3.795   6.270
 4752SOL     OW31397   5.091   5.868   6.536
 4752SOL    HW131398   5.147   5.853   6.460
 4752SOL    HW231399   5.002   5.863   6.503
 4753SOL     OW31400   5.544   1.653   1.853
 4753SOL    HW131401   5.509   1.719   1.912
 4753SOL    HW231402   5.547   1.573   1.905
 4754SOL     OW31403   5.588   0.480   6.195
 4754SOL    HW131404   5.509   0.529   6.171
 4754SOL    HW231405   5.628   0.457   6.111
 4755SOL     OW31406   5.408   5.885   7.669
 4755SOL    HW131407   5.431   5.967   7.625
 4755SOL    HW231408   5.312   5.887   7.675
 4756SOL     OW31409   2.834   4.087   7.076
 4756SOL    HW131410   2.750   4.118   7.110
 4756SOL    HW231411   2.890   4.080   7.154
 4757SOL     OW31412   3.939   1.603   6.964
 4757SOL    HW131413   3.997   1.544   6.916
 4757SOL    HW231414   3.957   1.689   6.927
 4758SOL     OW31415   2.170   4.224   7.422
 4758SOL    HW131416   2.107   4.153   7.411
 4758SOL    HW231417   2.151   4.284   7.350
 4759SOL     OW31418   3.574   3.663   6.233
 4759SOL    HW131419   3.511   3.728   6.201
 4759SOL    HW231420   3.531   3.620   6.306
 4760SOL     OW31421   2.199   0.353   7.446
 4760SOL    HW131422   2.198   0.447   7.466
 4760SOL    HW231423   2.185   0.310   7.531
 4761SOL     OW31424   1.560   5.517   0.789
 4761SOL    HW131425   1.489   5.510   0.853
 4761SOL    HW231426   1.540   5.449   0.724
 4762SOL     OW31427   6.012   5.083   1.401
 4762SOL    HW131428   5.940   5.117   1.455
 4762SOL    HW231429   5.976   5.007   1.357
 4763SOL     OW31430   1.020   2.482   6.870
 4763SOL    HW131431   0.974   2.422   6.811
 4763SOL    HW231432   0.951   2.520   6.924
 4764SOL     OW31433   5.242   5.810   1.384
 4764SOL    HW131434   5.178   5.813   1.455
 4764SOL    HW231435   5.307   5.876   1.407
 4765SOL     OW31436   3.933   5.475   0.751
 4765SOL    HW131437   3.867   5.413   0.783
 4765SOL    HW231438   4.016   5.428   0.757
 4766SOL     OW31439   1.512   0.031   7.531
 4766SOL    HW131440   1.495   0.115   7.575
 4766SOL    HW231441   1.497   0.050   7.438
 4767SOL     OW31442   3.259   4.909   7.609
 4767SOL    HW131443   3.262   4.902   7.704
 4767SOL    HW231444   3.292   4.998   7.590
 4768SOL     OW31445   5.366   6.031   1.177
 4768SOL    HW131446   5.365   6.024   1.272
 4768SOL    HW231447   5.274   6.033   1.152
 4769SOL     OW31448   4.640   3.181   7.231
 4769SOL    HW131449   4.676   3.214   7.149
 4769SOL    HW231450   4.641   3.086   7.221
 4770SOL     OW31451   3.993   1.434   2.524
 4770SOL    HW131452   3.934   1.364   2.497
 4770SOL    HW231453   4.080   1.393   2.527
 4771SOL     OW31454   6.116   1.351   0.547
 4771SOL    HW131455   6.061   1.273   0.546
 4771SOL    HW231456   6.092   1.399   0.468
 4772SOL     OW31457   2.417   6.433   0.092
 4772SOL    HW131458   2.433   6.425   7.801
 4772SOL    HW231459   2.469   6.363   0.132
 4773SOL     OW31460   3.516   4.983   1.080
 4773SOL    HW131461   3.457   5.040   1.030
 4773SOL    HW231462   3.598   5.032   1.084
 4774SOL     OW31463   1.091   3.262   7.787
 4774SOL    HW131464   1.155   3.205   7.744
 4774SOL    HW231465   1.125   3.272   0.073
 4775SOL     OW31466   1.915   4.504   1.042
 4775SOL    HW131467   1.977   4.499   0.969
 4775SOL    HW231468   1.961   4.554   1.109
 4776SOL     OW31469   3.872   1.133   0.833
 4776SOL    HW131470   3.909   1.071   0.770
 4776SOL    HW231471   3.842   1.078   0.905
 4777SOL     OW31472   1.289   5.986   7.143
 4777SOL    HW131473   1.220   5.939   7.190
 4777SOL    HW231474   1.272   5.968   7.051
 4778SOL     OW31475   4.740   0.065   1.503
 4778SOL    HW131476   4.716   0.156   1.519
 4778SOL    HW231477   4.802   0.069   1.430
 4779SOL     OW31478   5.059   3.076   6.620
 4779SOL    HW131479   5.115   3.153   6.631
 4779SOL    HW231480   5.062   3.057   6.527
 4780SOL     OW31481   5.107   5.909   7.399
 4780SOL    HW131482   5.018   5.943   7.397
 4780SOL    HW231483   5.130   5.907   7.492
 4781SOL     OW31484   3.951   1.966   0.761
 4781SOL    HW131485   3.993   1.952   0.677
 4781SOL    HW231486   3.922   1.879   0.788
 4782SOL     OW31487   4.262   5.699   1.151
 4782SOL    HW131488   4.181   5.748   1.140
 4782SOL    HW231489   4.311   5.747   1.218
 4783SOL     OW31490   3.043   1.467   0.676
 4783SOL    HW131491   3.119   1.491   0.624
 4783SOL    HW231492   3.063   1.499   0.764
 4784SOL     OW31493   5.932   1.615   7.747
 4784SOL    HW131494   5.880   1.662   0.010
 4784SOL    HW231495   6.018   1.604   7.787
 4785SOL     OW31496   3.977   2.987   0.712
 4785SOL    HW131497   4.031   3.053   0.669
 4785SOL    HW231498   4.033   2.909   0.715
 4786SOL     OW31499   4.252   0.253   6.678
 4786SOL    HW131500   4.174   0.301   6.649
 4786SOL    HW231501   4.314   0.320   6.705
 4787SOL     OW31502   5.125   0.735   1.364
 4787SOL    HW131503   5.188   0.773   1.303
 4787SOL    HW231504   5.129   0.792   1.441
 4788SOL     OW31505   1.345   2.450   0.177
 4788SOL    HW131506   1.365   2.380   0.116
 4788SOL    HW231507   1.265   2.420   0.222
 4789SOL     OW31508   3.916   0.276   0.651
 4789SOL    HW131509   3.880   0.197   0.611
 4789SOL    HW231510   4.006   0.251   0.674
 4790SOL     OW31511   3.350   3.943   6.424
 4790SOL    HW131512   3.379   3.906   6.341
 4790SOL    HW231513   3.400   3.896   6.491
 4791SOL     OW31514   3.445   2.372   0.931
 4791SOL    HW131515   3.444   2.465   0.955
 4791SOL    HW231516   3.519   2.335   0.979
 4792SOL     OW31517   3.348   4.425   6.441
 4792SOL    HW131518   3.364   4.454   6.531
 4792SOL    HW231519   3.340   4.506   6.391
 4793SOL     OW31520   5.025   6.112   7.137
 4793SOL    HW131521   5.092   6.061   7.091
 4793SOL    HW231522   5.071   6.189   7.169
 4794SOL     OW31523   6.027   0.394   6.919
 4794SOL    HW131524   6.029   0.362   7.009
 4794SOL    HW231525   6.058   0.320   6.866
 4795SOL     OW31526   6.220   5.220   1.050
 4795SOL    HW131527   6.162   5.145   1.038
 4795SOL    HW231528   6.195   5.257   1.135
 4796SOL     OW31529   0.002   1.232   2.035
 4796SOL    HW131530   0.002   1.159   1.973
 4796SOL    HW231531   0.054   1.300   1.991
 4797SOL     OW31532   0.982   4.612   6.517
 4797SOL    HW131533   0.898   4.585   6.554
 4797SOL    HW231534   0.976   4.586   6.425
 4798SOL     OW31535   2.933   0.002   5.919
 4798SOL    HW131536   3.006   6.407   5.965
 4798SOL    HW231537   2.856   6.430   5.972
 4799SOL     OW31538   6.286   2.999   0.574
 4799SOL    HW131539   6.212   3.011   0.634
 4799SOL    HW231540   6.299   3.084   0.533
 4800SOL     OW31541   5.084   2.807   6.672
 4800SOL    HW131542   5.075   2.902   6.663
 4800SOL    HW231543   5.134   2.780   6.595
 4801SOL     OW31544   0.710   1.102   5.596
 4801SOL    HW131545   0.684   1.058   5.515
 4801SOL    HW231546   0.650   1.069   5.663
 4802SOL     OW31547   1.006   1.536   5.698
 4802SOL    HW131548   1.065   1.530   5.774
 4802SOL    HW231549   0.964   1.450   5.694
 4803SOL     OW31550   0.045   4.778   2.192
 4803SOL    HW131551   0.118   4.834   2.220
 4803SOL    HW231552   6.415   4.823   2.225
 4804SOL     OW31553   1.042   5.958   0.463
 4804SOL    HW131554   0.962   5.906   0.476
 4804SOL    HW231555   1.046   5.972   0.368
 4805SOL     OW31556   3.039   1.825   5.159
 4805SOL    HW131557   2.976   1.852   5.092
 4805SOL    HW231558   2.985   1.796   5.232
 4806SOL     OW31559   2.622   4.636   6.348
 4806SOL    HW131560   2.545   4.687   6.373
 4806SOL    HW231561   2.689   4.701   6.331
 4807SOL     OW31562   4.871   3.489   1.067
 4807SOL    HW131563   4.794   3.493   1.011
 4807SOL    HW231564   4.933   3.434   1.019
 4808SOL     OW31565   0.425   5.916   1.065
 4808SOL    HW131566   0.330   5.920   1.069
 4808SOL    HW231567   0.453   5.933   1.155
 4809SOL     OW31568   2.714   3.278   1.365
 4809SOL    HW131569   2.684   3.213   1.301
 4809SOL    HW231570   2.689   3.241   1.450
 4810SOL     OW31571   1.551   4.525   7.006
 4810SOL    HW131572   1.552   4.482   6.921
 4810SOL    HW231573   1.634   4.572   7.012
 4811SOL     OW31574   6.444   3.565   1.797
 4811SOL    HW131575   0.037   3.537   1.715
 4811SOL    HW231576   0.054   3.534   1.866
 4812SOL     OW31577   4.841   2.849   0.997
 4812SOL    HW131578   4.847   2.783   1.066
 4812SOL    HW231579   4.899   2.920   1.026
 4813SOL     OW31580   2.262   0.924   1.396
 4813SOL    HW131581   2.228   0.996   1.448
 4813SOL    HW231582   2.349   0.953   1.368
 4814SOL     OW31583   1.832   3.193   7.190
 4814SOL    HW131584   1.757   3.155   7.236
 4814SOL    HW231585   1.874   3.248   7.256
 4815SOL     OW31586   0.178   1.087   5.932
 4815SOL    HW131587   0.271   1.107   5.931
 4815SOL    HW231588   0.173   0.997   5.964
 4816SOL     OW31589   6.030   5.661   1.988
 4816SOL    HW131590   6.016   5.567   1.985
 4816SOL    HW231591   6.022   5.683   2.081
 4817SOL     OW31592   6.409   2.149   7.131
 4817SOL    HW131593   0.013   2.147   7.211
 4817SOL    HW231594   6.335   2.207   7.152
 4818SOL     OW31595   3.909   1.318   0.511
 4818SOL    HW131596   4.000   1.318   0.540
 4818SOL    HW231597   3.893   1.228   0.481
 4819SOL     OW31598   0.395   4.318   7.041
 4819SOL    HW131599   0.380   4.226   7.065
 4819SOL    HW231600   0.404   4.317   6.946
 4820SOL     OW31601   0.061   2.085   0.402
 4820SOL    HW131602   0.147   2.116   0.373
 4820SOL    HW231603   0.073   2.065   0.495
 4821SOL     OW31604   3.239   5.522   6.725
 4821SOL    HW131605   3.194   5.467   6.789
 4821SOL    HW231606   3.270   5.598   6.775
 4822SOL     OW31607   0.130   4.595   1.578
 4822SOL    HW131608   0.130   4.583   1.483
 4822SOL    HW231609   0.196   4.533   1.610
 4823SOL     OW31610   5.696   6.076   6.706
 4823SOL    HW131611   5.699   6.165   6.740
 4823SOL    HW231612   5.607   6.046   6.722
 4824SOL     OW31613   1.935   0.110   7.646
 4824SOL    HW131614   2.017   0.147   7.679
 4824SOL    HW231615   1.946   0.108   7.551
 4825SOL     OW31616   0.340   4.306   5.664
 4825SOL    HW131617   0.347   4.221   5.708
 4825SOL    HW231618   0.269   4.351   5.709
 4826SOL     OW31619   0.055   2.684   6.811
 4826SOL    HW131620   0.020   2.710   6.725
 4826SOL    HW231621   6.447   2.729   6.874
 4827SOL     OW31622   4.066   1.669   6.593
 4827SOL    HW131623   4.159   1.686   6.584
 4827SOL    HW231624   4.037   1.727   6.664
 4828SOL     OW31625   2.938   4.863   0.428
 4828SOL    HW131626   2.847   4.862   0.399
 4828SOL    HW231627   2.941   4.801   0.501
 4829SOL     OW31628   5.179   1.859   6.581
 4829SOL    HW131629   5.107   1.880   6.641
 4829SOL    HW231630   5.232   1.939   6.579
 4830SOL     OW31631   5.778   0.886   6.271
 4830SOL    HW131632   5.718   0.841   6.330
 4830SOL    HW231633   5.732   0.889   6.187
 4831SOL     OW31634   1.291   4.375   6.384
 4831SOL    HW131635   1.281   4.455   6.333
 4831SOL    HW231636   1.386   4.365   6.394
 4832SOL     OW31637   2.011   3.149   1.350
 4832SOL    HW131638   2.069   3.090   1.399
 4832SOL    HW231639   1.951   3.183   1.416
 4833SOL     OW31640   5.203   3.185   5.281
 4833SOL    HW131641   5.107   3.191   5.282
 4833SOL    HW231642   5.221   3.099   5.242
 4834SOL     OW31643   2.881   4.252   0.345
 4834SOL    HW131644   2.971   4.264   0.313
 4834SOL    HW231645   2.851   4.341   0.365
 4835SOL     OW31646   3.341   0.481   0.766
 4835SOL    HW131647   3.272   0.438   0.816
 4835SOL    HW231648   3.307   0.487   0.677
 4836SOL     OW31649   2.239   4.476   6.182
 4836SOL    HW131650   2.318   4.443   6.226
 4836SOL    HW231651   2.263   4.479   6.089
 4837SOL     OW31652   4.799   1.059   7.352
 4837SOL    HW131653   4.867   1.124   7.372
 4837SOL    HW231654   4.745   1.100   7.285
 4838SOL     OW31655   4.919   5.282   7.756
 4838SOL    HW131656   4.857   5.297   0.024
 4838SOL    HW231657   4.996   5.335   7.780
 4839SOL     OW31658   3.125   2.175   1.421
 4839SOL    HW131659   3.064   2.185   1.348
 4839SOL    HW231660   3.123   2.259   1.466
 4840SOL     OW31661   1.702   3.695   0.175
 4840SOL    HW131662   1.718   3.711   0.268
 4840SOL    HW231663   1.607   3.700   0.166
 4841SOL     OW31664   1.103   2.607   1.874
 4841SOL    HW131665   1.192   2.596   1.908
 4841SOL    HW231666   1.114   2.661   1.796
 4842SOL     OW31667   4.183   3.650   7.590
 4842SOL    HW131668   4.270   3.685   7.569
 4842SOL    HW231669   4.158   3.694   7.671
 4843SOL     OW31670   4.964   4.746   0.807
 4843SOL    HW131671   4.984   4.770   0.717
 4843SOL    HW231672   4.874   4.776   0.820
 4844SOL     OW31673   0.925   2.350   6.140
 4844SOL    HW131674   0.991   2.324   6.205
 4844SOL    HW231675   0.868   2.273   6.132
 4845SOL     OW31676   4.356   2.521   5.761
 4845SOL    HW131677   4.267   2.547   5.737
 4845SOL    HW231678   4.405   2.523   5.679
 4846SOL     OW31679   2.319   5.893   7.360
 4846SOL    HW131680   2.390   5.918   7.420
 4846SOL    HW231681   2.362   5.837   7.295
 4847SOL     OW31682   2.063   0.794   6.342
 4847SOL    HW131683   2.063   0.699   6.333
 4847SOL    HW231684   2.049   0.826   6.252
 4848SOL     OW31685   5.989   6.411   6.290
 4848SOL    HW131686   6.044   6.334   6.305
 4848SOL    HW231687   6.040   0.036   6.327
 4849SOL     OW31688   4.162   4.310   2.501
 4849SOL    HW131689   4.079   4.349   2.527
 4849SOL    HW231690   4.222   4.384   2.495
 4850SOL     OW31691   4.110   3.907   2.058
 4850SOL    HW131692   4.115   3.875   1.968
 4850SOL    HW231693   4.123   3.829   2.112
 4851SOL     OW31694   4.525   4.666   2.603
 4851SOL    HW131695   4.554   4.581   2.636
 4851SOL    HW231696   4.606   4.717   2.593
 4852SOL     OW31697   0.756   4.124   2.128
 4852SOL    HW131698   0.718   4.074   2.201
 4852SOL    HW231699   0.714   4.209   2.134
 4853SOL     OW31700   3.581   3.854   0.926
 4853SOL    HW131701   3.645   3.899   0.982
 4853SOL    HW231702   3.537   3.793   0.986
 4854SOL     OW31703   3.922   5.714   7.466
 4854SOL    HW131704   3.833   5.705   7.501
 4854SOL    HW231705   3.912   5.770   7.389
 4855SOL     OW31706   5.879   4.667   5.885
 4855SOL    HW131707   5.952   4.608   5.902
 4855SOL    HW231708   5.801   4.619   5.913
 4856SOL     OW31709   2.559   2.248   0.265
 4856SOL    HW131710   2.467   2.256   0.291
 4856SOL    HW231711   2.578   2.329   0.218
 4857SOL     OW31712   5.742   1.733   0.116
 4857SOL    HW131713   5.662   1.754   0.066
 4857SOL    HW231714   5.758   1.812   0.168
 4858SOL     OW31715   5.173   4.302   7.214
 4858SOL    HW131716   5.234   4.367   7.250
 4858SOL    HW231717   5.214   4.274   7.132
 4859SOL     OW31718   2.351   5.457   0.656
 4859SOL    HW131719   2.374   5.365   0.664
 4859SOL    HW231720   2.394   5.487   0.577
 4860SOL     OW31721   0.373   4.055   6.547
 4860SOL    HW131722   0.346   4.144   6.525
 4860SOL    HW231723   0.455   4.067   6.596
 4861SOL     OW31724   1.357   0.211   1.290
 4861SOL    HW131725   1.411   0.273   1.338
 4861SOL    HW231726   1.340   0.140   1.352
 4862SOL     OW31727   5.314   6.432   6.486
 4862SOL    HW131728   5.271   6.355   6.523
 4862SOL    HW231729   5.245   0.027   6.435
 4863SOL     OW31730   1.128   5.658   1.302
 4863SOL    HW131731   1.041   5.624   1.283
 4863SOL    HW231732   1.124   5.685   1.394
 4864SOL     OW31733   4.589   4.689   0.051
 4864SOL    HW131734   4.636   4.747   7.794
 4864SOL    HW231735   4.518   4.653   7.800
 4865SOL     OW31736   2.184   1.914   0.332
 4865SOL    HW131737   2.232   1.840   0.370
 4865SOL    HW231738   2.122   1.940   0.400
 4866SOL     OW31739   6.097   1.719   6.191
 4866SOL    HW131740   6.028   1.779   6.165
 4866SOL    HW231741   6.052   1.647   6.236
 4867SOL     OW31742   5.876   0.820   0.702
 4867SOL    HW131743   5.787   0.827   0.668
 4867SOL    HW231744   5.867   0.836   0.796
 4868SOL     OW31745   2.161   2.989   1.517
 4868SOL    HW131746   2.106   2.947   1.583
 4868SOL    HW231747   2.211   2.917   1.478
 4869SOL     OW31748   1.856   2.028   6.631
 4869SOL    HW131749   1.937   2.057   6.590
 4869SOL    HW231750   1.861   1.932   6.629
 4870SOL     OW31751   5.422   2.750   1.854
 4870SOL    HW131752   5.515   2.728   1.844
 4870SOL    HW231753   5.395   2.703   1.933
 4871SOL     OW31754   4.249   3.379   1.167
 4871SOL    HW131755   4.178   3.388   1.230
 4871SOL    HW231756   4.299   3.303   1.198
 4872SOL     OW31757   0.106   3.754   6.116
 4872SOL    HW131758   0.052   3.771   6.039
 4872SOL    HW231759   0.073   3.672   6.152
 4873SOL     OW31760   5.768   3.072   6.841
 4873SOL    HW131761   5.777   3.009   6.913
 4873SOL    HW231762   5.785   3.157   6.882
 4874SOL     OW31763   2.203   5.001   6.449
 4874SOL    HW131764   2.190   5.003   6.544
 4874SOL    HW231765   2.145   5.070   6.416
 4875SOL     OW31766   2.896   6.134   6.023
 4875SOL    HW131767   2.963   6.177   5.970
 4875SOL    HW231768   2.865   6.062   5.968
 4876SOL     OW31769   5.378   2.059   0.762
 4876SOL    HW131770   5.426   2.083   0.842
 4876SOL    HW231771   5.312   1.997   0.792
 4877SOL     OW31772   1.311   5.363   0.397
 4877SOL    HW131773   1.356   5.342   0.479
 4877SOL    HW231774   1.380   5.358   0.330
 4878SOL     OW31775   6.181   3.387   6.293
 4878SOL    HW131776   6.208   3.381   6.385
 4878SOL    HW231777   6.087   3.368   6.294
 4879SOL     OW31778   0.545   0.843   0.530
 4879SOL    HW131779   0.524   0.936   0.522
 4879SOL    HW231780   0.600   0.824   0.454
 4880SOL     OW31781   1.991   2.229   7.167
 4880SOL    HW131782   2.031   2.158   7.218
 4880SOL    HW231783   2.057   2.299   7.167
 4881SOL     OW31784   1.386   3.980   0.029
 4881SOL    HW131785   1.467   4.028   0.010
 4881SOL    HW231786   1.347   3.964   7.746
 4882SOL     OW31787   0.060   2.649   1.875
 4882SOL    HW131788   0.021   2.576   1.827
 4882SOL    HW231789   0.070   2.617   1.965
 4883SOL     OW31790   4.830   1.281   1.174
 4883SOL    HW131791   4.905   1.245   1.220
 4883SOL    HW231792   4.806   1.359   1.225
 4884SOL     OW31793   0.977   0.080   1.189
 4884SOL    HW131794   0.917   0.076   1.114
 4884SOL    HW231795   0.931   0.035   1.259
 4885SOL     OW31796   3.018   4.906   6.827
 4885SOL    HW131797   2.994   4.983   6.776
 4885SOL    HW231798   2.968   4.914   6.908
 4886SOL     OW31799   2.484   4.061   1.890
 4886SOL    HW131800   2.485   4.071   1.795
 4886SOL    HW231801   2.397   4.025   1.910
 4887SOL     OW31802   1.835   3.311   6.348
 4887SOL    HW131803   1.846   3.403   6.324
 4887SOL    HW231804   1.917   3.268   6.321
 4888SOL     OW31805   1.388   5.614   7.677
 4888SOL    HW131806   1.322   5.683   7.687
 4888SOL    HW231807   1.471   5.662   7.668
 4889SOL     OW31808   0.077   3.243   0.839
 4889SOL    HW131809   0.161   3.253   0.796
 4889SOL    HW231810   0.077   3.152   0.871
 4890SOL     OW31811   5.964   2.323   6.447
 4890SOL    HW131812   5.963   2.228   6.451
 4890SOL    HW231813   6.055   2.348   6.461
 4891SOL     OW31814   0.910   5.850   1.639
 4891SOL    HW131815   0.843   5.806   1.691
 4891SOL    HW231816   0.878   5.940   1.630
 4892SOL     OW31817   4.344   3.054   7.502
 4892SOL    HW131818   4.414   3.119   7.514
 4892SOL    HW231819   4.327   3.053   7.408
 4893SOL     OW31820   5.152   1.924   1.154
 4893SOL    HW131821   5.079   1.984   1.173
 4893SOL    HW231822   5.115   1.837   1.168
 4894SOL     OW31823   5.785   2.122   1.019
 4894SOL    HW131824   5.828   2.061   1.078
 4894SOL    HW231825   5.783   2.077   0.935
 4895SOL     OW31826   4.177   3.995   6.067
 4895SOL    HW131827   4.130   3.954   5.994
 4895SOL    HW231828   4.242   4.052   6.025
 4896SOL     OW31829   3.283   3.343   1.215
 4896SOL    HW131830   3.243   3.273   1.164
 4896SOL    HW231831   3.368   3.308   1.242
 4897SOL     OW31832   4.317   3.008   0.330
 4897SOL    HW131833   4.306   2.929   0.277
 4897SOL    HW231834   4.318   2.977   0.420
 4898SOL     OW31835   5.354   3.673   0.781
 4898SOL    HW131836   5.311   3.751   0.747
 4898SOL    HW231837   5.422   3.653   0.715
 4899SOL     OW31838   2.486   6.352   5.862
 4899SOL    HW131839   2.488   6.264   5.823
 4899SOL    HW231840   2.508   6.411   5.790
 4900SOL     OW31841   4.340   3.748   6.552
 4900SOL    HW131842   4.310   3.798   6.476
 4900SOL    HW231843   4.435   3.751   6.547
 4901SOL     OW31844   4.327   3.491   6.910
 4901SOL    HW131845   4.360   3.436   6.981
 4901SOL    HW231846   4.338   3.580   6.942
 4902SOL     OW31847   6.348   0.025   0.661
 4902SOL    HW131848   6.362   0.115   0.691
 4902SOL    HW231849   6.386   6.419   0.731
 4903SOL     OW31850   4.781   5.781   0.247
 4903SOL    HW131851   4.852   5.844   0.254
 4903SOL    HW231852   4.709   5.820   0.298
 4904SOL     OW31853   2.238   4.114   1.324
 4904SOL    HW131854   2.221   4.160   1.242
 4904SOL    HW231855   2.301   4.045   1.300
 4905SOL     OW31856   5.340   4.702   7.630
 4905SOL    HW131857   5.322   4.609   7.642
 4905SOL    HW231858   5.424   4.716   7.674
 4906SOL     OW31859   4.282   1.900   1.430
 4906SOL    HW131860   4.251   1.901   1.339
 4906SOL    HW231861   4.203   1.914   1.482
 4907SOL     OW31862   5.707   4.070   1.166
 4907SOL    HW131863   5.620   4.048   1.135
 4907SOL    HW231864   5.765   4.049   1.093
 4908SOL     OW31865   2.264   2.058   6.983
 4908SOL    HW131866   2.319   1.986   6.952
 4908SOL    HW231867   2.178   2.019   6.998
 4909SOL     OW31868   2.184   0.263   0.959
 4909SOL    HW131869   2.267   0.277   0.914
 4909SOL    HW231870   2.142   0.349   0.959
 4910SOL     OW31871   6.253   2.192   0.348
 4910SOL    HW131872   6.346   2.174   0.341
 4910SOL    HW231873   6.227   2.217   0.259
 4911SOL     OW31874   0.852   6.001   7.555
 4911SOL    HW131875   0.933   6.042   7.524
 4911SOL    HW231876   0.855   6.012   7.650
 4912SOL     OW31877   5.599   5.077   6.776
 4912SOL    HW131878   5.654   5.096   6.700
 4912SOL    HW231879   5.584   5.162   6.817
 4913SOL     OW31880   1.545   3.827   6.443
 4913SOL    HW131881   1.616   3.781   6.488
 4913SOL    HW231882   1.546   3.791   6.354
 4914SOL     OW31883   5.164   3.921   7.411
 4914SOL    HW131884   5.131   4.010   7.423
 4914SOL    HW231885   5.210   3.901   7.493
 4915SOL     OW31886   6.331   1.614   1.623
 4915SOL    HW131887   6.350   1.574   1.538
 4915SOL    HW231888   6.369   1.702   1.617
 4916SOL     OW31889   4.472   1.348   7.005
 4916SOL    HW131890   4.452   1.288   6.934
 4916SOL    HW231891   4.506   1.426   6.962
 4917SOL     OW31892   2.144   2.522   2.320
 4917SOL    HW131893   2.083   2.520   2.394
 4917SOL    HW231894   2.226   2.552   2.358
 4918SOL     OW31895   0.176   4.131   1.702
 4918SOL    HW131896   0.196   4.047   1.660
 4918SOL    HW231897   0.125   4.179   1.637
 4919SOL     OW31898   3.361   2.182   1.272
 4919SOL    HW131899   3.286   2.181   1.331
 4919SOL    HW231900   3.421   2.245   1.311
 4920SOL     OW31901   2.062   3.527   6.707
 4920SOL    HW131902   2.132   3.496   6.650
 4920SOL    HW231903   2.071   3.475   6.787
 4921SOL     OW31904   5.502   1.929   1.566
 4921SOL    HW131905   5.462   1.931   1.479
 4921SOL    HW231906   5.547   1.844   1.570
 4922SOL     OW31907   0.965   2.163   0.657
 4922SOL    HW131908   0.883   2.198   0.692
 4922SOL    HW231909   0.938   2.108   0.583
 4923SOL     OW31910   2.246   5.855   1.688
 4923SOL    HW131911   2.308   5.865   1.760
 4923SOL    HW231912   2.164   5.829   1.730
 4924SOL     OW31913   6.150   6.333   2.172
 4924SOL    HW131914   6.069   6.380   2.190
 4924SOL    HW231915   6.204   6.395   2.124
 4925SOL     OW31916   4.037   4.304   0.076
 4925SOL    HW131917   4.027   4.303   7.784
 4925SOL    HW231918   3.970   4.364   0.107
 4926SOL     OW31919   6.136   2.461   2.263
 4926SOL    HW131920   6.131   2.526   2.334
 4926SOL    HW231921   6.050   2.419   2.264
 4927SOL     OW31922   2.614   5.697   2.197
 4927SOL    HW131923   2.541   5.686   2.136
 4927SOL    HW231924   2.581   5.758   2.263
 4928SOL     OW31925   5.249   3.898   0.659
 4928SOL    HW131926   5.156   3.876   0.661
 4928SOL    HW231927   5.254   3.985   0.698
 4929SOL     OW31928   6.012   4.117   7.027
 4929SOL    HW131929   5.953   4.050   7.062
 4929SOL    HW231930   5.961   4.159   6.958
 4930SOL     OW31931   4.673   2.109   2.580
 4930SOL    HW131932   4.626   2.185   2.548
 4930SOL    HW231933   4.727   2.081   2.506
 4931SOL     OW31934   1.288   0.017   1.464
 4931SOL    HW131935   1.205   0.034   1.508
 4931SOL    HW231936   1.339   6.416   1.528
 4932SOL     OW31937   0.083   0.661   0.547
 4932SOL    HW131938   6.447   0.628   0.579
 4932SOL    HW231939   0.060   0.739   0.496
 4933SOL     OW31940   1.635   1.477   7.134
 4933SOL    HW131941   1.687   1.404   7.100
 4933SOL    HW231942   1.586   1.440   7.207
 4934SOL     OW31943   6.041   1.715   1.449
 4934SOL    HW131944   6.067   1.799   1.409
 4934SOL    HW231945   6.085   1.649   1.395
 4935SOL     OW31946   4.248   4.473   1.899
 4935SOL    HW131947   4.234   4.567   1.915
 4935SOL    HW231948   4.174   4.446   1.846
 4936SOL     OW31949   1.429   4.470   7.617
 4936SOL    HW131950   1.463   4.551   7.654
 4936SOL    HW231951   1.389   4.497   7.534
 4937SOL     OW31952   2.767   1.552   2.033
 4937SOL    HW131953   2.720   1.628   2.000
 4937SOL    HW231954   2.699   1.497   2.072
 4938SOL     OW31955   5.738   0.210   6.723
 4938SOL    HW131956   5.736   0.115   6.708
 4938SOL    HW231957   5.672   0.245   6.664
 4939SOL     OW31958   4.784   1.741   7.725
 4939SOL    HW131959   4.753   1.789   7.802
 4939SOL    HW231960   4.859   1.692   7.757
 4940SOL     OW31961   5.454   5.512   7.206
 4940SOL    HW131962   5.536   5.535   7.249
 4940SOL    HW231963   5.472   5.524   7.113
 4941SOL     OW31964   3.577   0.168   6.912
 4941SOL    HW131965   3.533   0.101   6.964
 4941SOL    HW231966   3.545   0.154   6.822
 4942SOL     OW31967   1.283   1.775   7.191
 4942SOL    HW131968   1.320   1.713   7.254
 4942SOL    HW231969   1.213   1.819   7.240
 4943SOL     OW31970   5.479   2.703   0.100
 4943SOL    HW131971   5.512   2.782   0.058
 4943SOL    HW231972   5.425   2.736   0.173
 4944SOL     OW31973   2.338   4.819   0.544
 4944SOL    HW131974   2.366   4.813   0.636
 4944SOL    HW231975   2.395   4.758   0.497
 4945SOL     OW31976   5.041   1.139   1.299
 4945SOL    HW131977   5.032   1.078   1.227
 4945SOL    HW231978   4.999   1.095   1.373
 4946SOL     OW31979   0.689   4.511   0.065
 4946SOL    HW131980   0.761   4.458   0.098
 4946SOL    HW231981   0.684   4.584   0.127
 4947SOL     OW31982   5.480   2.149   0.525
 4947SOL    HW131983   5.498   2.239   0.553
 4947SOL    HW231984   5.456   2.103   0.605
 4948SOL     OW31985   3.367   0.329   7.781
 4948SOL    HW131986   3.448   0.310   0.025
 4948SOL    HW231987   3.387   0.312   7.689
 4949SOL     OW31988   1.735   1.050   5.791
 4949SOL    HW131989   1.815   1.000   5.777
 4949SOL    HW231990   1.668   0.983   5.810
 4950SOL     OW31991   0.210   3.229   1.947
 4950SOL    HW131992   0.199   3.323   1.958
 4950SOL    HW231993   0.256   3.201   2.026
 4951SOL     OW31994   4.346   0.140   7.725
 4951SOL    HW131995   4.324   0.164   7.636
 4951SOL    HW231996   4.262   0.125   7.768
 4952SOL     OW31997   5.062   5.124   1.341
 4952SOL    HW131998   5.157   5.135   1.342
 4952SOL    HW231999   5.027   5.205   1.377
 4953SOL     OW32000   0.527   1.649   6.751
 4953SOL    HW132001   0.452   1.707   6.761
 4953SOL    HW232002   0.489   1.564   6.727
 4954SOL     OW32003   2.231   4.569   7.435
 4954SOL    HW132004   2.287   4.631   7.389
 4954SOL    HW232005   2.199   4.510   7.366
 4955SOL     OW32006   4.527   4.750   5.469
 4955SOL    HW132007   4.453   4.748   5.409
 4955SOL    HW232008   4.523   4.667   5.516
 4956SOL     OW32009   1.720   0.249   7.318
 4956SOL    HW132010   1.694   0.335   7.350
 4956SOL    HW232011   1.637   0.202   7.307
 4957SOL     OW32012   3.435   4.768   5.769
 4957SOL    HW132013   3.413   4.823   5.844
 4957SOL    HW232014   3.527   4.787   5.751
 4958SOL     OW32015   2.949   3.797   0.536
 4958SOL    HW132016   3.026   3.802   0.478
 4958SOL    HW232017   2.911   3.885   0.532
 4959SOL     OW32018   0.113   4.408   1.086
 4959SOL    HW132019   0.086   4.431   0.998
 4959SOL    HW232020   0.176   4.336   1.075
 4960SOL     OW32021   5.159   3.640   5.288
 4960SOL    HW132022   5.198   3.559   5.321
 4960SOL    HW232023   5.225   3.707   5.305
 4961SOL     OW32024   1.400   1.186   0.756
 4961SOL    HW132025   1.357   1.102   0.738
 4961SOL    HW232026   1.446   1.208   0.675
 4962SOL     OW32027   4.136   1.410   7.785
 4962SOL    HW132028   4.072   1.383   0.048
 4962SOL    HW232029   4.171   1.328   7.750
 4963SOL     OW32030   3.263   3.334   7.797
 4963SOL    HW132031   3.306   3.322   7.712
 4963SOL    HW232032   3.335   3.347   0.056
 4964SOL     OW32033   4.262   4.305   6.180
 4964SOL    HW132034   4.208   4.325   6.257
 4964SOL    HW232035   4.280   4.390   6.140
 4965SOL     OW32036   0.709   5.638   1.452
 4965SOL    HW132037   0.674   5.687   1.526
 4965SOL    HW232038   0.744   5.705   1.393
 4966SOL     OW32039   4.033   3.967   1.005
 4966SOL    HW132040   4.103   4.023   1.036
 4966SOL    HW232041   4.046   3.883   1.050
 4967SOL     OW32042   2.355   1.334   6.976
 4967SOL    HW132043   2.336   1.389   7.052
 4967SOL    HW232044   2.407   1.262   7.010
 4968SOL     OW32045   5.614   6.144   5.719
 4968SOL    HW132046   5.586   6.072   5.662
 4968SOL    HW232047   5.549   6.213   5.704
 4969SOL     OW32048   1.480   1.510   6.907
 4969SOL    HW132049   1.506   1.595   6.872
 4969SOL    HW232050   1.531   1.500   6.988
 4970SOL     OW32051   0.889   5.334   0.412
 4970SOL    HW132052   0.904   5.423   0.444
 4970SOL    HW232053   0.801   5.336   0.376
 4971SOL     OW32054   1.502   5.249   7.036
 4971SOL    HW132055   1.459   5.323   6.992
 4971SOL    HW232056   1.593   5.253   7.006
 4972SOL     OW32057   5.761   6.380   5.284
 4972SOL    HW132058   5.815   6.303   5.268
 4972SOL    HW232059   5.818   0.006   5.265
 4973SOL     OW32060   3.718   2.567   1.973
 4973SOL    HW132061   3.636   2.520   1.958
 4973SOL    HW232062   3.769   2.509   2.029
 4974SOL     OW32063   6.049   2.023   6.977
 4974SOL    HW132064   6.037   1.936   6.939
 4974SOL    HW232065   6.040   2.083   6.903
 4975SOL     OW32066   3.542   5.283   2.288
 4975SOL    HW132067   3.591   5.358   2.320
 4975SOL    HW232068   3.509   5.310   2.203
 4976SOL     OW32069   3.135   2.324   7.136
 4976SOL    HW132070   3.064   2.388   7.142
 4976SOL    HW232071   3.101   2.246   7.180
 4977SOL     OW32072   3.833   2.279   0.109
 4977SOL    HW132073   3.919   2.240   0.093
 4977SOL    HW232074   3.802   2.237   0.189
 4978SOL     OW32075   0.818   5.762   0.223
 4978SOL    HW132076   0.770   5.707   0.285
 4978SOL    HW232077   0.780   5.849   0.233
 4979SOL     OW32078   4.358   1.274   0.800
 4979SOL    HW132079   4.326   1.302   0.715
 4979SOL    HW232080   4.442   1.232   0.782
 4980SOL     OW32081   1.556   4.345   0.694
 4980SOL    HW132082   1.485   4.403   0.668
 4980SOL    HW232083   1.610   4.397   0.753
 4981SOL     OW32084   1.090   0.832   7.488
 4981SOL    HW132085   1.037   0.912   7.494
 4981SOL    HW232086   1.026   0.762   7.480
 4982SOL     OW32087   1.483   0.115   7.267
 4982SOL    HW132088   1.513   0.083   7.182
 4982SOL    HW232089   1.389   0.131   7.255
 4983SOL     OW32090   2.603   4.914   7.718
 4983SOL    HW132091   2.520   4.946   7.754
 4983SOL    HW232092   2.578   4.848   7.654
 4984SOL     OW32093   3.405   0.708   7.595
 4984SOL    HW132094   3.484   0.656   7.610
 4984SOL    HW232095   3.335   0.657   7.637
 4985SOL     OW32096   3.365   2.756   7.017
 4985SOL    HW132097   3.339   2.664   7.009
 4985SOL    HW232098   3.443   2.763   6.962
 4986SOL     OW32099   5.831   6.437   0.857
 4986SOL    HW132100   5.794   6.348   0.860
 4986SOL    HW232101   5.829   0.012   0.764
 4987SOL     OW32102   5.246   5.750   1.847
 4987SOL    HW132103   5.246   5.788   1.935
 4987SOL    HW232104   5.202   5.816   1.793
 4988SOL     OW32105   2.273   0.844   4.887
 4988SOL    HW132106   2.324   0.891   4.821
 4988SOL    HW232107   2.284   0.752   4.865
 4989SOL     OW32108   6.403   4.628   6.590
 4989SOL    HW132109   0.050   4.635   6.579
 4989SOL    HW232110   6.367   4.695   6.531
 4990SOL     OW32111   2.802   6.423   5.680
 4990SOL    HW132112   2.854   6.430   5.760
 4990SOL    HW232113   2.835   0.045   5.623
 4991SOL     OW32114   4.673   2.731   7.357
 4991SOL    HW132115   4.675   2.796   7.287
 4991SOL    HW232116   4.599   2.756   7.412
 4992SOL     OW32117   3.931   1.659   5.383
 4992SOL    HW132118   3.986   1.592   5.342
 4992SOL    HW232119   3.886   1.613   5.454
 4993SOL     OW32120   6.198   3.516   6.891
 4993SOL    HW132121   6.143   3.459   6.838
 4993SOL    HW232122   6.209   3.595   6.838
 4994SOL     OW32123   3.564   4.408   0.402
 4994SOL    HW132124   3.581   4.483   0.345
 4994SOL    HW232125   3.519   4.445   0.478
 4995SOL     OW32126   0.523   5.264   1.208
 4995SOL    HW132127   0.440   5.264   1.160
 4995SOL    HW232128   0.537   5.356   1.232
 4996SOL     OW32129   2.649   2.779   7.562
 4996SOL    HW132130   2.615   2.855   7.515
 4996SOL    HW232131   2.740   2.771   7.532
 4997SOL     OW32132   5.964   6.261   7.197
 4997SOL    HW132133   5.926   6.343   7.165
 4997SOL    HW232134   6.054   6.263   7.166
 4998SOL     OW32135   3.794   2.242   7.642
 4998SOL    HW132136   3.798   2.253   7.737
 4998SOL    HW232137   3.877   2.276   7.610
 4999SOL     OW32138   4.906   4.040   5.453
 4999SOL    HW132139   4.813   4.028   5.472
 4999SOL    HW232140   4.922   4.133   5.470
 5000SOL     OW32141   4.971   2.000   0.068
 5000SOL    HW132142   4.885   1.961   0.081
 5000SOL    HW232143   4.985   1.997   7.776
 5001SOL     OW32144   1.723   1.364   6.396
 5001SOL    HW132145   1.796   1.333   6.451
 5001SOL    HW232146   1.719   1.458   6.413
 5002SOL     OW32147   4.916   3.668   7.096
 5002SOL    HW132148   4.930   3.574   7.082
 5002SOL    HW232149   4.946   3.684   7.185
 5003SOL     OW32150   2.544   4.857   2.132
 5003SOL    HW132151   2.456   4.841   2.166
 5003SOL    HW232152   2.592   4.893   2.207
 5004SOL     OW32153   4.320   2.125   5.614
 5004SOL    HW132154   4.326   2.099   5.522
 5004SOL    HW232155   4.394   2.183   5.628
 5005SOL     OW32156   2.969   2.074   2.241
 5005SOL    HW132157   2.874   2.075   2.246
 5005SOL    HW232158   2.996   2.148   2.296
 5006SOL     OW32159   3.813   2.083   1.590
 5006SOL    HW132160   3.808   2.086   1.495
 5006SOL    HW232161   3.738   2.030   1.617
 5007SOL     OW32162   1.241   5.655   0.154
 5007SOL    HW132163   1.197   5.584   0.108
 5007SOL    HW232164   1.237   5.729   0.092
 5008SOL     OW32165   2.065   5.824   6.420
 5008SOL    HW132166   2.080   5.868   6.503
 5008SOL    HW232167   1.977   5.851   6.393
 5009SOL     OW32168   3.720   3.212   6.858
 5009SOL    HW132169   3.746   3.174   6.775
 5009SOL    HW232170   3.655   3.151   6.893
 5010SOL     OW32171   0.043   3.693   6.726
 5010SOL    HW132172   6.395   3.703   6.725
 5010SOL    HW232173   0.075   3.767   6.675
 5011SOL     OW32174   5.269   2.369   6.638
 5011SOL    HW132175   5.196   2.377   6.700
 5011SOL    HW232176   5.234   2.404   6.555
 5012SOL     OW32177   3.863   3.676   0.738
 5012SOL    HW132178   3.880   3.633   0.821
 5012SOL    HW232179   3.939   3.654   0.684
 5013SOL     OW32180   3.437   3.552   6.432
 5013SOL    HW132181   3.351   3.562   6.474
 5013SOL    HW232182   3.498   3.542   6.506
 5014SOL     OW32183   5.949   2.404   7.115
 5014SOL    HW132184   6.028   2.381   7.163
 5014SOL    HW232185   5.973   2.398   7.023
 5015SOL     OW32186   5.437   2.896   7.088
 5015SOL    HW132187   5.435   2.918   6.995
 5015SOL    HW232188   5.502   2.956   7.126
 5016SOL     OW32189   5.187   2.954   0.566
 5016SOL    HW132190   5.183   2.874   0.618
 5016SOL    HW232191   5.279   2.961   0.540
 5017SOL     OW32192   5.164   2.804   6.211
 5017SOL    HW132193   5.111   2.739   6.166
 5017SOL    HW232194   5.231   2.829   6.147
 5018SOL     OW32195   3.601   1.040   6.341
 5018SOL    HW132196   3.680   1.026   6.392
 5018SOL    HW232197   3.565   0.952   6.328
 5019SOL     OW32198   0.637   2.713   1.269
 5019SOL    HW132199   0.546   2.713   1.240
 5019SOL    HW232200   0.633   2.701   1.364
 5020SOL     OW32201   5.215   2.281   0.761
 5020SOL    HW132202   5.269   2.338   0.816
 5020SOL    HW232203   5.263   2.198   0.757
 5021SOL     OW32204   1.703   2.922   0.146
 5021SOL    HW132205   1.748   2.860   0.204
 5021SOL    HW232206   1.681   2.996   0.202
 5022SOL     OW32207   4.135   0.881   1.759
 5022SOL    HW132208   4.150   0.954   1.818
 5022SOL    HW232209   4.188   0.810   1.795
 5023SOL     OW32210   2.569   2.547   0.988
 5023SOL    HW132211   2.651   2.504   0.965
 5023SOL    HW232212   2.558   2.615   0.921
 5024SOL     OW32213   2.373   2.908   7.070
 5024SOL    HW132214   2.293   2.876   7.112
 5024SOL    HW232215   2.439   2.842   7.093
 5025SOL     OW32216   2.113   4.821   6.866
 5025SOL    HW132217   2.094   4.814   6.960
 5025SOL    HW232218   2.077   4.741   6.828
 5026SOL     OW32219   5.201   1.113   1.771
 5026SOL    HW132220   5.110   1.140   1.754
 5026SOL    HW232221   5.217   1.139   1.862
 5027SOL     OW32222   0.050   5.409   7.360
 5027SOL    HW132223   6.421   5.455   7.326
 5027SOL    HW232224   0.116   5.420   7.291
 5028SOL     OW32225   5.764   2.857   6.224
 5028SOL    HW132226   5.734   2.845   6.134
 5028SOL    HW232227   5.698   2.913   6.264
 5029SOL     OW32228   4.694   2.586   5.695
 5029SOL    HW132229   4.749   2.510   5.677
 5029SOL    HW232230   4.618   2.575   5.638
 5030SOL     OW32231   3.466   3.219   5.315
 5030SOL    HW132232   3.477   3.124   5.324
 5030SOL    HW232233   3.448   3.249   5.404
 5031SOL     OW32234   5.920   6.033   0.528
 5031SOL    HW132235   5.841   5.982   0.507
 5031SOL    HW232236   5.974   5.972   0.578
 5032SOL     OW32237   4.039   0.604   0.351
 5032SOL    HW132238   4.078   0.670   0.408
 5032SOL    HW232239   4.113   0.555   0.317
 5033SOL     OW32240   0.816   5.784   0.896
 5033SOL    HW132241   0.845   5.693   0.897
 5033SOL    HW232242   0.895   5.834   0.875
 5034SOL     OW32243   1.817   0.616   1.185
 5034SOL    HW132244   1.894   0.558   1.183
 5034SOL    HW232245   1.749   0.567   1.139
 5035SOL     OW32246   1.070   4.869   6.469
 5035SOL    HW132247   1.165   4.854   6.463
 5035SOL    HW232248   1.035   4.786   6.501
 5036SOL     OW32249   0.347   6.383   1.068
 5036SOL    HW132250   0.300   0.015   1.042
 5036SOL    HW232251   0.351   6.388   1.164
 5037SOL     OW32252   1.090   5.815   5.614
 5037SOL    HW132253   1.000   5.796   5.588
 5037SOL    HW232254   1.130   5.729   5.629
 5038SOL     OW32255   4.710   6.301   7.434
 5038SOL    HW132256   4.795   6.292   7.478
 5038SOL    HW232257   4.648   6.257   7.491
 5039SOL     OW32258   3.520   4.295   5.363
 5039SOL    HW132259   3.485   4.212   5.395
 5039SOL    HW232260   3.574   4.328   5.434
 5040SOL     OW32261   3.690   1.319   1.207
 5040SOL    HW132262   3.747   1.264   1.260
 5040SOL    HW232263   3.644   1.258   1.149
 5041SOL     OW32264   3.939   1.915   5.809
 5041SOL    HW132265   4.005   1.879   5.868
 5041SOL    HW232266   3.868   1.851   5.811
 5042SOL     OW32267   2.509   2.831   7.797
 5042SOL    HW132268   2.554   2.817   7.714
 5042SOL    HW232269   2.526   2.752   0.045
 5043SOL     OW32270   1.094   0.995   0.253
 5043SOL    HW132271   1.031   0.961   0.317
 5043SOL    HW232272   1.061   1.081   0.229
 5044SOL     OW32273   1.114   5.051   1.897
 5044SOL    HW132274   1.142   5.086   1.981
 5044SOL    HW232275   1.045   5.111   1.868
 5045SOL     OW32276   5.585   0.539   0.696
 5045SOL    HW132277   5.671   0.535   0.737
 5045SOL    HW232278   5.600   0.507   0.607
 5046SOL     OW32279   1.475   2.329   2.080
 5046SOL    HW132280   1.561   2.333   2.038
 5046SOL    HW232281   1.472   2.242   2.120
 5047SOL     OW32282   3.840   3.365   1.607
 5047SOL    HW132283   3.935   3.370   1.616
 5047SOL    HW232284   3.812   3.456   1.597
 5048SOL     OW32285   5.572   5.195   1.658
 5048SOL    HW132286   5.503   5.137   1.626
 5048SOL    HW232287   5.583   5.171   1.750
 5049SOL     OW32288   6.227   0.766   1.529
 5049SOL    HW132289   6.132   0.779   1.518
 5049SOL    HW232290   6.252   0.830   1.595
 5050SOL     OW32291   2.453   3.447   2.300
 5050SOL    HW132292   2.521   3.383   2.320
 5050SOL    HW232293   2.412   3.465   2.385
 5051SOL     OW32294   1.907   6.366   0.056
 5051SOL    HW132295   1.990   6.377   0.103
 5051SOL    HW232296   1.910   6.431   7.788
 5052SOL     OW32297   3.782   5.038   7.092
 5052SOL    HW132298   3.872   5.055   7.063
 5052SOL    HW232299   3.732   5.115   7.062
 5053SOL     OW32300   0.887   0.230   1.481
 5053SOL    HW132301   0.837   0.162   1.437
 5053SOL    HW232302   0.959   0.184   1.523
 5054SOL     OW32303   5.571   1.053   0.766
 5054SOL    HW132304   5.581   0.964   0.732
 5054SOL    HW232305   5.611   1.109   0.700
 5055SOL     OW32306   6.428   4.090   7.177
 5055SOL    HW132307   6.379   4.108   7.097
 5055SOL    HW232308   0.015   4.002   7.164
 5056SOL     OW32309   0.058   2.980   0.924
 5056SOL    HW132310   6.411   2.980   0.932
 5056SOL    HW232311   0.074   2.948   0.835
 5057SOL     OW32312   4.815   4.053   0.101
 5057SOL    HW132313   4.731   4.058   0.146
 5057SOL    HW232314   4.866   4.125   0.138
 5058SOL     OW32315   4.402   3.214   5.329
 5058SOL    HW132316   4.356   3.262   5.398
 5058SOL    HW232317   4.333   3.187   5.269
 5059SOL     OW32318   5.694   0.401   5.963
 5059SOL    HW132319   5.669   0.311   5.941
 5059SOL    HW232320   5.786   0.407   5.936
 5060SOL     OW32321   2.752   1.200   0.412
 5060SOL    HW132322   2.840   1.238   0.421
 5060SOL    HW232323   2.697   1.273   0.385
 5061SOL     OW32324   1.597   0.500   1.046
 5061SOL    HW132325   1.585   0.524   0.954
 5061SOL    HW232326   1.518   0.450   1.067
 5062SOL     OW32327   0.253   4.177   2.106
 5062SOL    HW132328   0.322   4.236   2.136
 5062SOL    HW232329   0.222   4.135   2.186
 5063SOL     OW32330   5.741   2.228   7.059
 5063SOL    HW132331   5.804   2.297   7.081
 5063SOL    HW232332   5.761   2.156   7.118
 5064SOL     OW32333   2.960   2.291   0.314
 5064SOL    HW132334   2.934   2.373   0.355
 5064SOL    HW232335   2.903   2.225   0.354
 5065SOL     OW32336   1.033   0.389   7.231
 5065SOL    HW132337   1.043   0.406   7.325
 5065SOL    HW232338   1.081   0.460   7.189
 5066SOL     OW32339   3.222   2.728   0.877
 5066SOL    HW132340   3.291   2.692   0.933
 5066SOL    HW232341   3.223   2.673   0.799
 5067SOL     OW32342   0.655   3.299   6.379
 5067SOL    HW132343   0.675   3.287   6.286
 5067SOL    HW232344   0.721   3.361   6.410
 5068SOL     OW32345   3.636   0.663   0.117
 5068SOL    HW132346   3.626   0.636   0.208
 5068SOL    HW232347   3.574   0.736   0.107
 5069SOL     OW32348   5.388   1.014   5.942
 5069SOL    HW132349   5.318   0.996   6.005
 5069SOL    HW232350   5.347   1.005   5.856
 5070SOL     OW32351   4.422   1.723   1.983
 5070SOL    HW132352   4.413   1.634   2.016
 5070SOL    HW232353   4.504   1.755   2.021
 5071SOL     OW32354   0.606   4.352   5.724
 5071SOL    HW132355   0.614   4.263   5.758
 5071SOL    HW232356   0.513   4.361   5.703
 5072SOL     OW32357   3.057   1.137   5.771
 5072SOL    HW132358   3.025   1.216   5.815
 5072SOL    HW232359   2.987   1.073   5.783
 5073SOL     OW32360   6.068   5.857   0.682
 5073SOL    HW132361   6.139   5.820   0.630
 5073SOL    HW232362   6.102   5.859   0.771
 5074SOL     OW32363   4.825   2.389   6.179
 5074SOL    HW132364   4.888   2.454   6.151
 5074SOL    HW232365   4.741   2.436   6.183
 5075SOL     OW32366   3.809   4.816   1.042
 5075SOL    HW132367   3.796   4.901   1.084
 5075SOL    HW232368   3.859   4.765   1.106
 5076SOL     OW32369   3.384   4.667   6.291
 5076SOL    HW132370   3.468   4.691   6.329
 5076SOL    HW232371   3.406   4.623   6.209
 5077SOL     OW32372   0.354   5.446   5.659
 5077SOL    HW132373   0.313   5.380   5.603
 5077SOL    HW232374   0.421   5.399   5.708
 5078SOL     OW32375   4.280   0.660   0.745
 5078SOL    HW132376   4.232   0.653   0.827
 5078SOL    HW232377   4.371   0.673   0.772
 5079SOL     OW32378   0.353   0.801   5.672
 5079SOL    HW132379   0.263   0.779   5.647
 5079SOL    HW232380   0.381   0.725   5.724
 5080SOL     OW32381   0.867   5.432   6.378
 5080SOL    HW132382   0.850   5.385   6.297
 5080SOL    HW232383   0.787   5.482   6.394
 5081SOL     OW32384   2.214   5.415   7.348
 5081SOL    HW132385   2.122   5.439   7.358
 5081SOL    HW232386   2.260   5.463   7.417
 5082SOL     OW32387   4.978   1.643   6.760
 5082SOL    HW132388   4.975   1.738   6.750
 5082SOL    HW232389   5.064   1.625   6.798
 5083SOL     OW32390   3.167   3.815   0.370
 5083SOL    HW132391   3.175   3.771   0.286
 5083SOL    HW232392   3.243   3.785   0.420
 5084SOL     OW32393   1.016   2.977   1.747
 5084SOL    HW132394   0.952   2.941   1.809
 5084SOL    HW232395   1.065   2.901   1.716
 5085SOL     OW32396   2.993   1.959   7.498
 5085SOL    HW132397   2.910   1.978   7.543
 5085SOL    HW232398   3.060   1.969   7.565
 5086SOL     OW32399   0.341   5.113   7.341
 5086SOL    HW132400   0.408   5.133   7.408
 5086SOL    HW232401   0.260   5.105   7.391
 5087SOL     OW32402   4.124   1.528   0.770
 5087SOL    HW132403   4.094   1.467   0.838
 5087SOL    HW232404   4.165   1.472   0.704
 5088SOL     OW32405   1.415   5.353   7.743
 5088SOL    HW132406   1.410   5.446   7.720
 5088SOL    HW232407   1.336   5.315   7.705
 5089SOL     OW32408   0.459   3.974   1.765
 5089SOL    HW132409   0.448   4.055   1.814
 5089SOL    HW232410   0.499   3.913   1.828
 5090SOL     OW32411   1.168   0.774   0.974
 5090SOL    HW132412   1.074   0.764   0.988
 5090SOL    HW232413   1.209   0.718   1.039
 5091SOL     OW32414   3.891   6.062   7.503
 5091SOL    HW132415   3.967   6.044   7.449
 5091SOL    HW232416   3.817   6.055   7.444
 5092SOL     OW32417   5.426   1.950   5.323
 5092SOL    HW132418   5.501   1.901   5.288
 5092SOL    HW232419   5.440   2.039   5.292
 5093SOL     OW32420   5.440   1.544   7.686
 5093SOL    HW132421   5.458   1.633   7.716
 5093SOL    HW232422   5.375   1.511   7.747
 5094SOL     OW32423   4.798   3.516   7.408
 5094SOL    HW132424   4.864   3.585   7.398
 5094SOL    HW232425   4.715   3.558   7.390
 5095SOL     OW32426   6.016   1.083   0.237
 5095SOL    HW132427   6.080   1.154   0.228
 5095SOL    HW232428   5.950   1.102   0.170
 5096SOL     OW32429   5.577   2.624   5.708
 5096SOL    HW132430   5.640   2.695   5.718
 5096SOL    HW232431   5.629   2.547   5.689
 5097SOL     OW32432   1.833   0.995   5.034
 5097SOL    HW132433   1.908   0.936   5.031
 5097SOL    HW232434   1.862   1.068   5.088
 5098SOL     OW32435   2.586   3.022   0.175
 5098SOL    HW132436   2.673   3.043   0.142
 5098SOL    HW232437   2.549   2.961   0.111
 5099SOL     OW32438   2.397   1.946   0.805
 5099SOL    HW132439   2.421   1.859   0.774
 5099SOL    HW232440   2.479   1.994   0.808
 5100SOL     OW32441   5.586   0.458   7.746
 5100SOL    HW132442   5.613   0.375   7.786
 5100SOL    HW232443   5.668   0.505   7.731
 5101SOL     OW32444   0.764   6.131   0.555
 5101SOL    HW132445   0.826   6.154   0.486
 5101SOL    HW232446   0.679   6.162   0.522
 5102SOL     OW32447   0.180   5.472   6.310
 5102SOL    HW132448   0.209   5.389   6.273
 5102SOL    HW232449   0.144   5.449   6.395
 5103SOL     OW32450   5.734   4.320   1.268
 5103SOL    HW132451   5.731   4.226   1.251
 5103SOL    HW232452   5.756   4.327   1.361
 5104SOL     OW32453   4.789   0.240   0.108
 5104SOL    HW132454   4.749   0.325   0.127
 5104SOL    HW232455   4.744   0.178   0.166
 5105SOL     OW32456   6.430   1.632   1.325
 5105SOL    HW132457   0.069   1.664   1.349
 5105SOL    HW232458   6.394   1.700   1.268
 5106SOL     OW32459   3.008   5.113   5.570
 5106SOL    HW132460   2.931   5.169   5.571
 5106SOL    HW232461   2.978   5.030   5.607
 5107SOL     OW32462   0.073   2.462   6.977
 5107SOL    HW132463   0.079   2.539   6.921
 5107SOL    HW232464   0.048   2.390   6.918
 5108SOL     OW32465   2.966   3.517   0.560
 5108SOL    HW132466   2.955   3.508   0.654
 5108SOL    HW232467   2.950   3.610   0.542
 5109SOL     OW32468   1.574   1.763   6.837
 5109SOL    HW132469   1.531   1.822   6.898
 5109SOL    HW232470   1.529   1.777   6.753
 5110SOL     OW32471   2.769   4.076   1.906
 5110SOL    HW132472   2.676   4.081   1.926
 5110SOL    HW232473   2.774   4.019   1.830
 5111SOL     OW32474   1.509   5.359   0.203
 5111SOL    HW132475   1.480   5.350   0.113
 5111SOL    HW232476   1.523   5.453   0.215
 5112SOL     OW32477   2.037   4.105   0.684
 5112SOL    HW132478   1.944   4.130   0.676
 5112SOL    HW232479   2.049   4.036   0.619
 5113SOL     OW32480   3.667   4.882   7.544
 5113SOL    HW132481   3.735   4.851   7.484
 5113SOL    HW232482   3.707   4.878   7.631
 5114SOL     OW32483   2.852   2.497   0.476
 5114SOL    HW132484   2.900   2.476   0.556
 5114SOL    HW232485   2.761   2.503   0.503
 5115SOL     OW32486   3.464   2.639   0.999
 5115SOL    HW132487   3.534   2.666   0.939
 5115SOL    HW232488   3.493   2.669   1.085
 5116SOL     OW32489   3.916   5.612   1.174
 5116SOL    HW132490   3.962   5.691   1.199
 5116SOL    HW232491   3.843   5.606   1.236
 5117SOL     OW32492   2.558   0.392   0.588
 5117SOL    HW132493   2.639   0.351   0.617
 5117SOL    HW232494   2.584   0.446   0.513
 5118SOL     OW32495   4.607   0.427   0.216
 5118SOL    HW132496   4.658   0.463   0.288
 5118SOL    HW232497   4.516   0.433   0.245
 5119SOL     OW32498   3.245   6.000   6.630
 5119SOL    HW132499   3.195   5.919   6.622
 5119SOL    HW232500   3.181   6.064   6.662
 5120SOL     OW32501   1.688   2.674   1.073
 5120SOL    HW132502   1.730   2.631   0.998
 5120SOL    HW232503   1.714   2.622   1.148
 5121SOL     OW32504   3.964   0.905   0.680
 5121SOL    HW132505   4.005   0.893   0.766
 5121SOL    HW232506   3.875   0.874   0.691
 5122SOL     OW32507   3.247   1.806   6.789
 5122SOL    HW132508   3.289   1.841   6.867
 5122SOL    HW232509   3.319   1.781   6.732
 5123SOL     OW32510   4.739   2.042   6.818
 5123SOL    HW132511   4.666   1.985   6.795
 5123SOL    HW232512   4.716   2.126   6.778
 5124SOL     OW32513   4.498   3.974   0.485
 5124SOL    HW132514   4.441   3.970   0.562
 5124SOL    HW232515   4.455   3.919   0.420
 5125SOL     OW32516   0.935   4.686   0.276
 5125SOL    HW132517   0.949   4.661   0.367
 5125SOL    HW232518   0.840   4.701   0.269
 5126SOL     OW32519   3.744   4.657   1.419
 5126SOL    HW132520   3.814   4.675   1.357
 5126SOL    HW232521   3.673   4.622   1.366
 5127SOL     OW32522   0.937   2.390   5.505
 5127SOL    HW132523   0.939   2.485   5.513
 5127SOL    HW232524   1.021   2.360   5.539
 5128SOL     OW32525   3.005   0.629   7.401
 5128SOL    HW132526   3.064   0.555   7.417
 5128SOL    HW232527   3.061   0.706   7.406
 5129SOL     OW32528   2.274   5.035   5.488
 5129SOL    HW132529   2.353   4.990   5.516
 5129SOL    HW232530   2.298   5.128   5.487
 5130SOL     OW32531   0.704   4.486   7.271
 5130SOL    HW132532   0.680   4.397   7.245
 5130SOL    HW232533   0.755   4.475   7.351
 5131SOL     OW32534   4.347   4.592   7.182
 5131SOL    HW132535   4.403   4.597   7.105
 5131SOL    HW232536   4.387   4.524   7.237
 5132SOL     OW32537   2.447   6.160   6.972
 5132SOL    HW132538   2.427   6.254   6.976
 5132SOL    HW232539   2.480   6.147   6.883
 5133SOL     OW32540   2.659   5.980   0.063
 5133SOL    HW132541   2.673   5.900   0.114
 5133SOL    HW232542   2.738   5.990   0.010
 5134SOL     OW32543   2.855   1.013   6.398
 5134SOL    HW132544   2.945   1.040   6.383
 5134SOL    HW232545   2.801   1.088   6.373
 5135SOL     OW32546   4.911   1.977   6.318
 5135SOL    HW132547   4.846   1.944   6.256
 5135SOL    HW232548   4.880   2.064   6.342
 5136SOL     OW32549   0.143   3.969   0.369
 5136SOL    HW132550   0.179   3.912   0.301
 5136SOL    HW232551   0.211   4.034   0.384
 5137SOL     OW32552   2.387   0.080   6.392
 5137SOL    HW132553   2.459   0.094   6.331
 5137SOL    HW232554   2.421   0.108   6.477
 5138SOL     OW32555   6.353   1.821   6.157
 5138SOL    HW132556   6.399   1.737   6.158
 5138SOL    HW232557   6.261   1.799   6.169
 5139SOL     OW32558   0.843   1.158   1.223
 5139SOL    HW132559   0.761   1.121   1.190
 5139SOL    HW232560   0.829   1.167   1.317
 5140SOL     OW32561   2.395   4.132   0.987
 5140SOL    HW132562   2.410   4.038   0.978
 5140SOL    HW232563   2.301   4.143   0.969
 5141SOL     OW32564   1.268   4.999   7.616
 5141SOL    HW132565   1.223   5.081   7.635
 5141SOL    HW232566   1.199   4.940   7.585
 5142SOL     OW32567   1.453   1.066   7.770
 5142SOL    HW132568   1.528   1.006   7.773
 5142SOL    HW232569   1.412   1.057   0.054
 5143SOL     OW32570   6.094   4.096   1.726
 5143SOL    HW132571   6.007   4.110   1.764
 5143SOL    HW232572   6.082   4.019   1.670
 5144SOL     OW32573   5.253   0.271   7.246
 5144SOL    HW132574   5.340   0.240   7.223
 5144SOL    HW232575   5.250   0.269   7.341
 5145SOL     OW32576   3.217   3.319   6.585
 5145SOL    HW132577   3.291   3.321   6.646
 5145SOL    HW232578   3.196   3.411   6.569
 5146SOL     OW32579   4.582   3.717   0.766
 5146SOL    HW132580   4.608   3.690   0.678
 5146SOL    HW232581   4.621   3.650   0.824
 5147SOL     OW32582   1.824   1.272   5.660
 5147SOL    HW132583   1.790   1.196   5.707
 5147SOL    HW232584   1.808   1.252   5.568
 5148SOL     OW32585   4.373   4.042   5.435
 5148SOL    HW132586   4.318   4.001   5.501
 5148SOL    HW232587   4.357   3.991   5.356
 5149SOL     OW32588   3.980   1.624   1.916
 5149SOL    HW132589   3.955   1.561   1.849
 5149SOL    HW232590   3.916   1.611   1.986
 5150SOL     OW32591   5.379   3.230   7.210
 5150SOL    HW132592   5.356   3.201   7.121
 5150SOL    HW232593   5.320   3.303   7.228
 5151SOL     OW32594   3.138   6.429   5.577
 5151SOL    HW132595   3.140   0.050   5.510
 5151SOL    HW232596   3.211   0.002   5.635
 5152SOL     OW32597   1.625   0.711   7.086
 5152SOL    HW132598   1.591   0.713   6.997
 5152SOL    HW232599   1.710   0.756   7.081
 5153SOL     OW32600   2.372   2.577   7.049
 5153SOL    HW132601   2.317   2.617   6.982
 5153SOL    HW232602   2.415   2.504   7.005
 5154SOL     OW32603   4.349   2.213   1.968
 5154SOL    HW132604   4.339   2.305   1.944
 5154SOL    HW232605   4.298   2.165   1.902
 5155SOL     OW32606   0.144   3.685   1.243
 5155SOL    HW132607   0.184   3.615   1.295
 5155SOL    HW232608   0.050   3.672   1.254
 5156SOL     OW32609   5.589   2.362   1.314
 5156SOL    HW132610   5.615   2.365   1.222
 5156SOL    HW232611   5.671   2.373   1.362
 5157SOL     OW32612   3.887   4.730   6.274
 5157SOL    HW132613   3.809   4.745   6.221
 5157SOL    HW232614   3.959   4.725   6.211
 5158SOL     OW32615   2.049   4.359   0.475
 5158SOL    HW132616   1.989   4.338   0.403
 5158SOL    HW232617   2.115   4.290   0.471
 5159SOL     OW32618   4.500   6.286   1.247
 5159SOL    HW132619   4.517   6.249   1.333
 5159SOL    HW232620   4.451   6.366   1.264
 5160SOL     OW32621   3.547   3.874   1.533
 5160SOL    HW132622   3.513   3.786   1.514
 5160SOL    HW232623   3.613   3.859   1.601
 5161SOL     OW32624   5.861   5.573   7.144
 5161SOL    HW132625   5.806   5.593   7.219
 5161SOL    HW232626   5.873   5.478   7.148
 5162SOL     OW32627   1.022   1.186   1.016
 5162SOL    HW132628   1.003   1.123   0.947
 5162SOL    HW232629   0.960   1.165   1.086
 5163SOL     OW32630   3.997   1.583   5.740
 5163SOL    HW132631   4.073   1.616   5.691
 5163SOL    HW232632   3.935   1.556   5.673
 5164SOL     OW32633   1.542   6.192   0.868
 5164SOL    HW132634   1.607   6.261   0.876
 5164SOL    HW232635   1.594   6.111   0.870
 5165SOL     OW32636   1.113   2.141   7.258
 5165SOL    HW132637   1.053   2.203   7.299
 5165SOL    HW232638   1.187   2.137   7.318
 5166SOL     OW32639   2.627   0.323   7.433
 5166SOL    HW132640   2.610   0.384   7.361
 5166SOL    HW232641   2.555   0.260   7.428
 5167SOL     OW32642   4.178   3.379   7.592
 5167SOL    HW132643   4.171   3.347   7.502
 5167SOL    HW232644   4.165   3.473   7.586
 5168SOL     OW32645   5.390   1.903   1.307
 5168SOL    HW132646   5.319   1.932   1.250
 5168SOL    HW232647   5.467   1.902   1.250
 5169SOL     OW32648   4.685   1.338   7.517
 5169SOL    HW132649   4.653   1.250   7.536
 5169SOL    HW232650   4.619   1.375   7.458
 5170SOL     OW32651   3.262   5.387   5.219
 5170SOL    HW132652   3.193   5.429   5.168
 5170SOL    HW232653   3.221   5.309   5.256
 5171SOL     OW32654   0.513   4.524   6.466
 5171SOL    HW132655   0.508   4.620   6.466
 5171SOL    HW232656   0.574   4.503   6.395
 5172SOL     OW32657   5.073   4.471   1.519
 5172SOL    HW132658   5.024   4.389   1.511
 5172SOL    HW232659   5.037   4.514   1.596
 5173SOL     OW32660   6.103   5.644   1.148
 5173SOL    HW132661   6.183   5.603   1.183
 5173SOL    HW232662   6.033   5.582   1.171
 5174SOL     OW32663   1.814   5.876   6.326
 5174SOL    HW132664   1.790   5.847   6.238
 5174SOL    HW232665   1.753   5.947   6.345
 5175SOL     OW32666   2.802   0.879   6.049
 5175SOL    HW132667   2.842   0.890   5.963
 5175SOL    HW232668   2.850   0.805   6.087
 5176SOL     OW32669   3.992   3.813   6.447
 5176SOL    HW132670   4.018   3.905   6.453
 5176SOL    HW232671   3.935   3.809   6.370
 5177SOL     OW32672   3.991   5.372   7.747
 5177SOL    HW132673   4.081   5.371   7.779
 5177SOL    HW232674   3.953   5.291   7.781
 5178SOL     OW32675   2.858   2.529   7.191
 5178SOL    HW132676   2.867   2.497   7.101
 5178SOL    HW232677   2.768   2.563   7.196
 5179SOL     OW32678   2.767   2.293   6.641
 5179SOL    HW132679   2.754   2.260   6.730
 5179SOL    HW232680   2.683   2.334   6.619
 5180SOL     OW32681   1.167   4.815   5.979
 5180SOL    HW132682   1.119   4.814   6.062
 5180SOL    HW232683   1.211   4.730   5.975
 5181SOL     OW32684   1.718   6.016   6.999
 5181SOL    HW132685   1.646   5.954   7.012
 5181SOL    HW232686   1.794   5.972   7.036
 5182SOL     OW32687   1.798   1.278   0.499
 5182SOL    HW132688   1.786   1.184   0.485
 5182SOL    HW232689   1.711   1.309   0.526
 5183SOL     OW32690   3.366   6.271   1.252
 5183SOL    HW132691   3.312   6.210   1.202
 5183SOL    HW232692   3.449   6.226   1.264
 5184SOL     OW32693   0.540   1.344   1.081
 5184SOL    HW132694   0.445   1.332   1.087
 5184SOL    HW232695   0.553   1.395   1.001
 5185SOL     OW32696   3.793   5.868   6.330
 5185SOL    HW132697   3.777   5.932   6.399
 5185SOL    HW232698   3.879   5.831   6.351
 5186SOL     OW32699   4.462   1.936   0.723
 5186SOL    HW132700   4.389   1.873   0.719
 5186SOL    HW232701   4.537   1.887   0.690
 5187SOL     OW32702   3.610   5.829   5.818
 5187SOL    HW132703   3.594   5.904   5.761
 5187SOL    HW232704   3.663   5.864   5.890
 5188SOL     OW32705   4.449   0.752   6.040
 5188SOL    HW132706   4.432   0.727   6.131
 5188SOL    HW232707   4.519   0.817   6.046
 5189SOL     OW32708   1.486   5.594   7.041
 5189SOL    HW132709   1.519   5.584   6.951
 5189SOL    HW232710   1.494   5.687   7.059
 5190SOL     OW32711   6.119   4.042   6.450
 5190SOL    HW132712   6.184   4.020   6.384
 5190SOL    HW232713   6.068   4.114   6.412
 5191SOL     OW32714   4.442   1.934   7.741
 5191SOL    HW132715   4.491   2.008   7.778
 5191SOL    HW232716   4.436   1.954   7.647
 5192SOL     OW32717   2.343   1.000   5.103
 5192SOL    HW132718   2.332   0.945   5.181
 5192SOL    HW232719   2.323   0.942   5.030
 5193SOL     OW32720   2.856   0.668   1.193
 5193SOL    HW132721   2.833   0.727   1.121
 5193SOL    HW232722   2.909   0.600   1.151
 5194SOL     OW32723   2.988   3.495   0.142
 5194SOL    HW132724   2.972   3.408   0.107
 5194SOL    HW232725   3.039   3.480   0.222
 5195SOL     OW32726   1.761   4.972   6.553
 5195SOL    HW132727   1.771   4.997   6.645
 5195SOL    HW232728   1.733   4.881   6.556
 5196SOL     OW32729   0.114   2.010   0.664
 5196SOL    HW132730   0.083   2.035   0.751
 5196SOL    HW232731   0.205   1.986   0.677
 5197SOL     OW32732   1.126   4.523   0.055
 5197SOL    HW132733   1.165   4.447   0.013
 5197SOL    HW232734   1.193   4.553   0.118
 5198SOL     OW32735   4.231   4.551   0.783
 5198SOL    HW132736   4.182   4.630   0.756
 5198SOL    HW232737   4.218   4.490   0.710
 5199SOL     OW32738   1.584   2.064   7.507
 5199SOL    HW132739   1.665   2.081   7.556
 5199SOL    HW232740   1.589   1.971   7.483
 5200SOL     OW32741   4.564   5.818   0.425
 5200SOL    HW132742   4.506   5.842   0.498
 5200SOL    HW232743   4.510   5.760   0.370
 5201SOL     OW32744   6.257   3.250   5.306
 5201SOL    HW132745   6.260   3.154   5.304
 5201SOL    HW232746   6.196   3.274   5.237
 5202SOL     OW32747   0.300   5.969   0.764
 5202SOL    HW132748   0.391   5.947   0.783
 5202SOL    HW232749   0.295   6.063   0.778
 5203SOL     OW32750   3.666   3.556   6.595
 5203SOL    HW132751   3.671   3.530   6.687
 5203SOL    HW232752   3.686   3.650   6.596
 5204SOL     OW32753   2.199   0.137   0.678
 5204SOL    HW132754   2.169   0.117   0.589
 5204SOL    HW232755   2.185   0.231   0.688
 5205SOL     OW32756   6.334   1.831   1.155
 5205SOL    HW132757   6.315   1.819   1.062
 5205SOL    HW232758   6.420   1.875   1.157
 5206SOL     OW32759   6.235   3.755   0.501
 5206SOL    HW132760   6.288   3.831   0.525
 5206SOL    HW232761   6.157   3.762   0.555
 5207SOL     OW32762   5.309   5.439   1.446
 5207SOL    HW132763   5.250   5.461   1.374
 5207SOL    HW232764   5.265   5.472   1.524
 5208SOL     OW32765   6.212   2.101   0.820
 5208SOL    HW132766   6.156   2.039   0.865
 5208SOL    HW232767   6.301   2.077   0.846
 5209SOL     OW32768   4.651   0.935   5.984
 5209SOL    HW132769   4.718   0.907   5.921
 5209SOL    HW232770   4.673   1.026   6.003
 5210SOL     OW32771   1.068   4.204   6.122
 5210SOL    HW132772   1.010   4.130   6.110
 5210SOL    HW232773   1.136   4.172   6.182
 5211SOL     OW32774   4.077   5.543   7.315
 5211SOL    HW132775   4.076   5.463   7.368
 5211SOL    HW232776   4.029   5.607   7.366
 5212SOL     OW32777   3.830   5.182   6.292
 5212SOL    HW132778   3.899   5.152   6.232
 5212SOL    HW232779   3.859   5.152   6.378
 5213SOL     OW32780   3.833   2.309   6.711
 5213SOL    HW132781   3.750   2.356   6.717
 5213SOL    HW232782   3.897   2.366   6.753
 5214SOL     OW32783   4.553   3.967   0.867
 5214SOL    HW132784   4.470   3.990   0.824
 5214SOL    HW232785   4.576   3.882   0.829
 5215SOL     OW32786   6.058   0.479   7.427
 5215SOL    HW132787   6.094   0.390   7.427
 5215SOL    HW232788   5.963   0.466   7.426
 5216SOL     OW32789   1.757   2.078   1.117
 5216SOL    HW132790   1.768   2.035   1.032
 5216SOL    HW232791   1.664   2.069   1.137
 5217SOL     OW32792   2.521   1.692   0.724
 5217SOL    HW132793   2.557   1.605   0.706
 5217SOL    HW232794   2.598   1.746   0.741
 5218SOL     OW32795   5.756   1.517   0.279
 5218SOL    HW132796   5.757   1.593   0.220
 5218SOL    HW232797   5.672   1.475   0.263
 5219SOL     OW32798   5.331   2.775   0.318
 5219SOL    HW132799   5.236   2.764   0.314
 5219SOL    HW232800   5.357   2.725   0.396
 5220SOL     OW32801   0.335   3.812   1.102
 5220SOL    HW132802   0.275   3.874   1.061
 5220SOL    HW232803   0.280   3.759   1.159
 5221SOL     OW32804   0.724   3.082   6.832
 5221SOL    HW132805   0.669   3.118   6.763
 5221SOL    HW232806   0.706   3.135   6.909
 5222SOL     OW32807   1.796   3.449   6.715
 5222SOL    HW132808   1.786   3.409   6.801
 5222SOL    HW232809   1.888   3.474   6.711
 5223SOL     OW32810   3.540   0.619   0.900
 5223SOL    HW132811   3.619   0.578   0.865
 5223SOL    HW232812   3.468   0.581   0.849
 5224SOL     OW32813   5.402   2.482   7.764
 5224SOL    HW132814   5.478   2.424   7.766
 5224SOL    HW232815   5.434   2.565   7.798
 5225SOL     OW32816   6.007   3.611   5.907
 5225SOL    HW132817   6.036   3.523   5.933
 5225SOL    HW232818   5.980   3.601   5.815
 5226SOL     OW32819   0.418   0.587   0.236
 5226SOL    HW132820   0.412   0.678   0.209
 5226SOL    HW232821   0.327   0.561   0.253
 5227SOL     OW32822   2.980   3.141   6.111
 5227SOL    HW132823   2.944   3.135   6.200
 5227SOL    HW232824   2.917   3.195   6.064
 5228SOL     OW32825   1.516   0.738   7.330
 5228SOL    HW132826   1.552   0.729   7.242
 5228SOL    HW232827   1.423   0.754   7.316
 5229SOL     OW32828   2.754   4.722   5.936
 5229SOL    HW132829   2.682   4.660   5.951
 5229SOL    HW232830   2.722   4.778   5.864
 5230SOL     OW32831   4.566   1.959   5.467
 5230SOL    HW132832   4.640   1.991   5.416
 5230SOL    HW232833   4.489   1.985   5.416
 5231SOL     OW32834   3.346   4.513   7.365
 5231SOL    HW132835   3.402   4.565   7.307
 5231SOL    HW232836   3.400   4.439   7.392
 5232SOL     OW32837   1.600   6.393   6.771
 5232SOL    HW132838   1.594   6.433   6.858
 5232SOL    HW232839   1.514   6.406   6.732
 5233SOL     OW32840   4.644   2.461   7.333
 5233SOL    HW132841   4.683   2.429   7.251
 5233SOL    HW232842   4.658   2.555   7.331
 5234SOL     OW32843   5.800   1.631   2.205
 5234SOL    HW132844   5.873   1.609   2.146
 5234SOL    HW232845   5.821   1.719   2.236
 5235SOL     OW32846   1.860   1.751   0.048
 5235SOL    HW132847   1.846   1.678   7.790
 5235SOL    HW232848   1.779   1.801   0.044
 5236SOL     OW32849   0.123   0.563   6.851
 5236SOL    HW132850   0.108   0.583   6.759
 5236SOL    HW232851   0.207   0.604   6.871
 5237SOL     OW32852   0.830   6.069   6.074
 5237SOL    HW132853   0.855   6.098   5.987
 5237SOL    HW232854   0.758   6.127   6.100
 5238SOL     OW32855   6.248   3.710   6.018
 5238SOL    HW132856   6.267   3.800   5.990
 5238SOL    HW232857   6.175   3.683   5.963
 5239SOL     OW32858   1.762   3.939   7.003
 5239SOL    HW132859   1.832   3.912   7.063
 5239SOL    HW232860   1.695   3.977   7.060
 5240SOL     OW32861   4.402   3.177   1.257
 5240SOL    HW132862   4.495   3.165   1.238
 5240SOL    HW232863   4.379   3.102   1.312
 5241SOL     OW32864   3.388   5.566   0.403
 5241SOL    HW132865   3.435   5.609   0.331
 5241SOL    HW232866   3.338   5.635   0.445
 5242SOL     OW32867   0.378   4.271   5.998
 5242SOL    HW132868   0.384   4.209   5.924
 5242SOL    HW232869   0.468   4.296   6.016
 5243SOL     OW32870   1.698   1.103   0.216
 5243SOL    HW132871   1.692   1.046   0.139
 5243SOL    HW232872   1.668   1.188   0.184
 5244SOL     OW32873   3.731   1.746   5.218
 5244SOL    HW132874   3.798   1.708   5.275
 5244SOL    HW232875   3.776   1.816   5.171
 5245SOL     OW32876   4.436   2.883   1.773
 5245SOL    HW132877   4.383   2.908   1.848
 5245SOL    HW232878   4.405   2.795   1.751
 5246SOL     OW32879   3.749   2.728   5.773
 5246SOL    HW132880   3.797   2.660   5.726
 5246SOL    HW232881   3.682   2.681   5.822
 5247SOL     OW32882   4.086   4.651   7.117
 5247SOL    HW132883   4.176   4.630   7.143
 5247SOL    HW232884   4.092   4.741   7.083
 5248SOL     OW32885   0.543   3.667   0.994
 5248SOL    HW132886   0.470   3.713   1.034
 5248SOL    HW232887   0.509   3.580   0.974
 5249SOL     OW32888   3.897   6.225   7.213
 5249SOL    HW132889   3.824   6.165   7.227
 5249SOL    HW232890   3.969   6.168   7.183
 5250SOL     OW32891   0.042   4.232   1.485
 5250SOL    HW132892   0.007   4.244   1.396
 5250SOL    HW232893   6.416   4.253   1.543
 5251SOL     OW32894   4.052   2.127   0.027
 5251SOL    HW132895   4.094   2.141   7.745
 5251SOL    HW232896   4.111   2.067   0.073
 5252SOL     OW32897   3.537   2.546   1.686
 5252SOL    HW132898   3.513   2.636   1.710
 5252SOL    HW232899   3.525   2.496   1.766
 5253SOL     OW32900   1.569   0.940   4.999
 5253SOL    HW132901   1.664   0.954   5.000
 5253SOL    HW232902   1.559   0.845   4.991
 5254SOL     OW32903   1.443   1.921   7.018
 5254SOL    HW132904   1.381   1.875   7.074
 5254SOL    HW232905   1.518   1.940   7.076
 5255SOL     OW32906   0.562   1.707   7.616
 5255SOL    HW132907   0.485   1.662   7.650
 5255SOL    HW232908   0.528   1.780   7.565
 5256SOL     OW32909   4.596   6.012   0.021
 5256SOL    HW132910   4.515   5.964   0.034
 5256SOL    HW232911   4.624   6.037   0.109
 5257SOL     OW32912   4.152   4.923   5.988
 5257SOL    HW132913   4.242   4.942   6.015
 5257SOL    HW232914   4.100   4.989   6.033
 5258SOL     OW32915   3.134   0.304   6.279
 5258SOL    HW132916   3.131   0.360   6.201
 5258SOL    HW232917   3.091   0.223   6.252
 5259SOL     OW32918   4.151   5.342   5.441
 5259SOL    HW132919   4.231   5.393   5.426
 5259SOL    HW232920   4.081   5.407   5.434
 5260SOL     OW32921   0.414   3.376   7.034
 5260SOL    HW132922   0.395   3.458   6.987
 5260SOL    HW232923   0.328   3.336   7.046
 5261SOL     OW32924   4.154   3.489   0.368
 5261SOL    HW132925   4.114   3.526   0.289
 5261SOL    HW232926   4.159   3.395   0.351
 5262SOL     OW32927   5.119   2.720   1.124
 5262SOL    HW132928   5.028   2.690   1.133
 5262SOL    HW232929   5.150   2.730   1.214
 5263SOL     OW32930   6.341   1.029   6.626
 5263SOL    HW132931   6.369   1.114   6.657
 5263SOL    HW232932   6.320   0.979   6.705
 5264SOL     OW32933   5.687   4.506   1.733
 5264SOL    HW132934   5.598   4.528   1.707
 5264SOL    HW232935   5.683   4.500   1.828
 5265SOL     OW32936   0.118   3.152   6.436
 5265SOL    HW132937   0.033   3.106   6.440
 5265SOL    HW232938   0.095   3.244   6.425
 5266SOL     OW32939   4.138   6.110   7.089
 5266SOL    HW132940   4.169   6.195   7.060
 5266SOL    HW232941   4.171   6.048   7.024
 5267SOL     OW32942   2.929   3.146   2.425
 5267SOL    HW132943   2.994   3.085   2.390
 5267SOL    HW232944   2.973   3.231   2.424
 5268SOL     OW32945   2.354   2.442   5.414
 5268SOL    HW132946   2.266   2.414   5.390
 5268SOL    HW232947   2.391   2.478   5.333
 5269SOL     OW32948   4.163   5.079   7.423
 5269SOL    HW132949   4.207   5.083   7.338
 5269SOL    HW232950   4.141   4.986   7.434
 5270SOL     OW32951   0.017   5.286   1.604
 5270SOL    HW132952   0.012   5.309   1.697
 5270SOL    HW232953   0.034   5.192   1.604
 5271SOL     OW32954   4.903   2.400   6.574
 5271SOL    HW132955   4.917   2.481   6.523
 5271SOL    HW232956   4.960   2.410   6.650
 5272SOL     OW32957   4.690   0.060   6.377
 5272SOL    HW132958   4.765   0.000   6.379
 5272SOL    HW232959   4.657   0.054   6.287
 5273SOL     OW32960   5.733   1.302   1.349
 5273SOL    HW132961   5.674   1.377   1.347
 5273SOL    HW232962   5.776   1.303   1.263
 5274SOL     OW32963   1.989   2.311   7.603
 5274SOL    HW132964   2.040   2.380   7.646
 5274SOL    HW232965   1.958   2.351   7.522
 5275SOL     OW32966   2.378   2.001   1.088
 5275SOL    HW132967   2.371   2.004   0.993
 5275SOL    HW232968   2.396   1.910   1.108
 5276SOL     OW32969   4.107   3.697   7.331
 5276SOL    HW132970   4.095   3.683   7.425
 5276SOL    HW232971   4.020   3.718   7.299
 5277SOL     OW32972   2.191   5.424   1.009
 5277SOL    HW132973   2.155   5.388   1.090
 5277SOL    HW232974   2.180   5.354   0.945
 5278SOL     OW32975   4.184   2.263   6.423
 5278SOL    HW132976   4.232   2.252   6.341
 5278SOL    HW232977   4.128   2.339   6.408
 5279SOL     OW32978   4.596   4.754   5.928
 5279SOL    HW132979   4.690   4.775   5.934
 5279SOL    HW232980   4.565   4.760   6.018
 5280SOL     OW32981   0.854   3.618   6.689
 5280SOL    HW132982   0.839   3.712   6.693
 5280SOL    HW232983   0.938   3.605   6.733
 5281SOL     OW32984   0.084   1.808   5.485
 5281SOL    HW132985   0.037   1.817   5.402
 5281SOL    HW232986   0.167   1.766   5.462
 5282SOL     OW32987   2.557   3.936   6.048
 5282SOL    HW132988   2.624   3.992   6.008
 5282SOL    HW232989   2.602   3.853   6.063
 5283SOL     OW32990   3.972   5.653   7.743
 5283SOL    HW132991   3.985   5.558   7.735
 5283SOL    HW232992   3.970   5.685   7.653
 5284SOL     OW32993   4.437   2.122   6.691
 5284SOL    HW132994   4.481   2.157   6.613
 5284SOL    HW232995   4.437   2.195   6.753
 5285SOL     OW32996   3.280   2.515   6.593
 5285SOL    HW132997   3.303   2.607   6.588
 5285SOL    HW232998   3.256   2.491   6.503
 5286SOL     OW32999   4.799   5.293   6.743
 5286SOL    HW133000   4.832   5.255   6.662
 5286SOL    HW233001   4.821   5.229   6.811
 5287SOL     OW33002   4.993   2.957   5.349
 5287SOL    HW133003   4.918   2.910   5.386
 5287SOL    HW233004   4.963   3.047   5.339
 5288SOL     OW33005   4.503   2.292   2.461
 5288SOL    HW133006   4.448   2.371   2.459
 5288SOL    HW233007   4.504   2.261   2.370
 5289SOL     OW33008   0.964   3.892   1.127
 5289SOL    HW133009   0.900   3.822   1.136
 5289SOL    HW233010   1.048   3.850   1.146
 5290SOL     OW33011   3.831   1.960   7.792
 5290SOL    HW133012   3.907   2.017   0.002
 5290SOL    HW233013   3.858   1.898   7.724
 5291SOL     OW33014   3.226   4.059   1.153
 5291SOL    HW133015   3.313   4.027   1.174
 5291SOL    HW233016   3.240   4.128   1.088
 5292SOL     OW33017   2.484   1.132   7.102
 5292SOL    HW133018   2.440   1.091   7.177
 5292SOL    HW233019   2.577   1.130   7.125
 5293SOL     OW33020   1.793   4.697   5.572
 5293SOL    HW133021   1.795   4.640   5.495
 5293SOL    HW233022   1.755   4.644   5.641
 5294SOL     OW33023   0.056   2.856   1.311
 5294SOL    HW133024   0.121   2.883   1.246
 5294SOL    HW233025   6.421   2.887   1.276
 5295SOL     OW33026   5.852   3.697   0.403
 5295SOL    HW133027   5.931   3.698   0.348
 5295SOL    HW233028   5.885   3.699   0.492
 5296SOL     OW33029   1.244   0.226   0.849
 5296SOL    HW133030   1.156   0.195   0.829
 5296SOL    HW233031   1.299   0.148   0.851
 5297SOL     OW33032   3.370   5.049   6.868
 5297SOL    HW133033   3.304   5.011   6.927
 5297SOL    HW233034   3.379   5.140   6.898
 5298SOL     OW33035   3.637   6.322   1.510
 5298SOL    HW133036   3.577   6.267   1.559
 5298SOL    HW233037   3.640   6.282   1.422
 5299SOL     OW33038   0.276   3.103   7.250
 5299SOL    HW133039   0.240   3.154   7.178
 5299SOL    HW233040   0.286   3.015   7.214
 5300SOL     OW33041   1.773   0.305   5.849
 5300SOL    HW133042   1.743   0.345   5.768
 5300SOL    HW233043   1.751   0.212   5.840
 5301SOL     OW33044   5.059   3.547   1.674
 5301SOL    HW133045   5.154   3.554   1.675
 5301SOL    HW233046   5.040   3.469   1.727
 5302SOL     OW33047   5.549   3.230   7.693
 5302SOL    HW133048   5.592   3.302   7.738
 5302SOL    HW233049   5.550   3.255   7.601
 5303SOL     OW33050   1.583   5.454   1.125
 5303SOL    HW133051   1.595   5.545   1.154
 5303SOL    HW233052   1.501   5.455   1.077
 5304SOL     OW33053   2.545   6.145   1.172
 5304SOL    HW133054   2.517   6.071   1.226
 5304SOL    HW233055   2.479   6.212   1.187
 5305SOL     OW33056   4.097   3.729   6.694
 5305SOL    HW133057   4.048   3.750   6.615
 5305SOL    HW233058   4.189   3.732   6.668
 5306SOL     OW33059   6.111   3.066   5.561
 5306SOL    HW133060   6.023   3.041   5.589
 5306SOL    HW233061   6.152   2.984   5.536
 5307SOL     OW33062   3.937   6.280   0.482
 5307SOL    HW133063   3.955   6.238   0.566
 5307SOL    HW233064   4.021   6.278   0.436
 5308SOL     OW33065   4.614   4.340   0.358
 5308SOL    HW133066   4.530   4.384   0.367
 5308SOL    HW233067   4.667   4.399   0.305
 5309SOL     OW33068   1.380   6.356   0.598
 5309SOL    HW133069   1.340   6.372   0.683
 5309SOL    HW233070   1.462   6.406   0.600
 5310SOL     OW33071   1.730   0.309   7.663
 5310SOL    HW133072   1.800   0.243   7.668
 5310SOL    HW233073   1.777   0.392   7.653
 5311SOL     OW33074   0.563   4.973   1.850
 5311SOL    HW133075   0.598   5.004   1.766
 5311SOL    HW233076   0.630   4.914   1.883
 5312SOL     OW33077   0.347   6.306   0.583
 5312SOL    HW133078   0.323   6.285   0.674
 5312SOL    HW233079   0.318   6.397   0.571
 5313SOL     OW33080   4.442   4.886   7.609
 5313SOL    HW133081   4.421   4.843   7.527
 5313SOL    HW233082   4.508   4.952   7.586
 5314SOL     OW33083   5.707   3.540   1.328
 5314SOL    HW133084   5.636   3.548   1.392
 5314SOL    HW233085   5.787   3.548   1.381
 5315SOL     OW33086   1.508   4.913   1.247
 5315SOL    HW133087   1.492   4.915   1.342
 5315SOL    HW233088   1.544   4.999   1.227
 5316SOL     OW33089   5.061   1.999   2.435
 5316SOL    HW133090   5.132   1.977   2.496
 5316SOL    HW233091   5.101   1.990   2.349
 5317SOL     OW33092   5.004   2.092   7.577
 5317SOL    HW133093   5.006   2.143   7.496
 5317SOL    HW233094   5.022   2.156   7.646
 5318SOL     OW33095   1.461   2.710   0.487
 5318SOL    HW133096   1.516   2.709   0.566
 5318SOL    HW233097   1.465   2.801   0.457
 5319SOL     OW33098   3.602   4.540   1.201
 5319SOL    HW133099   3.580   4.591   1.122
 5319SOL    HW233100   3.675   4.484   1.173
 5320SOL     OW33101   6.027   0.598   0.629
 5320SOL    HW133102   5.975   0.678   0.638
 5320SOL    HW233103   6.034   0.585   0.534
 5321SOL     OW33104   1.409   4.997   2.261
 5321SOL    HW133105   1.396   4.942   2.338
 5321SOL    HW233106   1.467   4.945   2.205
 5322SOL     OW33107   2.531   1.399   0.065
 5322SOL    HW133108   2.483   1.473   0.028
 5322SOL    HW233109   2.474   1.323   0.049
 5323SOL     OW33110   2.853   1.842   1.659
 5323SOL    HW133111   2.895   1.870   1.578
 5323SOL    HW233112   2.759   1.843   1.639
 5324SOL     OW33113   2.409   5.955   5.930
 5324SOL    HW133114   2.433   6.003   6.009
 5324SOL    HW233115   2.438   6.011   5.858
 5325SOL     OW33116   0.910   4.949   1.518
 5325SOL    HW133117   0.957   4.881   1.566
 5325SOL    HW233118   0.877   4.905   1.440
 5326SOL     OW33119   2.927   4.864   5.685
 5326SOL    HW133120   2.833   4.872   5.702
 5326SOL    HW233121   2.936   4.778   5.644
 5327SOL     OW33122   4.928   5.635   6.945
 5327SOL    HW133123   4.944   5.704   7.010
 5327SOL    HW233124   5.004   5.639   6.886
 5328SOL     OW33125   1.070   0.895   6.343
 5328SOL    HW133126   1.029   0.863   6.424
 5328SOL    HW233127   1.125   0.822   6.314
 5329SOL     OW33128   6.123   6.267   6.599
 5329SOL    HW133129   6.160   6.270   6.511
 5329SOL    HW233130   6.050   6.205   6.593
 5330SOL     OW33131   4.536   5.438   1.267
 5330SOL    HW133132   4.515   5.462   1.357
 5330SOL    HW233133   4.604   5.370   1.275
 5331SOL     OW33134   2.610   3.525   1.283
 5331SOL    HW133135   2.677   3.572   1.234
 5331SOL    HW233136   2.653   3.445   1.312
 5332SOL     OW33137   1.361   0.174   0.284
 5332SOL    HW133138   1.443   0.133   0.310
 5332SOL    HW233139   1.354   0.251   0.340
 5333SOL     OW33140   3.765   3.470   6.190
 5333SOL    HW133141   3.700   3.541   6.191
 5333SOL    HW233142   3.767   3.439   6.281
 5334SOL     OW33143   5.094   1.991   2.154
 5334SOL    HW133144   5.003   1.967   2.141
 5334SOL    HW233145   5.095   2.086   2.150
 5335SOL     OW33146   4.464   5.441   7.221
 5335SOL    HW133147   4.468   5.404   7.309
 5335SOL    HW233148   4.537   5.503   7.217
 5336SOL     OW33149   2.576   4.738   7.486
 5336SOL    HW133150   2.650   4.785   7.447
 5336SOL    HW233151   2.504   4.750   7.424
 5337SOL     OW33152   2.739   6.353   7.757
 5337SOL    HW133153   2.822   6.308   7.740
 5337SOL    HW233154   2.700   6.306   0.028
 5338SOL     OW33155   2.155   1.259   7.635
 5338SOL    HW133156   2.166   1.324   7.566
 5338SOL    HW233157   2.110   1.306   7.706
 5339SOL     OW33158   3.043   3.211   0.107
 5339SOL    HW133159   3.118   3.244   0.058
 5339SOL    HW233160   3.078   3.191   0.194
 5340SOL     OW33161   2.324   3.143   5.996
 5340SOL    HW133162   2.318   3.223   6.050
 5340SOL    HW233163   2.244   3.094   6.017
 5341SOL     OW33164   5.535   6.068   0.718
 5341SOL    HW133165   5.530   5.983   0.763
 5341SOL    HW233166   5.616   6.108   0.752
 5342SOL     OW33167   5.602   4.845   1.884
 5342SOL    HW133168   5.601   4.941   1.887
 5342SOL    HW233169   5.512   4.821   1.865
 5343SOL     OW33170   4.830   1.484   6.914
 5343SOL    HW133171   4.737   1.501   6.899
 5343SOL    HW233172   4.875   1.543   6.854
 5344SOL     OW33173   3.426   3.347   7.581
 5344SOL    HW133174   3.390   3.402   7.511
 5344SOL    HW233175   3.508   3.390   7.604
 5345SOL     OW33176   5.441   0.727   2.442
 5345SOL    HW133177   5.482   0.695   2.362
 5345SOL    HW233178   5.438   0.650   2.499
 5346SOL     OW33179   3.178   0.049   0.633
 5346SOL    HW133180   3.142   6.426   0.579
 5346SOL    HW233181   3.257   0.011   0.672
 5347SOL     OW33182   0.719   1.048   1.706
 5347SOL    HW133183   0.780   1.079   1.773
 5347SOL    HW233184   0.751   0.961   1.683
 5348SOL     OW33185   4.194   4.375   0.562
 5348SOL    HW133186   4.145   4.316   0.505
 5348SOL    HW233187   4.264   4.408   0.507
 5349SOL     OW33188   5.702   3.996   6.873
 5349SOL    HW133189   5.745   4.077   6.846
 5349SOL    HW233190   5.747   3.971   6.954
 5350SOL     OW33191   3.890   3.784   7.192
 5350SOL    HW133192   3.913   3.760   7.103
 5350SOL    HW233193   3.915   3.876   7.200
 5351SOL     OW33194   3.720   2.871   6.419
 5351SOL    HW133195   3.804   2.888   6.377
 5351SOL    HW233196   3.668   2.949   6.402
 5352SOL     OW33197   6.389   6.234   0.252
 5352SOL    HW133198   0.016   6.260   0.199
 5352SOL    HW233199   6.419   6.158   0.301
 5353SOL     OW33200   5.664   5.129   0.208
 5353SOL    HW133201   5.678   5.063   0.141
 5353SOL    HW233202   5.753   5.150   0.239
 5354SOL     OW33203   4.206   2.607   6.208
 5354SOL    HW133204   4.145   2.673   6.175
 5354SOL    HW233205   4.154   2.555   6.270
 5355SOL     OW33206   6.378   1.914   0.228
 5355SOL    HW133207   6.298   1.886   0.274
 5355SOL    HW233208   6.428   1.963   0.293
 5356SOL     OW33209   4.612   0.460   1.903
 5356SOL    HW133210   4.578   0.550   1.906
 5356SOL    HW233211   4.688   0.463   1.961
 5357SOL     OW33212   0.658   4.751   7.318
 5357SOL    HW133213   0.664   4.657   7.299
 5357SOL    HW233214   0.593   4.784   7.255
 5358SOL     OW33215   6.271   5.739   0.540
 5358SOL    HW133216   6.219   5.715   0.464
 5358SOL    HW233217   6.358   5.760   0.504
 5359SOL     OW33218   5.707   1.470   0.550
 5359SOL    HW133219   5.641   1.538   0.556
 5359SOL    HW233220   5.746   1.481   0.464
 5360SOL     OW33221   0.829   6.423   1.404
 5360SOL    HW133222   0.736   6.402   1.405
 5360SOL    HW233223   0.860   6.399   1.492
 5361SOL     OW33224   0.156   6.300   0.109
 5361SOL    HW133225   0.207   6.370   0.068
 5361SOL    HW233226   0.203   6.220   0.088
 5362SOL     OW33227   2.456   4.459   0.677
 5362SOL    HW133228   2.489   4.426   0.594
 5362SOL    HW233229   2.384   4.399   0.699
 5363SOL     OW33230   5.735   2.561   7.715
 5363SOL    HW133231   5.694   2.486   7.758
 5363SOL    HW233232   5.757   2.530   7.627
 5364SOL     OW33233   3.548   5.563   7.341
 5364SOL    HW133234   3.606   5.490   7.321
 5364SOL    HW233235   3.460   5.527   7.328
 5365SOL     OW33236   4.348   2.510   1.442
 5365SOL    HW133237   4.361   2.480   1.532
 5365SOL    HW233238   4.329   2.430   1.392
 5366SOL     OW33239   6.277   3.393   7.549
 5366SOL    HW133240   6.342   3.359   7.611
 5366SOL    HW233241   6.258   3.482   7.581
 5367SOL     OW33242   0.279   5.015   0.783
 5367SOL    HW133243   0.217   5.086   0.773
 5367SOL    HW233244   0.360   5.057   0.810
 5368SOL     OW33245   6.091   2.731   6.944
 5368SOL    HW133246   6.010   2.688   6.971
 5368SOL    HW233247   6.076   2.824   6.964
 5369SOL     OW33248   3.358   4.685   6.598
 5369SOL    HW133249   3.343   4.760   6.540
 5369SOL    HW233250   3.276   4.674   6.645
 5370SOL     OW33251   1.632   1.042   7.074
 5370SOL    HW133252   1.708   0.984   7.081
 5370SOL    HW233253   1.580   1.006   7.002
 5371SOL     OW33254   3.311   5.120   0.956
 5371SOL    HW133255   3.296   5.213   0.973
 5371SOL    HW233256   3.245   5.075   1.009
 5372SOL     OW33257   1.899   2.697   0.248
 5372SOL    HW133258   1.890   2.681   0.154
 5372SOL    HW233259   1.862   2.618   0.288
 5373SOL     OW33260   4.334   4.121   5.872
 5373SOL    HW133261   4.394   4.190   5.897
 5373SOL    HW233262   4.389   4.053   5.832
 5374SOL     OW33263   2.168   1.423   7.415
 5374SOL    HW133264   2.247   1.440   7.365
 5374SOL    HW233265   2.109   1.379   7.354
 5375SOL     OW33266   1.183   5.606   0.420
 5375SOL    HW133267   1.224   5.520   0.418
 5375SOL    HW233268   1.197   5.642   0.333
 5376SOL     OW33269   1.649   6.235   7.152
 5376SOL    HW133270   1.704   6.219   7.229
 5376SOL    HW233271   1.670   6.163   7.092
 5377SOL     OW33272   4.125   3.358   6.782
 5377SOL    HW133273   4.196   3.411   6.816
 5377SOL    HW233274   4.051   3.377   6.840
 5378SOL     OW33275   5.369   2.934   6.059
 5378SOL    HW133276   5.451   2.983   6.051
 5378SOL    HW233277   5.304   2.988   6.013
 5379SOL     OW33278   1.982   2.018   0.508
 5379SOL    HW133279   1.895   2.016   0.548
 5379SOL    HW233280   2.042   2.025   0.582
 5380SOL     OW33281   0.262   4.047   7.765
 5380SOL    HW133282   0.321   4.035   7.691
 5380SOL    HW233283   0.176   4.059   7.725
 5381SOL     OW33284   4.504   1.600   6.064
 5381SOL    HW133285   4.571   1.535   6.045
 5381SOL    HW233286   4.532   1.678   6.017
 5382SOL     OW33287   6.180   5.669   6.608
 5382SOL    HW133288   6.120   5.617   6.661
 5382SOL    HW233289   6.152   5.760   6.621
 5383SOL     OW33290   2.907   6.289   7.447
 5383SOL    HW133291   2.937   6.289   7.538
 5383SOL    HW233292   2.960   6.358   7.405
 5384SOL     OW33293   2.348   5.618   7.042
 5384SOL    HW133294   2.403   5.652   7.113
 5384SOL    HW233295   2.409   5.597   6.972
 5385SOL     OW33296   2.015   4.909   2.175
 5385SOL    HW133297   1.938   4.890   2.121
 5385SOL    HW233298   2.066   4.828   2.173
 5386SOL     OW33299   3.135   0.967   0.372
 5386SOL    HW133300   3.075   0.911   0.322
 5386SOL    HW233301   3.084   0.997   0.447
 5387SOL     OW33302   4.136   6.303   1.902
 5387SOL    HW133303   4.167   6.343   1.820
 5387SOL    HW233304   4.051   6.344   1.918
 5388SOL     OW33305   0.075   6.107   6.294
 5388SOL    HW133306   0.104   6.028   6.247
 5388SOL    HW233307   0.014   6.150   6.234
 5389SOL     OW33308   3.784   2.025   1.317
 5389SOL    HW133309   3.829   1.941   1.322
 5389SOL    HW233310   3.699   2.005   1.279
 5390SOL     OW33311   3.214   0.595   5.833
 5390SOL    HW133312   3.171   0.662   5.780
 5390SOL    HW233313   3.306   0.623   5.837
 5391SOL     OW33314   2.887   5.654   7.550
 5391SOL    HW133315   2.867   5.706   7.473
 5391SOL    HW233316   2.804   5.645   7.596
 5392SOL     OW33317   1.037   4.788   1.913
 5392SOL    HW133318   1.063   4.880   1.903
 5392SOL    HW233319   1.119   4.740   1.919
 5393SOL     OW33320   5.299   2.786   2.278
 5393SOL    HW133321   5.306   2.772   2.373
 5393SOL    HW233322   5.361   2.856   2.260
 5394SOL     OW33323   1.815   4.993   7.353
 5394SOL    HW133324   1.776   5.078   7.373
 5394SOL    HW233325   1.779   4.934   7.419
 5395SOL     OW33326   6.363   4.970   0.404
 5395SOL    HW133327   6.427   5.031   0.441
 5395SOL    HW233328   6.415   4.910   0.350
 5396SOL     OW33329   1.569   3.222   1.156
 5396SOL    HW133330   1.640   3.286   1.149
 5396SOL    HW233331   1.611   3.143   1.190
 5397SOL     OW33332   1.067   5.232   7.152
 5397SOL    HW133333   1.004   5.188   7.210
 5397SOL    HW233334   1.129   5.273   7.212
 5398SOL     OW33335   5.930   2.899   0.421
 5398SOL    HW133336   5.868   2.831   0.395
 5398SOL    HW233337   6.016   2.860   0.406
 5399SOL     OW33338   4.010   2.763   7.575
 5399SOL    HW133339   3.967   2.690   7.620
 5399SOL    HW233340   4.091   2.726   7.541
 5400SOL     OW33341   2.898   5.111   1.201
 5400SOL    HW133342   2.841   5.034   1.206
 5400SOL    HW233343   2.986   5.075   1.191
 5401SOL     OW33344   3.906   4.006   1.727
 5401SOL    HW133345   3.866   4.079   1.679
 5401SOL    HW233346   3.838   3.939   1.729
 5402SOL     OW33347   3.839   3.137   6.622
 5402SOL    HW133348   3.774   3.171   6.561
 5402SOL    HW233349   3.921   3.178   6.595
 5403SOL     OW33350   2.140   3.659   6.241
 5403SOL    HW133351   2.217   3.617   6.280
 5403SOL    HW233352   2.119   3.729   6.302
 5404SOL     OW33353   0.330   3.643   1.683
 5404SOL    HW133354   0.343   3.637   1.777
 5404SOL    HW233355   0.264   3.577   1.663
 5405SOL     OW33356   1.093   2.903   0.648
 5405SOL    HW133357   1.138   2.982   0.677
 5405SOL    HW233358   1.047   2.929   0.569
 5406SOL     OW33359   3.471   4.170   0.300
 5406SOL    HW133360   3.434   4.131   0.379
 5406SOL    HW233361   3.504   4.255   0.328
 5407SOL     OW33362   4.454   5.041   6.481
 5407SOL    HW133363   4.528   5.080   6.434
 5407SOL    HW233364   4.478   4.949   6.492
 5408SOL     OW33365   4.800   2.763   5.872
 5408SOL    HW133366   4.752   2.756   5.956
 5408SOL    HW233367   4.759   2.696   5.817
 5409SOL     OW33368   4.753   4.469   7.191
 5409SOL    HW133369   4.812   4.394   7.177
 5409SOL    HW233370   4.805   4.531   7.242
 5410SOL     OW33371   4.361   4.007   2.097
 5410SOL    HW133372   4.362   4.102   2.086
 5410SOL    HW233373   4.270   3.982   2.079
 5411SOL     OW33374   5.491   6.005   1.970
 5411SOL    HW133375   5.490   5.956   2.052
 5411SOL    HW233376   5.437   6.082   1.987
 5412SOL     OW33377   4.039   5.794   6.457
 5412SOL    HW133378   4.100   5.866   6.472
 5412SOL    HW233379   3.999   5.778   6.542
 5413SOL     OW33380   4.523   5.005   1.659
 5413SOL    HW133381   4.456   4.951   1.700
 5413SOL    HW233382   4.600   4.993   1.715
 5414SOL     OW33383   5.976   4.597   2.059
 5414SOL    HW133384   5.889   4.636   2.067
 5414SOL    HW233385   6.031   4.651   2.116
 5415SOL     OW33386   2.506   0.040   1.407
 5415SOL    HW133387   2.452   0.108   1.447
 5415SOL    HW233388   2.536   6.435   1.481
 5416SOL     OW33389   4.902   2.364   0.392
 5416SOL    HW133390   4.918   2.418   0.314
 5416SOL    HW233391   4.872   2.426   0.458
 5417SOL     OW33392   1.763   1.226   5.397
 5417SOL    HW133393   1.688   1.272   5.361
 5417SOL    HW233394   1.823   1.214   5.323
 5418SOL     OW33395   5.215   4.881   6.515
 5418SOL    HW133396   5.199   4.969   6.549
 5418SOL    HW233397   5.129   4.841   6.510
 5419SOL     OW33398   6.420   1.592   1.890
 5419SOL    HW133399   0.040   1.524   1.894
 5419SOL    HW233400   6.387   1.588   1.801
 5420SOL     OW33401   4.551   4.001   6.683
 5420SOL    HW133402   4.595   4.029   6.602
 5420SOL    HW233403   4.458   4.013   6.665
 5421SOL     OW33404   4.757   2.372   7.106
 5421SOL    HW133405   4.741   2.426   7.028
 5421SOL    HW233406   4.823   2.308   7.077
 5422SOL     OW33407   5.216   2.624   5.509
 5422SOL    HW133408   5.135   2.590   5.545
 5422SOL    HW233409   5.196   2.643   5.417
 5423SOL     OW33410   0.936   5.751   6.324
 5423SOL    HW133411   0.995   5.750   6.399
 5423SOL    HW233412   0.969   5.682   6.267
 5424SOL     OW33413   3.120   4.851   1.742
 5424SOL    HW133414   3.071   4.865   1.661
 5424SOL    HW233415   3.087   4.768   1.776
 5425SOL     OW33416   6.012   5.876   0.206
 5425SOL    HW133417   6.065   5.806   0.245
 5425SOL    HW233418   6.047   5.887   0.118
 5426SOL     OW33419   5.496   5.173   6.076
 5426SOL    HW133420   5.577   5.128   6.102
 5426SOL    HW233421   5.482   5.145   5.985
 5427SOL     OW33422   0.860   6.042   0.024
 5427SOL    HW133423   0.942   6.053   0.072
 5427SOL    HW233424   0.797   6.016   0.091
 5428SOL     OW33425   3.458   5.563   1.459
 5428SOL    HW133426   3.441   5.628   1.527
 5428SOL    HW233427   3.486   5.485   1.506
 5429SOL     OW33428   2.636   2.075   0.834
 5429SOL    HW133429   2.675   2.110   0.914
 5429SOL    HW233430   2.648   2.145   0.769
 5430SOL     OW33431   6.343   4.360   6.614
 5430SOL    HW133432   6.368   4.324   6.529
 5430SOL    HW233433   6.364   4.453   6.608
 5431SOL     OW33434   5.354   3.078   7.454
 5431SOL    HW133435   5.304   3.148   7.497
 5431SOL    HW233436   5.352   3.102   7.361
 5432SOL     OW33437   6.406   4.274   6.238
 5432SOL    HW133438   0.026   4.236   6.183
 5432SOL    HW233439   6.342   4.203   6.249
 5433SOL     OW33440   0.658   6.397   6.402
 5433SOL    HW133441   0.632   6.326   6.460
 5433SOL    HW233442   0.643   0.029   6.454
 5434SOL     OW33443   2.918   1.201   1.664
 5434SOL    HW133444   2.962   1.223   1.747
 5434SOL    HW233445   2.953   1.115   1.641
 5435SOL     OW33446   1.422   3.740   0.804
 5435SOL    HW133447   1.433   3.831   0.832
 5435SOL    HW233448   1.329   3.732   0.784
 5436SOL     OW33449   1.574   0.835   5.832
 5436SOL    HW133450   1.502   0.847   5.770
 5436SOL    HW233451   1.605   0.746   5.814
 5437SOL     OW33452   0.044   3.416   6.672
 5437SOL    HW133453   0.053   3.506   6.703
 5437SOL    HW233454   0.063   3.421   6.578
 5438SOL     OW33455   4.259   1.390   0.569
 5438SOL    HW133456   4.235   1.364   0.480
 5438SOL    HW233457   4.325   1.458   0.557
 5439SOL     OW33458   0.296   2.234   7.748
 5439SOL    HW133459   0.326   2.176   0.015
 5439SOL    HW233460   0.278   2.175   7.674
 5440SOL     OW33461   1.484   4.885   0.630
 5440SOL    HW133462   1.539   4.850   0.700
 5440SOL    HW233463   1.526   4.968   0.606
 5441SOL     OW33464   4.652   4.439   0.921
 5441SOL    HW133465   4.662   4.347   0.894
 5441SOL    HW233466   4.684   4.441   1.011
 5442SOL     OW33467   6.230   1.758   0.850
 5442SOL    HW133468   6.159   1.816   0.876
 5442SOL    HW233469   6.187   1.689   0.798
 5443SOL     OW33470   0.214   4.221   0.514
 5443SOL    HW133471   0.294   4.266   0.485
 5443SOL    HW233472   0.240   4.175   0.593
 5444SOL     OW33473   1.680   0.774   6.554
 5444SOL    HW133474   1.637   0.813   6.478
 5444SOL    HW233475   1.665   0.680   6.545
 5445SOL     OW33476   3.414   5.767   1.637
 5445SOL    HW133477   3.390   5.816   1.558
 5445SOL    HW233478   3.399   5.829   1.708
 5446SOL     OW33479   1.931   3.837   7.609
 5446SOL    HW133480   1.969   3.752   7.588
 5446SOL    HW233481   1.998   3.882   7.660
 5447SOL     OW33482   5.822   6.092   1.605
 5447SOL    HW133483   5.808   6.170   1.552
 5447SOL    HW233484   5.824   6.123   1.695
 5448SOL     OW33485   4.175   2.284   0.831
 5448SOL    HW133486   4.119   2.296   0.754
 5448SOL    HW233487   4.146   2.351   0.892
 5449SOL     OW33488   3.589   2.420   0.091
 5449SOL    HW133489   3.590   2.465   0.006
 5449SOL    HW233490   3.673   2.375   0.096
 5450SOL     OW33491   5.795   4.282   0.829
 5450SOL    HW133492   5.708   4.321   0.821
 5450SOL    HW233493   5.778   4.190   0.848
 5451SOL     OW33494   4.116   5.628   6.945
 5451SOL    HW133495   4.159   5.653   6.864
 5451SOL    HW233496   4.184   5.635   7.012
 5452SOL     OW33497   2.642   6.334   0.800
 5452SOL    HW133498   2.555   6.374   0.802
 5452SOL    HW233499   2.631   6.250   0.845
 5453SOL     OW33500   0.107   5.970   7.386
 5453SOL    HW133501   0.104   5.879   7.414
 5453SOL    HW233502   0.079   6.019   7.464
 5454SOL     OW33503   2.186   5.647   7.750
 5454SOL    HW133504   2.109   5.607   7.710
 5454SOL    HW233505   2.155   5.732   7.781
 5455SOL     OW33506   0.893   6.122   2.028
 5455SOL    HW133507   0.827   6.094   2.092
 5455SOL    HW233508   0.842   6.169   1.961
 5456SOL     OW33509   4.939   5.352   5.942
 5456SOL    HW133510   5.020   5.324   5.899
 5456SOL    HW233511   4.870   5.309   5.891
 5457SOL     OW33512   6.238   3.371   6.557
 5457SOL    HW133513   6.322   3.380   6.600
 5457SOL    HW233514   6.176   3.357   6.628
 5458SOL     OW33515   5.225   0.036   5.749
 5458SOL    HW133516   5.143   0.083   5.735
 5458SOL    HW233517   5.290   0.104   5.765
 5459SOL     OW33518   4.639   4.014   5.539
 5459SOL    HW133519   4.602   3.972   5.616
 5459SOL    HW233520   4.563   4.044   5.488
 5460SOL     OW33521   1.532   0.801   0.285
 5460SOL    HW133522   1.507   0.717   0.247
 5460SOL    HW233523   1.580   0.778   0.365
 5461SOL     OW33524   2.465   3.031   6.206
 5461SOL    HW133525   2.434   3.074   6.126
 5461SOL    HW233526   2.400   2.963   6.222
 5462SOL     OW33527   5.561   4.680   1.131
 5462SOL    HW133528   5.555   4.586   1.118
 5462SOL    HW233529   5.649   4.703   1.102
 5463SOL     OW33530   2.955   4.591   1.089
 5463SOL    HW133531   3.023   4.538   1.129
 5463SOL    HW233532   2.882   4.587   1.151
 5464SOL     OW33533   3.981   0.821   6.030
 5464SOL    HW133534   4.012   0.899   5.985
 5464SOL    HW233535   4.053   0.758   6.023
 5465SOL     OW33536   2.492   2.377   6.607
 5465SOL    HW133537   2.432   2.321   6.656
 5465SOL    HW233538   2.493   2.460   6.655
 5466SOL     OW33539   2.576   0.534   6.409
 5466SOL    HW133540   2.580   0.589   6.487
 5466SOL    HW233541   2.496   0.561   6.364
 5467SOL     OW33542   2.355   2.380   1.341
 5467SOL    HW133543   2.270   2.400   1.303
 5467SOL    HW233544   2.335   2.342   1.427
 5468SOL     OW33545   3.497   6.425   1.808
 5468SOL    HW133546   3.438   6.391   1.875
 5468SOL    HW233547   3.573   0.009   1.856
 5469SOL     OW33548   6.128   1.937   1.311
 5469SOL    HW133549   6.159   2.022   1.344
 5469SOL    HW233550   6.201   1.903   1.259
 5470SOL     OW33551   1.326   2.724   0.098
 5470SOL    HW133552   1.250   2.761   0.144
 5470SOL    HW233553   1.342   2.640   0.141
 5471SOL     OW33554   2.617   5.893   5.599
 5471SOL    HW133555   2.672   5.822   5.633
 5471SOL    HW233556   2.653   5.912   5.513
 5472SOL     OW33557   2.201   1.016   0.700
 5472SOL    HW133558   2.267   1.019   0.631
 5472SOL    HW233559   2.143   1.090   0.681
 5473SOL     OW33560   5.227   1.754   2.126
 5473SOL    HW133561   5.308   1.776   2.080
 5473SOL    HW233562   5.184   1.839   2.140
 5474SOL     OW33563   0.962   4.626   0.548
 5474SOL    HW133564   0.974   4.710   0.593
 5474SOL    HW233565   1.012   4.564   0.601
 5475SOL     OW33566   3.661   0.501   1.507
 5475SOL    HW133567   3.664   0.405   1.508
 5475SOL    HW233568   3.661   0.525   1.600
 5476SOL     OW33569   0.063   0.603   6.579
 5476SOL    HW133570   6.425   0.642   6.565
 5476SOL    HW233571   0.121   0.651   6.520
 5477SOL     OW33572   5.123   5.168   0.955
 5477SOL    HW133573   5.077   5.251   0.971
 5477SOL    HW233574   5.067   5.102   0.997
 5478SOL     OW33575   5.414   4.056   5.402
 5478SOL    HW133576   5.406   4.080   5.494
 5478SOL    HW233577   5.327   4.070   5.366
 5479SOL     OW33578   6.368   5.639   0.779
 5479SOL    HW133579   6.338   5.550   0.797
 5479SOL    HW233580   6.330   5.660   0.694
 5480SOL     OW33581   5.834   0.511   0.816
 5480SOL    HW133582   5.913   0.545   0.774
 5480SOL    HW233583   5.830   0.419   0.788
 5481SOL     OW33584   6.357   1.841   0.608
 5481SOL    HW133585   6.324   1.815   0.694
 5481SOL    HW233586   6.432   1.897   0.627
 5482SOL     OW33587   0.958   2.085   6.840
 5482SOL    HW133588   0.942   2.028   6.915
 5482SOL    HW233589   0.963   2.025   6.766
 5483SOL     OW33590   4.050   2.998   1.791
 5483SOL    HW133591   3.968   3.046   1.804
 5483SOL    HW233592   4.089   3.038   1.714
 5484SOL     OW33593   5.704   0.726   7.114
 5484SOL    HW133594   5.757   0.650   7.137
 5484SOL    HW233595   5.635   0.727   7.180
 5485SOL     OW33596   3.470   5.456   0.032
 5485SOL    HW133597   3.553   5.446   7.788
 5485SOL    HW233598   3.406   5.412   7.779
 5486SOL     OW33599   5.108   4.058   1.064
 5486SOL    HW133600   5.127   4.060   1.158
 5486SOL    HW233601   5.047   4.130   1.050
 5487SOL     OW33602   3.339   0.793   6.056
 5487SOL    HW133603   3.394   0.740   5.999
 5487SOL    HW233604   3.286   0.847   5.996
 5488SOL     OW33605   6.224   5.928   6.320
 5488SOL    HW133606   6.242   5.917   6.227
 5488SOL    HW233607   6.288   5.873   6.364
 5489SOL     OW33608   4.975   3.797   1.771
 5489SOL    HW133609   4.991   3.706   1.747
 5489SOL    HW233610   4.931   3.792   1.856
 5490SOL     OW33611   2.300   1.088   0.240
 5490SOL    HW133612   2.332   1.126   0.159
 5490SOL    HW233613   2.257   1.007   0.214
 5491SOL     OW33614   3.249   1.193   7.207
 5491SOL    HW133615   3.326   1.211   7.261
 5491SOL    HW233616   3.277   1.211   7.118
 5492SOL     OW33617   3.961   4.774   0.401
 5492SOL    HW133618   4.046   4.776   0.357
 5492SOL    HW233619   3.952   4.685   0.433
 5493SOL     OW33620   2.029   6.251   6.947
 5493SOL    HW133621   2.069   6.327   6.905
 5493SOL    HW233622   1.947   6.237   6.899
 5494SOL     OW33623   5.994   0.255   6.636
 5494SOL    HW133624   5.904   0.242   6.668
 5494SOL    HW233625   6.049   0.209   6.699
 5495SOL     OW33626   6.217   0.640   6.575
 5495SOL    HW133627   6.217   0.624   6.670
 5495SOL    HW233628   6.142   0.592   6.542
 5496SOL     OW33629   5.579   4.183   6.064
 5496SOL    HW133630   5.508   4.164   6.003
 5496SOL    HW233631   5.651   4.213   6.008
 5497SOL     OW33632   0.117   2.180   5.959
 5497SOL    HW133633   0.117   2.275   5.947
 5497SOL    HW233634   0.032   2.161   5.999
 5498SOL     OW33635   3.133   1.557   0.914
 5498SOL    HW133636   3.222   1.579   0.939
 5498SOL    HW233637   3.080   1.581   0.990
 5499SOL     OW33638   1.298   0.129   0.020
 5499SOL    HW133639   1.361   0.183   7.773
 5499SOL    HW233640   1.320   0.146   0.112
 5500SOL     OW33641   0.184   4.225   7.316
 5500SOL    HW133642   0.170   4.235   7.410
 5500SOL    HW233643   0.102   4.185   7.284
 5501SOL     OW33644   4.897   2.725   6.861
 5501SOL    HW133645   4.955   2.746   6.788
 5501SOL    HW233646   4.870   2.810   6.895
 5502SOL     OW33647   5.331   5.004   6.827
 5502SOL    HW133648   5.418   5.036   6.805
 5502SOL    HW233649   5.341   4.909   6.831
 5503SOL     OW33650   0.846   6.117   1.602
 5503SOL    HW133651   0.752   6.125   1.585
 5503SOL    HW233652   0.873   6.206   1.626
 5504SOL     OW33653   0.261   0.173   6.893
 5504SOL    HW133654   0.307   0.091   6.913
 5504SOL    HW233655   0.314   0.241   6.933
 5505SOL     OW33656   3.475   5.515   6.294
 5505SOL    HW133657   3.440   5.453   6.230
 5505SOL    HW233658   3.549   5.470   6.333
 5506SOL     OW33659   6.335   0.648   0.922
 5506SOL    HW133660   6.254   0.646   0.973
 5506SOL    HW233661   6.403   0.620   0.984
 5507SOL     OW33662   3.809   1.532   0.974
 5507SOL    HW133663   3.874   1.462   0.965
 5507SOL    HW233664   3.725   1.490   0.956
 5508SOL     OW33665   1.795   6.203   6.812
 5508SOL    HW133666   1.758   6.133   6.866
 5508SOL    HW233667   1.722   6.262   6.795
 5509SOL     OW33668   0.493   4.680   0.890
 5509SOL    HW133669   0.420   4.670   0.951
 5509SOL    HW233670   0.529   4.767   0.909
 5510SOL     OW33671   3.779   4.384   7.433
 5510SOL    HW133672   3.824   4.412   7.353
 5510SOL    HW233673   3.812   4.296   7.448
 5511SOL     OW33674   0.593   4.057   0.204
 5511SOL    HW133675   0.503   4.085   0.216
 5511SOL    HW233676   0.598   4.032   0.112
 5512SOL     OW33677   2.115   4.432   0.163
 5512SOL    HW133678   2.029   4.395   0.182
 5512SOL    HW233679   2.171   4.356   0.148
 5513SOL     OW33680   5.243   4.675   2.092
 5513SOL    HW133681   5.277   4.586   2.096
 5513SOL    HW233682   5.148   4.666   2.101
 5514SOL     OW33683   6.266   2.528   2.036
 5514SOL    HW133684   6.223   2.507   2.119
 5514SOL    HW233685   6.359   2.527   2.057
 5515SOL     OW33686   0.351   3.626   0.025
 5515SOL    HW133687   0.430   3.654   7.783
 5515SOL    HW233688   0.295   3.591   7.759
 5516SOL     OW33689   3.502   5.043   2.409
 5516SOL    HW133690   3.519   5.131   2.376
 5516SOL    HW233691   3.547   5.039   2.493
 5517SOL     OW33692   2.152   2.725   0.368
 5517SOL    HW133693   2.111   2.726   0.455
 5517SOL    HW233694   2.079   2.713   0.307
 5518SOL     OW33695   5.258   3.418   5.410
 5518SOL    HW133696   5.338   3.403   5.460
 5518SOL    HW233697   5.245   3.337   5.361
 5519SOL     OW33698   6.062   2.635   2.473
 5519SOL    HW133699   6.097   2.719   2.445
 5519SOL    HW233700   6.131   2.597   2.527
 5520SOL     OW33701   2.777   1.582   5.630
 5520SOL    HW133702   2.754   1.660   5.579
 5520SOL    HW233703   2.866   1.599   5.661
 5521SOL     OW33704   3.012   6.225   5.356
 5521SOL    HW133705   3.038   6.192   5.442
 5521SOL    HW233706   3.056   6.310   5.349
 5522SOL     OW33707   3.368   4.943   5.967
 5522SOL    HW133708   3.275   4.942   5.945
 5522SOL    HW233709   3.371   4.979   6.056
 5523SOL     OW33710   3.246   2.324   7.627
 5523SOL    HW133711   3.305   2.319   7.551
 5523SOL    HW233712   3.215   2.234   7.638
 5524SOL     OW33713   2.315   5.703   5.905
 5524SOL    HW133714   2.338   5.676   5.816
 5524SOL    HW233715   2.344   5.794   5.910
 5525SOL     OW33716   4.720   2.515   6.878
 5525SOL    HW133717   4.783   2.586   6.867
 5525SOL    HW233718   4.635   2.556   6.864
 5526SOL     OW33719   3.937   5.139   6.544
 5526SOL    HW133720   3.995   5.064   6.560
 5526SOL    HW233721   3.995   5.214   6.538
 5527SOL     OW33722   0.262   2.042   7.552
 5527SOL    HW133723   0.342   2.010   7.509
 5527SOL    HW233724   0.242   1.974   7.616
 5528SOL     OW33725   3.359   2.248   0.707
 5528SOL    HW133726   3.380   2.302   0.631
 5528SOL    HW233727   3.388   2.299   0.782
 5529SOL     OW33728   3.667   0.532   1.776
 5529SOL    HW133729   3.658   0.571   1.863
 5529SOL    HW233730   3.663   0.437   1.791
 5530SOL     OW33731   2.786   6.115   6.747
 5530SOL    HW133732   2.789   6.042   6.809
 5530SOL    HW233733   2.692   6.133   6.735
 5531SOL     OW33734   1.204   0.377   6.502
 5531SOL    HW133735   1.165   0.358   6.587
 5531SOL    HW233736   1.260   0.302   6.483
 5532SOL     OW33737   0.741   6.264   1.853
 5532SOL    HW133738   0.687   6.337   1.883
 5532SOL    HW233739   0.789   6.299   1.778
 5533SOL     OW33740   3.825   3.924   6.853
 5533SOL    HW133741   3.874   3.847   6.882
 5533SOL    HW233742   3.879   3.998   6.881
 5534SOL     OW33743   4.859   0.651   7.080
 5534SOL    HW133744   4.895   0.739   7.078
 5534SOL    HW233745   4.884   0.612   6.996
 5535SOL     OW33746   6.398   3.527   0.220
 5535SOL    HW133747   0.040   3.499   0.203
 5535SOL    HW233748   6.389   3.526   0.315
 5536SOL     OW33749   2.149   2.812   7.187
 5536SOL    HW133750   2.071   2.862   7.167
 5536SOL    HW233751   2.119   2.740   7.243
 5537SOL     OW33752   3.633   0.564   7.663
 5537SOL    HW133753   3.639   0.581   7.757
 5537SOL    HW233754   3.676   0.479   7.651
 5538SOL     OW33755   3.486   1.131   0.572
 5538SOL    HW133756   3.474   1.063   0.638
 5538SOL    HW233757   3.560   1.183   0.605
 5539SOL     OW33758   0.008   5.968   5.871
 5539SOL    HW133759   6.405   5.956   5.791
 5539SOL    HW233760   0.020   6.062   5.879
 5540SOL     OW33761   3.269   1.858   1.785
 5540SOL    HW133762   3.342   1.892   1.838
 5540SOL    HW233763   3.275   1.907   1.702
 5541SOL     OW33764   0.326   5.863   6.682
 5541SOL    HW133765   0.312   5.913   6.763
 5541SOL    HW233766   0.311   5.927   6.612
 5542SOL     OW33767   2.607   3.338   7.390
 5542SOL    HW133768   2.628   3.344   7.297
 5542SOL    HW233769   2.690   3.353   7.435
 5543SOL     OW33770   1.433   1.055   6.616
 5543SOL    HW133771   1.423   1.143   6.651
 5543SOL    HW233772   1.470   1.069   6.528
 5544SOL     OW33773   1.907   1.952   7.465
 5544SOL    HW133774   1.878   2.008   7.537
 5544SOL    HW233775   1.977   2.001   7.423
 5545SOL     OW33776   4.027   3.100   5.982
 5545SOL    HW133777   3.968   3.032   5.951
 5545SOL    HW233778   3.976   3.148   6.047
 5546SOL     OW33779   0.181   2.545   0.210
 5546SOL    HW133780   0.111   2.525   0.148
 5546SOL    HW233781   0.250   2.482   0.190
 5547SOL     OW33782   3.221   5.584   7.615
 5547SOL    HW133783   3.168   5.554   7.542
 5547SOL    HW233784   3.253   5.504   7.657
 5548SOL     OW33785   5.638   5.838   7.493
 5548SOL    HW133786   5.623   5.927   7.462
 5548SOL    HW233787   5.572   5.824   7.561
 5549SOL     OW33788   6.383   6.425   5.614
 5549SOL    HW133789   0.021   0.004   5.648
 5549SOL    HW233790   6.381   6.330   5.630
 5550SOL     OW33791   2.524   0.589   0.991
 5550SOL    HW133792   2.533   0.643   0.912
 5550SOL    HW233793   2.604   0.606   1.041
 5551SOL     OW33794   2.255   1.199   5.982
 5551SOL    HW133795   2.342   1.239   5.983
 5551SOL    HW233796   2.240   1.172   6.073
 5552SOL     OW33797   0.273   3.896   1.586
 5552SOL    HW133798   0.284   3.801   1.594
 5552SOL    HW233799   0.345   3.932   1.638
 5553SOL     OW33800   3.591   2.768   6.860
 5553SOL    HW133801   3.655   2.816   6.807
 5553SOL    HW233802   3.602   2.677   6.835
 5554SOL     OW33803   2.154   5.152   0.576
 5554SOL    HW133804   2.182   5.181   0.663
 5554SOL    HW233805   2.234   5.152   0.524
 5555SOL     OW33806   0.359   4.761   0.622
 5555SOL    HW133807   0.393   4.672   0.612
 5555SOL    HW233808   0.384   4.786   0.711
 5556SOL     OW33809   2.545   2.860   1.081
 5556SOL    HW133810   2.514   2.896   0.998
 5556SOL    HW233811   2.470   2.812   1.116
 5557SOL     OW33812   5.150   3.469   1.992
 5557SOL    HW133813   5.093   3.419   1.934
 5557SOL    HW233814   5.227   3.489   1.940
 5558SOL     OW33815   5.716   3.935   0.401
 5558SOL    HW133816   5.689   3.938   0.493
 5558SOL    HW233817   5.766   3.854   0.393
 5559SOL     OW33818   3.973   5.366   1.044
 5559SOL    HW133819   3.883   5.338   1.029
 5559SOL    HW233820   3.964   5.444   1.099
 5560SOL     OW33821   0.339   4.061   7.130
 5560SOL    HW133822   0.285   4.089   7.204
 5560SOL    HW233823   0.409   4.009   7.170
 5561SOL     OW33824   2.087   1.384   1.493
 5561SOL    HW133825   2.168   1.408   1.539
 5561SOL    HW233826   2.018   1.427   1.544
 5562SOL     OW33827   6.397   6.269   1.232
 5562SOL    HW133828   0.019   6.296   1.292
 5562SOL    HW233829   6.382   6.346   1.177
 5563SOL     OW33830   4.403   5.543   2.288
 5563SOL    HW133831   4.332   5.502   2.336
 5563SOL    HW233832   4.448   5.471   2.244
 5564SOL     OW33833   1.861   2.475   6.775
 5564SOL    HW133834   1.875   2.392   6.820
 5564SOL    HW233835   1.812   2.529   6.837
 5565SOL     OW33836   1.383   4.527   0.932
 5565SOL    HW133837   1.365   4.530   0.838
 5565SOL    HW233838   1.471   4.564   0.940
 5566SOL     OW33839   3.523   1.166   1.047
 5566SOL    HW133840   3.520   1.071   1.032
 5566SOL    HW233841   3.438   1.186   1.087
 5567SOL     OW33842   2.589   0.074   7.200
 5567SOL    HW133843   2.649   0.145   7.177
 5567SOL    HW233844   2.521   0.116   7.253
 5568SOL     OW33845   5.382   5.015   1.576
 5568SOL    HW133846   5.356   5.066   1.500
 5568SOL    HW233847   5.300   4.990   1.617
 5569SOL     OW33848   2.459   5.430   0.931
 5569SOL    HW133849   2.376   5.441   0.978
 5569SOL    HW233850   2.436   5.439   0.839
 5570SOL     OW33851   3.591   5.361   1.055
 5570SOL    HW133852   3.531   5.315   1.115
 5570SOL    HW233853   3.573   5.454   1.069
 5571SOL     OW33854   2.404   0.907   6.239
 5571SOL    HW133855   2.342   0.980   6.236
 5571SOL    HW233856   2.458   0.925   6.316
 5572SOL     OW33857   4.115   4.036   0.119
 5572SOL    HW133858   4.057   4.005   0.189
 5572SOL    HW233859   4.079   4.121   0.094
 5573SOL     OW33860   0.105   5.713   6.933
 5573SOL    HW133861   0.033   5.665   6.974
 5573SOL    HW233862   0.079   5.805   6.939
 5574SOL     OW33863   5.078   3.799   2.154
 5574SOL    HW133864   5.130   3.869   2.114
 5574SOL    HW233865   4.994   3.802   2.108
 5575SOL     OW33866   1.665   0.377   6.302
 5575SOL    HW133867   1.729   0.352   6.235
 5575SOL    HW233868   1.600   0.428   6.254
 5576SOL     OW33869   3.288   0.265   6.504
 5576SOL    HW133870   3.316   0.356   6.518
 5576SOL    HW233871   3.252   0.264   6.415
 5577SOL     OW33872   6.178   3.562   2.176
 5577SOL    HW133873   6.191   3.587   2.084
 5577SOL    HW233874   6.140   3.474   2.171
 5578SOL     OW33875   5.633   1.724   6.105
 5578SOL    HW133876   5.632   1.708   6.199
 5578SOL    HW233877   5.556   1.678   6.072
 5579SOL     OW33878   1.646   2.507   7.679
 5579SOL    HW133879   1.558   2.543   7.682
 5579SOL    HW233880   1.650   2.459   7.596
 5580SOL     OW33881   1.249   6.304   7.474
 5580SOL    HW133882   1.297   6.301   7.556
 5580SOL    HW233883   1.311   6.273   7.408
 5581SOL     OW33884   6.323   5.445   1.430
 5581SOL    HW133885   6.373   5.385   1.485
 5581SOL    HW233886   6.265   5.389   1.379
 5582SOL     OW33887   4.643   2.010   5.729
 5582SOL    HW133888   4.635   2.105   5.734
 5582SOL    HW233889   4.619   1.988   5.639
 5583SOL     OW33890   5.708   5.763   7.009
 5583SOL    HW133891   5.770   5.701   7.046
 5583SOL    HW233892   5.763   5.837   6.981
 5584SOL     OW33893   0.839   3.909   0.878
 5584SOL    HW133894   0.901   3.932   0.809
 5584SOL    HW233895   0.891   3.908   0.958
 5585SOL     OW33896   4.635   3.849   1.382
 5585SOL    HW133897   4.619   3.851   1.288
 5585SOL    HW233898   4.592   3.928   1.416
 5586SOL     OW33899   2.794   4.860   7.362
 5586SOL    HW133900   2.768   4.950   7.382
 5586SOL    HW233901   2.871   4.844   7.417
 5587SOL     OW33902   3.595   5.299   5.957
 5587SOL    HW133903   3.516   5.308   6.010
 5587SOL    HW233904   3.602   5.205   5.940
 5588SOL     OW33905   0.062   5.760   0.410
 5588SOL    HW133906   0.128   5.693   0.429
 5588SOL    HW233907   0.036   5.742   0.319
 5589SOL     OW33908   4.762   5.433   6.425
 5589SOL    HW133909   4.807   5.417   6.342
 5589SOL    HW233910   4.800   5.370   6.486
 5590SOL     OW33911   6.123   5.309   1.293
 5590SOL    HW133912   6.094   5.228   1.335
 5590SOL    HW233913   6.042   5.359   1.279
 5591SOL     OW33914   1.518   4.630   1.708
 5591SOL    HW133915   1.502   4.629   1.802
 5591SOL    HW233916   1.434   4.655   1.670
 5592SOL     OW33917   0.665   5.050   1.613
 5592SOL    HW133918   0.611   5.000   1.551
 5592SOL    HW233919   0.755   5.029   1.588
 5593SOL     OW33920   5.448   5.971   6.747
 5593SOL    HW133921   5.391   5.897   6.768
 5593SOL    HW233922   5.421   5.997   6.658
 5594SOL     OW33923   0.139   3.183   6.790
 5594SOL    HW133924   0.111   3.262   6.744
 5594SOL    HW233925   0.208   3.146   6.734
 5595SOL     OW33926   0.098   3.941   6.575
 5595SOL    HW133927   0.184   3.973   6.604
 5595SOL    HW233928   0.104   3.942   6.480
 5596SOL     OW33929   4.496   4.167   7.621
 5596SOL    HW133930   4.573   4.110   7.621
 5596SOL    HW233931   4.453   4.149   7.704
 5597SOL     OW33932   0.933   2.932   0.430
 5597SOL    HW133933   0.865   2.993   0.404
 5597SOL    HW233934   0.887   2.855   0.462
 5598SOL     OW33935   4.371   0.078   1.286
 5598SOL    HW133936   4.440   0.139   1.259
 5598SOL    HW233937   4.319   0.128   1.349
 5599SOL     OW33938   0.791   0.881   7.085
 5599SOL    HW133939   0.839   0.941   7.142
 5599SOL    HW233940   0.726   0.936   7.041
 5600SOL     OW33941   5.785   6.117   1.096
 5600SOL    HW133942   5.764   6.045   1.155
 5600SOL    HW233943   5.871   6.147   1.125
 5601SOL     OW33944   5.596   5.948   7.185
 5601SOL    HW133945   5.515   5.923   7.230
 5601SOL    HW233946   5.616   5.873   7.129
 5602SOL     OW33947   4.812   6.250   1.539
 5602SOL    HW133948   4.859   6.224   1.460
 5602SOL    HW233949   4.786   6.341   1.523
 5603SOL     OW33950   2.571   5.179   5.654
 5603SOL    HW133951   2.606   5.156   5.741
 5603SOL    HW233952   2.547   5.095   5.615
 5604SOL     OW33953   2.244   2.047   0.101
 5604SOL    HW133954   2.182   2.119   0.108
 5604SOL    HW233955   2.229   1.995   0.180
 5605SOL     OW33956   1.271   3.936   7.588
 5605SOL    HW133957   1.198   3.883   7.617
 5605SOL    HW233958   1.231   4.015   7.552
 5606SOL     OW33959   4.156   1.856   1.178
 5606SOL    HW133960   4.220   1.792   1.147
 5606SOL    HW233961   4.151   1.921   1.108
 5607SOL     OW33962   5.554   5.255   6.419
 5607SOL    HW133963   5.590   5.339   6.388
 5607SOL    HW233964   5.459   5.267   6.415
 5608SOL     OW33965   5.112   3.811   6.320
 5608SOL    HW133966   5.179   3.760   6.366
 5608SOL    HW233967   5.066   3.747   6.266
 5609SOL     OW33968   0.269   2.029   6.154
 5609SOL    HW133969   0.227   2.087   6.091
 5609SOL    HW233970   0.206   2.020   6.225
 5610SOL     OW33971   5.081   5.448   0.283
 5610SOL    HW133972   5.156   5.460   0.341
 5610SOL    HW233973   5.052   5.358   0.299
 5611SOL     OW33974   3.075   6.320   6.438
 5611SOL    HW133975   3.120   6.360   6.512
 5611SOL    HW233976   2.990   6.295   6.472
 5612SOL     OW33977   3.971   2.851   1.459
 5612SOL    HW133978   4.054   2.811   1.484
 5612SOL    HW233979   3.995   2.936   1.421
 5613SOL     OW33980   4.670   5.627   2.349
 5613SOL    HW133981   4.687   5.705   2.296
 5613SOL    HW233982   4.577   5.610   2.339
 5614SOL     OW33983   6.138   1.639   2.598
 5614SOL    HW133984   6.144   1.584   2.520
 5614SOL    HW233985   6.080   1.590   2.658
 5615SOL     OW33986   0.622   6.334   7.289
 5615SOL    HW133987   0.536   6.327   7.246
 5615SOL    HW233988   0.623   6.262   7.352
 5616SOL     OW33989   6.111   1.458   2.393
 5616SOL    HW133990   6.024   1.442   2.356
 5616SOL    HW233991   6.172   1.421   2.329
 5617SOL     OW33992   2.476   0.239   0.180
 5617SOL    HW133993   2.572   0.243   0.184
 5617SOL    HW233994   2.457   0.149   0.152
 5618SOL     OW33995   2.130   5.618   6.085
 5618SOL    HW133996   2.050   5.611   6.033
 5618SOL    HW233997   2.199   5.634   6.020
 5619SOL     OW33998   2.089   2.275   0.139
 5619SOL    HW133999   1.997   2.261   0.164
 5619SOL    HW234000   2.085   2.344   0.073
 5620SOL     OW34001   1.690   5.064   5.820
 5620SOL    HW134002   1.762   5.107   5.867
 5620SOL    HW234003   1.665   5.127   5.753
 5621SOL     OW34004   2.153   5.033   1.704
 5621SOL    HW134005   2.105   4.974   1.645
 5621SOL    HW234006   2.087   5.061   1.768
 5622SOL     OW34007   4.813   2.220   6.388
 5622SOL    HW134008   4.821   2.272   6.308
 5622SOL    HW234009   4.853   2.275   6.456
 5623SOL     OW34010   0.897   1.834   1.037
 5623SOL    HW134011   0.854   1.915   1.010
 5623SOL    HW234012   0.908   1.843   1.131
 5624SOL     OW34013   4.702   1.890   6.168
 5624SOL    HW134014   4.679   1.857   6.082
 5624SOL    HW234015   4.618   1.908   6.211
 5625SOL     OW34016   2.225   5.348   0.293
 5625SOL    HW134017   2.201   5.309   0.208
 5625SOL    HW234018   2.281   5.282   0.334
 5626SOL     OW34019   2.929   0.650   6.141
 5626SOL    HW134020   2.876   0.588   6.192
 5626SOL    HW234021   2.996   0.595   6.100
 5627SOL     OW34022   5.406   6.017   1.452
 5627SOL    HW134023   5.473   6.084   1.438
 5627SOL    HW234024   5.391   6.019   1.546
 5628SOL     OW34025   0.958   4.151   0.055
 5628SOL    HW134026   1.041   4.126   0.094
 5628SOL    HW234027   0.937   4.236   0.093
 5629SOL     OW34028   1.102   3.779   6.020
 5629SOL    HW134029   1.182   3.813   6.061
 5629SOL    HW234030   1.099   3.687   6.045
 5630SOL     OW34031   4.692   6.374   2.421
 5630SOL    HW134032   4.630   6.430   2.468
 5630SOL    HW234033   4.765   6.433   2.399
 5631SOL     OW34034   4.030   0.884   2.121
 5631SOL    HW134035   3.948   0.932   2.126
 5631SOL    HW234036   4.086   0.937   2.064
 5632SOL     OW34037   4.291   6.412   7.363
 5632SOL    HW134038   4.331   6.420   7.277
 5632SOL    HW234039   4.287   6.317   7.379
 5633SOL     OW34040   0.451   1.285   7.313
 5633SOL    HW134041   0.424   1.219   7.377
 5633SOL    HW234042   0.436   1.244   7.228
 5634SOL     OW34043   4.904   6.216   0.115
 5634SOL    HW134044   4.921   6.155   0.043
 5634SOL    HW234045   4.872   6.295   0.071
 5635SOL     OW34046   4.430   6.040   1.145
 5635SOL    HW134047   4.449   6.129   1.176
 5635SOL    HW234048   4.350   6.050   1.092
 5636SOL     OW34049   1.284   2.320   1.820
 5636SOL    HW134050   1.267   2.307   1.913
 5636SOL    HW234051   1.376   2.347   1.816
 5637SOL     OW34052   1.197   6.058   0.657
 5637SOL    HW134053   1.284   6.064   0.616
 5637SOL    HW234054   1.142   6.020   0.589
 5638SOL     OW34055   0.090   2.836   7.462
 5638SOL    HW134056   0.083   2.795   7.548
 5638SOL    HW234057   0.170   2.799   7.424
 5639SOL     OW34058   4.161   5.570   6.349
 5639SOL    HW134059   4.117   5.649   6.379
 5639SOL    HW234060   4.245   5.570   6.396
 5640SOL     OW34061   0.677   6.204   6.825
 5640SOL    HW134062   0.639   6.128   6.868
 5640SOL    HW234063   0.632   6.210   6.741
 5641SOL     OW34064   5.415   0.222   5.793
 5641SOL    HW134065   5.497   0.192   5.832
 5641SOL    HW234066   5.442   0.281   5.723
 5642SOL     OW34067   2.986   1.856   0.020
 5642SOL    HW134068   2.918   1.801   7.785
 5642SOL    HW234069   2.979   1.843   0.114
 5643SOL     OW34070   3.832   3.169   1.804
 5643SOL    HW134071   3.825   3.239   1.739
 5643SOL    HW234072   3.744   3.133   1.811
 5644SOL     OW34073   2.643   3.253   2.365
 5644SOL    HW134074   2.655   3.167   2.324
 5644SOL    HW234075   2.724   3.267   2.414
 5645SOL     OW34076   2.135   3.221   2.158
 5645SOL    HW134077   2.087   3.288   2.208
 5645SOL    HW234078   2.132   3.253   2.068
 5646SOL     OW34079   3.295   5.457   7.288
 5646SOL    HW134080   3.214   5.464   7.339
 5646SOL    HW234081   3.300   5.364   7.264
 5647SOL     OW34082   4.899   6.050   2.185
 5647SOL    HW134083   4.980   6.069   2.138
 5647SOL    HW234084   4.926   6.045   2.277
 5648SOL     OW34085   1.578   0.086   1.762
 5648SOL    HW134086   1.649   0.068   1.824
 5648SOL    HW234087   1.609   0.161   1.711
 5649SOL     OW34088   2.903   0.803   0.708
 5649SOL    HW134089   2.851   0.872   0.666
 5649SOL    HW234090   2.888   0.726   0.654
 5650SOL     OW34091   3.160   4.672   2.043
 5650SOL    HW134092   3.099   4.658   1.971
 5650SOL    HW234093   3.244   4.639   2.011
 5651SOL     OW34094   3.228   5.358   1.069
 5651SOL    HW134095   3.241   5.446   1.104
 5651SOL    HW234096   3.134   5.353   1.050
 5652SOL     OW34097   3.879   0.927   1.706
 5652SOL    HW134098   3.971   0.909   1.726
 5652SOL    HW234099   3.830   0.880   1.774
 5653SOL     OW34100   1.689   0.303   1.618
 5653SOL    HW134101   1.779   0.335   1.618
 5653SOL    HW234102   1.642   0.366   1.673
 5654SOL     OW34103   2.544   4.114   7.632
 5654SOL    HW134104   2.520   4.031   7.673
 5654SOL    HW234105   2.638   4.107   7.618
 5655SOL     OW34106   3.776   5.726   0.131
 5655SOL    HW134107   3.835   5.703   0.060
 5655SOL    HW234108   3.788   5.820   0.143
 5656MOL     C134109   4.017   3.061   7.212
 5656MOL     C234110   4.030   3.164   7.317
 5656MOL     N134111   3.944   3.225   7.038
 5656MOL     N234112   4.097   3.270   7.289
 5656MOL     C334113   3.971   3.352   7.084
 5656MOL     C434114   4.031   3.382   7.221
 5656MOL     H134115   4.105   3.461   7.206
 5656MOL     H234116   3.952   3.422   7.285
 5656MOL     C534117   3.955   2.994   6.988
 5656MOL     C634118   3.976   2.859   7.022
 5656MOL     C734119   3.975   3.095   7.083
 5656MOL     C834120   4.018   2.826   7.151
 5656MOL     C934121   4.039   2.927   7.245
 5656MOL     H334122   3.958   2.781   6.949
 5656MOL     H434123   4.071   2.900   7.346
 5656MOL     H534124   3.921   3.019   6.888
 5656MOL     O134125   3.944   3.442   7.006
 5656MOL    C1034126   3.911   3.166   7.405
 5656MOL    C1134127   3.918   3.111   7.533
 5656MOL     N334128   3.797   3.212   7.353
 5656MOL    C1234129   3.802   3.103   7.611
 5656MOL    C1334130   3.685   3.206   7.427
 5656MOL    C1434131   3.683   3.150   7.555
 5656MOL     H634132   4.013   3.073   7.571
 5656MOL     H734133   3.804   3.060   7.711
 5656MOL     H834134   3.594   3.244   7.381
 5656MOL     H934135   3.590   3.146   7.611
 5656MOL    H1034136   3.885   3.227   6.956
 5656MOL    BR134137   4.046   2.643   7.197
 5656MOL     EP34138   4.076   2.450   7.246
   6.44792   6.44792   7.80269
